<event>
 3    0  0.1521789E+001  0.1250000E+03  0.7546771E-02  0.1235069E+00
         21   -1    0    0  502  501  0.00000000000E+00  0.00000000000E+00  0.95895892168E+01  0.95895892168E+01  0.00000000000E+00 0. -1.
         21   -1    0    0  501  502 -0.00000000000E+00 -0.00000000000E+00 -0.40734278723E+03  0.40734278723E+03  0.00000000000E+00 0. -1.
         25    1    1    2    0    0  0.00000000000E+00  0.00000000000E+00 -0.39775319802E+03  0.41693237645E+03  0.12500000000E+03 0.  0.
<mgrwt>
<rscale>  2 0.12500000E+03</rscale>
<asrwt>0</asrwt>
<pdfrwt beam="1">  1       21 0.14753214E-02 0.12500000E+03</pdfrwt>
<pdfrwt beam="2">  1       21 0.62668124E-01 0.12500000E+03</pdfrwt>
<totfact> 0.46938155E+06</totfact>
</mgrwt>
</event>
<event>
 3    0  0.1368989E+001  0.1250000E+03  0.7546771E-02  0.1235069E+00
         21   -1    0    0  502  501  0.00000000000E+00  0.00000000000E+00  0.13973589304E+04  0.13973589304E+04  0.00000000000E+00 0. -1.
         21   -1    0    0  501  502 -0.00000000000E+00 -0.00000000000E+00 -0.27954521312E+01  0.27954521312E+01  0.00000000000E+00 0. -1.
         25    1    1    2    0    0  0.00000000000E+00  0.00000000000E+00  0.13945634783E+04  0.14001543825E+04  0.12500000000E+03 0.  0.
<mgrwt>
<rscale>  2 0.12500000E+03</rscale>
<asrwt>0</asrwt>
<pdfrwt beam="1">  1       21 0.21497774E+00 0.12500000E+03</pdfrwt>
<pdfrwt beam="2">  1       21 0.43007068E-03 0.12500000E+03</pdfrwt>
<totfact> 0.15542322E+06</totfact>
</mgrwt>
</event>
<event>
 3    0  0.1405771E+001  0.1250000E+03  0.7546771E-02  0.1235069E+00
         21   -1    0    0  502  501  0.00000000000E+00  0.00000000000E+00  0.67799718153E+03  0.67799718153E+03  0.00000000000E+00 0.  1.
         21   -1    0    0  501  502 -0.00000000000E+00 -0.00000000000E+00 -0.57614546290E+01  0.57614546290E+01  0.00000000000E+00 0.  1.
         25    1    1    2    0    0  0.00000000000E+00  0.00000000000E+00  0.67223572690E+03  0.68375863616E+03  0.12500000000E+03 0.  0.
<mgrwt>
<rscale>  2 0.12500000E+03</rscale>
<asrwt>0</asrwt>
<pdfrwt beam="1">  1       21 0.10430720E+00 0.12500000E+03</pdfrwt>
<pdfrwt beam="2">  1       21 0.88637817E-03 0.12500000E+03</pdfrwt>
<totfact> 0.33545775E+06</totfact>
</mgrwt>
</event>
<event>
 3    0  0.1525899E+001  0.1250000E+03  0.7546771E-02  0.1235069E+00
         21   -1    0    0  502  501  0.00000000000E+00  0.00000000000E+00  0.44374556541E+03  0.44374556541E+03  0.00000000000E+00 0.  1.
         21   -1    0    0  501  502 -0.00000000000E+00 -0.00000000000E+00 -0.88029048727E+01  0.88029048727E+01  0.00000000000E+00 0.  1.
         25    1    1    2    0    0  0.00000000000E+00  0.00000000000E+00  0.43494266054E+03  0.45254847028E+03  0.12500000000E+03 0.  0.
<mgrwt>
<rscale>  2 0.12500000E+03</rscale>
<asrwt>0</asrwt>
<pdfrwt beam="1">  1       21 0.68268531E-01 0.12500000E+03</pdfrwt>
<pdfrwt beam="2">  1       21 0.13542934E-02 0.12500000E+03</pdfrwt>
<totfact> 0.44740173E+06</totfact>
</mgrwt>
</event>
<event>
 3    0  0.1700553E+001  0.1250000E+03  0.7546771E-02  0.1235069E+00
         21   -1    0    0  502  501  0.00000000000E+00  0.00000000000E+00  0.84904988216E+02  0.84904988216E+02  0.00000000000E+00 0. -1.
         21   -1    0    0  501  502 -0.00000000000E+00 -0.00000000000E+00 -0.46007308665E+02  0.46007308665E+02  0.00000000000E+00 0. -1.
         25    1    1    2    0    0  0.00000000000E+00  0.00000000000E+00  0.38897679551E+02  0.13091229688E+03  0.12500000000E+03 0.  0.
<mgrwt>
<rscale>  2 0.12500000E+03</rscale>
<asrwt>0</asrwt>
<pdfrwt beam="1">  1       21 0.13062306E-01 0.12500000E+03</pdfrwt>
<pdfrwt beam="2">  1       21 0.70780475E-02 0.12500000E+03</pdfrwt>
<totfact> 0.73242492E+06</totfact>
</mgrwt>
</event>
<event>
 3    0  0.1726876E+001  0.1250000E+03  0.7546771E-02  0.1235069E+00
         21   -1    0    0  502  501  0.00000000000E+00  0.00000000000E+00  0.74723496412E+02  0.74723496412E+02  0.00000000000E+00 0.  1.
         21   -1    0    0  501  502 -0.00000000000E+00 -0.00000000000E+00 -0.52276060243E+02  0.52276060243E+02  0.00000000000E+00 0.  1.
         25    1    1    2    0    0  0.00000000000E+00  0.00000000000E+00  0.22447436169E+02  0.12699955666E+03  0.12500000000E+03 0.  0.
<mgrwt>
<rscale>  2 0.12500000E+03</rscale>
<asrwt>0</asrwt>
<pdfrwt beam="1">  1       21 0.11495923E-01 0.12500000E+03</pdfrwt>
<pdfrwt beam="2">  1       21 0.80424708E-02 0.12500000E+03</pdfrwt>
<totfact> 0.73769196E+06</totfact>
</mgrwt>
</event>
<event>
 3    0  0.1542841E+001  0.1250000E+03  0.7546771E-02  0.1235069E+00
         21   -1    0    0  502  501  0.00000000000E+00  0.00000000000E+00  0.38712249438E+03  0.38712249438E+03  0.00000000000E+00 0.  1.
         21   -1    0    0  501  502 -0.00000000000E+00 -0.00000000000E+00 -0.10090475384E+02  0.10090475384E+02  0.00000000000E+00 0.  1.
         25    1    1    2    0    0  0.00000000000E+00  0.00000000000E+00  0.37703201899E+03  0.39721296976E+03  0.12500000000E+03 0.  0.
<mgrwt>
<rscale>  2 0.12500000E+03</rscale>
<asrwt>0</asrwt>
<pdfrwt beam="1">  1       21 0.59557295E-01 0.12500000E+03</pdfrwt>
<pdfrwt beam="2">  1       21 0.15523811E-02 0.12500000E+03</pdfrwt>
<totfact> 0.48226767E+06</totfact>
</mgrwt>
</event>
<event>
 3    0  0.1442215E+001  0.1250000E+03  0.7546771E-02  0.1235069E+00
         21   -1    0    0  502  501  0.00000000000E+00  0.00000000000E+00  0.61447066837E+03  0.61447066837E+03  0.00000000000E+00 0.  1.
         21   -1    0    0  501  502 -0.00000000000E+00 -0.00000000000E+00 -0.63570975819E+01  0.63570975819E+01  0.00000000000E+00 0.  1.
         25    1    1    2    0    0  0.00000000000E+00  0.00000000000E+00  0.60811357078E+03  0.62082776595E+03  0.12500000000E+03 0.  0.
<mgrwt>
<rscale>  2 0.12500000E+03</rscale>
<asrwt>0</asrwt>
<pdfrwt beam="1">  1       21 0.94533902E-01 0.12500000E+03</pdfrwt>
<pdfrwt beam="2">  1       21 0.97801550E-03 0.12500000E+03</pdfrwt>
<totfact> 0.36167359E+06</totfact>
</mgrwt>
</event>
<event>
 3    0  0.1690109E+001  0.1250000E+03  0.7546771E-02  0.1235069E+00
         21   -1    0    0  502  501  0.00000000000E+00  0.00000000000E+00  0.33396283499E+02  0.33396283499E+02  0.00000000000E+00 0. -1.
         21   -1    0    0  501  502 -0.00000000000E+00 -0.00000000000E+00 -0.11696660798E+03  0.11696660798E+03  0.00000000000E+00 0. -1.
         25    1    1    2    0    0  0.00000000000E+00  0.00000000000E+00 -0.83570324482E+02  0.15036289148E+03  0.12500000000E+03 0.  0.
<mgrwt>
<rscale>  2 0.12500000E+03</rscale>
<asrwt>0</asrwt>
<pdfrwt beam="1">  1       21 0.51378898E-02 0.12500000E+03</pdfrwt>
<pdfrwt beam="2">  1       21 0.17994863E-01 0.12500000E+03</pdfrwt>
<totfact> 0.70713645E+06</totfact>
</mgrwt>
</event>
<event>
 3    0  0.1703407E+001  0.1250000E+03  0.7546771E-02  0.1235069E+00
         21   -1    0    0  502  501  0.00000000000E+00  0.00000000000E+00  0.53010983248E+02  0.53010983248E+02  0.00000000000E+00 0. -1.
         21   -1    0    0  501  502 -0.00000000000E+00 -0.00000000000E+00 -0.73687559836E+02  0.73687559836E+02  0.00000000000E+00 0. -1.
         25    1    1    2    0    0  0.00000000000E+00  0.00000000000E+00 -0.20676576588E+02  0.12669854308E+03  0.12500000000E+03 0.  0.
<mgrwt>
<rscale>  2 0.12500000E+03</rscale>
<asrwt>0</asrwt>
<pdfrwt beam="1">  1       21 0.81555360E-02 0.12500000E+03</pdfrwt>
<pdfrwt beam="2">  1       21 0.11336548E-01 0.12500000E+03</pdfrwt>
<totfact> 0.73810234E+06</totfact>
</mgrwt>
</event>
<event>
 3    0  0.1368989E+001  0.1250000E+03  0.7546771E-02  0.1235069E+00
         21   -1    0    0  502  501  0.00000000000E+00  0.00000000000E+00  0.23278396056E+01  0.23278396056E+01  0.00000000000E+00 0.  1.
         21   -1    0    0  501  502 -0.00000000000E+00 -0.00000000000E+00 -0.16780580546E+04  0.16780580546E+04  0.00000000000E+00 0.  1.
         25    1    1    2    0    0  0.00000000000E+00  0.00000000000E+00 -0.16757302150E+04  0.16803858942E+04  0.12500000000E+03 0.  0.
<mgrwt>
<rscale>  2 0.12500000E+03</rscale>
<asrwt>0</asrwt>
<pdfrwt beam="1">  1       21 0.35812933E-03 0.12500000E+03</pdfrwt>
<pdfrwt beam="2">  1       21 0.25816266E+00 0.12500000E+03</pdfrwt>
<totfact> 0.11516824E+06</totfact>
</mgrwt>
</event>
<event>
 3    0  0.1703487E+001  0.1250000E+03  0.7546771E-02  0.1235069E+00
         21   -1    0    0  502  501  0.00000000000E+00  0.00000000000E+00  0.69987307782E+02  0.69987307782E+02  0.00000000000E+00 0. -1.
         21   -1    0    0  501  502 -0.00000000000E+00 -0.00000000000E+00 -0.55813691422E+02  0.55813691422E+02  0.00000000000E+00 0. -1.
         25    1    1    2    0    0  0.00000000000E+00  0.00000000000E+00  0.14173616360E+02  0.12580099920E+03  0.12500000000E+03 0.  0.
<mgrwt>
<rscale>  2 0.12500000E+03</rscale>
<asrwt>0</asrwt>
<pdfrwt beam="1">  1       21 0.10767278E-01 0.12500000E+03</pdfrwt>
<pdfrwt beam="2">  1       21 0.85867218E-02 0.12500000E+03</pdfrwt>
<totfact> 0.73933533E+06</totfact>
</mgrwt>
</event>
<event>
 3    0  0.1368989E+001  0.1250000E+03  0.7546771E-02  0.1235069E+00
         21   -1    0    0  502  501  0.00000000000E+00  0.00000000000E+00  0.33987898537E+01  0.33987898537E+01  0.00000000000E+00 0. -1.
         21   -1    0    0  501  502 -0.00000000000E+00 -0.00000000000E+00 -0.11493061260E+04  0.11493061260E+04  0.00000000000E+00 0. -1.
         25    1    1    2    0    0  0.00000000000E+00  0.00000000000E+00 -0.11459073362E+04  0.11527049159E+04  0.12500000000E+03 0.  0.
<mgrwt>
<rscale>  2 0.12500000E+03</rscale>
<asrwt>0</asrwt>
<pdfrwt beam="1">  1       21 0.52289120E-03 0.12500000E+03</pdfrwt>
<pdfrwt beam="2">  1       21 0.17681617E+00 0.12500000E+03</pdfrwt>
<totfact> 0.20112142E+06</totfact>
</mgrwt>
</event>
<event>
 3    0  0.1421089E+001  0.1250000E+03  0.7546771E-02  0.1235069E+00
         21   -1    0    0  502  501  0.00000000000E+00  0.00000000000E+00  0.54602231961E+03  0.54602231961E+03  0.00000000000E+00 0. -1.
         21   -1    0    0  501  502 -0.00000000000E+00 -0.00000000000E+00 -0.71540115847E+01  0.71540115847E+01  0.00000000000E+00 0. -1.
         25    1    1    2    0    0  0.00000000000E+00  0.00000000000E+00  0.53886830802E+03  0.55317633119E+03  0.12500000000E+03 0.  0.
<mgrwt>
<rscale>  2 0.12500000E+03</rscale>
<asrwt>0</asrwt>
<pdfrwt beam="1">  1       21 0.84003402E-01 0.12500000E+03</pdfrwt>
<pdfrwt beam="2">  1       21 0.11006176E-02 0.12500000E+03</pdfrwt>
<totfact> 0.39299590E+06</totfact>
</mgrwt>
</event>
<event>
 3    0  0.1609428E+001  0.1250000E+03  0.7546771E-02  0.1235069E+00
         21   -1    0    0  502  501  0.00000000000E+00  0.00000000000E+00  0.15553829919E+02  0.15553829919E+02  0.00000000000E+00 0.  1.
         21   -1    0    0  501  502 -0.00000000000E+00 -0.00000000000E+00 -0.25114393177E+03  0.25114393177E+03  0.00000000000E+00 0.  1.
         25    1    1    2    0    0  0.00000000000E+00  0.00000000000E+00 -0.23559010185E+03  0.26669776169E+03  0.12500000000E+03 0.  0.
<mgrwt>
<rscale>  2 0.12500000E+03</rscale>
<asrwt>0</asrwt>
<pdfrwt beam="1">  1       21 0.23928970E-02 0.12500000E+03</pdfrwt>
<pdfrwt beam="2">  1       21 0.38637526E-01 0.12500000E+03</pdfrwt>
<totfact> 0.58340774E+06</totfact>
</mgrwt>
</event>
<event>
 3    0  0.1480743E+001  0.1250000E+03  0.7546771E-02  0.1235069E+00
         21   -1    0    0  502  501  0.00000000000E+00  0.00000000000E+00  0.88992304956E+01  0.88992304956E+01  0.00000000000E+00 0.  1.
         21   -1    0    0  501  502 -0.00000000000E+00 -0.00000000000E+00 -0.43894244586E+03  0.43894244586E+03  0.00000000000E+00 0.  1.
         25    1    1    2    0    0  0.00000000000E+00  0.00000000000E+00 -0.43004321537E+03  0.44784167636E+03  0.12500000000E+03 0.  0.
<mgrwt>
<rscale>  2 0.12500000E+03</rscale>
<asrwt>0</asrwt>
<pdfrwt beam="1">  1       21 0.13691124E-02 0.12500000E+03</pdfrwt>
<pdfrwt beam="2">  1       21 0.67529605E-01 0.12500000E+03</pdfrwt>
<totfact> 0.45021701E+06</totfact>
</mgrwt>
</event>
<event>
 3    0  0.1704344E+001  0.1250000E+03  0.7546771E-02  0.1235069E+00
         21   -1    0    0  502  501  0.00000000000E+00  0.00000000000E+00  0.67606763804E+02  0.67606763804E+02  0.00000000000E+00 0. -1.
         21   -1    0    0  501  502 -0.00000000000E+00 -0.00000000000E+00 -0.57778982164E+02  0.57778982164E+02  0.00000000000E+00 0. -1.
         25    1    1    2    0    0  0.00000000000E+00  0.00000000000E+00  0.98277816407E+01  0.12538574597E+03  0.12500000000E+03 0.  0.
<mgrwt>
<rscale>  2 0.12500000E+03</rscale>
<asrwt>0</asrwt>
<pdfrwt beam="1">  1       21 0.10401041E-01 0.12500000E+03</pdfrwt>
<pdfrwt beam="2">  1       21 0.88890742E-02 0.12500000E+03</pdfrwt>
<totfact> 0.73991416E+06</totfact>
</mgrwt>
</event>
<event>
 3    0  0.1368989E+001  0.1250000E+03  0.7546771E-02  0.1235069E+00
         21   -1    0    0  502  501  0.00000000000E+00  0.00000000000E+00  0.24448762478E+04  0.24448762478E+04  0.00000000000E+00 0.  1.
         21   -1    0    0  501  502 -0.00000000000E+00 -0.00000000000E+00 -0.15977291299E+01  0.15977291299E+01  0.00000000000E+00 0.  1.
         25    1    1    2    0    0  0.00000000000E+00  0.00000000000E+00  0.24432785187E+04  0.24464739769E+04  0.12500000000E+03 0.  0.
<mgrwt>
<rscale>  2 0.12500000E+03</rscale>
<asrwt>0</asrwt>
<pdfrwt beam="1">  1       21 0.37613181E+00 0.12500000E+03</pdfrwt>
<pdfrwt beam="2">  1       21 0.24580644E-03 0.12500000E+03</pdfrwt>
<totfact> 0.43576605E+05</totfact>
</mgrwt>
</event>
<event>
 3    0  0.1535387E+001  0.1250000E+03  0.7546771E-02  0.1235069E+00
         21   -1    0    0  502  501  0.00000000000E+00  0.00000000000E+00  0.37421539085E+03  0.37421539085E+03  0.00000000000E+00 0.  1.
         21   -1    0    0  501  502 -0.00000000000E+00 -0.00000000000E+00 -0.10438507062E+02  0.10438507062E+02  0.00000000000E+00 0.  1.
         25    1    1    2    0    0  0.00000000000E+00  0.00000000000E+00  0.36377688379E+03  0.38465389791E+03  0.12500000000E+03 0.  0.
<mgrwt>
<rscale>  2 0.12500000E+03</rscale>
<asrwt>0</asrwt>
<pdfrwt beam="1">  1       21 0.57571588E-01 0.12500000E+03</pdfrwt>
<pdfrwt beam="2">  1       21 0.16059245E-02 0.12500000E+03</pdfrwt>
<totfact> 0.49076184E+06</totfact>
</mgrwt>
</event>
<event>
 3    0  0.1698786E+001  0.1250000E+03  0.7546771E-02  0.1235069E+00
         21   -1    0    0  502  501  0.00000000000E+00  0.00000000000E+00  0.90362403335E+02  0.90362403335E+02  0.00000000000E+00 0. -1.
         21   -1    0    0  501  502 -0.00000000000E+00 -0.00000000000E+00 -0.43228708576E+02  0.43228708576E+02  0.00000000000E+00 0. -1.
         25    1    1    2    0    0  0.00000000000E+00  0.00000000000E+00  0.47133694759E+02  0.13359111191E+03  0.12500000000E+03 0.  0.
<mgrwt>
<rscale>  2 0.12500000E+03</rscale>
<asrwt>0</asrwt>
<pdfrwt beam="1">  1       21 0.13901908E-01 0.12500000E+03</pdfrwt>
<pdfrwt beam="2">  1       21 0.66505706E-02 0.12500000E+03</pdfrwt>
<totfact> 0.72883566E+06</totfact>
</mgrwt>
</event>
<event>
 3    0  0.1397379E+001  0.1250000E+03  0.7546771E-02  0.1235069E+00
         21   -1    0    0  502  501  0.00000000000E+00  0.00000000000E+00  0.62895212895E+03  0.62895212895E+03  0.00000000000E+00 0. -1.
         21   -1    0    0  501  502 -0.00000000000E+00 -0.00000000000E+00 -0.62107270493E+01  0.62107270493E+01  0.00000000000E+00 0. -1.
         25    1    1    2    0    0  0.00000000000E+00  0.00000000000E+00  0.62274140190E+03  0.63516285600E+03  0.12500000000E+03 0.  0.
<mgrwt>
<rscale>  2 0.12500000E+03</rscale>
<asrwt>0</asrwt>
<pdfrwt beam="1">  1       21 0.96761816E-01 0.12500000E+03</pdfrwt>
<pdfrwt beam="2">  1       21 0.95549697E-03 0.12500000E+03</pdfrwt>
<totfact> 0.35549230E+06</totfact>
</mgrwt>
</event>
<event>
 3    0  0.1579280E+001  0.1250000E+03  0.7546771E-02  0.1235069E+00
         21   -1    0    0  502  501  0.00000000000E+00  0.00000000000E+00  0.27599767379E+03  0.27599767379E+03  0.00000000000E+00 0. -1.
         21   -1    0    0  501  502 -0.00000000000E+00 -0.00000000000E+00 -0.14153198998E+02  0.14153198998E+02  0.00000000000E+00 0. -1.
         25    1    1    2    0    0  0.00000000000E+00  0.00000000000E+00  0.26184447479E+03  0.29015087279E+03  0.12500000000E+03 0.  0.
<mgrwt>
<rscale>  2 0.12500000E+03</rscale>
<asrwt>0</asrwt>
<pdfrwt beam="1">  1       21 0.42461177E-01 0.12500000E+03</pdfrwt>
<pdfrwt beam="2">  1       21 0.21774154E-02 0.12500000E+03</pdfrwt>
<totfact> 0.56284739E+06</totfact>
</mgrwt>
</event>
<event>
 3    0  0.1445808E+001  0.1250000E+03  0.7546771E-02  0.1235069E+00
         21   -1    0    0  502  501  0.00000000000E+00  0.00000000000E+00  0.50699712701E+03  0.50699712701E+03  0.00000000000E+00 0.  1.
         21   -1    0    0  501  502 -0.00000000000E+00 -0.00000000000E+00 -0.77046787682E+01  0.77046787682E+01  0.00000000000E+00 0.  1.
         25    1    1    2    0    0  0.00000000000E+00  0.00000000000E+00  0.49929244824E+03  0.51470180578E+03  0.12500000000E+03 0.  0.
<mgrwt>
<rscale>  2 0.12500000E+03</rscale>
<asrwt>0</asrwt>
<pdfrwt beam="1">  1       21 0.77999532E-01 0.12500000E+03</pdfrwt>
<pdfrwt beam="2">  1       21 0.11853356E-02 0.12500000E+03</pdfrwt>
<totfact> 0.41257828E+06</totfact>
</mgrwt>
</event>
<event>
 3    0  0.1700460E+001  0.1250000E+03  0.7546771E-02  0.1235069E+00
         21   -1    0    0  502  501  0.00000000000E+00  0.00000000000E+00  0.13224669319E+03  0.13224669319E+03  0.00000000000E+00 0.  1.
         21   -1    0    0  501  502 -0.00000000000E+00 -0.00000000000E+00 -0.29537600569E+02  0.29537600569E+02  0.00000000000E+00 0.  1.
         25    1    1    2    0    0  0.00000000000E+00  0.00000000000E+00  0.10270909262E+03  0.16178429376E+03  0.12500000000E+03 0.  0.
<mgrwt>
<rscale>  2 0.12500000E+03</rscale>
<asrwt>0</asrwt>
<pdfrwt beam="1">  1       21 0.20345645E-01 0.12500000E+03</pdfrwt>
<pdfrwt beam="2">  1       21 0.45442463E-02 0.12500000E+03</pdfrwt>
<totfact> 0.69302129E+06</totfact>
</mgrwt>
</event>
<event>
 3    0  0.1471159E+001  0.1250000E+03  0.7546771E-02  0.1235069E+00
         21   -1    0    0  502  501  0.00000000000E+00  0.00000000000E+00  0.52964785342E+03  0.52964785342E+03  0.00000000000E+00 0.  1.
         21   -1    0    0  501  502 -0.00000000000E+00 -0.00000000000E+00 -0.73751832935E+01  0.73751832935E+01  0.00000000000E+00 0.  1.
         25    1    1    2    0    0  0.00000000000E+00  0.00000000000E+00  0.52227267013E+03  0.53702303671E+03  0.12500000000E+03 0.  0.
<mgrwt>
<rscale>  2 0.12500000E+03</rscale>
<asrwt>0</asrwt>
<pdfrwt beam="1">  1       21 0.81484255E-01 0.12500000E+03</pdfrwt>
<pdfrwt beam="2">  1       21 0.11346440E-02 0.12500000E+03</pdfrwt>
<totfact> 0.40104876E+06</totfact>
</mgrwt>
</event>
<event>
 3    0  0.1722602E+001  0.1250000E+03  0.7546771E-02  0.1235069E+00
         21   -1    0    0  502  501  0.00000000000E+00  0.00000000000E+00  0.86600304080E+02  0.86600304080E+02  0.00000000000E+00 0.  1.
         21   -1    0    0  501  502 -0.00000000000E+00 -0.00000000000E+00 -0.45106654549E+02  0.45106654549E+02  0.00000000000E+00 0.  1.
         25    1    1    2    0    0  0.00000000000E+00  0.00000000000E+00  0.41493649531E+02  0.13170695863E+03  0.12500000000E+03 0.  0.
<mgrwt>
<rscale>  2 0.12500000E+03</rscale>
<asrwt>0</asrwt>
<pdfrwt beam="1">  1       21 0.13323124E-01 0.12500000E+03</pdfrwt>
<pdfrwt beam="2">  1       21 0.69394853E-02 0.12500000E+03</pdfrwt>
<totfact> 0.73135561E+06</totfact>
</mgrwt>
</event>
<event>
 3    0  0.1605660E+001  0.1250000E+03  0.7546771E-02  0.1235069E+00
         21   -1    0    0  502  501  0.00000000000E+00  0.00000000000E+00  0.12710133550E+02  0.12710133550E+02  0.00000000000E+00 0.  1.
         21   -1    0    0  501  502 -0.00000000000E+00 -0.00000000000E+00 -0.30733351343E+03  0.30733351343E+03  0.00000000000E+00 0.  1.
         25    1    1    2    0    0  0.00000000000E+00  0.00000000000E+00 -0.29462337988E+03  0.32004364698E+03  0.12500000000E+03 0.  0.
<mgrwt>
<rscale>  2 0.12500000E+03</rscale>
<asrwt>0</asrwt>
<pdfrwt beam="1">  1       21 0.19554053E-02 0.12500000E+03</pdfrwt>
<pdfrwt beam="2">  1       21 0.47282076E-01 0.12500000E+03</pdfrwt>
<totfact> 0.53829885E+06</totfact>
</mgrwt>
</event>
<event>
 3    0  0.1598554E+001  0.1250000E+03  0.7546771E-02  0.1235069E+00
         21   -1    0    0  502  501  0.00000000000E+00  0.00000000000E+00  0.26835452902E+03  0.26835452902E+03  0.00000000000E+00 0.  1.
         21   -1    0    0  501  502 -0.00000000000E+00 -0.00000000000E+00 -0.14556303612E+02  0.14556303612E+02  0.00000000000E+00 0.  1.
         25    1    1    2    0    0  0.00000000000E+00  0.00000000000E+00  0.25379822540E+03  0.28291083263E+03  0.12500000000E+03 0.  0.
<mgrwt>
<rscale>  2 0.12500000E+03</rscale>
<asrwt>0</asrwt>
<pdfrwt beam="1">  1       21 0.41285309E-01 0.12500000E+03</pdfrwt>
<pdfrwt beam="2">  1       21 0.22394315E-02 0.12500000E+03</pdfrwt>
<totfact> 0.56906942E+06</totfact>
</mgrwt>
</event>
<event>
 3    0  0.1587940E+001  0.1250000E+03  0.7546771E-02  0.1235069E+00
         21   -1    0    0  502  501  0.00000000000E+00  0.00000000000E+00  0.27219172826E+03  0.27219172826E+03  0.00000000000E+00 0. -1.
         21   -1    0    0  501  502 -0.00000000000E+00 -0.00000000000E+00 -0.14351097386E+02  0.14351097386E+02  0.00000000000E+00 0. -1.
         25    1    1    2    0    0  0.00000000000E+00  0.00000000000E+00  0.25784063088E+03  0.28654282565E+03  0.12500000000E+03 0.  0.
<mgrwt>
<rscale>  2 0.12500000E+03</rscale>
<asrwt>0</asrwt>
<pdfrwt beam="1">  1       21 0.41875647E-01 0.12500000E+03</pdfrwt>
<pdfrwt beam="2">  1       21 0.22078613E-02 0.12500000E+03</pdfrwt>
<totfact> 0.56593396E+06</totfact>
</mgrwt>
</event>
<event>
 3    0  0.1674851E+001  0.1250000E+03  0.7546771E-02  0.1235069E+00
         21   -1    0    0  502  501  0.00000000000E+00  0.00000000000E+00  0.12731660589E+03  0.12731660589E+03  0.00000000000E+00 0. -1.
         21   -1    0    0  501  502 -0.00000000000E+00 -0.00000000000E+00 -0.30681386554E+02  0.30681386554E+02  0.00000000000E+00 0. -1.
         25    1    1    2    0    0  0.00000000000E+00  0.00000000000E+00  0.96635219337E+02  0.15799799244E+03  0.12500000000E+03 0.  0.
<mgrwt>
<rscale>  2 0.12500000E+03</rscale>
<asrwt>0</asrwt>
<pdfrwt beam="1">  1       21 0.19587170E-01 0.12500000E+03</pdfrwt>
<pdfrwt beam="2">  1       21 0.47202134E-02 0.12500000E+03</pdfrwt>
<totfact> 0.69764951E+06</totfact>
</mgrwt>
</event>
<event>
 3    0  0.1696583E+001  0.1250000E+03  0.7546771E-02  0.1235069E+00
         21   -1    0    0  502  501  0.00000000000E+00  0.00000000000E+00  0.87585083190E+02  0.87585083190E+02  0.00000000000E+00 0. -1.
         21   -1    0    0  501  502 -0.00000000000E+00 -0.00000000000E+00 -0.44599489522E+02  0.44599489522E+02  0.00000000000E+00 0. -1.
         25    1    1    2    0    0  0.00000000000E+00  0.00000000000E+00  0.42985593668E+02  0.13218457271E+03  0.12500000000E+03 0.  0.
<mgrwt>
<rscale>  2 0.12500000E+03</rscale>
<asrwt>0</asrwt>
<pdfrwt beam="1">  1       21 0.13474628E-01 0.12500000E+03</pdfrwt>
<pdfrwt beam="2">  1       21 0.68614599E-02 0.12500000E+03</pdfrwt>
<totfact> 0.73071482E+06</totfact>
</mgrwt>
</event>
<event>
 3    0  0.1368989E+001  0.1250000E+03  0.7546771E-02  0.1235069E+00
         21   -1    0    0  502  501  0.00000000000E+00  0.00000000000E+00  0.26270830668E+01  0.26270830668E+01  0.00000000000E+00 0. -1.
         21   -1    0    0  501  502 -0.00000000000E+00 -0.00000000000E+00 -0.14869152976E+04  0.14869152976E+04  0.00000000000E+00 0. -1.
         25    1    1    2    0    0  0.00000000000E+00  0.00000000000E+00 -0.14842882145E+04  0.14895423806E+04  0.12500000000E+03 0.  0.
<mgrwt>
<rscale>  2 0.12500000E+03</rscale>
<asrwt>0</asrwt>
<pdfrwt beam="1">  1       21 0.40416660E-03 0.12500000E+03</pdfrwt>
<pdfrwt beam="2">  1       21 0.22875621E+00 0.12500000E+03</pdfrwt>
<totfact> 0.14149063E+06</totfact>
</mgrwt>
</event>
<event>
 3    0  0.1571887E+001  0.1250000E+03  0.7546771E-02  0.1235069E+00
         21   -1    0    0  502  501  0.00000000000E+00  0.00000000000E+00  0.13278696099E+02  0.13278696099E+02  0.00000000000E+00 0. -1.
         21   -1    0    0  501  502 -0.00000000000E+00 -0.00000000000E+00 -0.29417421492E+03  0.29417421492E+03  0.00000000000E+00 0. -1.
         25    1    1    2    0    0  0.00000000000E+00  0.00000000000E+00 -0.28089551882E+03  0.30745291102E+03  0.12500000000E+03 0.  0.
<mgrwt>
<rscale>  2 0.12500000E+03</rscale>
<asrwt>0</asrwt>
<pdfrwt beam="1">  1       21 0.20428764E-02 0.12500000E+03</pdfrwt>
<pdfrwt beam="2">  1       21 0.45257570E-01 0.12500000E+03</pdfrwt>
<totfact> 0.54842440E+06</totfact>
</mgrwt>
</event>
<event>
 3    0  0.1501208E+001  0.1250000E+03  0.7546771E-02  0.1235069E+00
         21   -1    0    0  502  501  0.00000000000E+00  0.00000000000E+00  0.47736722111E+03  0.47736722111E+03  0.00000000000E+00 0.  1.
         21   -1    0    0  501  502 -0.00000000000E+00 -0.00000000000E+00 -0.81829037002E+01  0.81829037002E+01  0.00000000000E+00 0.  1.
         25    1    1    2    0    0  0.00000000000E+00  0.00000000000E+00  0.46918431741E+03  0.48555012481E+03  0.12500000000E+03 0.  0.
<mgrwt>
<rscale>  2 0.12500000E+03</rscale>
<asrwt>0</asrwt>
<pdfrwt beam="1">  1       21 0.73441089E-01 0.12500000E+03</pdfrwt>
<pdfrwt beam="2">  1       21 0.12589086E-02 0.12500000E+03</pdfrwt>
<totfact> 0.42838727E+06</totfact>
</mgrwt>
</event>
<event>
 3    0  0.1616123E+001  0.1250000E+03  0.7546771E-02  0.1235069E+00
         21   -1    0    0  502  501  0.00000000000E+00  0.00000000000E+00  0.21769849463E+03  0.21769849463E+03  0.00000000000E+00 0. -1.
         21   -1    0    0  501  502 -0.00000000000E+00 -0.00000000000E+00 -0.17943394632E+02  0.17943394632E+02  0.00000000000E+00 0. -1.
         25    1    1    2    0    0  0.00000000000E+00  0.00000000000E+00  0.19975510000E+03  0.23564188926E+03  0.12500000000E+03 0.  0.
<mgrwt>
<rscale>  2 0.12500000E+03</rscale>
<asrwt>0</asrwt>
<pdfrwt beam="1">  1       21 0.33492074E-01 0.12500000E+03</pdfrwt>
<pdfrwt beam="2">  1       21 0.27605224E-02 0.12500000E+03</pdfrwt>
<totfact> 0.61256955E+06</totfact>
</mgrwt>
</event>
<event>
 3    0  0.1557394E+001  0.1250000E+03  0.7546771E-02  0.1235069E+00
         21   -1    0    0  502  501  0.00000000000E+00  0.00000000000E+00  0.11861151542E+02  0.11861151542E+02  0.00000000000E+00 0. -1.
         21   -1    0    0  501  502 -0.00000000000E+00 -0.00000000000E+00 -0.32933143011E+03  0.32933143011E+03  0.00000000000E+00 0. -1.
         25    1    1    2    0    0  0.00000000000E+00  0.00000000000E+00 -0.31747027857E+03  0.34119258165E+03  0.12500000000E+03 0.  0.
<mgrwt>
<rscale>  2 0.12500000E+03</rscale>
<asrwt>0</asrwt>
<pdfrwt beam="1">  1       21 0.18247929E-02 0.12500000E+03</pdfrwt>
<pdfrwt beam="2">  1       21 0.50666364E-01 0.12500000E+03</pdfrwt>
<totfact> 0.52195539E+06</totfact>
</mgrwt>
</event>
<event>
 3    0  0.1608437E+001  0.1250000E+03  0.7546771E-02  0.1235069E+00
         21   -1    0    0  502  501  0.00000000000E+00  0.00000000000E+00  0.26408304614E+03  0.26408304614E+03  0.00000000000E+00 0.  1.
         21   -1    0    0  501  502 -0.00000000000E+00 -0.00000000000E+00 -0.14791748494E+02  0.14791748494E+02  0.00000000000E+00 0.  1.
         25    1    1    2    0    0  0.00000000000E+00  0.00000000000E+00  0.24929129765E+03  0.27887479463E+03  0.12500000000E+03 0.  0.
<mgrwt>
<rscale>  2 0.12500000E+03</rscale>
<asrwt>0</asrwt>
<pdfrwt beam="1">  1       21 0.40628158E-01 0.12500000E+03</pdfrwt>
<pdfrwt beam="2">  1       21 0.22756538E-02 0.12500000E+03</pdfrwt>
<totfact> 0.57258763E+06</totfact>
</mgrwt>
</event>
<event>
 3    0  0.1729633E+001  0.1250000E+03  0.7546771E-02  0.1235069E+00
         21   -1    0    0  502  501  0.00000000000E+00  0.00000000000E+00  0.65894857817E+02  0.65894857817E+02  0.00000000000E+00 0.  1.
         21   -1    0    0  501  502 -0.00000000000E+00 -0.00000000000E+00 -0.59280042926E+02  0.59280042926E+02  0.00000000000E+00 0.  1.
         25    1    1    2    0    0  0.00000000000E+00  0.00000000000E+00  0.66148148905E+01  0.12517490074E+03  0.12500000000E+03 0.  0.
<mgrwt>
<rscale>  2 0.12500000E+03</rscale>
<asrwt>0</asrwt>
<pdfrwt beam="1">  1       21 0.10137670E-01 0.12500000E+03</pdfrwt>
<pdfrwt beam="2">  1       21 0.91200066E-02 0.12500000E+03</pdfrwt>
<totfact> 0.74019961E+06</totfact>
</mgrwt>
</event>
<event>
 3    0  0.1726851E+001  0.1250000E+03  0.7546771E-02  0.1235069E+00
         21   -1    0    0  502  501  0.00000000000E+00  0.00000000000E+00  0.78101381311E+02  0.78101381311E+02  0.00000000000E+00 0.  1.
         21   -1    0    0  501  502 -0.00000000000E+00 -0.00000000000E+00 -0.50015120532E+02  0.50015120532E+02  0.00000000000E+00 0.  1.
         25    1    1    2    0    0  0.00000000000E+00  0.00000000000E+00  0.28086260779E+02  0.12811650184E+03  0.12500000000E+03 0.  0.
<mgrwt>
<rscale>  2 0.12500000E+03</rscale>
<asrwt>0</asrwt>
<pdfrwt beam="1">  1       21 0.12015597E-01 0.12500000E+03</pdfrwt>
<pdfrwt beam="2">  1       21 0.76946340E-02 0.12500000E+03</pdfrwt>
<totfact> 0.73617827E+06</totfact>
</mgrwt>
</event>
<event>
 3    0  0.1727129E+001  0.1250000E+03  0.7546771E-02  0.1235069E+00
         21   -1    0    0  502  501  0.00000000000E+00  0.00000000000E+00  0.71362531485E+02  0.71362531485E+02  0.00000000000E+00 0.  1.
         21   -1    0    0  501  502 -0.00000000000E+00 -0.00000000000E+00 -0.54738108623E+02  0.54738108623E+02  0.00000000000E+00 0.  1.
         25    1    1    2    0    0  0.00000000000E+00  0.00000000000E+00  0.16624422862E+02  0.12610064011E+03  0.12500000000E+03 0.  0.
<mgrwt>
<rscale>  2 0.12500000E+03</rscale>
<asrwt>0</asrwt>
<pdfrwt beam="1">  1       21 0.10978851E-01 0.12500000E+03</pdfrwt>
<pdfrwt beam="2">  1       21 0.84212475E-02 0.12500000E+03</pdfrwt>
<totfact> 0.73892174E+06</totfact>
</mgrwt>
</event>
<event>
 3    0  0.1718791E+001  0.1250000E+03  0.7546771E-02  0.1235069E+00
         21   -1    0    0  502  501  0.00000000000E+00  0.00000000000E+00  0.10042942983E+03  0.10042942983E+03  0.00000000000E+00 0.  1.
         21   -1    0    0  501  502 -0.00000000000E+00 -0.00000000000E+00 -0.38895471244E+02  0.38895471244E+02  0.00000000000E+00 0.  1.
         25    1    1    2    0    0  0.00000000000E+00  0.00000000000E+00  0.61533958585E+02  0.13932490107E+03  0.12500000000E+03 0.  0.
<mgrwt>
<rscale>  2 0.12500000E+03</rscale>
<asrwt>0</asrwt>
<pdfrwt beam="1">  1       21 0.15450681E-01 0.12500000E+03</pdfrwt>
<pdfrwt beam="2">  1       21 0.59839187E-02 0.12500000E+03</pdfrwt>
<totfact> 0.72127564E+06</totfact>
</mgrwt>
</event>
<event>
 3    0  0.1368989E+001  0.1250000E+03  0.7546771E-02  0.1235069E+00
         21   -1    0    0  502  501  0.00000000000E+00  0.00000000000E+00  0.92891720576E+03  0.92891720576E+03  0.00000000000E+00 0.  1.
         21   -1    0    0  501  502 -0.00000000000E+00 -0.00000000000E+00 -0.42051648692E+01  0.42051648692E+01  0.00000000000E+00 0.  1.
         25    1    1    2    0    0  0.00000000000E+00  0.00000000000E+00  0.92471204089E+03  0.93312237063E+03  0.12500000000E+03 0.  0.
<mgrwt>
<rscale>  2 0.12500000E+03</rscale>
<asrwt>0</asrwt>
<pdfrwt beam="1">  1       21 0.14291018E+00 0.12500000E+03</pdfrwt>
<pdfrwt beam="2">  1       21 0.64694918E-03 0.12500000E+03</pdfrwt>
<totfact> 0.25368822E+06</totfact>
</mgrwt>
</event>
<event>
 3    0  0.1368989E+001  0.1250000E+03  0.7546771E-02  0.1235069E+00
         21   -1    0    0  502  501  0.00000000000E+00  0.00000000000E+00  0.20921569910E+04  0.20921569910E+04  0.00000000000E+00 0.  1.
         21   -1    0    0  501  502 -0.00000000000E+00 -0.00000000000E+00 -0.18670922005E+01  0.18670922005E+01  0.00000000000E+00 0.  1.
         25    1    1    2    0    0  0.00000000000E+00  0.00000000000E+00  0.20902898988E+04  0.20940240832E+04  0.12500000000E+03 0.  0.
<mgrwt>
<rscale>  2 0.12500000E+03</rscale>
<asrwt>0</asrwt>
<pdfrwt beam="1">  1       21 0.32186843E+00 0.12500000E+03</pdfrwt>
<pdfrwt beam="2">  1       21 0.28724663E-03 0.12500000E+03</pdfrwt>
<totfact> 0.70672553E+05</totfact>
</mgrwt>
</event>
<event>
 3    0  0.1534511E+001  0.1250000E+03  0.7546771E-02  0.1235069E+00
         21   -1    0    0  502  501  0.00000000000E+00  0.00000000000E+00  0.11147756645E+02  0.11147756645E+02  0.00000000000E+00 0.  1.
         21   -1    0    0  501  502 -0.00000000000E+00 -0.00000000000E+00 -0.35040682393E+03  0.35040682393E+03  0.00000000000E+00 0.  1.
         25    1    1    2    0    0  0.00000000000E+00  0.00000000000E+00 -0.33925906728E+03  0.36155458057E+03  0.12500000000E+03 0.  0.
<mgrwt>
<rscale>  2 0.12500000E+03</rscale>
<asrwt>0</asrwt>
<pdfrwt beam="1">  1       21 0.17150395E-02 0.12500000E+03</pdfrwt>
<pdfrwt beam="2">  1       21 0.53908743E-01 0.12500000E+03</pdfrwt>
<totfact> 0.50696251E+06</totfact>
</mgrwt>
</event>
<event>
 3    0  0.1540755E+001  0.1250000E+03  0.7546771E-02  0.1235069E+00
         21   -1    0    0  502  501  0.00000000000E+00  0.00000000000E+00  0.95550877856E+01  0.95550877856E+01  0.00000000000E+00 0.  1.
         21   -1    0    0  501  502 -0.00000000000E+00 -0.00000000000E+00 -0.40881361717E+03  0.40881361717E+03  0.00000000000E+00 0.  1.
         25    1    1    2    0    0  0.00000000000E+00  0.00000000000E+00 -0.39925852938E+03  0.41836870495E+03  0.12500000000E+03 0.  0.
<mgrwt>
<rscale>  2 0.12500000E+03</rscale>
<asrwt>0</asrwt>
<pdfrwt beam="1">  1       21 0.14700131E-02 0.12500000E+03</pdfrwt>
<pdfrwt beam="2">  1       21 0.62894421E-01 0.12500000E+03</pdfrwt>
<totfact> 0.46846364E+06</totfact>
</mgrwt>
</event>
<event>
 3    0  0.1532403E+001  0.1250000E+03  0.7546771E-02  0.1235069E+00
         21   -1    0    0  502  501  0.00000000000E+00  0.00000000000E+00  0.11116007375E+02  0.11116007375E+02  0.00000000000E+00 0.  1.
         21   -1    0    0  501  502 -0.00000000000E+00 -0.00000000000E+00 -0.35140764739E+03  0.35140764739E+03  0.00000000000E+00 0.  1.
         25    1    1    2    0    0  0.00000000000E+00  0.00000000000E+00 -0.34029164001E+03  0.36252365476E+03  0.12500000000E+03 0.  0.
<mgrwt>
<rscale>  2 0.12500000E+03</rscale>
<asrwt>0</asrwt>
<pdfrwt beam="1">  1       21 0.17101549E-02 0.12500000E+03</pdfrwt>
<pdfrwt beam="2">  1       21 0.54062717E-01 0.12500000E+03</pdfrwt>
<totfact> 0.50626615E+06</totfact>
</mgrwt>
</event>
<event>
 3    0  0.1626130E+001  0.1250000E+03  0.7546771E-02  0.1235069E+00
         21   -1    0    0  502  501  0.00000000000E+00  0.00000000000E+00  0.19056760206E+02  0.19056760206E+02  0.00000000000E+00 0. -1.
         21   -1    0    0  501  502 -0.00000000000E+00 -0.00000000000E+00 -0.20497975300E+03  0.20497975300E+03  0.00000000000E+00 0. -1.
         25    1    1    2    0    0  0.00000000000E+00  0.00000000000E+00 -0.18592299280E+03  0.22403651321E+03  0.12500000000E+03 0.  0.
<mgrwt>
<rscale>  2 0.12500000E+03</rscale>
<asrwt>0</asrwt>
<pdfrwt beam="1">  1       21 0.29318092E-02 0.12500000E+03</pdfrwt>
<pdfrwt beam="2">  1       21 0.31535347E-01 0.12500000E+03</pdfrwt>
<totfact> 0.62412316E+06</totfact>
</mgrwt>
</event>
<event>
 3    0  0.1705687E+001  0.1250000E+03  0.7546771E-02  0.1235069E+00
         21   -1    0    0  502  501  0.00000000000E+00  0.00000000000E+00  0.60877059423E+02  0.60877059423E+02  0.00000000000E+00 0. -1.
         21   -1    0    0  501  502 -0.00000000000E+00 -0.00000000000E+00 -0.64166207057E+02  0.64166207057E+02  0.00000000000E+00 0. -1.
         25    1    1    2    0    0  0.00000000000E+00  0.00000000000E+00 -0.32891476340E+01  0.12504326648E+03  0.12500000000E+03 0.  0.
<mgrwt>
<rscale>  2 0.12500000E+03</rscale>
<asrwt>0</asrwt>
<pdfrwt beam="1">  1       21 0.93657014E-02 0.12500000E+03</pdfrwt>
<pdfrwt beam="2">  1       21 0.98717242E-02 0.12500000E+03</pdfrwt>
<totfact> 0.74037737E+06</totfact>
</mgrwt>
</event>
<event>
 3    0  0.1368989E+001  0.1250000E+03  0.7546771E-02  0.1235069E+00
         21   -1    0    0  502  501  0.00000000000E+00  0.00000000000E+00  0.50177468655E+01  0.50177468655E+01  0.00000000000E+00 0. -1.
         21   -1    0    0  501  502 -0.00000000000E+00 -0.00000000000E+00 -0.77848685968E+03  0.77848685968E+03  0.00000000000E+00 0. -1.
         25    1    1    2    0    0  0.00000000000E+00  0.00000000000E+00 -0.77346911281E+03  0.78350460654E+03  0.12500000000E+03 0.  0.
<mgrwt>
<rscale>  2 0.12500000E+03</rscale>
<asrwt>0</asrwt>
<pdfrwt beam="1">  1       21 0.77196113E-03 0.12500000E+03</pdfrwt>
<pdfrwt beam="2">  1       21 0.11976720E+00 0.12500000E+03</pdfrwt>
<totfact> 0.29916682E+06</totfact>
</mgrwt>
</event>
<event>
 3    0  0.1701637E+001  0.1250000E+03  0.7546771E-02  0.1235069E+00
         21   -1    0    0  502  501  0.00000000000E+00  0.00000000000E+00  0.78650120907E+02  0.78650120907E+02  0.00000000000E+00 0. -1.
         21   -1    0    0  501  502 -0.00000000000E+00 -0.00000000000E+00 -0.49666166497E+02  0.49666166497E+02  0.00000000000E+00 0. -1.
         25    1    1    2    0    0  0.00000000000E+00  0.00000000000E+00  0.28983954410E+02  0.12831628740E+03  0.12500000000E+03 0.  0.
<mgrwt>
<rscale>  2 0.12500000E+03</rscale>
<asrwt>0</asrwt>
<pdfrwt beam="1">  1       21 0.12100019E-01 0.12500000E+03</pdfrwt>
<pdfrwt beam="2">  1       21 0.76409487E-02 0.12500000E+03</pdfrwt>
<totfact> 0.73590876E+06</totfact>
</mgrwt>
</event>
<event>
 3    0  0.1629842E+001  0.1250000E+03  0.7546771E-02  0.1235069E+00
         21   -1    0    0  502  501  0.00000000000E+00  0.00000000000E+00  0.18396803849E+02  0.18396803849E+02  0.00000000000E+00 0. -1.
         21   -1    0    0  501  502 -0.00000000000E+00 -0.00000000000E+00 -0.21233307872E+03  0.21233307872E+03  0.00000000000E+00 0. -1.
         25    1    1    2    0    0  0.00000000000E+00  0.00000000000E+00 -0.19393627487E+03  0.23072988257E+03  0.12500000000E+03 0.  0.
<mgrwt>
<rscale>  2 0.12500000E+03</rscale>
<asrwt>0</asrwt>
<pdfrwt beam="1">  1       21 0.28302779E-02 0.12500000E+03</pdfrwt>
<pdfrwt beam="2">  1       21 0.32666623E-01 0.12500000E+03</pdfrwt>
<totfact> 0.61741421E+06</totfact>
</mgrwt>
</event>
<event>
 3    0  0.1500463E+001  0.1250000E+03  0.7546771E-02  0.1235069E+00
         21   -1    0    0  502  501  0.00000000000E+00  0.00000000000E+00  0.93456160411E+01  0.93456160411E+01  0.00000000000E+00 0. -1.
         21   -1    0    0  501  502 -0.00000000000E+00 -0.00000000000E+00 -0.41797672650E+03  0.41797672650E+03  0.00000000000E+00 0. -1.
         25    1    1    2    0    0  0.00000000000E+00  0.00000000000E+00 -0.40863111046E+03  0.42732234254E+03  0.12500000000E+03 0.  0.
<mgrwt>
<rscale>  2 0.12500000E+03</rscale>
<asrwt>0</asrwt>
<pdfrwt beam="1">  1       21 0.14377871E-02 0.12500000E+03</pdfrwt>
<pdfrwt beam="2">  1       21 0.64304112E-01 0.12500000E+03</pdfrwt>
<totfact> 0.46280362E+06</totfact>
</mgrwt>
</event>
<event>
 3    0  0.1673641E+001  0.1250000E+03  0.7546771E-02  0.1235069E+00
         21   -1    0    0  502  501  0.00000000000E+00  0.00000000000E+00  0.27293192822E+02  0.27293192822E+02  0.00000000000E+00 0. -1.
         21   -1    0    0  501  502 -0.00000000000E+00 -0.00000000000E+00 -0.14312176760E+03  0.14312176760E+03  0.00000000000E+00 0. -1.
         25    1    1    2    0    0  0.00000000000E+00  0.00000000000E+00 -0.11582857477E+03  0.17041496042E+03  0.12500000000E+03 0.  0.
<mgrwt>
<rscale>  2 0.12500000E+03</rscale>
<asrwt>0</asrwt>
<pdfrwt beam="1">  1       21 0.41989527E-02 0.12500000E+03</pdfrwt>
<pdfrwt beam="2">  1       21 0.22018734E-01 0.12500000E+03</pdfrwt>
<totfact> 0.68268478E+06</totfact>
</mgrwt>
</event>
<event>
 3    0  0.1587807E+001  0.1250000E+03  0.7546771E-02  0.1235069E+00
         21   -1    0    0  502  501  0.00000000000E+00  0.00000000000E+00  0.14832287852E+02  0.14832287852E+02  0.00000000000E+00 0. -1.
         21   -1    0    0  501  502 -0.00000000000E+00 -0.00000000000E+00 -0.26336125882E+03  0.26336125882E+03  0.00000000000E+00 0. -1.
         25    1    1    2    0    0  0.00000000000E+00  0.00000000000E+00 -0.24852897097E+03  0.27819354667E+03  0.12500000000E+03 0.  0.
<mgrwt>
<rscale>  2 0.12500000E+03</rscale>
<asrwt>0</asrwt>
<pdfrwt beam="1">  1       21 0.22818907E-02 0.12500000E+03</pdfrwt>
<pdfrwt beam="2">  1       21 0.40517111E-01 0.12500000E+03</pdfrwt>
<totfact> 0.57318505E+06</totfact>
</mgrwt>
</event>
<event>
 3    0  0.1368989E+001  0.1250000E+03  0.7546771E-02  0.1235069E+00
         21   -1    0    0  502  501  0.00000000000E+00  0.00000000000E+00  0.86495286709E+03  0.86495286709E+03  0.00000000000E+00 0. -1.
         21   -1    0    0  501  502 -0.00000000000E+00 -0.00000000000E+00 -0.45161420334E+01  0.45161420334E+01  0.00000000000E+00 0. -1.
         25    1    1    2    0    0  0.00000000000E+00  0.00000000000E+00  0.86043672506E+03  0.86946900913E+03  0.12500000000E+03 0.  0.
<mgrwt>
<rscale>  2 0.12500000E+03</rscale>
<asrwt>0</asrwt>
<pdfrwt beam="1">  1       21 0.13306954E+00 0.12500000E+03</pdfrwt>
<pdfrwt beam="2">  1       21 0.69479177E-03 0.12500000E+03</pdfrwt>
<totfact> 0.27186077E+06</totfact>
</mgrwt>
</event>
<event>
 3    0  0.1503578E+001  0.1250000E+03  0.7546771E-02  0.1235069E+00
         21   -1    0    0  502  501  0.00000000000E+00  0.00000000000E+00  0.42707089250E+03  0.42707089250E+03  0.00000000000E+00 0.  1.
         21   -1    0    0  501  502 -0.00000000000E+00 -0.00000000000E+00 -0.91466079019E+01  0.91466079019E+01  0.00000000000E+00 0.  1.
         25    1    1    2    0    0  0.00000000000E+00  0.00000000000E+00  0.41792428460E+03  0.43621750040E+03  0.12500000000E+03 0.  0.
<mgrwt>
<rscale>  2 0.12500000E+03</rscale>
<asrwt>0</asrwt>
<pdfrwt beam="1">  1       21 0.65703199E-01 0.12500000E+03</pdfrwt>
<pdfrwt beam="2">  1       21 0.14071708E-02 0.12500000E+03</pdfrwt>
<totfact> 0.45728337E+06</totfact>
</mgrwt>
</event>
<event>
 3    0  0.1368989E+001  0.1250000E+03  0.7546771E-02  0.1235069E+00
         21   -1    0    0  502  501  0.00000000000E+00  0.00000000000E+00  0.16565034500E+04  0.16565034500E+04  0.00000000000E+00 0.  1.
         21   -1    0    0  501  502 -0.00000000000E+00 -0.00000000000E+00 -0.23581297100E+01  0.23581297100E+01  0.00000000000E+00 0.  1.
         25    1    1    2    0    0  0.00000000000E+00  0.00000000000E+00  0.16541453202E+04  0.16588615797E+04  0.12500000000E+03 0.  0.
<mgrwt>
<rscale>  2 0.12500000E+03</rscale>
<asrwt>0</asrwt>
<pdfrwt beam="1">  1       21 0.25484576E+00 0.12500000E+03</pdfrwt>
<pdfrwt beam="2">  1       21 0.36279051E-03 0.12500000E+03</pdfrwt>
<totfact> 0.11792855E+06</totfact>
</mgrwt>
</event>
<event>
 3    0  0.1625214E+001  0.1250000E+03  0.7546771E-02  0.1235069E+00
         21   -1    0    0  502  501  0.00000000000E+00  0.00000000000E+00  0.15982120410E+02  0.15982120410E+02  0.00000000000E+00 0.  1.
         21   -1    0    0  501  502 -0.00000000000E+00 -0.00000000000E+00 -0.24441375110E+03  0.24441375110E+03  0.00000000000E+00 0.  1.
         25    1    1    2    0    0  0.00000000000E+00  0.00000000000E+00 -0.22843163069E+03  0.26039587151E+03  0.12500000000E+03 0.  0.
<mgrwt>
<rscale>  2 0.12500000E+03</rscale>
<asrwt>0</asrwt>
<pdfrwt beam="1">  1       21 0.24587877E-02 0.12500000E+03</pdfrwt>
<pdfrwt beam="2">  1       21 0.37602116E-01 0.12500000E+03</pdfrwt>
<totfact> 0.58913005E+06</totfact>
</mgrwt>
</event>
<event>
 3    0  0.1719464E+001  0.1250000E+03  0.7546771E-02  0.1235069E+00
         21   -1    0    0  502  501  0.00000000000E+00  0.00000000000E+00  0.92667493183E+02  0.92667493183E+02  0.00000000000E+00 0.  1.
         21   -1    0    0  501  502 -0.00000000000E+00 -0.00000000000E+00 -0.42153401002E+02  0.42153401002E+02  0.00000000000E+00 0.  1.
         25    1    1    2    0    0  0.00000000000E+00  0.00000000000E+00  0.50514092181E+02  0.13482089418E+03  0.12500000000E+03 0.  0.
<mgrwt>
<rscale>  2 0.12500000E+03</rscale>
<asrwt>0</asrwt>
<pdfrwt beam="1">  1       21 0.14256537E-01 0.12500000E+03</pdfrwt>
<pdfrwt beam="2">  1       21 0.64851386E-02 0.12500000E+03</pdfrwt>
<totfact> 0.72720195E+06</totfact>
</mgrwt>
</event>
<event>
 3    0  0.1686122E+001  0.1250000E+03  0.7546771E-02  0.1235069E+00
         21   -1    0    0  502  501  0.00000000000E+00  0.00000000000E+00  0.34189502255E+02  0.34189502255E+02  0.00000000000E+00 0. -1.
         21   -1    0    0  501  502 -0.00000000000E+00 -0.00000000000E+00 -0.11425290637E+03  0.11425290637E+03  0.00000000000E+00 0. -1.
         25    1    1    2    0    0  0.00000000000E+00  0.00000000000E+00 -0.80063404116E+02  0.14844240863E+03  0.12500000000E+03 0.  0.
<mgrwt>
<rscale>  2 0.12500000E+03</rscale>
<asrwt>0</asrwt>
<pdfrwt beam="1">  1       21 0.52599234E-02 0.12500000E+03</pdfrwt>
<pdfrwt beam="2">  1       21 0.17577370E-01 0.12500000E+03</pdfrwt>
<totfact> 0.70955415E+06</totfact>
</mgrwt>
</event>
<event>
 3    0  0.1546192E+001  0.1250000E+03  0.7546771E-02  0.1235069E+00
         21   -1    0    0  502  501  0.00000000000E+00  0.00000000000E+00  0.11676985097E+02  0.11676985097E+02  0.00000000000E+00 0. -1.
         21   -1    0    0  501  502 -0.00000000000E+00 -0.00000000000E+00 -0.33452556184E+03  0.33452556184E+03  0.00000000000E+00 0. -1.
         25    1    1    2    0    0  0.00000000000E+00  0.00000000000E+00 -0.32284857674E+03  0.34620254693E+03  0.12500000000E+03 0.  0.
<mgrwt>
<rscale>  2 0.12500000E+03</rscale>
<asrwt>0</asrwt>
<pdfrwt beam="1">  1       21 0.17964595E-02 0.12500000E+03</pdfrwt>
<pdfrwt beam="2">  1       21 0.51465465E-01 0.12500000E+03</pdfrwt>
<totfact> 0.51820115E+06</totfact>
</mgrwt>
</event>
<event>
 3    0  0.1659352E+001  0.1250000E+03  0.7546771E-02  0.1235069E+00
         21   -1    0    0  502  501  0.00000000000E+00  0.00000000000E+00  0.21266363431E+02  0.21266363431E+02  0.00000000000E+00 0.  1.
         21   -1    0    0  501  502 -0.00000000000E+00 -0.00000000000E+00 -0.18368208615E+03  0.18368208615E+03  0.00000000000E+00 0.  1.
         25    1    1    2    0    0  0.00000000000E+00  0.00000000000E+00 -0.16241572272E+03  0.20494844959E+03  0.12500000000E+03 0.  0.
<mgrwt>
<rscale>  2 0.12500000E+03</rscale>
<asrwt>0</asrwt>
<pdfrwt beam="1">  1       21 0.32717484E-02 0.12500000E+03</pdfrwt>
<pdfrwt beam="2">  1       21 0.28258781E-01 0.12500000E+03</pdfrwt>
<totfact> 0.64394967E+06</totfact>
</mgrwt>
</event>
<event>
 3    0  0.1448383E+001  0.1250000E+03  0.7546771E-02  0.1235069E+00
         21   -1    0    0  502  501  0.00000000000E+00  0.00000000000E+00  0.53066072413E+03  0.53066072413E+03  0.00000000000E+00 0. -1.
         21   -1    0    0  501  502 -0.00000000000E+00 -0.00000000000E+00 -0.73611063008E+01  0.73611063008E+01  0.00000000000E+00 0. -1.
         25    1    1    2    0    0  0.00000000000E+00  0.00000000000E+00  0.52329961783E+03  0.53802183043E+03  0.12500000000E+03 0.  0.
<mgrwt>
<rscale>  2 0.12500000E+03</rscale>
<asrwt>0</asrwt>
<pdfrwt beam="1">  1       21 0.81640081E-01 0.12500000E+03</pdfrwt>
<pdfrwt beam="2">  1       21 0.11324783E-02 0.12500000E+03</pdfrwt>
<totfact> 0.40054392E+06</totfact>
</mgrwt>
</event>
<event>
 3    0  0.1699533E+001  0.1250000E+03  0.7546771E-02  0.1235069E+00
         21   -1    0    0  502  501  0.00000000000E+00  0.00000000000E+00  0.89898610560E+02  0.89898610560E+02  0.00000000000E+00 0. -1.
         21   -1    0    0  501  502 -0.00000000000E+00 -0.00000000000E+00 -0.43451728293E+02  0.43451728293E+02  0.00000000000E+00 0. -1.
         25    1    1    2    0    0  0.00000000000E+00  0.00000000000E+00  0.46446882267E+02  0.13335033885E+03  0.12500000000E+03 0.  0.
<mgrwt>
<rscale>  2 0.12500000E+03</rscale>
<asrwt>0</asrwt>
<pdfrwt beam="1">  1       21 0.13830555E-01 0.12500000E+03</pdfrwt>
<pdfrwt beam="2">  1       21 0.66848813E-02 0.12500000E+03</pdfrwt>
<totfact> 0.72915652E+06</totfact>
</mgrwt>
</event>
<event>
 3    0  0.1369750E+001  0.1250000E+03  0.7546771E-02  0.1235069E+00
         21   -1    0    0  502  501  0.00000000000E+00  0.00000000000E+00  0.70026217064E+03  0.70026217064E+03  0.00000000000E+00 0.  1.
         21   -1    0    0  501  502 -0.00000000000E+00 -0.00000000000E+00 -0.55782679171E+01  0.55782679171E+01  0.00000000000E+00 0.  1.
         25    1    1    2    0    0  0.00000000000E+00  0.00000000000E+00  0.69468390272E+03  0.70584043855E+03  0.12500000000E+03 0.  0.
<mgrwt>
<rscale>  2 0.12500000E+03</rscale>
<asrwt>0</asrwt>
<pdfrwt beam="1">  1       21 0.10773257E+00 0.12500000E+03</pdfrwt>
<pdfrwt beam="2">  1       21 0.85819562E-03 0.12500000E+03</pdfrwt>
<totfact> 0.32686201E+06</totfact>
</mgrwt>
</event>
<event>
 3    0  0.1696005E+001  0.1250000E+03  0.7546771E-02  0.1235069E+00
         21   -1    0    0  502  501  0.00000000000E+00  0.00000000000E+00  0.87962250358E+02  0.87962250358E+02  0.00000000000E+00 0. -1.
         21   -1    0    0  501  502 -0.00000000000E+00 -0.00000000000E+00 -0.44408254497E+02  0.44408254497E+02  0.00000000000E+00 0. -1.
         25    1    1    2    0    0  0.00000000000E+00  0.00000000000E+00  0.43553995861E+02  0.13237050485E+03  0.12500000000E+03 0.  0.
<mgrwt>
<rscale>  2 0.12500000E+03</rscale>
<asrwt>0</asrwt>
<pdfrwt beam="1">  1       21 0.13532654E-01 0.12500000E+03</pdfrwt>
<pdfrwt beam="2">  1       21 0.68320392E-02 0.12500000E+03</pdfrwt>
<totfact> 0.73046574E+06</totfact>
</mgrwt>
</event>
<event>
 3    0  0.1420643E+001  0.1250000E+03  0.7546771E-02  0.1235069E+00
         21   -1    0    0  502  501  0.00000000000E+00  0.00000000000E+00  0.54627672141E+03  0.54627672141E+03  0.00000000000E+00 0. -1.
         21   -1    0    0  501  502 -0.00000000000E+00 -0.00000000000E+00 -0.71506799520E+01  0.71506799520E+01  0.00000000000E+00 0. -1.
         25    1    1    2    0    0  0.00000000000E+00  0.00000000000E+00  0.53912604146E+03  0.55342740136E+03  0.12500000000E+03 0.  0.
<mgrwt>
<rscale>  2 0.12500000E+03</rscale>
<asrwt>0</asrwt>
<pdfrwt beam="1">  1       21 0.84042540E-01 0.12500000E+03</pdfrwt>
<pdfrwt beam="2">  1       21 0.11001050E-02 0.12500000E+03</pdfrwt>
<totfact> 0.39287258E+06</totfact>
</mgrwt>
</event>
<event>
 3    0  0.1723980E+001  0.1250000E+03  0.7546771E-02  0.1235069E+00
         21   -1    0    0  502  501  0.00000000000E+00  0.00000000000E+00  0.45821776873E+02  0.45821776873E+02  0.00000000000E+00 0.  1.
         21   -1    0    0  501  502 -0.00000000000E+00 -0.00000000000E+00 -0.85248767434E+02  0.85248767434E+02  0.00000000000E+00 0.  1.
         25    1    1    2    0    0  0.00000000000E+00  0.00000000000E+00 -0.39426990561E+02  0.13107054431E+03  0.12500000000E+03 0.  0.
<mgrwt>
<rscale>  2 0.12500000E+03</rscale>
<asrwt>0</asrwt>
<pdfrwt beam="1">  1       21 0.70495041E-02 0.12500000E+03</pdfrwt>
<pdfrwt beam="2">  1       21 0.13115195E-01 0.12500000E+03</pdfrwt>
<totfact> 0.73221166E+06</totfact>
</mgrwt>
</event>
<event>
 3    0  0.1690442E+001  0.1250000E+03  0.7546771E-02  0.1235069E+00
         21   -1    0    0  502  501  0.00000000000E+00  0.00000000000E+00  0.26715739193E+02  0.26715739193E+02  0.00000000000E+00 0.  1.
         21   -1    0    0  501  502 -0.00000000000E+00 -0.00000000000E+00 -0.14621530670E+03  0.14621530670E+03  0.00000000000E+00 0.  1.
         25    1    1    2    0    0  0.00000000000E+00  0.00000000000E+00 -0.11949956751E+03  0.17293104590E+03  0.12500000000E+03 0.  0.
<mgrwt>
<rscale>  2 0.12500000E+03</rscale>
<asrwt>0</asrwt>
<pdfrwt beam="1">  1       21 0.41101137E-02 0.12500000E+03</pdfrwt>
<pdfrwt beam="2">  1       21 0.22494663E-01 0.12500000E+03</pdfrwt>
<totfact> 0.67971864E+06</totfact>
</mgrwt>
</event>
<event>
 3    0  0.1518869E+001  0.1250000E+03  0.7546771E-02  0.1235069E+00
         21   -1    0    0  502  501  0.00000000000E+00  0.00000000000E+00  0.39878452554E+03  0.39878452554E+03  0.00000000000E+00 0.  1.
         21   -1    0    0  501  502 -0.00000000000E+00 -0.00000000000E+00 -0.97953901164E+01  0.97953901164E+01  0.00000000000E+00 0.  1.
         25    1    1    2    0    0  0.00000000000E+00  0.00000000000E+00  0.38898913542E+03  0.40857991565E+03  0.12500000000E+03 0.  0.
<mgrwt>
<rscale>  2 0.12500000E+03</rscale>
<asrwt>0</asrwt>
<pdfrwt beam="1">  1       21 0.61351453E-01 0.12500000E+03</pdfrwt>
<pdfrwt beam="2">  1       21 0.15069834E-02 0.12500000E+03</pdfrwt>
<totfact> 0.47477418E+06</totfact>
</mgrwt>
</event>
<event>
 3    0  0.1617482E+001  0.1250000E+03  0.7546771E-02  0.1235069E+00
         21   -1    0    0  502  501  0.00000000000E+00  0.00000000000E+00  0.15770150064E+02  0.15770150064E+02  0.00000000000E+00 0.  1.
         21   -1    0    0  501  502 -0.00000000000E+00 -0.00000000000E+00 -0.24769897459E+03  0.24769897459E+03  0.00000000000E+00 0.  1.
         25    1    1    2    0    0  0.00000000000E+00  0.00000000000E+00 -0.23192882453E+03  0.26346912465E+03  0.12500000000E+03 0.  0.
<mgrwt>
<rscale>  2 0.12500000E+03</rscale>
<asrwt>0</asrwt>
<pdfrwt beam="1">  1       21 0.24261769E-02 0.12500000E+03</pdfrwt>
<pdfrwt beam="2">  1       21 0.38107535E-01 0.12500000E+03</pdfrwt>
<totfact> 0.58632759E+06</totfact>
</mgrwt>
</event>
<event>
 3    0  0.1698008E+001  0.1250000E+03  0.7546771E-02  0.1235069E+00
         21   -1    0    0  502  501  0.00000000000E+00  0.00000000000E+00  0.90840783940E+02  0.90840783940E+02  0.00000000000E+00 0. -1.
         21   -1    0    0  501  502 -0.00000000000E+00 -0.00000000000E+00 -0.43001059993E+02  0.43001059993E+02  0.00000000000E+00 0. -1.
         25    1    1    2    0    0  0.00000000000E+00  0.00000000000E+00  0.47839723947E+02  0.13384184393E+03  0.12500000000E+03 0.  0.
<mgrwt>
<rscale>  2 0.12500000E+03</rscale>
<asrwt>0</asrwt>
<pdfrwt beam="1">  1       21 0.13975505E-01 0.12500000E+03</pdfrwt>
<pdfrwt beam="2">  1       21 0.66155477E-02 0.12500000E+03</pdfrwt>
<totfact> 0.72850189E+06</totfact>
</mgrwt>
</event>
<event>
 3    0  0.1368989E+001  0.1250000E+03  0.7546771E-02  0.1235069E+00
         21   -1    0    0  502  501  0.00000000000E+00  0.00000000000E+00  0.18641264049E+04  0.18641264049E+04  0.00000000000E+00 0.  1.
         21   -1    0    0  501  502 -0.00000000000E+00 -0.00000000000E+00 -0.20954855796E+01  0.20954855796E+01  0.00000000000E+00 0.  1.
         25    1    1    2    0    0  0.00000000000E+00  0.00000000000E+00  0.18620309193E+04  0.18662218904E+04  0.12500000000E+03 0.  0.
<mgrwt>
<rscale>  2 0.12500000E+03</rscale>
<asrwt>0</asrwt>
<pdfrwt beam="1">  1       21 0.28678735E+00 0.12500000E+03</pdfrwt>
<pdfrwt beam="2">  1       21 0.32238389E-03 0.12500000E+03</pdfrwt>
<totfact> 0.93283286E+05</totfact>
</mgrwt>
</event>
<event>
 3    0  0.1412769E+001  0.1250000E+03  0.7546771E-02  0.1235069E+00
         21   -1    0    0  502  501  0.00000000000E+00  0.00000000000E+00  0.51398005968E+03  0.51398005968E+03  0.00000000000E+00 0. -1.
         21   -1    0    0  501  502 -0.00000000000E+00 -0.00000000000E+00 -0.76000030087E+01  0.76000030087E+01  0.00000000000E+00 0. -1.
         25    1    1    2    0    0  0.00000000000E+00  0.00000000000E+00  0.50638005667E+03  0.52158006269E+03  0.12500000000E+03 0.  0.
<mgrwt>
<rscale>  2 0.12500000E+03</rscale>
<asrwt>0</asrwt>
<pdfrwt beam="1">  1       21 0.79073828E-01 0.12500000E+03</pdfrwt>
<pdfrwt beam="2">  1       21 0.11692316E-02 0.12500000E+03</pdfrwt>
<totfact> 0.40897416E+06</totfact>
</mgrwt>
</event>
<event>
 3    0  0.1509136E+001  0.1250000E+03  0.7546771E-02  0.1235069E+00
         21   -1    0    0  502  501  0.00000000000E+00  0.00000000000E+00  0.37635357510E+03  0.37635357510E+03  0.00000000000E+00 0. -1.
         21   -1    0    0  501  502 -0.00000000000E+00 -0.00000000000E+00 -0.10379202586E+02  0.10379202586E+02  0.00000000000E+00 0. -1.
         25    1    1    2    0    0  0.00000000000E+00  0.00000000000E+00  0.36597437252E+03  0.38673277769E+03  0.12500000000E+03 0.  0.
<mgrwt>
<rscale>  2 0.12500000E+03</rscale>
<asrwt>0</asrwt>
<pdfrwt beam="1">  1       21 0.57900539E-01 0.12500000E+03</pdfrwt>
<pdfrwt beam="2">  1       21 0.15968007E-02 0.12500000E+03</pdfrwt>
<totfact> 0.48933987E+06</totfact>
</mgrwt>
</event>
<event>
 3    0  0.1719437E+001  0.1250000E+03  0.7546771E-02  0.1235069E+00
         21   -1    0    0  502  501  0.00000000000E+00  0.00000000000E+00  0.40285916775E+02  0.40285916775E+02  0.00000000000E+00 0.  1.
         21   -1    0    0  501  502 -0.00000000000E+00 -0.00000000000E+00 -0.96963165112E+02  0.96963165112E+02  0.00000000000E+00 0.  1.
         25    1    1    2    0    0  0.00000000000E+00  0.00000000000E+00 -0.56677248337E+02  0.13724908189E+03  0.12500000000E+03 0.  0.
<mgrwt>
<rscale>  2 0.12500000E+03</rscale>
<asrwt>0</asrwt>
<pdfrwt beam="1">  1       21 0.61978335E-02 0.12500000E+03</pdfrwt>
<pdfrwt beam="2">  1       21 0.14917410E-01 0.12500000E+03</pdfrwt>
<totfact> 0.72400026E+06</totfact>
</mgrwt>
</event>
<event>
 3    0  0.1633430E+001  0.1250000E+03  0.7546771E-02  0.1235069E+00
         21   -1    0    0  502  501  0.00000000000E+00  0.00000000000E+00  0.19344590949E+02  0.19344590949E+02  0.00000000000E+00 0. -1.
         21   -1    0    0  501  502 -0.00000000000E+00 -0.00000000000E+00 -0.20192983198E+03  0.20192983198E+03  0.00000000000E+00 0. -1.
         25    1    1    2    0    0  0.00000000000E+00  0.00000000000E+00 -0.18258524103E+03  0.22127442292E+03  0.12500000000E+03 0.  0.
<mgrwt>
<rscale>  2 0.12500000E+03</rscale>
<asrwt>0</asrwt>
<pdfrwt beam="1">  1       21 0.29760910E-02 0.12500000E+03</pdfrwt>
<pdfrwt beam="2">  1       21 0.31066127E-01 0.12500000E+03</pdfrwt>
<totfact> 0.62692510E+06</totfact>
</mgrwt>
</event>
<event>
 3    0  0.1610007E+001  0.1250000E+03  0.7546771E-02  0.1235069E+00
         21   -1    0    0  502  501  0.00000000000E+00  0.00000000000E+00  0.15569244111E+02  0.15569244111E+02  0.00000000000E+00 0.  1.
         21   -1    0    0  501  502 -0.00000000000E+00 -0.00000000000E+00 -0.25089528894E+03  0.25089528894E+03  0.00000000000E+00 0.  1.
         25    1    1    2    0    0  0.00000000000E+00  0.00000000000E+00 -0.23532604483E+03  0.26646453306E+03  0.12500000000E+03 0.  0.
<mgrwt>
<rscale>  2 0.12500000E+03</rscale>
<asrwt>0</asrwt>
<pdfrwt beam="1">  1       21 0.23952685E-02 0.12500000E+03</pdfrwt>
<pdfrwt beam="2">  1       21 0.38599273E-01 0.12500000E+03</pdfrwt>
<totfact> 0.58361784E+06</totfact>
</mgrwt>
</event>
<event>
 3    0  0.1643943E+001  0.1250000E+03  0.7546771E-02  0.1235069E+00
         21   -1    0    0  502  501  0.00000000000E+00  0.00000000000E+00  0.19738010223E+03  0.19738010223E+03  0.00000000000E+00 0. -1.
         21   -1    0    0  501  502 -0.00000000000E+00 -0.00000000000E+00 -0.19790495374E+02  0.19790495374E+02  0.00000000000E+00 0. -1.
         25    1    1    2    0    0  0.00000000000E+00  0.00000000000E+00  0.17758960685E+03  0.21717059760E+03  0.12500000000E+03 0.  0.
<mgrwt>
<rscale>  2 0.12500000E+03</rscale>
<asrwt>0</asrwt>
<pdfrwt beam="1">  1       21 0.30366168E-01 0.12500000E+03</pdfrwt>
<pdfrwt beam="2">  1       21 0.30446917E-02 0.12500000E+03</pdfrwt>
<totfact> 0.63112915E+06</totfact>
</mgrwt>
</event>
<event>
 3    0  0.1704638E+001  0.1250000E+03  0.7546771E-02  0.1235069E+00
         21   -1    0    0  502  501  0.00000000000E+00  0.00000000000E+00  0.54085991101E+02  0.54085991101E+02  0.00000000000E+00 0. -1.
         21   -1    0    0  501  502 -0.00000000000E+00 -0.00000000000E+00 -0.72222953125E+02  0.72222953125E+02  0.00000000000E+00 0. -1.
         25    1    1    2    0    0  0.00000000000E+00  0.00000000000E+00 -0.18136962024E+02  0.12630894423E+03  0.12500000000E+03 0.  0.
<mgrwt>
<rscale>  2 0.12500000E+03</rscale>
<asrwt>0</asrwt>
<pdfrwt beam="1">  1       21 0.83209217E-02 0.12500000E+03</pdfrwt>
<pdfrwt beam="2">  1       21 0.11111224E-01 0.12500000E+03</pdfrwt>
<totfact> 0.73863551E+06</totfact>
</mgrwt>
</event>
<event>
 3    0  0.1704892E+001  0.1250000E+03  0.7546771E-02  0.1235069E+00
         21   -1    0    0  502  501  0.00000000000E+00  0.00000000000E+00  0.58325312729E+02  0.58325312729E+02  0.00000000000E+00 0. -1.
         21   -1    0    0  501  502 -0.00000000000E+00 -0.00000000000E+00 -0.66973494307E+02  0.66973494307E+02  0.00000000000E+00 0. -1.
         25    1    1    2    0    0  0.00000000000E+00  0.00000000000E+00 -0.86481815778E+01  0.12529880704E+03  0.12500000000E+03 0.  0.
<mgrwt>
<rscale>  2 0.12500000E+03</rscale>
<asrwt>0</asrwt>
<pdfrwt beam="1">  1       21 0.89731251E-02 0.12500000E+03</pdfrwt>
<pdfrwt beam="2">  1       21 0.10303614E-01 0.12500000E+03</pdfrwt>
<totfact> 0.74003233E+06</totfact>
</mgrwt>
</event>
<event>
 3    0  0.1368989E+001  0.1250000E+03  0.7546771E-02  0.1235069E+00
         21   -1    0    0  502  501  0.00000000000E+00  0.00000000000E+00  0.30252209928E+01  0.30252209928E+01  0.00000000000E+00 0.  1.
         21   -1    0    0  501  502 -0.00000000000E+00 -0.00000000000E+00 -0.12912279828E+04  0.12912279828E+04  0.00000000000E+00 0.  1.
         25    1    1    2    0    0  0.00000000000E+00  0.00000000000E+00 -0.12882027618E+04  0.12942532038E+04  0.12500000000E+03 0.  0.
<mgrwt>
<rscale>  2 0.12500000E+03</rscale>
<asrwt>0</asrwt>
<pdfrwt beam="1">  1       21 0.46541908E-03 0.12500000E+03</pdfrwt>
<pdfrwt beam="2">  1       21 0.19865026E+00 0.12500000E+03</pdfrwt>
<totfact> 0.17355865E+06</totfact>
</mgrwt>
</event>
<event>
 3    0  0.1700279E+001  0.1250000E+03  0.7546771E-02  0.1235069E+00
         21   -1    0    0  502  501  0.00000000000E+00  0.00000000000E+00  0.47441461320E+02  0.47441461320E+02  0.00000000000E+00 0. -1.
         21   -1    0    0  501  502 -0.00000000000E+00 -0.00000000000E+00 -0.82338315291E+02  0.82338315291E+02  0.00000000000E+00 0. -1.
         25    1    1    2    0    0  0.00000000000E+00  0.00000000000E+00 -0.34896853971E+02  0.12977977661E+03  0.12500000000E+03 0.  0.
<mgrwt>
<rscale>  2 0.12500000E+03</rscale>
<asrwt>0</asrwt>
<pdfrwt beam="1">  1       21 0.72986864E-02 0.12500000E+03</pdfrwt>
<pdfrwt beam="2">  1       21 0.12667433E-01 0.12500000E+03</pdfrwt>
<totfact> 0.73394362E+06</totfact>
</mgrwt>
</event>
<event>
 3    0  0.1671177E+001  0.1250000E+03  0.7546771E-02  0.1235069E+00
         21   -1    0    0  502  501  0.00000000000E+00  0.00000000000E+00  0.14665595164E+03  0.14665595164E+03  0.00000000000E+00 0. -1.
         21   -1    0    0  501  502 -0.00000000000E+00 -0.00000000000E+00 -0.26635468635E+02  0.26635468635E+02  0.00000000000E+00 0. -1.
         25    1    1    2    0    0  0.00000000000E+00  0.00000000000E+00  0.12002048300E+03  0.17329142027E+03  0.12500000000E+03 0.  0.
<mgrwt>
<rscale>  2 0.12500000E+03</rscale>
<asrwt>0</asrwt>
<pdfrwt beam="1">  1       21 0.22562454E-01 0.12500000E+03</pdfrwt>
<pdfrwt beam="2">  1       21 0.40977645E-02 0.12500000E+03</pdfrwt>
<totfact> 0.67929582E+06</totfact>
</mgrwt>
</event>
<event>
 3    0  0.1657324E+001  0.1250000E+03  0.7546771E-02  0.1235069E+00
         21   -1    0    0  502  501  0.00000000000E+00  0.00000000000E+00  0.15854519307E+03  0.15854519307E+03  0.00000000000E+00 0. -1.
         21   -1    0    0  501  502 -0.00000000000E+00 -0.00000000000E+00 -0.24638085358E+02  0.24638085358E+02  0.00000000000E+00 0. -1.
         25    1    1    2    0    0  0.00000000000E+00  0.00000000000E+00  0.13390710772E+03  0.18318327843E+03  0.12500000000E+03 0.  0.
<mgrwt>
<rscale>  2 0.12500000E+03</rscale>
<asrwt>0</asrwt>
<pdfrwt beam="1">  1       21 0.24391568E-01 0.12500000E+03</pdfrwt>
<pdfrwt beam="2">  1       21 0.37904748E-02 0.12500000E+03</pdfrwt>
<totfact> 0.66788225E+06</totfact>
</mgrwt>
</event>
<event>
 3    0  0.1683602E+001  0.1250000E+03  0.7546771E-02  0.1235069E+00
         21   -1    0    0  502  501  0.00000000000E+00  0.00000000000E+00  0.33835811800E+02  0.33835811800E+02  0.00000000000E+00 0. -1.
         21   -1    0    0  501  502 -0.00000000000E+00 -0.00000000000E+00 -0.11544720792E+03  0.11544720792E+03  0.00000000000E+00 0. -1.
         25    1    1    2    0    0  0.00000000000E+00  0.00000000000E+00 -0.81611396119E+02  0.14928301972E+03  0.12500000000E+03 0.  0.
<mgrwt>
<rscale>  2 0.12500000E+03</rscale>
<asrwt>0</asrwt>
<pdfrwt beam="1">  1       21 0.52055094E-02 0.12500000E+03</pdfrwt>
<pdfrwt beam="2">  1       21 0.17761109E-01 0.12500000E+03</pdfrwt>
<totfact> 0.70849383E+06</totfact>
</mgrwt>
</event>
<event>
 3    0  0.1599015E+001  0.1250000E+03  0.7546771E-02  0.1235069E+00
         21   -1    0    0  502  501  0.00000000000E+00  0.00000000000E+00  0.16714999981E+02  0.16714999981E+02  0.00000000000E+00 0. -1.
         21   -1    0    0  501  502 -0.00000000000E+00 -0.00000000000E+00 -0.23369727816E+03  0.23369727816E+03  0.00000000000E+00 0. -1.
         25    1    1    2    0    0  0.00000000000E+00  0.00000000000E+00 -0.21698227818E+03  0.25041227814E+03  0.12500000000E+03 0.  0.
<mgrwt>
<rscale>  2 0.12500000E+03</rscale>
<asrwt>0</asrwt>
<pdfrwt beam="1">  1       21 0.25715384E-02 0.12500000E+03</pdfrwt>
<pdfrwt beam="2">  1       21 0.35953428E-01 0.12500000E+03</pdfrwt>
<totfact> 0.59839395E+06</totfact>
</mgrwt>
</event>
<event>
 3    0  0.1688113E+001  0.1250000E+03  0.7546771E-02  0.1235069E+00
         21   -1    0    0  502  501  0.00000000000E+00  0.00000000000E+00  0.33132881809E+02  0.33132881809E+02  0.00000000000E+00 0. -1.
         21   -1    0    0  501  502 -0.00000000000E+00 -0.00000000000E+00 -0.11789647585E+03  0.11789647585E+03  0.00000000000E+00 0. -1.
         25    1    1    2    0    0  0.00000000000E+00  0.00000000000E+00 -0.84763594040E+02  0.15102935766E+03  0.12500000000E+03 0.  0.
<mgrwt>
<rscale>  2 0.12500000E+03</rscale>
<asrwt>0</asrwt>
<pdfrwt beam="1">  1       21 0.50973666E-02 0.12500000E+03</pdfrwt>
<pdfrwt beam="2">  1       21 0.18137919E-01 0.12500000E+03</pdfrwt>
<totfact> 0.70630134E+06</totfact>
</mgrwt>
</event>
<event>
 3    0  0.1543138E+001  0.1250000E+03  0.7546771E-02  0.1235069E+00
         21   -1    0    0  502  501  0.00000000000E+00  0.00000000000E+00  0.11278938242E+02  0.11278938242E+02  0.00000000000E+00 0.  1.
         21   -1    0    0  501  502 -0.00000000000E+00 -0.00000000000E+00 -0.34633135816E+03  0.34633135816E+03  0.00000000000E+00 0.  1.
         25    1    1    2    0    0  0.00000000000E+00  0.00000000000E+00 -0.33505241992E+03  0.35761029641E+03  0.12500000000E+03 0.  0.
<mgrwt>
<rscale>  2 0.12500000E+03</rscale>
<asrwt>0</asrwt>
<pdfrwt beam="1">  1       21 0.17352210E-02 0.12500000E+03</pdfrwt>
<pdfrwt beam="2">  1       21 0.53281755E-01 0.12500000E+03</pdfrwt>
<totfact> 0.50981251E+06</totfact>
</mgrwt>
</event>
<event>
 3    0  0.1663639E+001  0.1250000E+03  0.7546771E-02  0.1235069E+00
         21   -1    0    0  502  501  0.00000000000E+00  0.00000000000E+00  0.15589294342E+03  0.15589294342E+03  0.00000000000E+00 0. -1.
         21   -1    0    0  501  502 -0.00000000000E+00 -0.00000000000E+00 -0.25057259901E+02  0.25057259901E+02  0.00000000000E+00 0. -1.
         25    1    1    2    0    0  0.00000000000E+00  0.00000000000E+00  0.13083568352E+03  0.18095020332E+03  0.12500000000E+03 0.  0.
<mgrwt>
<rscale>  2 0.12500000E+03</rscale>
<asrwt>0</asrwt>
<pdfrwt beam="1">  1       21 0.23983529E-01 0.12500000E+03</pdfrwt>
<pdfrwt beam="2">  1       21 0.38549632E-02 0.12500000E+03</pdfrwt>
<totfact> 0.67042699E+06</totfact>
</mgrwt>
</event>
<event>
 3    0  0.1726084E+001  0.1250000E+03  0.7546771E-02  0.1235069E+00
         21   -1    0    0  502  501  0.00000000000E+00  0.00000000000E+00  0.49571656810E+02  0.49571656810E+02  0.00000000000E+00 0.  1.
         21   -1    0    0  501  502 -0.00000000000E+00 -0.00000000000E+00 -0.78800069463E+02  0.78800069463E+02  0.00000000000E+00 0.  1.
         25    1    1    2    0    0  0.00000000000E+00  0.00000000000E+00 -0.29228412653E+02  0.12837172627E+03  0.12500000000E+03 0.  0.
<mgrwt>
<rscale>  2 0.12500000E+03</rscale>
<asrwt>0</asrwt>
<pdfrwt beam="1">  1       21 0.76264088E-02 0.12500000E+03</pdfrwt>
<pdfrwt beam="2">  1       21 0.12123088E-01 0.12500000E+03</pdfrwt>
<totfact> 0.73583403E+06</totfact>
</mgrwt>
</event>
<event>
 3    0  0.1725349E+001  0.1250000E+03  0.7546771E-02  0.1235069E+00
         21   -1    0    0  502  501  0.00000000000E+00  0.00000000000E+00  0.82174627162E+02  0.82174627162E+02  0.00000000000E+00 0.  1.
         21   -1    0    0  501  502 -0.00000000000E+00 -0.00000000000E+00 -0.47535962558E+02  0.47535962558E+02  0.00000000000E+00 0.  1.
         25    1    1    2    0    0  0.00000000000E+00  0.00000000000E+00  0.34638664604E+02  0.12971058972E+03  0.12500000000E+03 0.  0.
<mgrwt>
<rscale>  2 0.12500000E+03</rscale>
<asrwt>0</asrwt>
<pdfrwt beam="1">  1       21 0.12642250E-01 0.12500000E+03</pdfrwt>
<pdfrwt beam="2">  1       21 0.73132250E-02 0.12500000E+03</pdfrwt>
<totfact> 0.73403620E+06</totfact>
</mgrwt>
</event>
<event>
 3    0  0.1368989E+001  0.1250000E+03  0.7546771E-02  0.1235069E+00
         21   -1    0    0  502  501  0.00000000000E+00  0.00000000000E+00  0.17610553703E+01  0.17610553703E+01  0.00000000000E+00 0.  1.
         21   -1    0    0  501  502 -0.00000000000E+00 -0.00000000000E+00 -0.22181301429E+04  0.22181301429E+04  0.00000000000E+00 0.  1.
         25    1    1    2    0    0  0.00000000000E+00  0.00000000000E+00 -0.22163690875E+04  0.22198911982E+04  0.12500000000E+03 0.  0.
<mgrwt>
<rscale>  2 0.12500000E+03</rscale>
<asrwt>0</asrwt>
<pdfrwt beam="1">  1       21 0.27093185E-03 0.12500000E+03</pdfrwt>
<pdfrwt beam="2">  1       21 0.34125047E+00 0.12500000E+03</pdfrwt>
<totfact> 0.59958565E+05</totfact>
</mgrwt>
</event>
<event>
 3    0  0.1628425E+001  0.1250000E+03  0.7546771E-02  0.1235069E+00
         21   -1    0    0  502  501  0.00000000000E+00  0.00000000000E+00  0.19146469524E+02  0.19146469524E+02  0.00000000000E+00 0. -1.
         21   -1    0    0  501  502 -0.00000000000E+00 -0.00000000000E+00 -0.20401933605E+03  0.20401933605E+03  0.00000000000E+00 0. -1.
         25    1    1    2    0    0  0.00000000000E+00  0.00000000000E+00 -0.18487286652E+03  0.22316580557E+03  0.12500000000E+03 0.  0.
<mgrwt>
<rscale>  2 0.12500000E+03</rscale>
<asrwt>0</asrwt>
<pdfrwt beam="1">  1       21 0.29456105E-02 0.12500000E+03</pdfrwt>
<pdfrwt beam="2">  1       21 0.31387593E-01 0.12500000E+03</pdfrwt>
<totfact> 0.62500404E+06</totfact>
</mgrwt>
</event>
<event>
 3    0  0.1688272E+001  0.1250000E+03  0.7546771E-02  0.1235069E+00
         21   -1    0    0  502  501  0.00000000000E+00  0.00000000000E+00  0.34498896569E+02  0.34498896569E+02  0.00000000000E+00 0. -1.
         21   -1    0    0  501  502 -0.00000000000E+00 -0.00000000000E+00 -0.11322825912E+03  0.11322825912E+03  0.00000000000E+00 0. -1.
         25    1    1    2    0    0  0.00000000000E+00  0.00000000000E+00 -0.78729362551E+02  0.14772715569E+03  0.12500000000E+03 0.  0.
<mgrwt>
<rscale>  2 0.12500000E+03</rscale>
<asrwt>0</asrwt>
<pdfrwt beam="1">  1       21 0.53075225E-02 0.12500000E+03</pdfrwt>
<pdfrwt beam="2">  1       21 0.17419732E-01 0.12500000E+03</pdfrwt>
<totfact> 0.71045892E+06</totfact>
</mgrwt>
</event>
<event>
 3    0  0.1726979E+001  0.1250000E+03  0.7546771E-02  0.1235069E+00
         21   -1    0    0  502  501  0.00000000000E+00  0.00000000000E+00  0.74615181372E+02  0.74615181372E+02  0.00000000000E+00 0.  1.
         21   -1    0    0  501  502 -0.00000000000E+00 -0.00000000000E+00 -0.52351946724E+02  0.52351946724E+02  0.00000000000E+00 0.  1.
         25    1    1    2    0    0  0.00000000000E+00  0.00000000000E+00  0.22263234648E+02  0.12696712810E+03  0.12500000000E+03 0.  0.
<mgrwt>
<rscale>  2 0.12500000E+03</rscale>
<asrwt>0</asrwt>
<pdfrwt beam="1">  1       21 0.11479259E-01 0.12500000E+03</pdfrwt>
<pdfrwt beam="2">  1       21 0.80541457E-02 0.12500000E+03</pdfrwt>
<totfact> 0.73773612E+06</totfact>
</mgrwt>
</event>
<event>
 3    0  0.1680901E+001  0.1250000E+03  0.7546771E-02  0.1235069E+00
         21   -1    0    0  502  501  0.00000000000E+00  0.00000000000E+00  0.31394994863E+02  0.31394994863E+02  0.00000000000E+00 0. -1.
         21   -1    0    0  501  502 -0.00000000000E+00 -0.00000000000E+00 -0.12442269913E+03  0.12442269913E+03  0.00000000000E+00 0. -1.
         25    1    1    2    0    0  0.00000000000E+00  0.00000000000E+00 -0.93027704268E+02  0.15581769399E+03  0.12500000000E+03 0.  0.
<mgrwt>
<rscale>  2 0.12500000E+03</rscale>
<asrwt>0</asrwt>
<pdfrwt beam="1">  1       21 0.48299992E-02 0.12500000E+03</pdfrwt>
<pdfrwt beam="2">  1       21 0.19141954E-01 0.12500000E+03</pdfrwt>
<totfact> 0.70034172E+06</totfact>
</mgrwt>
</event>
<event>
 3    0  0.1629380E+001  0.1250000E+03  0.7546771E-02  0.1235069E+00
         21   -1    0    0  502  501  0.00000000000E+00  0.00000000000E+00  0.16098179841E+02  0.16098179841E+02  0.00000000000E+00 0.  1.
         21   -1    0    0  501  502 -0.00000000000E+00 -0.00000000000E+00 -0.24265165618E+03  0.24265165618E+03  0.00000000000E+00 0.  1.
         25    1    1    2    0    0  0.00000000000E+00  0.00000000000E+00 -0.22655347634E+03  0.25874983602E+03  0.12500000000E+03 0.  0.
<mgrwt>
<rscale>  2 0.12500000E+03</rscale>
<asrwt>0</asrwt>
<pdfrwt beam="1">  1       21 0.24766431E-02 0.12500000E+03</pdfrwt>
<pdfrwt beam="2">  1       21 0.37331024E-01 0.12500000E+03</pdfrwt>
<totfact> 0.59064046E+06</totfact>
</mgrwt>
</event>
<event>
 3    0  0.1691997E+001  0.1250000E+03  0.7546771E-02  0.1235069E+00
         21   -1    0    0  502  501  0.00000000000E+00  0.00000000000E+00  0.11169273696E+03  0.11169273696E+03  0.00000000000E+00 0. -1.
         21   -1    0    0  501  502 -0.00000000000E+00 -0.00000000000E+00 -0.34973178259E+02  0.34973178259E+02  0.00000000000E+00 0. -1.
         25    1    1    2    0    0  0.00000000000E+00  0.00000000000E+00  0.76719558703E+02  0.14666591522E+03  0.12500000000E+03 0.  0.
<mgrwt>
<rscale>  2 0.12500000E+03</rscale>
<asrwt>0</asrwt>
<pdfrwt beam="1">  1       21 0.17183498E-01 0.12500000E+03</pdfrwt>
<pdfrwt beam="2">  1       21 0.53804890E-02 0.12500000E+03</pdfrwt>
<totfact> 0.71180580E+06</totfact>
</mgrwt>
</event>
<event>
 3    0  0.1669975E+001  0.1250000E+03  0.7546771E-02  0.1235069E+00
         21   -1    0    0  502  501  0.00000000000E+00  0.00000000000E+00  0.30209786206E+02  0.30209786206E+02  0.00000000000E+00 0. -1.
         21   -1    0    0  501  502 -0.00000000000E+00 -0.00000000000E+00 -0.12930412593E+03  0.12930412593E+03  0.00000000000E+00 0. -1.
         25    1    1    2    0    0  0.00000000000E+00  0.00000000000E+00 -0.99094339725E+02  0.15951391214E+03  0.12500000000E+03 0.  0.
<mgrwt>
<rscale>  2 0.12500000E+03</rscale>
<asrwt>0</asrwt>
<pdfrwt beam="1">  1       21 0.46476593E-02 0.12500000E+03</pdfrwt>
<pdfrwt beam="2">  1       21 0.19892943E-01 0.12500000E+03</pdfrwt>
<totfact> 0.69578939E+06</totfact>
</mgrwt>
</event>
<event>
 3    0  0.1595603E+001  0.1250000E+03  0.7546771E-02  0.1235069E+00
         21   -1    0    0  502  501  0.00000000000E+00  0.00000000000E+00  0.15801990369E+02  0.15801990369E+02  0.00000000000E+00 0. -1.
         21   -1    0    0  501  502 -0.00000000000E+00 -0.00000000000E+00 -0.24719987222E+03  0.24719987222E+03  0.00000000000E+00 0. -1.
         25    1    1    2    0    0  0.00000000000E+00  0.00000000000E+00 -0.23139788185E+03  0.26300186259E+03  0.12500000000E+03 0.  0.
<mgrwt>
<rscale>  2 0.12500000E+03</rscale>
<asrwt>0</asrwt>
<pdfrwt beam="1">  1       21 0.24310755E-02 0.12500000E+03</pdfrwt>
<pdfrwt beam="2">  1       21 0.38030749E-01 0.12500000E+03</pdfrwt>
<totfact> 0.58675222E+06</totfact>
</mgrwt>
</event>
<event>
 3    0  0.1702558E+001  0.1250000E+03  0.7546771E-02  0.1235069E+00
         21   -1    0    0  502  501  0.00000000000E+00  0.00000000000E+00  0.13133930063E+03  0.13133930063E+03  0.00000000000E+00 0.  1.
         21   -1    0    0  501  502 -0.00000000000E+00 -0.00000000000E+00 -0.29741668953E+02  0.29741668953E+02  0.00000000000E+00 0.  1.
         25    1    1    2    0    0  0.00000000000E+00  0.00000000000E+00  0.10159763168E+03  0.16108096959E+03  0.12500000000E+03 0.  0.
<mgrwt>
<rscale>  2 0.12500000E+03</rscale>
<asrwt>0</asrwt>
<pdfrwt beam="1">  1       21 0.20206046E-01 0.12500000E+03</pdfrwt>
<pdfrwt beam="2">  1       21 0.45756414E-02 0.12500000E+03</pdfrwt>
<totfact> 0.69387654E+06</totfact>
</mgrwt>
</event>
<event>
 3    0  0.1582732E+001  0.1250000E+03  0.7546771E-02  0.1235069E+00
         21   -1    0    0  502  501  0.00000000000E+00  0.00000000000E+00  0.12300914643E+02  0.12300914643E+02  0.00000000000E+00 0.  1.
         21   -1    0    0  501  502 -0.00000000000E+00 -0.00000000000E+00 -0.31755768683E+03  0.31755768683E+03  0.00000000000E+00 0.  1.
         25    1    1    2    0    0  0.00000000000E+00  0.00000000000E+00 -0.30525677219E+03  0.32985860147E+03  0.12500000000E+03 0.  0.
<mgrwt>
<rscale>  2 0.12500000E+03</rscale>
<asrwt>0</asrwt>
<pdfrwt beam="1">  1       21 0.18924486E-02 0.12500000E+03</pdfrwt>
<pdfrwt beam="2">  1       21 0.48855023E-01 0.12500000E+03</pdfrwt>
<totfact> 0.53061233E+06</totfact>
</mgrwt>
</event>
<event>
 3    0  0.1619635E+001  0.1250000E+03  0.7546771E-02  0.1235069E+00
         21   -1    0    0  502  501  0.00000000000E+00  0.00000000000E+00  0.15828741522E+02  0.15828741522E+02  0.00000000000E+00 0.  1.
         21   -1    0    0  501  502 -0.00000000000E+00 -0.00000000000E+00 -0.24678209538E+03  0.24678209538E+03  0.00000000000E+00 0.  1.
         25    1    1    2    0    0  0.00000000000E+00  0.00000000000E+00 -0.23095335386E+03  0.26261083690E+03  0.12500000000E+03 0.  0.
<mgrwt>
<rscale>  2 0.12500000E+03</rscale>
<asrwt>0</asrwt>
<pdfrwt beam="1">  1       21 0.24351911E-02 0.12500000E+03</pdfrwt>
<pdfrwt beam="2">  1       21 0.37966474E-01 0.12500000E+03</pdfrwt>
<totfact> 0.58710798E+06</totfact>
</mgrwt>
</event>
<event>
 3    0  0.1685941E+001  0.1250000E+03  0.7546771E-02  0.1235069E+00
         21   -1    0    0  502  501  0.00000000000E+00  0.00000000000E+00  0.11458717017E+03  0.11458717017E+03  0.00000000000E+00 0. -1.
         21   -1    0    0  501  502 -0.00000000000E+00 -0.00000000000E+00 -0.34089767591E+02  0.34089767591E+02  0.00000000000E+00 0. -1.
         25    1    1    2    0    0  0.00000000000E+00  0.00000000000E+00  0.80497402577E+02  0.14867693776E+03  0.12500000000E+03 0.  0.
<mgrwt>
<rscale>  2 0.12500000E+03</rscale>
<asrwt>0</asrwt>
<pdfrwt beam="1">  1       21 0.17628795E-01 0.12500000E+03</pdfrwt>
<pdfrwt beam="2">  1       21 0.52445797E-02 0.12500000E+03</pdfrwt>
<totfact> 0.70925799E+06</totfact>
</mgrwt>
</event>
<event>
 3    0  0.1669479E+001  0.1250000E+03  0.7546771E-02  0.1235069E+00
         21   -1    0    0  502  501  0.00000000000E+00  0.00000000000E+00  0.26437711711E+02  0.26437711711E+02  0.00000000000E+00 0. -1.
         21   -1    0    0  501  502 -0.00000000000E+00 -0.00000000000E+00 -0.14775295391E+03  0.14775295391E+03  0.00000000000E+00 0. -1.
         25    1    1    2    0    0  0.00000000000E+00  0.00000000000E+00 -0.12131524220E+03  0.17419066562E+03  0.12500000000E+03 0.  0.
<mgrwt>
<rscale>  2 0.12500000E+03</rscale>
<asrwt>0</asrwt>
<pdfrwt beam="1">  1       21 0.40673403E-02 0.12500000E+03</pdfrwt>
<pdfrwt beam="2">  1       21 0.22731223E-01 0.12500000E+03</pdfrwt>
<totfact> 0.67824295E+06</totfact>
</mgrwt>
</event>
<event>
 3    0  0.1669247E+001  0.1250000E+03  0.7546771E-02  0.1235069E+00
         21   -1    0    0  502  501  0.00000000000E+00  0.00000000000E+00  0.28848839555E+02  0.28848839555E+02  0.00000000000E+00 0. -1.
         21   -1    0    0  501  502 -0.00000000000E+00 -0.00000000000E+00 -0.13540405993E+03  0.13540405993E+03  0.00000000000E+00 0. -1.
         25    1    1    2    0    0  0.00000000000E+00  0.00000000000E+00 -0.10655522037E+03  0.16425289948E+03  0.12500000000E+03 0.  0.
<mgrwt>
<rscale>  2 0.12500000E+03</rscale>
<asrwt>0</asrwt>
<pdfrwt beam="1">  1       21 0.44382830E-02 0.12500000E+03</pdfrwt>
<pdfrwt beam="2">  1       21 0.20831394E-01 0.12500000E+03</pdfrwt>
<totfact> 0.69003535E+06</totfact>
</mgrwt>
</event>
<event>
 3    0  0.1686511E+001  0.1250000E+03  0.7546771E-02  0.1235069E+00
         21   -1    0    0  502  501  0.00000000000E+00  0.00000000000E+00  0.32925111796E+02  0.32925111796E+02  0.00000000000E+00 0. -1.
         21   -1    0    0  501  502 -0.00000000000E+00 -0.00000000000E+00 -0.11864044758E+03  0.11864044758E+03  0.00000000000E+00 0. -1.
         25    1    1    2    0    0  0.00000000000E+00  0.00000000000E+00 -0.85715335781E+02  0.15156555937E+03  0.12500000000E+03 0.  0.
<mgrwt>
<rscale>  2 0.12500000E+03</rscale>
<asrwt>0</asrwt>
<pdfrwt beam="1">  1       21 0.50654019E-02 0.12500000E+03</pdfrwt>
<pdfrwt beam="2">  1       21 0.18252376E-01 0.12500000E+03</pdfrwt>
<totfact> 0.70563088E+06</totfact>
</mgrwt>
</event>
<event>
 3    0  0.1697670E+001  0.1250000E+03  0.7546771E-02  0.1235069E+00
         21   -1    0    0  502  501  0.00000000000E+00  0.00000000000E+00  0.43109165672E+02  0.43109165672E+02  0.00000000000E+00 0. -1.
         21   -1    0    0  501  502 -0.00000000000E+00 -0.00000000000E+00 -0.90612980769E+02  0.90612980769E+02  0.00000000000E+00 0. -1.
         25    1    1    2    0    0  0.00000000000E+00  0.00000000000E+00 -0.47503815098E+02  0.13372214644E+03  0.12500000000E+03 0.  0.
<mgrwt>
<rscale>  2 0.12500000E+03</rscale>
<asrwt>0</asrwt>
<pdfrwt beam="1">  1       21 0.66321794E-02 0.12500000E+03</pdfrwt>
<pdfrwt beam="2">  1       21 0.13940458E-01 0.12500000E+03</pdfrwt>
<totfact> 0.72866118E+06</totfact>
</mgrwt>
</event>
<event>
 3    0  0.1663499E+001  0.1250000E+03  0.7546771E-02  0.1235069E+00
         21   -1    0    0  502  501  0.00000000000E+00  0.00000000000E+00  0.21465334369E+02  0.21465334369E+02  0.00000000000E+00 0.  1.
         21   -1    0    0  501  502 -0.00000000000E+00 -0.00000000000E+00 -0.18197946199E+03  0.18197946199E+03  0.00000000000E+00 0.  1.
         25    1    1    2    0    0  0.00000000000E+00  0.00000000000E+00 -0.16051412763E+03  0.20344479636E+03  0.12500000000E+03 0.  0.
<mgrwt>
<rscale>  2 0.12500000E+03</rscale>
<asrwt>0</asrwt>
<pdfrwt beam="1">  1       21 0.33023592E-02 0.12500000E+03</pdfrwt>
<pdfrwt beam="2">  1       21 0.27996839E-01 0.12500000E+03</pdfrwt>
<totfact> 0.64555887E+06</totfact>
</mgrwt>
</event>
<event>
 3    0  0.1707562E+001  0.1250000E+03  0.7546771E-02  0.1235069E+00
         21   -1    0    0  502  501  0.00000000000E+00  0.00000000000E+00  0.10910480720E+03  0.10910480720E+03  0.00000000000E+00 0.  1.
         21   -1    0    0  501  502 -0.00000000000E+00 -0.00000000000E+00 -0.35802730424E+02  0.35802730424E+02  0.00000000000E+00 0.  1.
         25    1    1    2    0    0  0.00000000000E+00  0.00000000000E+00  0.73302076772E+02  0.14490753762E+03  0.12500000000E+03 0.  0.
<mgrwt>
<rscale>  2 0.12500000E+03</rscale>
<asrwt>0</asrwt>
<pdfrwt beam="1">  1       21 0.16785355E-01 0.12500000E+03</pdfrwt>
<pdfrwt beam="2">  1       21 0.55081124E-02 0.12500000E+03</pdfrwt>
<totfact> 0.71404934E+06</totfact>
</mgrwt>
</event>
<event>
 3    0  0.1690182E+001  0.1250000E+03  0.7546771E-02  0.1235069E+00
         21   -1    0    0  502  501  0.00000000000E+00  0.00000000000E+00  0.36956610175E+02  0.36956610175E+02  0.00000000000E+00 0. -1.
         21   -1    0    0  501  502 -0.00000000000E+00 -0.00000000000E+00 -0.10569827648E+03  0.10569827648E+03  0.00000000000E+00 0. -1.
         25    1    1    2    0    0  0.00000000000E+00  0.00000000000E+00 -0.68741666303E+02  0.14265488665E+03  0.12500000000E+03 0.  0.
<mgrwt>
<rscale>  2 0.12500000E+03</rscale>
<asrwt>0</asrwt>
<pdfrwt beam="1">  1       21 0.56856324E-02 0.12500000E+03</pdfrwt>
<pdfrwt beam="2">  1       21 0.16261273E-01 0.12500000E+03</pdfrwt>
<totfact> 0.71694586E+06</totfact>
</mgrwt>
</event>
<event>
 3    0  0.1368989E+001  0.1250000E+03  0.7546771E-02  0.1235069E+00
         21   -1    0    0  502  501  0.00000000000E+00  0.00000000000E+00  0.76352492226E+03  0.76352492226E+03  0.00000000000E+00 0.  1.
         21   -1    0    0  501  502 -0.00000000000E+00 -0.00000000000E+00 -0.51160739959E+01  0.51160739959E+01  0.00000000000E+00 0.  1.
         25    1    1    2    0    0  0.00000000000E+00  0.00000000000E+00  0.75840884826E+03  0.76864099625E+03  0.12500000000E+03 0.  0.
<mgrwt>
<rscale>  2 0.12500000E+03</rscale>
<asrwt>0</asrwt>
<pdfrwt beam="1">  1       21 0.11746528E+00 0.12500000E+03</pdfrwt>
<pdfrwt beam="2">  1       21 0.78708891E-03 0.12500000E+03</pdfrwt>
<totfact> 0.30423827E+06</totfact>
</mgrwt>
</event>
<event>
 3    0  0.1491269E+001  0.1250000E+03  0.7546771E-02  0.1235069E+00
         21   -1    0    0  502  501  0.00000000000E+00  0.00000000000E+00  0.48256622921E+03  0.48256622921E+03  0.00000000000E+00 0.  1.
         21   -1    0    0  501  502 -0.00000000000E+00 -0.00000000000E+00 -0.80947438166E+01  0.80947438166E+01  0.00000000000E+00 0.  1.
         25    1    1    2    0    0  0.00000000000E+00  0.00000000000E+00  0.47447148539E+03  0.49066097303E+03  0.12500000000E+03 0.  0.
<mgrwt>
<rscale>  2 0.12500000E+03</rscale>
<asrwt>0</asrwt>
<pdfrwt beam="1">  1       21 0.74240936E-01 0.12500000E+03</pdfrwt>
<pdfrwt beam="2">  1       21 0.12453456E-02 0.12500000E+03</pdfrwt>
<totfact> 0.42555126E+06</totfact>
</mgrwt>
</event>
<event>
 3    0  0.1710548E+001  0.1250000E+03  0.7546771E-02  0.1235069E+00
         21   -1    0    0  502  501  0.00000000000E+00  0.00000000000E+00  0.34198938091E+02  0.34198938091E+02  0.00000000000E+00 0.  1.
         21   -1    0    0  501  502 -0.00000000000E+00 -0.00000000000E+00 -0.11422138283E+03  0.11422138283E+03  0.00000000000E+00 0.  1.
         25    1    1    2    0    0  0.00000000000E+00  0.00000000000E+00 -0.80022444737E+02  0.14842032092E+03  0.12500000000E+03 0.  0.
<mgrwt>
<rscale>  2 0.12500000E+03</rscale>
<asrwt>0</asrwt>
<pdfrwt beam="1">  1       21 0.52613752E-02 0.12500000E+03</pdfrwt>
<pdfrwt beam="2">  1       21 0.17572520E-01 0.12500000E+03</pdfrwt>
<totfact> 0.70958205E+06</totfact>
</mgrwt>
</event>
<event>
 3    0  0.1727006E+001  0.1250000E+03  0.7546771E-02  0.1235069E+00
         21   -1    0    0  502  501  0.00000000000E+00  0.00000000000E+00  0.74586956187E+02  0.74586956187E+02  0.00000000000E+00 0.  1.
         21   -1    0    0  501  502 -0.00000000000E+00 -0.00000000000E+00 -0.52371757740E+02  0.52371757740E+02  0.00000000000E+00 0.  1.
         25    1    1    2    0    0  0.00000000000E+00  0.00000000000E+00  0.22215198448E+02  0.12695871393E+03  0.12500000000E+03 0.  0.
<mgrwt>
<rscale>  2 0.12500000E+03</rscale>
<asrwt>0</asrwt>
<pdfrwt beam="1">  1       21 0.11474916E-01 0.12500000E+03</pdfrwt>
<pdfrwt beam="2">  1       21 0.80571936E-02 0.12500000E+03</pdfrwt>
<totfact> 0.73774757E+06</totfact>
</mgrwt>
</event>
<event>
 3    0  0.1726018E+001  0.1250000E+03  0.7546771E-02  0.1235069E+00
         21   -1    0    0  502  501  0.00000000000E+00  0.00000000000E+00  0.81665551028E+02  0.81665551028E+02  0.00000000000E+00 0.  1.
         21   -1    0    0  501  502 -0.00000000000E+00 -0.00000000000E+00 -0.47832286085E+02  0.47832286085E+02  0.00000000000E+00 0.  1.
         25    1    1    2    0    0  0.00000000000E+00  0.00000000000E+00  0.33833264943E+02  0.12949783711E+03  0.12500000000E+03 0.  0.
<mgrwt>
<rscale>  2 0.12500000E+03</rscale>
<asrwt>0</asrwt>
<pdfrwt beam="1">  1       21 0.12563931E-01 0.12500000E+03</pdfrwt>
<pdfrwt beam="2">  1       21 0.73588132E-02 0.12500000E+03</pdfrwt>
<totfact> 0.73432106E+06</totfact>
</mgrwt>
</event>
<event>
 3    0  0.1565541E+001  0.1250000E+03  0.7546771E-02  0.1235069E+00
         21   -1    0    0  502  501  0.00000000000E+00  0.00000000000E+00  0.12005759446E+02  0.12005759446E+02  0.00000000000E+00 0.  1.
         21   -1    0    0  501  502 -0.00000000000E+00 -0.00000000000E+00 -0.32536467332E+03  0.32536467332E+03  0.00000000000E+00 0.  1.
         25    1    1    2    0    0  0.00000000000E+00  0.00000000000E+00 -0.31335891387E+03  0.33737043276E+03  0.12500000000E+03 0.  0.
<mgrwt>
<rscale>  2 0.12500000E+03</rscale>
<asrwt>0</asrwt>
<pdfrwt beam="1">  1       21 0.18470397E-02 0.12500000E+03</pdfrwt>
<pdfrwt beam="2">  1       21 0.50056109E-01 0.12500000E+03</pdfrwt>
<totfact> 0.52484902E+06</totfact>
</mgrwt>
</event>
<event>
 3    0  0.1449437E+001  0.1250000E+03  0.7546771E-02  0.1235069E+00
         21   -1    0    0  502  501  0.00000000000E+00  0.00000000000E+00  0.54164314331E+03  0.54164314331E+03  0.00000000000E+00 0.  1.
         21   -1    0    0  501  502 -0.00000000000E+00 -0.00000000000E+00 -0.72118516559E+01  0.72118516559E+01  0.00000000000E+00 0.  1.
         25    1    1    2    0    0  0.00000000000E+00  0.00000000000E+00  0.53443129166E+03  0.54885499497E+03  0.12500000000E+03 0.  0.
<mgrwt>
<rscale>  2 0.12500000E+03</rscale>
<asrwt>0</asrwt>
<pdfrwt beam="1">  1       21 0.83329682E-01 0.12500000E+03</pdfrwt>
<pdfrwt beam="2">  1       21 0.11095161E-02 0.12500000E+03</pdfrwt>
<totfact> 0.39512721E+06</totfact>
</mgrwt>
</event>
<event>
 3    0  0.1687777E+001  0.1250000E+03  0.7546771E-02  0.1235069E+00
         21   -1    0    0  502  501  0.00000000000E+00  0.00000000000E+00  0.26010420127E+02  0.26010420127E+02  0.00000000000E+00 0.  1.
         21   -1    0    0  501  502 -0.00000000000E+00 -0.00000000000E+00 -0.15018019628E+03  0.15018019628E+03  0.00000000000E+00 0.  1.
         25    1    1    2    0    0  0.00000000000E+00  0.00000000000E+00 -0.12416977615E+03  0.17619061641E+03  0.12500000000E+03 0.  0.
<mgrwt>
<rscale>  2 0.12500000E+03</rscale>
<asrwt>0</asrwt>
<pdfrwt beam="1">  1       21 0.40016029E-02 0.12500000E+03</pdfrwt>
<pdfrwt beam="2">  1       21 0.23104646E-01 0.12500000E+03</pdfrwt>
<totfact> 0.67591246E+06</totfact>
</mgrwt>
</event>
<event>
 3    0  0.1582336E+001  0.1250000E+03  0.7546771E-02  0.1235069E+00
         21   -1    0    0  502  501  0.00000000000E+00  0.00000000000E+00  0.13492290891E+02  0.13492290891E+02  0.00000000000E+00 0. -1.
         21   -1    0    0  501  502 -0.00000000000E+00 -0.00000000000E+00 -0.28951717923E+03  0.28951717923E+03  0.00000000000E+00 0. -1.
         25    1    1    2    0    0  0.00000000000E+00  0.00000000000E+00 -0.27602488834E+03  0.30300947012E+03  0.12500000000E+03 0.  0.
<mgrwt>
<rscale>  2 0.12500000E+03</rscale>
<asrwt>0</asrwt>
<pdfrwt beam="1">  1       21 0.20757372E-02 0.12500000E+03</pdfrwt>
<pdfrwt beam="2">  1       21 0.44541102E-01 0.12500000E+03</pdfrwt>
<totfact> 0.55207000E+06</totfact>
</mgrwt>
</event>
<event>
 3    0  0.1509022E+001  0.1250000E+03  0.7546771E-02  0.1235069E+00
         21   -1    0    0  502  501  0.00000000000E+00  0.00000000000E+00  0.39293635815E+03  0.39293635815E+03  0.00000000000E+00 0. -1.
         21   -1    0    0  501  502 -0.00000000000E+00 -0.00000000000E+00 -0.99411772899E+01  0.99411772899E+01  0.00000000000E+00 0. -1.
         25    1    1    2    0    0  0.00000000000E+00  0.00000000000E+00  0.38299518086E+03  0.40287753544E+03  0.12500000000E+03 0.  0.
<mgrwt>
<rscale>  2 0.12500000E+03</rscale>
<asrwt>0</asrwt>
<pdfrwt beam="1">  1       21 0.60451735E-01 0.12500000E+03</pdfrwt>
<pdfrwt beam="2">  1       21 0.15294122E-02 0.12500000E+03</pdfrwt>
<totfact> 0.47851076E+06</totfact>
</mgrwt>
</event>
<event>
 3    0  0.1474473E+001  0.1250000E+03  0.7546771E-02  0.1235069E+00
         21   -1    0    0  502  501  0.00000000000E+00  0.00000000000E+00  0.51635430764E+03  0.51635430764E+03  0.00000000000E+00 0. -1.
         21   -1    0    0  501  502 -0.00000000000E+00 -0.00000000000E+00 -0.75650574464E+01  0.75650574464E+01  0.00000000000E+00 0. -1.
         25    1    1    2    0    0  0.00000000000E+00  0.00000000000E+00  0.50878925019E+03  0.52391936509E+03  0.12500000000E+03 0.  0.
<mgrwt>
<rscale>  2 0.12500000E+03</rscale>
<asrwt>0</asrwt>
<pdfrwt beam="1">  1       21 0.79439097E-01 0.12500000E+03</pdfrwt>
<pdfrwt beam="2">  1       21 0.11638554E-02 0.12500000E+03</pdfrwt>
<totfact> 0.40775895E+06</totfact>
</mgrwt>
</event>
<event>
 3    0  0.1685791E+001  0.1250000E+03  0.7546771E-02  0.1235069E+00
         21   -1    0    0  502  501  0.00000000000E+00  0.00000000000E+00  0.36203286109E+02  0.36203286109E+02  0.00000000000E+00 0. -1.
         21   -1    0    0  501  502 -0.00000000000E+00 -0.00000000000E+00 -0.10789766399E+03  0.10789766399E+03  0.00000000000E+00 0. -1.
         25    1    1    2    0    0  0.00000000000E+00  0.00000000000E+00 -0.71694377883E+02  0.14410095010E+03  0.12500000000E+03 0.  0.
<mgrwt>
<rscale>  2 0.12500000E+03</rscale>
<asrwt>0</asrwt>
<pdfrwt beam="1">  1       21 0.55697365E-02 0.12500000E+03</pdfrwt>
<pdfrwt beam="2">  1       21 0.16599640E-01 0.12500000E+03</pdfrwt>
<totfact> 0.71508354E+06</totfact>
</mgrwt>
</event>
<event>
 3    0  0.1704547E+001  0.1250000E+03  0.7546771E-02  0.1235069E+00
         21   -1    0    0  502  501  0.00000000000E+00  0.00000000000E+00  0.68161681925E+02  0.68161681925E+02  0.00000000000E+00 0. -1.
         21   -1    0    0  501  502 -0.00000000000E+00 -0.00000000000E+00 -0.57308591714E+02  0.57308591714E+02  0.00000000000E+00 0. -1.
         25    1    1    2    0    0  0.00000000000E+00  0.00000000000E+00  0.10853090211E+02  0.12547027364E+03  0.12500000000E+03 0.  0.
<mgrwt>
<rscale>  2 0.12500000E+03</rscale>
<asrwt>0</asrwt>
<pdfrwt beam="1">  1       21 0.10486413E-01 0.12500000E+03</pdfrwt>
<pdfrwt beam="2">  1       21 0.88167064E-02 0.12500000E+03</pdfrwt>
<totfact> 0.73979556E+06</totfact>
</mgrwt>
</event>
<event>
 3    0  0.1368989E+001  0.1250000E+03  0.7546771E-02  0.1235069E+00
         21   -1    0    0  502  501  0.00000000000E+00  0.00000000000E+00  0.13508320166E+04  0.13508320166E+04  0.00000000000E+00 0.  1.
         21   -1    0    0  501  502 -0.00000000000E+00 -0.00000000000E+00 -0.28917363165E+01  0.28917363165E+01  0.00000000000E+00 0.  1.
         25    1    1    2    0    0  0.00000000000E+00  0.00000000000E+00  0.13479402803E+04  0.13537237529E+04  0.12500000000E+03 0.  0.
<mgrwt>
<rscale>  2 0.12500000E+03</rscale>
<asrwt>0</asrwt>
<pdfrwt beam="1">  1       21 0.20781981E+00 0.12500000E+03</pdfrwt>
<pdfrwt beam="2">  1       21 0.44488359E-03 0.12500000E+03</pdfrwt>
<totfact> 0.16314512E+06</totfact>
</mgrwt>
</event>
<event>
 3    0  0.1694055E+001  0.1250000E+03  0.7546771E-02  0.1235069E+00
         21   -1    0    0  502  501  0.00000000000E+00  0.00000000000E+00  0.93212916266E+02  0.93212916266E+02  0.00000000000E+00 0. -1.
         21   -1    0    0  501  502 -0.00000000000E+00 -0.00000000000E+00 -0.41906745937E+02  0.41906745937E+02  0.00000000000E+00 0. -1.
         25    1    1    2    0    0  0.00000000000E+00  0.00000000000E+00  0.51306170329E+02  0.13511966220E+03  0.12500000000E+03 0.  0.
<mgrwt>
<rscale>  2 0.12500000E+03</rscale>
<asrwt>0</asrwt>
<pdfrwt beam="1">  1       21 0.14340449E-01 0.12500000E+03</pdfrwt>
<pdfrwt beam="2">  1       21 0.64471917E-02 0.12500000E+03</pdfrwt>
<totfact> 0.72680632E+06</totfact>
</mgrwt>
</event>
<event>
 3    0  0.1368989E+001  0.1250000E+03  0.7546771E-02  0.1235069E+00
         21   -1    0    0  502  501  0.00000000000E+00  0.00000000000E+00  0.76490202139E+03  0.76490202139E+03  0.00000000000E+00 0. -1.
         21   -1    0    0  501  502 -0.00000000000E+00 -0.00000000000E+00 -0.51068632201E+01  0.51068632201E+01  0.00000000000E+00 0. -1.
         25    1    1    2    0    0  0.00000000000E+00  0.00000000000E+00  0.75979515817E+03  0.77000888461E+03  0.12500000000E+03 0.  0.
<mgrwt>
<rscale>  2 0.12500000E+03</rscale>
<asrwt>0</asrwt>
<pdfrwt beam="1">  1       21 0.11767714E+00 0.12500000E+03</pdfrwt>
<pdfrwt beam="2">  1       21 0.78567187E-03 0.12500000E+03</pdfrwt>
<totfact> 0.30377300E+06</totfact>
</mgrwt>
</event>
<event>
 3    0  0.1368989E+001  0.1250000E+03  0.7546771E-02  0.1235069E+00
         21   -1    0    0  502  501  0.00000000000E+00  0.00000000000E+00  0.48532921139E+01  0.48532921139E+01  0.00000000000E+00 0. -1.
         21   -1    0    0  501  502 -0.00000000000E+00 -0.00000000000E+00 -0.80486603904E+03  0.80486603904E+03  0.00000000000E+00 0. -1.
         25    1    1    2    0    0  0.00000000000E+00  0.00000000000E+00 -0.80001274693E+03  0.80971933115E+03  0.12500000000E+03 0.  0.
<mgrwt>
<rscale>  2 0.12500000E+03</rscale>
<asrwt>0</asrwt>
<pdfrwt beam="1">  1       21 0.74666096E-03 0.12500000E+03</pdfrwt>
<pdfrwt beam="2">  1       21 0.12382544E+00 0.12500000E+03</pdfrwt>
<totfact> 0.29043331E+06</totfact>
</mgrwt>
</event>
<event>
 3    0  0.1368989E+001  0.1250000E+03  0.7546771E-02  0.1235069E+00
         21   -1    0    0  502  501  0.00000000000E+00  0.00000000000E+00  0.11709484407E+04  0.11709484407E+04  0.00000000000E+00 0. -1.
         21   -1    0    0  501  502 -0.00000000000E+00 -0.00000000000E+00 -0.33359709653E+01  0.33359709653E+01  0.00000000000E+00 0. -1.
         25    1    1    2    0    0  0.00000000000E+00  0.00000000000E+00  0.11676124697E+04  0.11742844116E+04  0.12500000000E+03 0.  0.
<mgrwt>
<rscale>  2 0.12500000E+03</rscale>
<asrwt>0</asrwt>
<pdfrwt beam="1">  1       21 0.18014559E+00 0.12500000E+03</pdfrwt>
<pdfrwt beam="2">  1       21 0.51322724E-03 0.12500000E+03</pdfrwt>
<totfact> 0.19663550E+06</totfact>
</mgrwt>
</event>
<event>
 3    0  0.1691621E+001  0.1250000E+03  0.7546771E-02  0.1235069E+00
         21   -1    0    0  502  501  0.00000000000E+00  0.00000000000E+00  0.26291047063E+02  0.26291047063E+02  0.00000000000E+00 0.  1.
         21   -1    0    0  501  502 -0.00000000000E+00 -0.00000000000E+00 -0.14857719400E+03  0.14857719400E+03  0.00000000000E+00 0.  1.
         25    1    1    2    0    0  0.00000000000E+00  0.00000000000E+00 -0.12228614694E+03  0.17486824107E+03  0.12500000000E+03 0.  0.
<mgrwt>
<rscale>  2 0.12500000E+03</rscale>
<asrwt>0</asrwt>
<pdfrwt beam="1">  1       21 0.40447764E-02 0.12500000E+03</pdfrwt>
<pdfrwt beam="2">  1       21 0.22858030E-01 0.12500000E+03</pdfrwt>
<totfact> 0.67745168E+06</totfact>
</mgrwt>
</event>
<event>
 3    0  0.1709333E+001  0.1250000E+03  0.7546771E-02  0.1235069E+00
         21   -1    0    0  502  501  0.00000000000E+00  0.00000000000E+00  0.36070415513E+02  0.36070415513E+02  0.00000000000E+00 0.  1.
         21   -1    0    0  501  502 -0.00000000000E+00 -0.00000000000E+00 -0.10829512065E+03  0.10829512065E+03  0.00000000000E+00 0.  1.
         25    1    1    2    0    0  0.00000000000E+00  0.00000000000E+00 -0.72224705142E+02  0.14436553617E+03  0.12500000000E+03 0.  0.
<mgrwt>
<rscale>  2 0.12500000E+03</rscale>
<asrwt>0</asrwt>
<pdfrwt beam="1">  1       21 0.55492948E-02 0.12500000E+03</pdfrwt>
<pdfrwt beam="2">  1       21 0.16660788E-01 0.12500000E+03</pdfrwt>
<totfact> 0.71474393E+06</totfact>
</mgrwt>
</event>
<event>
 3    0  0.1652907E+001  0.1250000E+03  0.7546771E-02  0.1235069E+00
         21   -1    0    0  502  501  0.00000000000E+00  0.00000000000E+00  0.22126160027E+02  0.22126160027E+02  0.00000000000E+00 0. -1.
         21   -1    0    0  501  502 -0.00000000000E+00 -0.00000000000E+00 -0.17654441598E+03  0.17654441598E+03  0.00000000000E+00 0. -1.
         25    1    1    2    0    0  0.00000000000E+00  0.00000000000E+00 -0.15441825596E+03  0.19867057601E+03  0.12500000000E+03 0.  0.
<mgrwt>
<rscale>  2 0.12500000E+03</rscale>
<asrwt>0</asrwt>
<pdfrwt beam="1">  1       21 0.34040247E-02 0.12500000E+03</pdfrwt>
<pdfrwt beam="2">  1       21 0.27160679E-01 0.12500000E+03</pdfrwt>
<totfact> 0.65071511E+06</totfact>
</mgrwt>
</event>
<event>
 3    0  0.1652810E+001  0.1250000E+03  0.7546771E-02  0.1235069E+00
         21   -1    0    0  502  501  0.00000000000E+00  0.00000000000E+00  0.22121112626E+02  0.22121112626E+02  0.00000000000E+00 0. -1.
         21   -1    0    0  501  502 -0.00000000000E+00 -0.00000000000E+00 -0.17658469834E+03  0.17658469834E+03  0.00000000000E+00 0. -1.
         25    1    1    2    0    0  0.00000000000E+00  0.00000000000E+00 -0.15446358572E+03  0.19870581097E+03  0.12500000000E+03 0.  0.
<mgrwt>
<rscale>  2 0.12500000E+03</rscale>
<asrwt>0</asrwt>
<pdfrwt beam="1">  1       21 0.34032479E-02 0.12500000E+03</pdfrwt>
<pdfrwt beam="2">  1       21 0.27166878E-01 0.12500000E+03</pdfrwt>
<totfact> 0.65067696E+06</totfact>
</mgrwt>
</event>
<event>
 3    0  0.1729820E+001  0.1250000E+03  0.7546771E-02  0.1235069E+00
         21   -1    0    0  502  501  0.00000000000E+00  0.00000000000E+00  0.54622456271E+02  0.54622456271E+02  0.00000000000E+00 0.  1.
         21   -1    0    0  501  502 -0.00000000000E+00 -0.00000000000E+00 -0.71513627667E+02  0.71513627667E+02  0.00000000000E+00 0.  1.
         25    1    1    2    0    0  0.00000000000E+00  0.00000000000E+00 -0.16891171397E+02  0.12613608394E+03  0.12500000000E+03 0.  0.
<mgrwt>
<rscale>  2 0.12500000E+03</rscale>
<asrwt>0</asrwt>
<pdfrwt beam="1">  1       21 0.84034549E-02 0.12500000E+03</pdfrwt>
<pdfrwt beam="2">  1       21 0.11002096E-01 0.12500000E+03</pdfrwt>
<totfact> 0.73887297E+06</totfact>
</mgrwt>
</event>
<event>
 3    0  0.1655328E+001  0.1250000E+03  0.7546771E-02  0.1235069E+00
         21   -1    0    0  502  501  0.00000000000E+00  0.00000000000E+00  0.22252988363E+02  0.22252988363E+02  0.00000000000E+00 0. -1.
         21   -1    0    0  501  502 -0.00000000000E+00 -0.00000000000E+00 -0.17553822149E+03  0.17553822149E+03  0.00000000000E+00 0. -1.
         25    1    1    2    0    0  0.00000000000E+00  0.00000000000E+00 -0.15328523312E+03  0.19779120985E+03  0.12500000000E+03 0.  0.
<mgrwt>
<rscale>  2 0.12500000E+03</rscale>
<asrwt>0</asrwt>
<pdfrwt beam="1">  1       21 0.34235366E-02 0.12500000E+03</pdfrwt>
<pdfrwt beam="2">  1       21 0.27005881E-01 0.12500000E+03</pdfrwt>
<totfact> 0.65166820E+06</totfact>
</mgrwt>
</event>
<event>
 3    0  0.1623390E+001  0.1250000E+03  0.7546771E-02  0.1235069E+00
         21   -1    0    0  502  501  0.00000000000E+00  0.00000000000E+00  0.20594552526E+03  0.20594552526E+03  0.00000000000E+00 0. -1.
         21   -1    0    0  501  502 -0.00000000000E+00 -0.00000000000E+00 -0.18967394388E+02  0.18967394388E+02  0.00000000000E+00 0. -1.
         25    1    1    2    0    0  0.00000000000E+00  0.00000000000E+00  0.18697813087E+03  0.22491291965E+03  0.12500000000E+03 0.  0.
<mgrwt>
<rscale>  2 0.12500000E+03</rscale>
<asrwt>0</asrwt>
<pdfrwt beam="1">  1       21 0.31683925E-01 0.12500000E+03</pdfrwt>
<pdfrwt beam="2">  1       21 0.29180608E-02 0.12500000E+03</pdfrwt>
<totfact> 0.62323871E+06</totfact>
</mgrwt>
</event>
<event>
 3    0  0.1368989E+001  0.1250000E+03  0.7546771E-02  0.1235069E+00
         21   -1    0    0  502  501  0.00000000000E+00  0.00000000000E+00  0.59693795453E+01  0.59693795453E+01  0.00000000000E+00 0. -1.
         21   -1    0    0  501  502 -0.00000000000E+00 -0.00000000000E+00 -0.65438124186E+03  0.65438124186E+03  0.00000000000E+00 0. -1.
         25    1    1    2    0    0  0.00000000000E+00  0.00000000000E+00 -0.64841186232E+03  0.66035062141E+03  0.12500000000E+03 0.  0.
<mgrwt>
<rscale>  2 0.12500000E+03</rscale>
<asrwt>0</asrwt>
<pdfrwt beam="1">  1       21 0.91836608E-03 0.12500000E+03</pdfrwt>
<pdfrwt beam="2">  1       21 0.10067404E+00 0.12500000E+03</pdfrwt>
<totfact> 0.34495374E+06</totfact>
</mgrwt>
</event>
<event>
 3    0  0.1688787E+001  0.1250000E+03  0.7546771E-02  0.1235069E+00
         21   -1    0    0  502  501  0.00000000000E+00  0.00000000000E+00  0.34574136252E+02  0.34574136252E+02  0.00000000000E+00 0. -1.
         21   -1    0    0  501  502 -0.00000000000E+00 -0.00000000000E+00 -0.11298185359E+03  0.11298185359E+03  0.00000000000E+00 0. -1.
         25    1    1    2    0    0  0.00000000000E+00  0.00000000000E+00 -0.78407717337E+02  0.14755598984E+03  0.12500000000E+03 0.  0.
<mgrwt>
<rscale>  2 0.12500000E+03</rscale>
<asrwt>0</asrwt>
<pdfrwt beam="1">  1       21 0.53190978E-02 0.12500000E+03</pdfrwt>
<pdfrwt beam="2">  1       21 0.17381824E-01 0.12500000E+03</pdfrwt>
<totfact> 0.71067580E+06</totfact>
</mgrwt>
</event>
<event>
 3    0  0.1701265E+001  0.1250000E+03  0.7546771E-02  0.1235069E+00
         21   -1    0    0  502  501  0.00000000000E+00  0.00000000000E+00  0.27572218431E+02  0.27572218431E+02  0.00000000000E+00 0.  1.
         21   -1    0    0  501  502 -0.00000000000E+00 -0.00000000000E+00 -0.14167340251E+03  0.14167340251E+03  0.00000000000E+00 0.  1.
         25    1    1    2    0    0  0.00000000000E+00  0.00000000000E+00 -0.11410118408E+03  0.16924562094E+03  0.12500000000E+03 0.  0.
<mgrwt>
<rscale>  2 0.12500000E+03</rscale>
<asrwt>0</asrwt>
<pdfrwt beam="1">  1       21 0.42418799E-02 0.12500000E+03</pdfrwt>
<pdfrwt beam="2">  1       21 0.21795908E-01 0.12500000E+03</pdfrwt>
<totfact> 0.68407056E+06</totfact>
</mgrwt>
</event>
<event>
 3    0  0.1673109E+001  0.1250000E+03  0.7546771E-02  0.1235069E+00
         21   -1    0    0  502  501  0.00000000000E+00  0.00000000000E+00  0.14278252605E+03  0.14278252605E+03  0.00000000000E+00 0. -1.
         21   -1    0    0  501  502 -0.00000000000E+00 -0.00000000000E+00 -0.27358039587E+02  0.27358039587E+02  0.00000000000E+00 0. -1.
         25    1    1    2    0    0  0.00000000000E+00  0.00000000000E+00  0.11542448646E+03  0.17014056564E+03  0.12500000000E+03 0.  0.
<mgrwt>
<rscale>  2 0.12500000E+03</rscale>
<asrwt>0</asrwt>
<pdfrwt beam="1">  1       21 0.21966542E-01 0.12500000E+03</pdfrwt>
<pdfrwt beam="2">  1       21 0.42089293E-02 0.12500000E+03</pdfrwt>
<totfact> 0.68300976E+06</totfact>
</mgrwt>
</event>
<event>
 3    0  0.1517371E+001  0.1250000E+03  0.7546771E-02  0.1235069E+00
         21   -1    0    0  502  501  0.00000000000E+00  0.00000000000E+00  0.10484216554E+02  0.10484216554E+02  0.00000000000E+00 0. -1.
         21   -1    0    0  501  502 -0.00000000000E+00 -0.00000000000E+00 -0.37258387213E+03  0.37258387213E+03  0.00000000000E+00 0. -1.
         25    1    1    2    0    0  0.00000000000E+00  0.00000000000E+00 -0.36209965557E+03  0.38306808868E+03  0.12500000000E+03 0.  0.
<mgrwt>
<rscale>  2 0.12500000E+03</rscale>
<asrwt>0</asrwt>
<pdfrwt beam="1">  1       21 0.16129565E-02 0.12500000E+03</pdfrwt>
<pdfrwt beam="2">  1       21 0.57320592E-01 0.12500000E+03</pdfrwt>
<totfact> 0.49185084E+06</totfact>
</mgrwt>
</event>
<event>
 3    0  0.1593583E+001  0.1250000E+03  0.7546771E-02  0.1235069E+00
         21   -1    0    0  502  501  0.00000000000E+00  0.00000000000E+00  0.14975105528E+02  0.14975105528E+02  0.00000000000E+00 0. -1.
         21   -1    0    0  501  502 -0.00000000000E+00 -0.00000000000E+00 -0.26084958084E+03  0.26084958084E+03  0.00000000000E+00 0. -1.
         25    1    1    2    0    0  0.00000000000E+00  0.00000000000E+00 -0.24587447531E+03  0.27582468636E+03  0.12500000000E+03 0.  0.
<mgrwt>
<rscale>  2 0.12500000E+03</rscale>
<asrwt>0</asrwt>
<pdfrwt beam="1">  1       21 0.23038626E-02 0.12500000E+03</pdfrwt>
<pdfrwt beam="2">  1       21 0.40130701E-01 0.12500000E+03</pdfrwt>
<totfact> 0.57527044E+06</totfact>
</mgrwt>
</event>
<event>
 3    0  0.1696634E+001  0.1250000E+03  0.7546771E-02  0.1235069E+00
         21   -1    0    0  502  501  0.00000000000E+00  0.00000000000E+00  0.13389745281E+03  0.13389745281E+03  0.00000000000E+00 0.  1.
         21   -1    0    0  501  502 -0.00000000000E+00 -0.00000000000E+00 -0.29173445186E+02  0.29173445186E+02  0.00000000000E+00 0.  1.
         25    1    1    2    0    0  0.00000000000E+00  0.00000000000E+00  0.10472400762E+03  0.16307089799E+03  0.12500000000E+03 0.  0.
<mgrwt>
<rscale>  2 0.12500000E+03</rscale>
<asrwt>0</asrwt>
<pdfrwt beam="1">  1       21 0.20599608E-01 0.12500000E+03</pdfrwt>
<pdfrwt beam="2">  1       21 0.44882224E-02 0.12500000E+03</pdfrwt>
<totfact> 0.69146199E+06</totfact>
</mgrwt>
</event>
<event>
 3    0  0.1703387E+001  0.1250000E+03  0.7546771E-02  0.1235069E+00
         21   -1    0    0  502  501  0.00000000000E+00  0.00000000000E+00  0.13098055911E+03  0.13098055911E+03  0.00000000000E+00 0.  1.
         21   -1    0    0  501  502 -0.00000000000E+00 -0.00000000000E+00 -0.29823128154E+02  0.29823128154E+02  0.00000000000E+00 0.  1.
         25    1    1    2    0    0  0.00000000000E+00  0.00000000000E+00  0.10115743095E+03  0.16080368726E+03  0.12500000000E+03 0.  0.
<mgrwt>
<rscale>  2 0.12500000E+03</rscale>
<asrwt>0</asrwt>
<pdfrwt beam="1">  1       21 0.20150855E-01 0.12500000E+03</pdfrwt>
<pdfrwt beam="2">  1       21 0.45881736E-02 0.12500000E+03</pdfrwt>
<totfact> 0.69421427E+06</totfact>
</mgrwt>
</event>
<event>
 3    0  0.1368989E+001  0.1250000E+03  0.7546771E-02  0.1235069E+00
         21   -1    0    0  502  501  0.00000000000E+00  0.00000000000E+00  0.94853471656E+03  0.94853471656E+03  0.00000000000E+00 0. -1.
         21   -1    0    0  501  502 -0.00000000000E+00 -0.00000000000E+00 -0.41181940226E+01  0.41181940226E+01  0.00000000000E+00 0. -1.
         25    1    1    2    0    0  0.00000000000E+00  0.00000000000E+00  0.94441652254E+03  0.95265291059E+03  0.12500000000E+03 0.  0.
<mgrwt>
<rscale>  2 0.12500000E+03</rscale>
<asrwt>0</asrwt>
<pdfrwt beam="1">  1       21 0.14592824E+00 0.12500000E+03</pdfrwt>
<pdfrwt beam="2">  1       21 0.63356907E-03 0.12500000E+03</pdfrwt>
<totfact> 0.24840539E+06</totfact>
</mgrwt>
</event>
<event>
 3    0  0.1698130E+001  0.1250000E+03  0.7546771E-02  0.1235069E+00
         21   -1    0    0  502  501  0.00000000000E+00  0.00000000000E+00  0.86560758303E+02  0.86560758303E+02  0.00000000000E+00 0. -1.
         21   -1    0    0  501  502 -0.00000000000E+00 -0.00000000000E+00 -0.45127261782E+02  0.45127261782E+02  0.00000000000E+00 0. -1.
         25    1    1    2    0    0  0.00000000000E+00  0.00000000000E+00  0.41433496521E+02  0.13168802009E+03  0.12500000000E+03 0.  0.
<mgrwt>
<rscale>  2 0.12500000E+03</rscale>
<asrwt>0</asrwt>
<pdfrwt beam="1">  1       21 0.13317040E-01 0.12500000E+03</pdfrwt>
<pdfrwt beam="2">  1       21 0.69426557E-02 0.12500000E+03</pdfrwt>
<totfact> 0.73138105E+06</totfact>
</mgrwt>
</event>
<event>
 3    0  0.1700895E+001  0.1250000E+03  0.7546771E-02  0.1235069E+00
         21   -1    0    0  502  501  0.00000000000E+00  0.00000000000E+00  0.93951103091E+02  0.93951103091E+02  0.00000000000E+00 0. -1.
         21   -1    0    0  501  502 -0.00000000000E+00 -0.00000000000E+00 -0.41577478832E+02  0.41577478832E+02  0.00000000000E+00 0. -1.
         25    1    1    2    0    0  0.00000000000E+00  0.00000000000E+00  0.52373624259E+02  0.13552858192E+03  0.12500000000E+03 0.  0.
<mgrwt>
<rscale>  2 0.12500000E+03</rscale>
<asrwt>0</asrwt>
<pdfrwt beam="1">  1       21 0.14454016E-01 0.12500000E+03</pdfrwt>
<pdfrwt beam="2">  1       21 0.63965352E-02 0.12500000E+03</pdfrwt>
<totfact> 0.72626560E+06</totfact>
</mgrwt>
</event>
<event>
 3    0  0.1660337E+001  0.1250000E+03  0.7546771E-02  0.1235069E+00
         21   -1    0    0  502  501  0.00000000000E+00  0.00000000000E+00  0.25763283499E+02  0.25763283499E+02  0.00000000000E+00 0. -1.
         21   -1    0    0  501  502 -0.00000000000E+00 -0.00000000000E+00 -0.15162081340E+03  0.15162081340E+03  0.00000000000E+00 0. -1.
         25    1    1    2    0    0  0.00000000000E+00  0.00000000000E+00 -0.12585752990E+03  0.17738409690E+03  0.12500000000E+03 0.  0.
<mgrwt>
<rscale>  2 0.12500000E+03</rscale>
<asrwt>0</asrwt>
<pdfrwt beam="1">  1       21 0.39635821E-02 0.12500000E+03</pdfrwt>
<pdfrwt beam="2">  1       21 0.23326279E-01 0.12500000E+03</pdfrwt>
<totfact> 0.67452899E+06</totfact>
</mgrwt>
</event>
<event>
 3    0  0.1368989E+001  0.1250000E+03  0.7546771E-02  0.1235069E+00
         21   -1    0    0  502  501  0.00000000000E+00  0.00000000000E+00  0.80133902684E+03  0.80133902684E+03  0.00000000000E+00 0. -1.
         21   -1    0    0  501  502 -0.00000000000E+00 -0.00000000000E+00 -0.48746533854E+01  0.48746533854E+01  0.00000000000E+00 0. -1.
         25    1    1    2    0    0  0.00000000000E+00  0.00000000000E+00  0.79646437345E+03  0.80621368022E+03  0.12500000000E+03 0.  0.
<mgrwt>
<rscale>  2 0.12500000E+03</rscale>
<asrwt>0</asrwt>
<pdfrwt beam="1">  1       21 0.12328282E+00 0.12500000E+03</pdfrwt>
<pdfrwt beam="2">  1       21 0.74994731E-03 0.12500000E+03</pdfrwt>
<totfact> 0.29157992E+06</totfact>
</mgrwt>
</event>
<event>
 3    0  0.1531904E+001  0.1250000E+03  0.7546771E-02  0.1235069E+00
         21   -1    0    0  502  501  0.00000000000E+00  0.00000000000E+00  0.11108513802E+02  0.11108513802E+02  0.00000000000E+00 0.  1.
         21   -1    0    0  501  502 -0.00000000000E+00 -0.00000000000E+00 -0.35164469969E+03  0.35164469969E+03  0.00000000000E+00 0.  1.
         25    1    1    2    0    0  0.00000000000E+00  0.00000000000E+00 -0.34053618588E+03  0.36275321349E+03  0.12500000000E+03 0.  0.
<mgrwt>
<rscale>  2 0.12500000E+03</rscale>
<asrwt>0</asrwt>
<pdfrwt beam="1">  1       21 0.17090025E-02 0.12500000E+03</pdfrwt>
<pdfrwt beam="2">  1       21 0.54099174E-01 0.12500000E+03</pdfrwt>
<totfact> 0.50610148E+06</totfact>
</mgrwt>
</event>
<event>
 3    0  0.1570628E+001  0.1250000E+03  0.7546771E-02  0.1235069E+00
         21   -1    0    0  502  501  0.00000000000E+00  0.00000000000E+00  0.27982861966E+03  0.27982861966E+03  0.00000000000E+00 0. -1.
         21   -1    0    0  501  502 -0.00000000000E+00 -0.00000000000E+00 -0.13959437047E+02  0.13959437047E+02  0.00000000000E+00 0. -1.
         25    1    1    2    0    0  0.00000000000E+00  0.00000000000E+00  0.26586918261E+03  0.29378805671E+03  0.12500000000E+03 0.  0.
<mgrwt>
<rscale>  2 0.12500000E+03</rscale>
<asrwt>0</asrwt>
<pdfrwt beam="1">  1       21 0.43050553E-01 0.12500000E+03</pdfrwt>
<pdfrwt beam="2">  1       21 0.21476059E-02 0.12500000E+03</pdfrwt>
<totfact> 0.55976396E+06</totfact>
</mgrwt>
</event>
<event>
 3    0  0.1368989E+001  0.1250000E+03  0.7546771E-02  0.1235069E+00
         21   -1    0    0  502  501  0.00000000000E+00  0.00000000000E+00  0.37150177349E+01  0.37150177349E+01  0.00000000000E+00 0. -1.
         21   -1    0    0  501  502 -0.00000000000E+00 -0.00000000000E+00 -0.10514754649E+04  0.10514754649E+04  0.00000000000E+00 0. -1.
         25    1    1    2    0    0  0.00000000000E+00  0.00000000000E+00 -0.10477604472E+04  0.10551904827E+04  0.12500000000E+03 0.  0.
<mgrwt>
<rscale>  2 0.12500000E+03</rscale>
<asrwt>0</asrwt>
<pdfrwt beam="1">  1       21 0.57154107E-03 0.12500000E+03</pdfrwt>
<pdfrwt beam="2">  1       21 0.16176549E+00 0.12500000E+03</pdfrwt>
<totfact> 0.22276465E+06</totfact>
</mgrwt>
</event>
<event>
 3    0  0.1699164E+001  0.1250000E+03  0.7546771E-02  0.1235069E+00
         21   -1    0    0  502  501  0.00000000000E+00  0.00000000000E+00  0.90128209920E+02  0.90128209920E+02  0.00000000000E+00 0. -1.
         21   -1    0    0  501  502 -0.00000000000E+00 -0.00000000000E+00 -0.43341036102E+02  0.43341036102E+02  0.00000000000E+00 0. -1.
         25    1    1    2    0    0  0.00000000000E+00  0.00000000000E+00  0.46787173818E+02  0.13346924602E+03  0.12500000000E+03 0.  0.
<mgrwt>
<rscale>  2 0.12500000E+03</rscale>
<asrwt>0</asrwt>
<pdfrwt beam="1">  1       21 0.13865878E-01 0.12500000E+03</pdfrwt>
<pdfrwt beam="2">  1       21 0.66678517E-02 0.12500000E+03</pdfrwt>
<totfact> 0.72899802E+06</totfact>
</mgrwt>
</event>
<event>
 3    0  0.1368989E+001  0.1250000E+03  0.7546771E-02  0.1235069E+00
         21   -1    0    0  502  501  0.00000000000E+00  0.00000000000E+00  0.87392253766E+03  0.87392253766E+03  0.00000000000E+00 0.  1.
         21   -1    0    0  501  502 -0.00000000000E+00 -0.00000000000E+00 -0.44697897487E+01  0.44697897487E+01  0.00000000000E+00 0.  1.
         25    1    1    2    0    0  0.00000000000E+00  0.00000000000E+00  0.86945274791E+03  0.87839232741E+03  0.12500000000E+03 0.  0.
<mgrwt>
<rscale>  2 0.12500000E+03</rscale>
<asrwt>0</asrwt>
<pdfrwt beam="1">  1       21 0.13444949E+00 0.12500000E+03</pdfrwt>
<pdfrwt beam="2">  1       21 0.68766066E-03 0.12500000E+03</pdfrwt>
<totfact> 0.26923542E+06</totfact>
</mgrwt>
</event>
<event>
 3    0  0.1520762E+001  0.1250000E+03  0.7546771E-02  0.1235069E+00
         21   -1    0    0  502  501  0.00000000000E+00  0.00000000000E+00  0.10530697508E+02  0.10530697508E+02  0.00000000000E+00 0. -1.
         21   -1    0    0  501  502 -0.00000000000E+00 -0.00000000000E+00 -0.37093934159E+03  0.37093934159E+03  0.00000000000E+00 0. -1.
         25    1    1    2    0    0  0.00000000000E+00  0.00000000000E+00 -0.36040864408E+03  0.38147003909E+03  0.12500000000E+03 0.  0.
<mgrwt>
<rscale>  2 0.12500000E+03</rscale>
<asrwt>0</asrwt>
<pdfrwt beam="1">  1       21 0.16201074E-02 0.12500000E+03</pdfrwt>
<pdfrwt beam="2">  1       21 0.57067588E-01 0.12500000E+03</pdfrwt>
<totfact> 0.49295002E+06</totfact>
</mgrwt>
</event>
<event>
 3    0  0.1368989E+001  0.1250000E+03  0.7546771E-02  0.1235069E+00
         21   -1    0    0  502  501  0.00000000000E+00  0.00000000000E+00  0.70631643147E+03  0.70631643147E+03  0.00000000000E+00 0. -1.
         21   -1    0    0  501  502 -0.00000000000E+00 -0.00000000000E+00 -0.55304532444E+01  0.55304532444E+01  0.00000000000E+00 0. -1.
         25    1    1    2    0    0  0.00000000000E+00  0.00000000000E+00  0.70078597823E+03  0.71184688471E+03  0.12500000000E+03 0.  0.
<mgrwt>
<rscale>  2 0.12500000E+03</rscale>
<asrwt>0</asrwt>
<pdfrwt beam="1">  1       21 0.10866400E+00 0.12500000E+03</pdfrwt>
<pdfrwt beam="2">  1       21 0.85083952E-03 0.12500000E+03</pdfrwt>
<totfact> 0.32458397E+06</totfact>
</mgrwt>
</event>
<event>
 3    0  0.1566851E+001  0.1250000E+03  0.7546771E-02  0.1235069E+00
         21   -1    0    0  502  501  0.00000000000E+00  0.00000000000E+00  0.13862546867E+02  0.13862546867E+02  0.00000000000E+00 0. -1.
         21   -1    0    0  501  502 -0.00000000000E+00 -0.00000000000E+00 -0.28178443957E+03  0.28178443957E+03  0.00000000000E+00 0. -1.
         25    1    1    2    0    0  0.00000000000E+00  0.00000000000E+00 -0.26792189270E+03  0.29564698643E+03  0.12500000000E+03 0.  0.
<mgrwt>
<rscale>  2 0.12500000E+03</rscale>
<asrwt>0</asrwt>
<pdfrwt beam="1">  1       21 0.21326997E-02 0.12500000E+03</pdfrwt>
<pdfrwt beam="2">  1       21 0.43351449E-01 0.12500000E+03</pdfrwt>
<totfact> 0.55819878E+06</totfact>
</mgrwt>
</event>
<event>
 3    0  0.1368989E+001  0.1250000E+03  0.7546771E-02  0.1235069E+00
         21   -1    0    0  502  501  0.00000000000E+00  0.00000000000E+00  0.28528986858E+01  0.28528986858E+01  0.00000000000E+00 0.  1.
         21   -1    0    0  501  502 -0.00000000000E+00 -0.00000000000E+00 -0.13692214236E+04  0.13692214236E+04  0.00000000000E+00 0.  1.
         25    1    1    2    0    0  0.00000000000E+00  0.00000000000E+00 -0.13663685249E+04  0.13720743223E+04  0.12500000000E+03 0.  0.
<mgrwt>
<rscale>  2 0.12500000E+03</rscale>
<asrwt>0</asrwt>
<pdfrwt beam="1">  1       21 0.43890710E-03 0.12500000E+03</pdfrwt>
<pdfrwt beam="2">  1       21 0.21064964E+00 0.12500000E+03</pdfrwt>
<totfact> 0.16005602E+06</totfact>
</mgrwt>
</event>
<event>
 3    0  0.1730066E+001  0.1250000E+03  0.7546771E-02  0.1235069E+00
         21   -1    0    0  502  501  0.00000000000E+00  0.00000000000E+00  0.59753177466E+02  0.59753177466E+02  0.00000000000E+00 0.  1.
         21   -1    0    0  501  502 -0.00000000000E+00 -0.00000000000E+00 -0.65373092539E+02  0.65373092539E+02  0.00000000000E+00 0.  1.
         25    1    1    2    0    0  0.00000000000E+00  0.00000000000E+00 -0.56199150734E+01  0.12512627001E+03  0.12500000000E+03 0.  0.
<mgrwt>
<rscale>  2 0.12500000E+03</rscale>
<asrwt>0</asrwt>
<pdfrwt beam="1">  1       21 0.91927966E-02 0.12500000E+03</pdfrwt>
<pdfrwt beam="2">  1       21 0.10057399E-01 0.12500000E+03</pdfrwt>
<totfact> 0.74026528E+06</totfact>
</mgrwt>
</event>
<event>
 3    0  0.1384056E+001  0.1250000E+03  0.7546771E-02  0.1235069E+00
         21   -1    0    0  502  501  0.00000000000E+00  0.00000000000E+00  0.64149896721E+01  0.64149896721E+01  0.00000000000E+00 0.  1.
         21   -1    0    0  501  502 -0.00000000000E+00 -0.00000000000E+00 -0.60892537629E+03  0.60892537629E+03  0.00000000000E+00 0.  1.
         25    1    1    2    0    0  0.00000000000E+00  0.00000000000E+00 -0.60251038662E+03  0.61534036597E+03  0.12500000000E+03 0.  0.
<mgrwt>
<rscale>  2 0.12500000E+03</rscale>
<asrwt>0</asrwt>
<pdfrwt beam="1">  1       21 0.98692199E-03 0.12500000E+03</pdfrwt>
<pdfrwt beam="2">  1       21 0.93680779E-01 0.12500000E+03</pdfrwt>
<totfact> 0.36407959E+06</totfact>
</mgrwt>
</event>
<event>
 3    0  0.1724465E+001  0.1250000E+03  0.7546771E-02  0.1235069E+00
         21   -1    0    0  502  501  0.00000000000E+00  0.00000000000E+00  0.94521357010E+02  0.94521357010E+02  0.00000000000E+00 0.  1.
         21   -1    0    0  501  502 -0.00000000000E+00 -0.00000000000E+00 -0.41326639011E+02  0.41326639011E+02  0.00000000000E+00 0.  1.
         25    1    1    2    0    0  0.00000000000E+00  0.00000000000E+00  0.53194717999E+02  0.13584799602E+03  0.12500000000E+03 0.  0.
<mgrwt>
<rscale>  2 0.12500000E+03</rscale>
<asrwt>0</asrwt>
<pdfrwt beam="1">  1       21 0.14541747E-01 0.12500000E+03</pdfrwt>
<pdfrwt beam="2">  1       21 0.63579445E-02 0.12500000E+03</pdfrwt>
<totfact> 0.72584386E+06</totfact>
</mgrwt>
</event>
<event>
 3    0  0.1688847E+001  0.1250000E+03  0.7546771E-02  0.1235069E+00
         21   -1    0    0  502  501  0.00000000000E+00  0.00000000000E+00  0.23577931466E+02  0.23577931466E+02  0.00000000000E+00 0.  1.
         21   -1    0    0  501  502 -0.00000000000E+00 -0.00000000000E+00 -0.16567399077E+03  0.16567399077E+03  0.00000000000E+00 0.  1.
         25    1    1    2    0    0  0.00000000000E+00  0.00000000000E+00 -0.14209605930E+03  0.18925192223E+03  0.12500000000E+03 0.  0.
<mgrwt>
<rscale>  2 0.12500000E+03</rscale>
<asrwt>0</asrwt>
<pdfrwt beam="1">  1       21 0.36273740E-02 0.12500000E+03</pdfrwt>
<pdfrwt beam="2">  1       21 0.25488307E-01 0.12500000E+03</pdfrwt>
<totfact> 0.66105702E+06</totfact>
</mgrwt>
</event>
<event>
 3    0  0.1725516E+001  0.1250000E+03  0.7546771E-02  0.1235069E+00
         21   -1    0    0  502  501  0.00000000000E+00  0.00000000000E+00  0.84631875106E+02  0.84631875106E+02  0.00000000000E+00 0.  1.
         21   -1    0    0  501  502 -0.00000000000E+00 -0.00000000000E+00 -0.46155777538E+02  0.46155777538E+02  0.00000000000E+00 0.  1.
         25    1    1    2    0    0  0.00000000000E+00  0.00000000000E+00  0.38476097568E+02  0.13078765264E+03  0.12500000000E+03 0.  0.
<mgrwt>
<rscale>  2 0.12500000E+03</rscale>
<asrwt>0</asrwt>
<pdfrwt beam="1">  1       21 0.13020288E-01 0.12500000E+03</pdfrwt>
<pdfrwt beam="2">  1       21 0.71008888E-02 0.12500000E+03</pdfrwt>
<totfact> 0.73259301E+06</totfact>
</mgrwt>
</event>
<event>
 3    0  0.1591082E+001  0.1250000E+03  0.7546771E-02  0.1235069E+00
         21   -1    0    0  502  501  0.00000000000E+00  0.00000000000E+00  0.13897125272E+02  0.13897125272E+02  0.00000000000E+00 0.  1.
         21   -1    0    0  501  502 -0.00000000000E+00 -0.00000000000E+00 -0.28108331209E+03  0.28108331209E+03  0.00000000000E+00 0.  1.
         25    1    1    2    0    0  0.00000000000E+00  0.00000000000E+00 -0.26718618682E+03  0.29498043737E+03  0.12500000000E+03 0.  0.
<mgrwt>
<rscale>  2 0.12500000E+03</rscale>
<asrwt>0</asrwt>
<pdfrwt beam="1">  1       21 0.21380189E-02 0.12500000E+03</pdfrwt>
<pdfrwt beam="2">  1       21 0.43243593E-01 0.12500000E+03</pdfrwt>
<totfact> 0.55875912E+06</totfact>
</mgrwt>
</event>
<event>
 3    0  0.1695733E+001  0.1250000E+03  0.7546771E-02  0.1235069E+00
         21   -1    0    0  502  501  0.00000000000E+00  0.00000000000E+00  0.44525465481E+02  0.44525465481E+02  0.00000000000E+00 0. -1.
         21   -1    0    0  501  502 -0.00000000000E+00 -0.00000000000E+00 -0.87730694284E+02  0.87730694284E+02  0.00000000000E+00 0. -1.
         25    1    1    2    0    0  0.00000000000E+00  0.00000000000E+00 -0.43205228803E+02  0.13225615977E+03  0.12500000000E+03 0.  0.
<mgrwt>
<rscale>  2 0.12500000E+03</rscale>
<asrwt>0</asrwt>
<pdfrwt beam="1">  1       21 0.68500716E-02 0.12500000E+03</pdfrwt>
<pdfrwt beam="2">  1       21 0.13497030E-01 0.12500000E+03</pdfrwt>
<totfact> 0.73061890E+06</totfact>
</mgrwt>
</event>
<event>
 3    0  0.1432604E+001  0.1250000E+03  0.7546771E-02  0.1235069E+00
         21   -1    0    0  502  501  0.00000000000E+00  0.00000000000E+00  0.56958302585E+03  0.56958302585E+03  0.00000000000E+00 0. -1.
         21   -1    0    0  501  502 -0.00000000000E+00 -0.00000000000E+00 -0.68580870966E+01  0.68580870966E+01  0.00000000000E+00 0. -1.
         25    1    1    2    0    0  0.00000000000E+00  0.00000000000E+00  0.56272493875E+03  0.57644111295E+03  0.12500000000E+03 0.  0.
<mgrwt>
<rscale>  2 0.12500000E+03</rscale>
<asrwt>0</asrwt>
<pdfrwt beam="1">  1       21 0.87628121E-01 0.12500000E+03</pdfrwt>
<pdfrwt beam="2">  1       21 0.10550908E-02 0.12500000E+03</pdfrwt>
<totfact> 0.38180206E+06</totfact>
</mgrwt>
</event>
<event>
 3    0  0.1373669E+001  0.1250000E+03  0.7546771E-02  0.1235069E+00
         21   -1    0    0  502  501  0.00000000000E+00  0.00000000000E+00  0.74856503349E+03  0.74856503349E+03  0.00000000000E+00 0.  1.
         21   -1    0    0  501  502 -0.00000000000E+00 -0.00000000000E+00 -0.52183174811E+01  0.52183174811E+01  0.00000000000E+00 0.  1.
         25    1    1    2    0    0  0.00000000000E+00  0.00000000000E+00  0.74334671601E+03  0.75378335097E+03  0.12500000000E+03 0.  0.
<mgrwt>
<rscale>  2 0.12500000E+03</rscale>
<asrwt>0</asrwt>
<pdfrwt beam="1">  1       21 0.11516377E+00 0.12500000E+03</pdfrwt>
<pdfrwt beam="2">  1       21 0.80281867E-03 0.12500000E+03</pdfrwt>
<totfact> 0.30936258E+06</totfact>
</mgrwt>
</event>
<event>
 3    0  0.1514669E+001  0.1250000E+03  0.7546771E-02  0.1235069E+00
         21   -1    0    0  502  501  0.00000000000E+00  0.00000000000E+00  0.11178588388E+02  0.11178588388E+02  0.00000000000E+00 0. -1.
         21   -1    0    0  501  502 -0.00000000000E+00 -0.00000000000E+00 -0.34944036443E+03  0.34944036443E+03  0.00000000000E+00 0. -1.
         25    1    1    2    0    0  0.00000000000E+00  0.00000000000E+00 -0.33826177604E+03  0.36061895282E+03  0.12500000000E+03 0.  0.
<mgrwt>
<rscale>  2 0.12500000E+03</rscale>
<asrwt>0</asrwt>
<pdfrwt beam="1">  1       21 0.17197827E-02 0.12500000E+03</pdfrwt>
<pdfrwt beam="2">  1       21 0.53760059E-01 0.12500000E+03</pdfrwt>
<totfact> 0.50763626E+06</totfact>
</mgrwt>
</event>
<event>
 3    0  0.1728694E+001  0.1250000E+03  0.7546771E-02  0.1235069E+00
         21   -1    0    0  502  501  0.00000000000E+00  0.00000000000E+00  0.69023914182E+02  0.69023914182E+02  0.00000000000E+00 0.  1.
         21   -1    0    0  501  502 -0.00000000000E+00 -0.00000000000E+00 -0.56592704808E+02  0.56592704808E+02  0.00000000000E+00 0.  1.
         25    1    1    2    0    0  0.00000000000E+00  0.00000000000E+00  0.12431209375E+02  0.12561661899E+03  0.12500000000E+03 0.  0.
<mgrwt>
<rscale>  2 0.12500000E+03</rscale>
<asrwt>0</asrwt>
<pdfrwt beam="1">  1       21 0.10619064E-01 0.12500000E+03</pdfrwt>
<pdfrwt beam="2">  1       21 0.87065700E-02 0.12500000E+03</pdfrwt>
<totfact> 0.73959129E+06</totfact>
</mgrwt>
</event>
<event>
 3    0  0.1505851E+001  0.1250000E+03  0.7546771E-02  0.1235069E+00
         21   -1    0    0  502  501  0.00000000000E+00  0.00000000000E+00  0.98786831059E+01  0.98786831059E+01  0.00000000000E+00 0. -1.
         21   -1    0    0  501  502 -0.00000000000E+00 -0.00000000000E+00 -0.39542213857E+03  0.39542213857E+03  0.00000000000E+00 0. -1.
         25    1    1    2    0    0  0.00000000000E+00  0.00000000000E+00 -0.38554345546E+03  0.40530082168E+03  0.12500000000E+03 0.  0.
<mgrwt>
<rscale>  2 0.12500000E+03</rscale>
<asrwt>0</asrwt>
<pdfrwt beam="1">  1       21 0.15197977E-02 0.12500000E+03</pdfrwt>
<pdfrwt beam="2">  1       21 0.60834163E-01 0.12500000E+03</pdfrwt>
<totfact> 0.47691734E+06</totfact>
</mgrwt>
</event>
<event>
 3    0  0.1368989E+001  0.1250000E+03  0.7546771E-02  0.1235069E+00
         21   -1    0    0  502  501  0.00000000000E+00  0.00000000000E+00  0.28047918410E+01  0.28047918410E+01  0.00000000000E+00 0.  1.
         21   -1    0    0  501  502 -0.00000000000E+00 -0.00000000000E+00 -0.13927058482E+04  0.13927058482E+04  0.00000000000E+00 0.  1.
         25    1    1    2    0    0  0.00000000000E+00  0.00000000000E+00 -0.13899010564E+04  0.13955106401E+04  0.12500000000E+03 0.  0.
<mgrwt>
<rscale>  2 0.12500000E+03</rscale>
<asrwt>0</asrwt>
<pdfrwt beam="1">  1       21 0.43150608E-03 0.12500000E+03</pdfrwt>
<pdfrwt beam="2">  1       21 0.21426261E+00 0.12500000E+03</pdfrwt>
<totfact> 0.15617986E+06</totfact>
</mgrwt>
</event>
<event>
 3    0  0.1708142E+001  0.1250000E+03  0.7546771E-02  0.1235069E+00
         21   -1    0    0  502  501  0.00000000000E+00  0.00000000000E+00  0.35877962899E+02  0.35877962899E+02  0.00000000000E+00 0.  1.
         21   -1    0    0  501  502 -0.00000000000E+00 -0.00000000000E+00 -0.10887602540E+03  0.10887602540E+03  0.00000000000E+00 0.  1.
         25    1    1    2    0    0  0.00000000000E+00  0.00000000000E+00 -0.72998062506E+02  0.14475398830E+03  0.12500000000E+03 0.  0.
<mgrwt>
<rscale>  2 0.12500000E+03</rscale>
<asrwt>0</asrwt>
<pdfrwt beam="1">  1       21 0.55196865E-02 0.12500000E+03</pdfrwt>
<pdfrwt beam="2">  1       21 0.16750158E-01 0.12500000E+03</pdfrwt>
<totfact> 0.71424597E+06</totfact>
</mgrwt>
</event>
<event>
 3    0  0.1531526E+001  0.1250000E+03  0.7546771E-02  0.1235069E+00
         21   -1    0    0  502  501  0.00000000000E+00  0.00000000000E+00  0.10680157615E+02  0.10680157615E+02  0.00000000000E+00 0. -1.
         21   -1    0    0  501  502 -0.00000000000E+00 -0.00000000000E+00 -0.36574834761E+03  0.36574834761E+03  0.00000000000E+00 0. -1.
         25    1    1    2    0    0  0.00000000000E+00  0.00000000000E+00 -0.35506819000E+03  0.37642850523E+03  0.12500000000E+03 0.  0.
<mgrwt>
<rscale>  2 0.12500000E+03</rscale>
<asrwt>0</asrwt>
<pdfrwt beam="1">  1       21 0.16431010E-02 0.12500000E+03</pdfrwt>
<pdfrwt beam="2">  1       21 0.56268981E-01 0.12500000E+03</pdfrwt>
<totfact> 0.49643898E+06</totfact>
</mgrwt>
</event>
<event>
 3    0  0.1669548E+001  0.1250000E+03  0.7546771E-02  0.1235069E+00
         21   -1    0    0  502  501  0.00000000000E+00  0.00000000000E+00  0.17927399359E+03  0.17927399359E+03  0.00000000000E+00 0.  1.
         21   -1    0    0  501  502 -0.00000000000E+00 -0.00000000000E+00 -0.21789273066E+02  0.21789273066E+02  0.00000000000E+00 0.  1.
         25    1    1    2    0    0  0.00000000000E+00  0.00000000000E+00  0.15748472052E+03  0.20106326666E+03  0.12500000000E+03 0.  0.
<mgrwt>
<rscale>  2 0.12500000E+03</rscale>
<asrwt>0</asrwt>
<pdfrwt beam="1">  1       21 0.27580613E-01 0.12500000E+03</pdfrwt>
<pdfrwt beam="2">  1       21 0.33521960E-02 0.12500000E+03</pdfrwt>
<totfact> 0.64812223E+06</totfact>
</mgrwt>
</event>
<event>
 3    0  0.1705418E+001  0.1250000E+03  0.7546771E-02  0.1235069E+00
         21   -1    0    0  502  501  0.00000000000E+00  0.00000000000E+00  0.62616574645E+02  0.62616574645E+02  0.00000000000E+00 0. -1.
         21   -1    0    0  501  502 -0.00000000000E+00 -0.00000000000E+00 -0.62383642385E+02  0.62383642385E+02  0.00000000000E+00 0. -1.
         25    1    1    2    0    0  0.00000000000E+00  0.00000000000E+00  0.23293225992E+00  0.12500021703E+03  0.12500000000E+03 0.  0.
<mgrwt>
<rscale>  2 0.12500000E+03</rscale>
<asrwt>0</asrwt>
<pdfrwt beam="1">  1       21 0.96333193E-02 0.12500000E+03</pdfrwt>
<pdfrwt beam="2">  1       21 0.95974834E-02 0.12500000E+03</pdfrwt>
<totfact> 0.74043552E+06</totfact>
</mgrwt>
</event>
<event>
 3    0  0.1723807E+001  0.1250000E+03  0.7546771E-02  0.1235069E+00
         21   -1    0    0  502  501  0.00000000000E+00  0.00000000000E+00  0.47003335338E+02  0.47003335338E+02  0.00000000000E+00 0.  1.
         21   -1    0    0  501  502 -0.00000000000E+00 -0.00000000000E+00 -0.83105804554E+02  0.83105804554E+02  0.00000000000E+00 0.  1.
         25    1    1    2    0    0  0.00000000000E+00  0.00000000000E+00 -0.36102469215E+02  0.13010913989E+03  0.12500000000E+03 0.  0.
<mgrwt>
<rscale>  2 0.12500000E+03</rscale>
<asrwt>0</asrwt>
<pdfrwt beam="1">  1       21 0.72312824E-02 0.12500000E+03</pdfrwt>
<pdfrwt beam="2">  1       21 0.12785508E-01 0.12500000E+03</pdfrwt>
<totfact> 0.73350332E+06</totfact>
</mgrwt>
</event>
<event>
 3    0  0.1635270E+001  0.1250000E+03  0.7546771E-02  0.1235069E+00
         21   -1    0    0  502  501  0.00000000000E+00  0.00000000000E+00  0.20426697515E+02  0.20426697515E+02  0.00000000000E+00 0. -1.
         21   -1    0    0  501  502 -0.00000000000E+00 -0.00000000000E+00 -0.19123257673E+03  0.19123257673E+03  0.00000000000E+00 0. -1.
         25    1    1    2    0    0  0.00000000000E+00  0.00000000000E+00 -0.17080587922E+03  0.21165927425E+03  0.12500000000E+03 0.  0.
<mgrwt>
<rscale>  2 0.12500000E+03</rscale>
<asrwt>0</asrwt>
<pdfrwt beam="1">  1       21 0.31425689E-02 0.12500000E+03</pdfrwt>
<pdfrwt beam="2">  1       21 0.29420396E-01 0.12500000E+03</pdfrwt>
<totfact> 0.63685383E+06</totfact>
</mgrwt>
</event>
<event>
 3    0  0.1438137E+001  0.1250000E+03  0.7546771E-02  0.1235069E+00
         21   -1    0    0  502  501  0.00000000000E+00  0.00000000000E+00  0.71486724855E+01  0.71486724855E+01  0.00000000000E+00 0.  1.
         21   -1    0    0  501  502 -0.00000000000E+00 -0.00000000000E+00 -0.54643012502E+03  0.54643012502E+03  0.00000000000E+00 0.  1.
         25    1    1    2    0    0  0.00000000000E+00  0.00000000000E+00 -0.53928145253E+03  0.55357879751E+03  0.12500000000E+03 0.  0.
<mgrwt>
<rscale>  2 0.12500000E+03</rscale>
<asrwt>0</asrwt>
<pdfrwt beam="1">  1       21 0.10997951E-02 0.12500000E+03</pdfrwt>
<pdfrwt beam="2">  1       21 0.84066225E-01 0.12500000E+03</pdfrwt>
<totfact> 0.39279798E+06</totfact>
</mgrwt>
</event>
<event>
 3    0  0.1709330E+001  0.1250000E+03  0.7546771E-02  0.1235069E+00
         21   -1    0    0  502  501  0.00000000000E+00  0.00000000000E+00  0.11503900737E+03  0.11503900737E+03  0.00000000000E+00 0.  1.
         21   -1    0    0  501  502 -0.00000000000E+00 -0.00000000000E+00 -0.33955873657E+02  0.33955873657E+02  0.00000000000E+00 0.  1.
         25    1    1    2    0    0  0.00000000000E+00  0.00000000000E+00  0.81083133717E+02  0.14899488103E+03  0.12500000000E+03 0.  0.
<mgrwt>
<rscale>  2 0.12500000E+03</rscale>
<asrwt>0</asrwt>
<pdfrwt beam="1">  1       21 0.17698309E-01 0.12500000E+03</pdfrwt>
<pdfrwt beam="2">  1       21 0.52239806E-02 0.12500000E+03</pdfrwt>
<totfact> 0.70885691E+06</totfact>
</mgrwt>
</event>
<event>
 3    0  0.1704287E+001  0.1250000E+03  0.7546771E-02  0.1235069E+00
         21   -1    0    0  502  501  0.00000000000E+00  0.00000000000E+00  0.68650308554E+02  0.68650308554E+02  0.00000000000E+00 0. -1.
         21   -1    0    0  501  502 -0.00000000000E+00 -0.00000000000E+00 -0.56900691086E+02  0.56900691086E+02  0.00000000000E+00 0. -1.
         25    1    1    2    0    0  0.00000000000E+00  0.00000000000E+00  0.11749617468E+02  0.12555099964E+03  0.12500000000E+03 0.  0.
<mgrwt>
<rscale>  2 0.12500000E+03</rscale>
<asrwt>0</asrwt>
<pdfrwt beam="1">  1       21 0.10561586E-01 0.12500000E+03</pdfrwt>
<pdfrwt beam="2">  1       21 0.87539525E-02 0.12500000E+03</pdfrwt>
<totfact> 0.73968273E+06</totfact>
</mgrwt>
</event>
<event>
 3    0  0.1603297E+001  0.1250000E+03  0.7546771E-02  0.1235069E+00
         21   -1    0    0  502  501  0.00000000000E+00  0.00000000000E+00  0.14653679974E+02  0.14653679974E+02  0.00000000000E+00 0.  1.
         21   -1    0    0  501  502 -0.00000000000E+00 -0.00000000000E+00 -0.26657126448E+03  0.26657126448E+03  0.00000000000E+00 0.  1.
         25    1    1    2    0    0  0.00000000000E+00  0.00000000000E+00 -0.25191758451E+03  0.28122494446E+03  0.12500000000E+03 0.  0.
<mgrwt>
<rscale>  2 0.12500000E+03</rscale>
<asrwt>0</asrwt>
<pdfrwt beam="1">  1       21 0.22544124E-02 0.12500000E+03</pdfrwt>
<pdfrwt beam="2">  1       21 0.41010963E-01 0.12500000E+03</pdfrwt>
<totfact> 0.57053462E+06</totfact>
</mgrwt>
</event>
<event>
 3    0  0.1695352E+001  0.1250000E+03  0.7546771E-02  0.1235069E+00
         21   -1    0    0  502  501  0.00000000000E+00  0.00000000000E+00  0.29032407187E+02  0.29032407187E+02  0.00000000000E+00 0.  1.
         21   -1    0    0  501  502 -0.00000000000E+00 -0.00000000000E+00 -0.13454792001E+03  0.13454792001E+03  0.00000000000E+00 0.  1.
         25    1    1    2    0    0  0.00000000000E+00  0.00000000000E+00 -0.10551551283E+03  0.16358032720E+03  0.12500000000E+03 0.  0.
<mgrwt>
<rscale>  2 0.12500000E+03</rscale>
<asrwt>0</asrwt>
<pdfrwt beam="1">  1       21 0.44665241E-02 0.12500000E+03</pdfrwt>
<pdfrwt beam="2">  1       21 0.20699680E-01 0.12500000E+03</pdfrwt>
<totfact> 0.69084643E+06</totfact>
</mgrwt>
</event>
<event>
 3    0  0.1368989E+001  0.1250000E+03  0.7546771E-02  0.1235069E+00
         21   -1    0    0  502  501  0.00000000000E+00  0.00000000000E+00  0.26228776410E+01  0.26228776410E+01  0.00000000000E+00 0. -1.
         21   -1    0    0  501  502 -0.00000000000E+00 -0.00000000000E+00 -0.14892993630E+04  0.14892993630E+04  0.00000000000E+00 0. -1.
         25    1    1    2    0    0  0.00000000000E+00  0.00000000000E+00 -0.14866764854E+04  0.14919222406E+04  0.12500000000E+03 0.  0.
<mgrwt>
<rscale>  2 0.12500000E+03</rscale>
<asrwt>0</asrwt>
<pdfrwt beam="1">  1       21 0.40352011E-03 0.12500000E+03</pdfrwt>
<pdfrwt beam="2">  1       21 0.22912271E+00 0.12500000E+03</pdfrwt>
<totfact> 0.14113461E+06</totfact>
</mgrwt>
</event>
<event>
 3    0  0.1459900E+001  0.1250000E+03  0.7546771E-02  0.1235069E+00
         21   -1    0    0  502  501  0.00000000000E+00  0.00000000000E+00  0.43860841666E+03  0.43860841666E+03  0.00000000000E+00 0. -1.
         21   -1    0    0  501  502 -0.00000000000E+00 -0.00000000000E+00 -0.89060078458E+01  0.89060078458E+01  0.00000000000E+00 0. -1.
         25    1    1    2    0    0  0.00000000000E+00  0.00000000000E+00  0.42970240881E+03  0.44751442451E+03  0.12500000000E+03 0.  0.
<mgrwt>
<rscale>  2 0.12500000E+03</rscale>
<asrwt>0</asrwt>
<pdfrwt beam="1">  1       21 0.67478201E-01 0.12500000E+03</pdfrwt>
<pdfrwt beam="2">  1       21 0.13701554E-02 0.12500000E+03</pdfrwt>
<totfact> 0.45041381E+06</totfact>
</mgrwt>
</event>
<event>
 3    0  0.1646739E+001  0.1250000E+03  0.7546771E-02  0.1235069E+00
         21   -1    0    0  502  501  0.00000000000E+00  0.00000000000E+00  0.21810405007E+02  0.21810405007E+02  0.00000000000E+00 0. -1.
         21   -1    0    0  501  502 -0.00000000000E+00 -0.00000000000E+00 -0.17910029634E+03  0.17910029634E+03  0.00000000000E+00 0. -1.
         25    1    1    2    0    0  0.00000000000E+00  0.00000000000E+00 -0.15728989133E+03  0.20091070134E+03  0.12500000000E+03 0.  0.
<mgrwt>
<rscale>  2 0.12500000E+03</rscale>
<asrwt>0</asrwt>
<pdfrwt beam="1">  1       21 0.33554469E-02 0.12500000E+03</pdfrwt>
<pdfrwt beam="2">  1       21 0.27553892E-01 0.12500000E+03</pdfrwt>
<totfact> 0.64828705E+06</totfact>
</mgrwt>
</event>
<event>
 3    0  0.1565798E+001  0.1250000E+03  0.7546771E-02  0.1235069E+00
         21   -1    0    0  502  501  0.00000000000E+00  0.00000000000E+00  0.10849624444E+02  0.10849624444E+02  0.00000000000E+00 0.  1.
         21   -1    0    0  501  502 -0.00000000000E+00 -0.00000000000E+00 -0.36003550356E+03  0.36003550356E+03  0.00000000000E+00 0.  1.
         25    1    1    2    0    0  0.00000000000E+00  0.00000000000E+00 -0.34918587911E+03  0.37088512800E+03  0.12500000000E+03 0.  0.
<mgrwt>
<rscale>  2 0.12500000E+03</rscale>
<asrwt>0</asrwt>
<pdfrwt beam="1">  1       21 0.16691728E-02 0.12500000E+03</pdfrwt>
<pdfrwt beam="2">  1       21 0.55390084E-01 0.12500000E+03</pdfrwt>
<totfact> 0.50032029E+06</totfact>
</mgrwt>
</event>
<event>
 3    0  0.1705298E+001  0.1250000E+03  0.7546771E-02  0.1235069E+00
         21   -1    0    0  502  501  0.00000000000E+00  0.00000000000E+00  0.60962132742E+02  0.60962132742E+02  0.00000000000E+00 0. -1.
         21   -1    0    0  501  502 -0.00000000000E+00 -0.00000000000E+00 -0.64076662418E+02  0.64076662418E+02  0.00000000000E+00 0. -1.
         25    1    1    2    0    0  0.00000000000E+00  0.00000000000E+00 -0.31145296752E+01  0.12503879516E+03  0.12500000000E+03 0.  0.
<mgrwt>
<rscale>  2 0.12500000E+03</rscale>
<asrwt>0</asrwt>
<pdfrwt beam="1">  1       21 0.93787897E-02 0.12500000E+03</pdfrwt>
<pdfrwt beam="2">  1       21 0.98579480E-02 0.12500000E+03</pdfrwt>
<totfact> 0.74038341E+06</totfact>
</mgrwt>
</event>
<event>
 3    0  0.1368989E+001  0.1250000E+03  0.7546771E-02  0.1235069E+00
         21   -1    0    0  502  501  0.00000000000E+00  0.00000000000E+00  0.51289881463E+01  0.51289881463E+01  0.00000000000E+00 0. -1.
         21   -1    0    0  501  502 -0.00000000000E+00 -0.00000000000E+00 -0.76160246204E+03  0.76160246204E+03  0.00000000000E+00 0. -1.
         25    1    1    2    0    0  0.00000000000E+00  0.00000000000E+00 -0.75647347390E+03  0.76673145019E+03  0.12500000000E+03 0.  0.
<mgrwt>
<rscale>  2 0.12500000E+03</rscale>
<asrwt>0</asrwt>
<pdfrwt beam="1">  1       21 0.78907590E-03 0.12500000E+03</pdfrwt>
<pdfrwt beam="2">  1       21 0.11716949E+00 0.12500000E+03</pdfrwt>
<totfact> 0.30488965E+06</totfact>
</mgrwt>
</event>
<event>
 3    0  0.1377796E+001  0.1250000E+03  0.7546771E-02  0.1235069E+00
         21   -1    0    0  502  501  0.00000000000E+00  0.00000000000E+00  0.68290935151E+03  0.68290935151E+03  0.00000000000E+00 0. -1.
         21   -1    0    0  501  502 -0.00000000000E+00 -0.00000000000E+00 -0.57200124605E+01  0.57200124605E+01  0.00000000000E+00 0. -1.
         25    1    1    2    0    0  0.00000000000E+00  0.00000000000E+00  0.67718933905E+03  0.68862936397E+03  0.12500000000E+03 0.  0.
<mgrwt>
<rscale>  2 0.12500000E+03</rscale>
<asrwt>0</asrwt>
<pdfrwt beam="1">  1       21 0.10506291E+00 0.12500000E+03</pdfrwt>
<pdfrwt beam="2">  1       21 0.88000246E-03 0.12500000E+03</pdfrwt>
<totfact> 0.33353162E+06</totfact>
</mgrwt>
</event>
<event>
 3    0  0.1558266E+001  0.1250000E+03  0.7546771E-02  0.1235069E+00
         21   -1    0    0  502  501  0.00000000000E+00  0.00000000000E+00  0.13676001731E+02  0.13676001731E+02  0.00000000000E+00 0. -1.
         21   -1    0    0  501  502 -0.00000000000E+00 -0.00000000000E+00 -0.28562807147E+03  0.28562807147E+03  0.00000000000E+00 0. -1.
         25    1    1    2    0    0  0.00000000000E+00  0.00000000000E+00 -0.27195206974E+03  0.29930407321E+03  0.12500000000E+03 0.  0.
<mgrwt>
<rscale>  2 0.12500000E+03</rscale>
<asrwt>0</asrwt>
<pdfrwt beam="1">  1       21 0.21040004E-02 0.12500000E+03</pdfrwt>
<pdfrwt beam="2">  1       21 0.43942777E-01 0.12500000E+03</pdfrwt>
<totfact> 0.55514059E+06</totfact>
</mgrwt>
</event>
<event>
 3    0  0.1728672E+001  0.1250000E+03  0.7546771E-02  0.1235069E+00
         21   -1    0    0  502  501  0.00000000000E+00  0.00000000000E+00  0.53556737961E+02  0.53556737961E+02  0.00000000000E+00 0.  1.
         21   -1    0    0  501  502 -0.00000000000E+00 -0.00000000000E+00 -0.72936667705E+02  0.72936667705E+02  0.00000000000E+00 0.  1.
         25    1    1    2    0    0  0.00000000000E+00  0.00000000000E+00 -0.19379929744E+02  0.12649340567E+03  0.12500000000E+03 0.  0.
<mgrwt>
<rscale>  2 0.12500000E+03</rscale>
<asrwt>0</asrwt>
<pdfrwt beam="1">  1       21 0.82394981E-02 0.12500000E+03</pdfrwt>
<pdfrwt beam="2">  1       21 0.11221026E-01 0.12500000E+03</pdfrwt>
<totfact> 0.73838276E+06</totfact>
</mgrwt>
</event>
<event>
 3    0  0.1617132E+001  0.1250000E+03  0.7546771E-02  0.1235069E+00
         21   -1    0    0  502  501  0.00000000000E+00  0.00000000000E+00  0.21727336028E+03  0.21727336028E+03  0.00000000000E+00 0. -1.
         21   -1    0    0  501  502 -0.00000000000E+00 -0.00000000000E+00 -0.17978504106E+02  0.17978504106E+02  0.00000000000E+00 0. -1.
         25    1    1    2    0    0  0.00000000000E+00  0.00000000000E+00  0.19929485617E+03  0.23525186439E+03  0.12500000000E+03 0.  0.
<mgrwt>
<rscale>  2 0.12500000E+03</rscale>
<asrwt>0</asrwt>
<pdfrwt beam="1">  1       21 0.33426669E-01 0.12500000E+03</pdfrwt>
<pdfrwt beam="2">  1       21 0.27659239E-02 0.12500000E+03</pdfrwt>
<totfact> 0.61295179E+06</totfact>
</mgrwt>
</event>
<event>
 3    0  0.1660336E+001  0.1250000E+03  0.7546771E-02  0.1235069E+00
         21   -1    0    0  502  501  0.00000000000E+00  0.00000000000E+00  0.19056050790E+03  0.19056050790E+03  0.00000000000E+00 0.  1.
         21   -1    0    0  501  502 -0.00000000000E+00 -0.00000000000E+00 -0.20498738396E+02  0.20498738396E+02  0.00000000000E+00 0.  1.
         25    1    1    2    0    0  0.00000000000E+00  0.00000000000E+00  0.17006176951E+03  0.21105924630E+03  0.12500000000E+03 0.  0.
<mgrwt>
<rscale>  2 0.12500000E+03</rscale>
<asrwt>0</asrwt>
<pdfrwt beam="1">  1       21 0.29317000E-01 0.12500000E+03</pdfrwt>
<pdfrwt beam="2">  1       21 0.31536522E-02 0.12500000E+03</pdfrwt>
<totfact> 0.63748263E+06</totfact>
</mgrwt>
</event>
<event>
 3    0  0.1631624E+001  0.1250000E+03  0.7546771E-02  0.1235069E+00
         21   -1    0    0  502  501  0.00000000000E+00  0.00000000000E+00  0.22918310590E+03  0.22918310590E+03  0.00000000000E+00 0.  1.
         21   -1    0    0  501  502 -0.00000000000E+00 -0.00000000000E+00 -0.17044231880E+02  0.17044231880E+02  0.00000000000E+00 0.  1.
         25    1    1    2    0    0  0.00000000000E+00  0.00000000000E+00  0.21213887402E+03  0.24622733778E+03  0.12500000000E+03 0.  0.
<mgrwt>
<rscale>  2 0.12500000E+03</rscale>
<asrwt>0</asrwt>
<pdfrwt beam="1">  1       21 0.35258937E-01 0.12500000E+03</pdfrwt>
<pdfrwt beam="2">  1       21 0.26221897E-02 0.12500000E+03</pdfrwt>
<totfact> 0.60235210E+06</totfact>
</mgrwt>
</event>
<event>
 3    0  0.1611581E+001  0.1250000E+03  0.7546771E-02  0.1235069E+00
         21   -1    0    0  502  501  0.00000000000E+00  0.00000000000E+00  0.25281912692E+03  0.25281912692E+03  0.00000000000E+00 0. -1.
         21   -1    0    0  501  502 -0.00000000000E+00 -0.00000000000E+00 -0.15450769281E+02  0.15450769281E+02  0.00000000000E+00 0. -1.
         25    1    1    2    0    0  0.00000000000E+00  0.00000000000E+00  0.23736835764E+03  0.26826989620E+03  0.12500000000E+03 0.  0.
<mgrwt>
<rscale>  2 0.12500000E+03</rscale>
<asrwt>0</asrwt>
<pdfrwt beam="1">  1       21 0.38895247E-01 0.12500000E+03</pdfrwt>
<pdfrwt beam="2">  1       21 0.23770416E-02 0.12500000E+03</pdfrwt>
<totfact> 0.58199485E+06</totfact>
</mgrwt>
</event>
<event>
 3    0  0.1368989E+001  0.1250000E+03  0.7546771E-02  0.1235069E+00
         21   -1    0    0  502  501  0.00000000000E+00  0.00000000000E+00  0.34075639940E+01  0.34075639940E+01  0.00000000000E+00 0.  1.
         21   -1    0    0  501  502 -0.00000000000E+00 -0.00000000000E+00 -0.11463467764E+04  0.11463467764E+04  0.00000000000E+00 0.  1.
         25    1    1    2    0    0  0.00000000000E+00  0.00000000000E+00 -0.11429392124E+04  0.11497543404E+04  0.12500000000E+03 0.  0.
<mgrwt>
<rscale>  2 0.12500000E+03</rscale>
<asrwt>0</asrwt>
<pdfrwt beam="1">  1       21 0.52423996E-03 0.12500000E+03</pdfrwt>
<pdfrwt beam="2">  1       21 0.17636126E+00 0.12500000E+03</pdfrwt>
<totfact> 0.20174310E+06</totfact>
</mgrwt>
</event>
<event>
 3    0  0.1368989E+001  0.1250000E+03  0.7546771E-02  0.1235069E+00
         21   -1    0    0  502  501  0.00000000000E+00  0.00000000000E+00  0.50486142457E+01  0.50486142457E+01  0.00000000000E+00 0. -1.
         21   -1    0    0  501  502 -0.00000000000E+00 -0.00000000000E+00 -0.77372716748E+03  0.77372716748E+03  0.00000000000E+00 0. -1.
         25    1    1    2    0    0  0.00000000000E+00  0.00000000000E+00 -0.76867855323E+03  0.77877578172E+03  0.12500000000E+03 0.  0.
<mgrwt>
<rscale>  2 0.12500000E+03</rscale>
<asrwt>0</asrwt>
<pdfrwt beam="1">  1       21 0.77671015E-03 0.12500000E+03</pdfrwt>
<pdfrwt beam="2">  1       21 0.11903491E+00 0.12500000E+03</pdfrwt>
<totfact> 0.30078180E+06</totfact>
</mgrwt>
</event>
<event>
 3    0  0.1636177E+001  0.1250000E+03  0.7546771E-02  0.1235069E+00
         21   -1    0    0  502  501  0.00000000000E+00  0.00000000000E+00  0.17148569802E+02  0.17148569802E+02  0.00000000000E+00 0.  1.
         21   -1    0    0  501  502 -0.00000000000E+00 -0.00000000000E+00 -0.22778867539E+03  0.22778867539E+03  0.00000000000E+00 0.  1.
         25    1    1    2    0    0  0.00000000000E+00  0.00000000000E+00 -0.21064010558E+03  0.24493724519E+03  0.12500000000E+03 0.  0.
<mgrwt>
<rscale>  2 0.12500000E+03</rscale>
<asrwt>0</asrwt>
<pdfrwt beam="1">  1       21 0.26382415E-02 0.12500000E+03</pdfrwt>
<pdfrwt beam="2">  1       21 0.35044412E-01 0.12500000E+03</pdfrwt>
<totfact> 0.60358141E+06</totfact>
</mgrwt>
</event>
<event>
 3    0  0.1703467E+001  0.1250000E+03  0.7546771E-02  0.1235069E+00
         21   -1    0    0  502  501  0.00000000000E+00  0.00000000000E+00  0.12536807972E+03  0.12536807972E+03  0.00000000000E+00 0.  1.
         21   -1    0    0  501  502 -0.00000000000E+00 -0.00000000000E+00 -0.31158250241E+02  0.31158250241E+02  0.00000000000E+00 0.  1.
         25    1    1    2    0    0  0.00000000000E+00  0.00000000000E+00  0.94209829475E+02  0.15652632996E+03  0.12500000000E+03 0.  0.
<mgrwt>
<rscale>  2 0.12500000E+03</rscale>
<asrwt>0</asrwt>
<pdfrwt beam="1">  1       21 0.19287397E-01 0.12500000E+03</pdfrwt>
<pdfrwt beam="2">  1       21 0.47935770E-02 0.12500000E+03</pdfrwt>
<totfact> 0.69946451E+06</totfact>
</mgrwt>
</event>
<event>
 3    0  0.1612847E+001  0.1250000E+03  0.7546771E-02  0.1235069E+00
         21   -1    0    0  502  501  0.00000000000E+00  0.00000000000E+00  0.16289443005E+02  0.16289443005E+02  0.00000000000E+00 0. -1.
         21   -1    0    0  501  502 -0.00000000000E+00 -0.00000000000E+00 -0.23980255180E+03  0.23980255180E+03  0.00000000000E+00 0. -1.
         25    1    1    2    0    0  0.00000000000E+00  0.00000000000E+00 -0.22351310879E+03  0.25609199480E+03  0.12500000000E+03 0.  0.
<mgrwt>
<rscale>  2 0.12500000E+03</rscale>
<asrwt>0</asrwt>
<pdfrwt beam="1">  1       21 0.25060683E-02 0.12500000E+03</pdfrwt>
<pdfrwt beam="2">  1       21 0.36892698E-01 0.12500000E+03</pdfrwt>
<totfact> 0.59309332E+06</totfact>
</mgrwt>
</event>
<event>
 3    0  0.1698825E+001  0.1250000E+03  0.7546771E-02  0.1235069E+00
         21   -1    0    0  502  501  0.00000000000E+00  0.00000000000E+00  0.83636211433E+02  0.83636211433E+02  0.00000000000E+00 0. -1.
         21   -1    0    0  501  502 -0.00000000000E+00 -0.00000000000E+00 -0.46705248039E+02  0.46705248039E+02  0.00000000000E+00 0. -1.
         25    1    1    2    0    0  0.00000000000E+00  0.00000000000E+00  0.36930963395E+02  0.13034145947E+03  0.12500000000E+03 0.  0.
<mgrwt>
<rscale>  2 0.12500000E+03</rscale>
<asrwt>0</asrwt>
<pdfrwt beam="1">  1       21 0.12867109E-01 0.12500000E+03</pdfrwt>
<pdfrwt beam="2">  1       21 0.71854228E-02 0.12500000E+03</pdfrwt>
<totfact> 0.73319314E+06</totfact>
</mgrwt>
</event>
<event>
 3    0  0.1720484E+001  0.1250000E+03  0.7546771E-02  0.1235069E+00
         21   -1    0    0  502  501  0.00000000000E+00  0.00000000000E+00  0.96743933739E+02  0.96743933739E+02  0.00000000000E+00 0.  1.
         21   -1    0    0  501  502 -0.00000000000E+00 -0.00000000000E+00 -0.40377208669E+02  0.40377208669E+02  0.00000000000E+00 0.  1.
         25    1    1    2    0    0  0.00000000000E+00  0.00000000000E+00  0.56366725071E+02  0.13712114241E+03  0.12500000000E+03 0.  0.
<mgrwt>
<rscale>  2 0.12500000E+03</rscale>
<asrwt>0</asrwt>
<pdfrwt beam="1">  1       21 0.14883682E-01 0.12500000E+03</pdfrwt>
<pdfrwt beam="2">  1       21 0.62118783E-02 0.12500000E+03</pdfrwt>
<totfact> 0.72416819E+06</totfact>
</mgrwt>
</event>
<event>
 3    0  0.1696505E+001  0.1250000E+03  0.7546771E-02  0.1235069E+00
         21   -1    0    0  502  501  0.00000000000E+00  0.00000000000E+00  0.87636387935E+02  0.87636387935E+02  0.00000000000E+00 0. -1.
         21   -1    0    0  501  502 -0.00000000000E+00 -0.00000000000E+00 -0.44573379757E+02  0.44573379757E+02  0.00000000000E+00 0. -1.
         25    1    1    2    0    0  0.00000000000E+00  0.00000000000E+00  0.43063008178E+02  0.13220976769E+03  0.12500000000E+03 0.  0.
<mgrwt>
<rscale>  2 0.12500000E+03</rscale>
<asrwt>0</asrwt>
<pdfrwt beam="1">  1       21 0.13482521E-01 0.12500000E+03</pdfrwt>
<pdfrwt beam="2">  1       21 0.68574431E-02 0.12500000E+03</pdfrwt>
<totfact> 0.73068106E+06</totfact>
</mgrwt>
</event>
<event>
 3    0  0.1368989E+001  0.1250000E+03  0.7546771E-02  0.1235069E+00
         21   -1    0    0  502  501  0.00000000000E+00  0.00000000000E+00  0.32246878559E+01  0.32246878559E+01  0.00000000000E+00 0. -1.
         21   -1    0    0  501  502 -0.00000000000E+00 -0.00000000000E+00 -0.12113575560E+04  0.12113575560E+04  0.00000000000E+00 0. -1.
         25    1    1    2    0    0  0.00000000000E+00  0.00000000000E+00 -0.12081328682E+04  0.12145822439E+04  0.12500000000E+03 0.  0.
<mgrwt>
<rscale>  2 0.12500000E+03</rscale>
<asrwt>0</asrwt>
<pdfrwt beam="1">  1       21 0.49610652E-03 0.12500000E+03</pdfrwt>
<pdfrwt beam="2">  1       21 0.18636244E+00 0.12500000E+03</pdfrwt>
<totfact> 0.18855208E+06</totfact>
</mgrwt>
</event>
<event>
 3    0  0.1368989E+001  0.1250000E+03  0.7546771E-02  0.1235069E+00
         21   -1    0    0  502  501  0.00000000000E+00  0.00000000000E+00  0.48133002827E+01  0.48133002827E+01  0.00000000000E+00 0.  1.
         21   -1    0    0  501  502 -0.00000000000E+00 -0.00000000000E+00 -0.81155335644E+03  0.81155335644E+03  0.00000000000E+00 0.  1.
         25    1    1    2    0    0  0.00000000000E+00  0.00000000000E+00 -0.80674005616E+03  0.81636665672E+03  0.12500000000E+03 0.  0.
<mgrwt>
<rscale>  2 0.12500000E+03</rscale>
<asrwt>0</asrwt>
<pdfrwt beam="1">  1       21 0.74050750E-03 0.12500000E+03</pdfrwt>
<pdfrwt beam="2">  1       21 0.12485440E+00 0.12500000E+03</pdfrwt>
<totfact> 0.28827671E+06</totfact>
</mgrwt>
</event>
<event>
 3    0  0.1699960E+001  0.1250000E+03  0.7546771E-02  0.1235069E+00
         21   -1    0    0  502  501  0.00000000000E+00  0.00000000000E+00  0.13246257112E+03  0.13246257112E+03  0.00000000000E+00 0.  1.
         21   -1    0    0  501  502 -0.00000000000E+00 -0.00000000000E+00 -0.29489462320E+02  0.29489462320E+02  0.00000000000E+00 0.  1.
         25    1    1    2    0    0  0.00000000000E+00  0.00000000000E+00  0.10297310880E+03  0.16195203344E+03  0.12500000000E+03 0.  0.
<mgrwt>
<rscale>  2 0.12500000E+03</rscale>
<asrwt>0</asrwt>
<pdfrwt beam="1">  1       21 0.20378857E-01 0.12500000E+03</pdfrwt>
<pdfrwt beam="2">  1       21 0.45368404E-02 0.12500000E+03</pdfrwt>
<totfact> 0.69281762E+06</totfact>
</mgrwt>
</event>
<event>
 3    0  0.1629588E+001  0.1250000E+03  0.7546771E-02  0.1235069E+00
         21   -1    0    0  502  501  0.00000000000E+00  0.00000000000E+00  0.23003743986E+03  0.23003743986E+03  0.00000000000E+00 0.  1.
         21   -1    0    0  501  502 -0.00000000000E+00 -0.00000000000E+00 -0.16980931462E+02  0.16980931462E+02  0.00000000000E+00 0.  1.
         25    1    1    2    0    0  0.00000000000E+00  0.00000000000E+00  0.21305650840E+03  0.24701837132E+03  0.12500000000E+03 0.  0.
<mgrwt>
<rscale>  2 0.12500000E+03</rscale>
<asrwt>0</asrwt>
<pdfrwt beam="1">  1       21 0.35390373E-01 0.12500000E+03</pdfrwt>
<pdfrwt beam="2">  1       21 0.26124512E-02 0.12500000E+03</pdfrwt>
<totfact> 0.60160047E+06</totfact>
</mgrwt>
</event>
<event>
 3    0  0.1660100E+001  0.1250000E+03  0.7546771E-02  0.1235069E+00
         21   -1    0    0  502  501  0.00000000000E+00  0.00000000000E+00  0.15134572521E+03  0.15134572521E+03  0.00000000000E+00 0. -1.
         21   -1    0    0  501  502 -0.00000000000E+00 -0.00000000000E+00 -0.25810111218E+02  0.25810111218E+02  0.00000000000E+00 0. -1.
         25    1    1    2    0    0  0.00000000000E+00  0.00000000000E+00  0.12553561399E+03  0.17715583643E+03  0.12500000000E+03 0.  0.
<mgrwt>
<rscale>  2 0.12500000E+03</rscale>
<asrwt>0</asrwt>
<pdfrwt beam="1">  1       21 0.23283957E-01 0.12500000E+03</pdfrwt>
<pdfrwt beam="2">  1       21 0.39707864E-02 0.12500000E+03</pdfrwt>
<totfact> 0.67479317E+06</totfact>
</mgrwt>
</event>
<event>
 3    0  0.1709881E+001  0.1250000E+03  0.7546771E-02  0.1235069E+00
         21   -1    0    0  502  501  0.00000000000E+00  0.00000000000E+00  0.10797298234E+03  0.10797298234E+03  0.00000000000E+00 0.  1.
         21   -1    0    0  501  502 -0.00000000000E+00 -0.00000000000E+00 -0.36178031904E+02  0.36178031904E+02  0.00000000000E+00 0.  1.
         25    1    1    2    0    0  0.00000000000E+00  0.00000000000E+00  0.71794950439E+02  0.14415101425E+03  0.12500000000E+03 0.  0.
<mgrwt>
<rscale>  2 0.12500000E+03</rscale>
<asrwt>0</asrwt>
<pdfrwt beam="1">  1       21 0.16611228E-01 0.12500000E+03</pdfrwt>
<pdfrwt beam="2">  1       21 0.55658511E-02 0.12500000E+03</pdfrwt>
<totfact> 0.71501925E+06</totfact>
</mgrwt>
</event>
<event>
 3    0  0.1555526E+001  0.1250000E+03  0.7546771E-02  0.1235069E+00
         21   -1    0    0  502  501  0.00000000000E+00  0.00000000000E+00  0.38105680744E+03  0.38105680744E+03  0.00000000000E+00 0.  1.
         21   -1    0    0  501  502 -0.00000000000E+00 -0.00000000000E+00 -0.10251096224E+02  0.10251096224E+02  0.00000000000E+00 0.  1.
         25    1    1    2    0    0  0.00000000000E+00  0.00000000000E+00  0.37080571122E+03  0.39130790367E+03  0.12500000000E+03 0.  0.
<mgrwt>
<rscale>  2 0.12500000E+03</rscale>
<asrwt>0</asrwt>
<pdfrwt beam="1">  1       21 0.58624113E-01 0.12500000E+03</pdfrwt>
<pdfrwt beam="2">  1       21 0.15770920E-02 0.12500000E+03</pdfrwt>
<totfact> 0.48623287E+06</totfact>
</mgrwt>
</event>
<event>
 3    0  0.1681281E+001  0.1250000E+03  0.7546771E-02  0.1235069E+00
         21   -1    0    0  502  501  0.00000000000E+00  0.00000000000E+00  0.16864493083E+03  0.16864493083E+03  0.00000000000E+00 0.  1.
         21   -1    0    0  501  502 -0.00000000000E+00 -0.00000000000E+00 -0.23162569908E+02  0.23162569908E+02  0.00000000000E+00 0.  1.
         25    1    1    2    0    0  0.00000000000E+00  0.00000000000E+00  0.14548236092E+03  0.19180750074E+03  0.12500000000E+03 0.  0.
<mgrwt>
<rscale>  2 0.12500000E+03</rscale>
<asrwt>0</asrwt>
<pdfrwt beam="1">  1       21 0.25945373E-01 0.12500000E+03</pdfrwt>
<pdfrwt beam="2">  1       21 0.35634724E-02 0.12500000E+03</pdfrwt>
<totfact> 0.65822139E+06</totfact>
</mgrwt>
</event>
<event>
 3    0  0.1728676E+001  0.1250000E+03  0.7546771E-02  0.1235069E+00
         21   -1    0    0  502  501  0.00000000000E+00  0.00000000000E+00  0.53560575296E+02  0.53560575296E+02  0.00000000000E+00 0.  1.
         21   -1    0    0  501  502 -0.00000000000E+00 -0.00000000000E+00 -0.72931442174E+02  0.72931442174E+02  0.00000000000E+00 0.  1.
         25    1    1    2    0    0  0.00000000000E+00  0.00000000000E+00 -0.19370866879E+02  0.12649201747E+03  0.12500000000E+03 0.  0.
<mgrwt>
<rscale>  2 0.12500000E+03</rscale>
<asrwt>0</asrwt>
<pdfrwt beam="1">  1       21 0.82400886E-02 0.12500000E+03</pdfrwt>
<pdfrwt beam="2">  1       21 0.11220222E-01 0.12500000E+03</pdfrwt>
<totfact> 0.73838466E+06</totfact>
</mgrwt>
</event>
<event>
 3    0  0.1444737E+001  0.1250000E+03  0.7546771E-02  0.1235069E+00
         21   -1    0    0  502  501  0.00000000000E+00  0.00000000000E+00  0.69552585280E+01  0.69552585280E+01  0.00000000000E+00 0. -1.
         21   -1    0    0  501  502 -0.00000000000E+00 -0.00000000000E+00 -0.56162542115E+03  0.56162542115E+03  0.00000000000E+00 0. -1.
         25    1    1    2    0    0  0.00000000000E+00  0.00000000000E+00 -0.55467016262E+03  0.56858067968E+03  0.12500000000E+03 0.  0.
<mgrwt>
<rscale>  2 0.12500000E+03</rscale>
<asrwt>0</asrwt>
<pdfrwt beam="1">  1       21 0.10700399E-02 0.12500000E+03</pdfrwt>
<pdfrwt beam="2">  1       21 0.86403901E-01 0.12500000E+03</pdfrwt>
<totfact> 0.38553209E+06</totfact>
</mgrwt>
</event>
<event>
 3    0  0.1578902E+001  0.1250000E+03  0.7546771E-02  0.1235069E+00
         21   -1    0    0  502  501  0.00000000000E+00  0.00000000000E+00  0.28618529437E+03  0.28618529437E+03  0.00000000000E+00 0.  1.
         21   -1    0    0  501  502 -0.00000000000E+00 -0.00000000000E+00 -0.13649373594E+02  0.13649373594E+02  0.00000000000E+00 0.  1.
         25    1    1    2    0    0  0.00000000000E+00  0.00000000000E+00  0.27253592078E+03  0.29983466797E+03  0.12500000000E+03 0.  0.
<mgrwt>
<rscale>  2 0.12500000E+03</rscale>
<asrwt>0</asrwt>
<pdfrwt beam="1">  1       21 0.44028502E-01 0.12500000E+03</pdfrwt>
<pdfrwt beam="2">  1       21 0.20999038E-02 0.12500000E+03</pdfrwt>
<totfact> 0.55469918E+06</totfact>
</mgrwt>
</event>
<event>
 3    0  0.1717320E+001  0.1250000E+03  0.7546771E-02  0.1235069E+00
         21   -1    0    0  502  501  0.00000000000E+00  0.00000000000E+00  0.35184883616E+02  0.35184883616E+02  0.00000000000E+00 0.  1.
         21   -1    0    0  501  502 -0.00000000000E+00 -0.00000000000E+00 -0.11102068839E+03  0.11102068839E+03  0.00000000000E+00 0.  1.
         25    1    1    2    0    0  0.00000000000E+00  0.00000000000E+00 -0.75835804775E+02  0.14620557201E+03  0.12500000000E+03 0.  0.
<mgrwt>
<rscale>  2 0.12500000E+03</rscale>
<asrwt>0</asrwt>
<pdfrwt beam="1">  1       21 0.54130590E-02 0.12500000E+03</pdfrwt>
<pdfrwt beam="2">  1       21 0.17080106E-01 0.12500000E+03</pdfrwt>
<totfact> 0.71239171E+06</totfact>
</mgrwt>
</event>
<event>
 3    0  0.1697148E+001  0.1250000E+03  0.7546771E-02  0.1235069E+00
         21   -1    0    0  502  501  0.00000000000E+00  0.00000000000E+00  0.40804674354E+02  0.40804674354E+02  0.00000000000E+00 0. -1.
         21   -1    0    0  501  502 -0.00000000000E+00 -0.00000000000E+00 -0.95730453969E+02  0.95730453969E+02  0.00000000000E+00 0. -1.
         25    1    1    2    0    0  0.00000000000E+00  0.00000000000E+00 -0.54925779615E+02  0.13653512832E+03  0.12500000000E+03 0.  0.
<mgrwt>
<rscale>  2 0.12500000E+03</rscale>
<asrwt>0</asrwt>
<pdfrwt beam="1">  1       21 0.62776422E-02 0.12500000E+03</pdfrwt>
<pdfrwt beam="2">  1       21 0.14727762E-01 0.12500000E+03</pdfrwt>
<totfact> 0.72493843E+06</totfact>
</mgrwt>
</event>
<event>
 3    0  0.1509799E+001  0.1250000E+03  0.7546771E-02  0.1235069E+00
         21   -1    0    0  502  501  0.00000000000E+00  0.00000000000E+00  0.42393627640E+03  0.42393627640E+03  0.00000000000E+00 0.  1.
         21   -1    0    0  501  502 -0.00000000000E+00 -0.00000000000E+00 -0.92142385954E+01  0.92142385954E+01  0.00000000000E+00 0.  1.
         25    1    1    2    0    0  0.00000000000E+00  0.00000000000E+00  0.41472203781E+03  0.43315051500E+03  0.12500000000E+03 0.  0.
<mgrwt>
<rscale>  2 0.12500000E+03</rscale>
<asrwt>0</asrwt>
<pdfrwt beam="1">  1       21 0.65220951E-01 0.12500000E+03</pdfrwt>
<pdfrwt beam="2">  1       21 0.14175755E-02 0.12500000E+03</pdfrwt>
<totfact> 0.45917534E+06</totfact>
</mgrwt>
</event>
<event>
 3    0  0.1695949E+001  0.1250000E+03  0.7546771E-02  0.1235069E+00
         21   -1    0    0  502  501  0.00000000000E+00  0.00000000000E+00  0.12867674806E+03  0.12867674806E+03  0.00000000000E+00 0.  1.
         21   -1    0    0  501  502 -0.00000000000E+00 -0.00000000000E+00 -0.30357077398E+02  0.30357077398E+02  0.00000000000E+00 0.  1.
         25    1    1    2    0    0  0.00000000000E+00  0.00000000000E+00  0.98319670657E+02  0.15903382545E+03  0.12500000000E+03 0.  0.
<mgrwt>
<rscale>  2 0.12500000E+03</rscale>
<asrwt>0</asrwt>
<pdfrwt beam="1">  1       21 0.19796423E-01 0.12500000E+03</pdfrwt>
<pdfrwt beam="2">  1       21 0.46703197E-02 0.12500000E+03</pdfrwt>
<totfact> 0.69637745E+06</totfact>
</mgrwt>
</event>
<event>
 3    0  0.1605087E+001  0.1250000E+03  0.7546771E-02  0.1235069E+00
         21   -1    0    0  502  501  0.00000000000E+00  0.00000000000E+00  0.24274792572E+03  0.24274792572E+03  0.00000000000E+00 0. -1.
         21   -1    0    0  501  502 -0.00000000000E+00 -0.00000000000E+00 -0.16091795587E+02  0.16091795587E+02  0.00000000000E+00 0. -1.
         25    1    1    2    0    0  0.00000000000E+00  0.00000000000E+00  0.22665613013E+03  0.25883972131E+03  0.12500000000E+03 0.  0.
<mgrwt>
<rscale>  2 0.12500000E+03</rscale>
<asrwt>0</asrwt>
<pdfrwt beam="1">  1       21 0.37345832E-01 0.12500000E+03</pdfrwt>
<pdfrwt beam="2">  1       21 0.24756610E-02 0.12500000E+03</pdfrwt>
<totfact> 0.59055783E+06</totfact>
</mgrwt>
</event>
<event>
 3    0  0.1521887E+001  0.1250000E+03  0.7546771E-02  0.1235069E+00
         21   -1    0    0  502  501  0.00000000000E+00  0.00000000000E+00  0.10546194649E+02  0.10546194649E+02  0.00000000000E+00 0. -1.
         21   -1    0    0  501  502 -0.00000000000E+00 -0.00000000000E+00 -0.37039426353E+03  0.37039426353E+03  0.00000000000E+00 0. -1.
         25    1    1    2    0    0  0.00000000000E+00  0.00000000000E+00 -0.35984806888E+03  0.38094045818E+03  0.12500000000E+03 0.  0.
<mgrwt>
<rscale>  2 0.12500000E+03</rscale>
<asrwt>0</asrwt>
<pdfrwt beam="1">  1       21 0.16224917E-02 0.12500000E+03</pdfrwt>
<pdfrwt beam="2">  1       21 0.56983727E-01 0.12500000E+03</pdfrwt>
<totfact> 0.49331472E+06</totfact>
</mgrwt>
</event>
<event>
 3    0  0.1637464E+001  0.1250000E+03  0.7546771E-02  0.1235069E+00
         21   -1    0    0  502  501  0.00000000000E+00  0.00000000000E+00  0.19506775480E+02  0.19506775480E+02  0.00000000000E+00 0. -1.
         21   -1    0    0  501  502 -0.00000000000E+00 -0.00000000000E+00 -0.20025093353E+03  0.20025093353E+03  0.00000000000E+00 0. -1.
         25    1    1    2    0    0  0.00000000000E+00  0.00000000000E+00 -0.18074415805E+03  0.21975770901E+03  0.12500000000E+03 0.  0.
<mgrwt>
<rscale>  2 0.12500000E+03</rscale>
<asrwt>0</asrwt>
<pdfrwt beam="1">  1       21 0.30010425E-02 0.12500000E+03</pdfrwt>
<pdfrwt beam="2">  1       21 0.30807835E-01 0.12500000E+03</pdfrwt>
<totfact> 0.62847310E+06</totfact>
</mgrwt>
</event>
<event>
 3    0  0.1698440E+001  0.1250000E+03  0.7546771E-02  0.1235069E+00
         21   -1    0    0  502  501  0.00000000000E+00  0.00000000000E+00  0.14229487017E+03  0.14229487017E+03  0.00000000000E+00 0.  1.
         21   -1    0    0  501  502 -0.00000000000E+00 -0.00000000000E+00 -0.27451797773E+02  0.27451797773E+02  0.00000000000E+00 0.  1.
         25    1    1    2    0    0  0.00000000000E+00  0.00000000000E+00  0.11484307240E+03  0.16974666794E+03  0.12500000000E+03 0.  0.
<mgrwt>
<rscale>  2 0.12500000E+03</rscale>
<asrwt>0</asrwt>
<pdfrwt beam="1">  1       21 0.21891518E-01 0.12500000E+03</pdfrwt>
<pdfrwt beam="2">  1       21 0.42233536E-02 0.12500000E+03</pdfrwt>
<totfact> 0.68347679E+06</totfact>
</mgrwt>
</event>
<event>
 3    0  0.1726551E+001  0.1250000E+03  0.7546771E-02  0.1235069E+00
         21   -1    0    0  502  501  0.00000000000E+00  0.00000000000E+00  0.49825443710E+02  0.49825443710E+02  0.00000000000E+00 0.  1.
         21   -1    0    0  501  502 -0.00000000000E+00 -0.00000000000E+00 -0.78398699724E+02  0.78398699724E+02  0.00000000000E+00 0.  1.
         25    1    1    2    0    0  0.00000000000E+00  0.00000000000E+00 -0.28573256014E+02  0.12822414343E+03  0.12500000000E+03 0.  0.
<mgrwt>
<rscale>  2 0.12500000E+03</rscale>
<asrwt>0</asrwt>
<pdfrwt beam="1">  1       21 0.76654529E-02 0.12500000E+03</pdfrwt>
<pdfrwt beam="2">  1       21 0.12061338E-01 0.12500000E+03</pdfrwt>
<totfact> 0.73603302E+06</totfact>
</mgrwt>
</event>
<event>
 3    0  0.1472928E+001  0.1250000E+03  0.7546771E-02  0.1235069E+00
         21   -1    0    0  502  501  0.00000000000E+00  0.00000000000E+00  0.79633299519E+01  0.79633299519E+01  0.00000000000E+00 0.  1.
         21   -1    0    0  501  502 -0.00000000000E+00 -0.00000000000E+00 -0.49052971855E+03  0.49052971855E+03  0.00000000000E+00 0.  1.
         25    1    1    2    0    0  0.00000000000E+00  0.00000000000E+00 -0.48256638860E+03  0.49849304850E+03  0.12500000000E+03 0.  0.
<mgrwt>
<rscale>  2 0.12500000E+03</rscale>
<asrwt>0</asrwt>
<pdfrwt beam="1">  1       21 0.12251276E-02 0.12500000E+03</pdfrwt>
<pdfrwt beam="2">  1       21 0.75466117E-01 0.12500000E+03</pdfrwt>
<totfact> 0.42125911E+06</totfact>
</mgrwt>
</event>
<event>
 3    0  0.1368989E+001  0.1250000E+03  0.7546771E-02  0.1235069E+00
         21   -1    0    0  502  501  0.00000000000E+00  0.00000000000E+00  0.14692686190E+04  0.14692686190E+04  0.00000000000E+00 0.  1.
         21   -1    0    0  501  502 -0.00000000000E+00 -0.00000000000E+00 -0.26586356977E+01  0.26586356977E+01  0.00000000000E+00 0.  1.
         25    1    1    2    0    0  0.00000000000E+00  0.00000000000E+00  0.14666099833E+04  0.14719272547E+04  0.12500000000E+03 0.  0.
<mgrwt>
<rscale>  2 0.12500000E+03</rscale>
<asrwt>0</asrwt>
<pdfrwt beam="1">  1       21 0.22604068E+00 0.12500000E+03</pdfrwt>
<pdfrwt beam="2">  1       21 0.40902205E-03 0.12500000E+03</pdfrwt>
<totfact> 0.14414403E+06</totfact>
</mgrwt>
</event>
<event>
 3    0  0.1724180E+001  0.1250000E+03  0.7546771E-02  0.1235069E+00
         21   -1    0    0  502  501  0.00000000000E+00  0.00000000000E+00  0.89840659112E+02  0.89840659112E+02  0.00000000000E+00 0.  1.
         21   -1    0    0  501  502 -0.00000000000E+00 -0.00000000000E+00 -0.43479756700E+02  0.43479756700E+02  0.00000000000E+00 0.  1.
         25    1    1    2    0    0  0.00000000000E+00  0.00000000000E+00  0.46360902412E+02  0.13332041581E+03  0.12500000000E+03 0.  0.
<mgrwt>
<rscale>  2 0.12500000E+03</rscale>
<asrwt>0</asrwt>
<pdfrwt beam="1">  1       21 0.13821640E-01 0.12500000E+03</pdfrwt>
<pdfrwt beam="2">  1       21 0.66891934E-02 0.12500000E+03</pdfrwt>
<totfact> 0.72919642E+06</totfact>
</mgrwt>
</event>
<event>
 3    0  0.1693473E+001  0.1250000E+03  0.7546771E-02  0.1235069E+00
         21   -1    0    0  502  501  0.00000000000E+00  0.00000000000E+00  0.28859103231E+02  0.28859103231E+02  0.00000000000E+00 0.  1.
         21   -1    0    0  501  502 -0.00000000000E+00 -0.00000000000E+00 -0.13535590378E+03  0.13535590378E+03  0.00000000000E+00 0.  1.
         25    1    1    2    0    0  0.00000000000E+00  0.00000000000E+00 -0.10649680054E+03  0.16421500701E+03  0.12500000000E+03 0.  0.
<mgrwt>
<rscale>  2 0.12500000E+03</rscale>
<asrwt>0</asrwt>
<pdfrwt beam="1">  1       21 0.44398621E-02 0.12500000E+03</pdfrwt>
<pdfrwt beam="2">  1       21 0.20823985E-01 0.12500000E+03</pdfrwt>
<totfact> 0.69008100E+06</totfact>
</mgrwt>
</event>
<event>
 3    0  0.1368989E+001  0.1250000E+03  0.7546771E-02  0.1235069E+00
         21   -1    0    0  502  501  0.00000000000E+00  0.00000000000E+00  0.48211736243E+01  0.48211736243E+01  0.00000000000E+00 0.  1.
         21   -1    0    0  501  502 -0.00000000000E+00 -0.00000000000E+00 -0.81022802837E+03  0.81022802837E+03  0.00000000000E+00 0.  1.
         25    1    1    2    0    0  0.00000000000E+00  0.00000000000E+00 -0.80540685474E+03  0.81504920199E+03  0.12500000000E+03 0.  0.
<mgrwt>
<rscale>  2 0.12500000E+03</rscale>
<asrwt>0</asrwt>
<pdfrwt beam="1">  1       21 0.74171849E-03 0.12500000E+03</pdfrwt>
<pdfrwt beam="2">  1       21 0.12465056E+00 0.12500000E+03</pdfrwt>
<totfact> 0.28870211E+06</totfact>
</mgrwt>
</event>
<event>
 3    0  0.1425386E+001  0.1250000E+03  0.7546771E-02  0.1235069E+00
         21   -1    0    0  502  501  0.00000000000E+00  0.00000000000E+00  0.55522236897E+03  0.55522236897E+03  0.00000000000E+00 0.  1.
         21   -1    0    0  501  502 -0.00000000000E+00 -0.00000000000E+00 -0.70354694233E+01  0.70354694233E+01  0.00000000000E+00 0.  1.
         25    1    1    2    0    0  0.00000000000E+00  0.00000000000E+00  0.54818689955E+03  0.56225783839E+03  0.12500000000E+03 0.  0.
<mgrwt>
<rscale>  2 0.12500000E+03</rscale>
<asrwt>0</asrwt>
<pdfrwt beam="1">  1       21 0.85418792E-01 0.12500000E+03</pdfrwt>
<pdfrwt beam="2">  1       21 0.10823803E-02 0.12500000E+03</pdfrwt>
<totfact> 0.38857076E+06</totfact>
</mgrwt>
</event>
<event>
 3    0  0.1685023E+001  0.1250000E+03  0.7546771E-02  0.1235069E+00
         21   -1    0    0  502  501  0.00000000000E+00  0.00000000000E+00  0.11502210083E+03  0.11502210083E+03  0.00000000000E+00 0. -1.
         21   -1    0    0  501  502 -0.00000000000E+00 -0.00000000000E+00 -0.33960864668E+02  0.33960864668E+02  0.00000000000E+00 0. -1.
         25    1    1    2    0    0  0.00000000000E+00  0.00000000000E+00  0.81061236158E+02  0.14898296549E+03  0.12500000000E+03 0.  0.
<mgrwt>
<rscale>  2 0.12500000E+03</rscale>
<asrwt>0</asrwt>
<pdfrwt beam="1">  1       21 0.17695708E-01 0.12500000E+03</pdfrwt>
<pdfrwt beam="2">  1       21 0.52247485E-02 0.12500000E+03</pdfrwt>
<totfact> 0.70887194E+06</totfact>
</mgrwt>
</event>
<event>
 3    0  0.1692502E+001  0.1250000E+03  0.7546771E-02  0.1235069E+00
         21   -1    0    0  502  501  0.00000000000E+00  0.00000000000E+00  0.13018534630E+03  0.13018534630E+03  0.00000000000E+00 0.  1.
         21   -1    0    0  501  502 -0.00000000000E+00 -0.00000000000E+00 -0.30005297147E+02  0.30005297147E+02  0.00000000000E+00 0.  1.
         25    1    1    2    0    0  0.00000000000E+00  0.00000000000E+00  0.10018004916E+03  0.16019064345E+03  0.12500000000E+03 0.  0.
<mgrwt>
<rscale>  2 0.12500000E+03</rscale>
<asrwt>0</asrwt>
<pdfrwt beam="1">  1       21 0.20028514E-01 0.12500000E+03</pdfrwt>
<pdfrwt beam="2">  1       21 0.46161996E-02 0.12500000E+03</pdfrwt>
<totfact> 0.69496209E+06</totfact>
</mgrwt>
</event>
<event>
 3    0  0.1704711E+001  0.1250000E+03  0.7546771E-02  0.1235069E+00
         21   -1    0    0  502  501  0.00000000000E+00  0.00000000000E+00  0.57072613387E+02  0.57072613387E+02  0.00000000000E+00 0. -1.
         21   -1    0    0  501  502 -0.00000000000E+00 -0.00000000000E+00 -0.68443510261E+02  0.68443510261E+02  0.00000000000E+00 0. -1.
         25    1    1    2    0    0  0.00000000000E+00  0.00000000000E+00 -0.11370896874E+02  0.12551612365E+03  0.12500000000E+03 0.  0.
<mgrwt>
<rscale>  2 0.12500000E+03</rscale>
<asrwt>0</asrwt>
<pdfrwt beam="1">  1       21 0.87804020E-02 0.12500000E+03</pdfrwt>
<pdfrwt beam="2">  1       21 0.10529771E-01 0.12500000E+03</pdfrwt>
<totfact> 0.73973143E+06</totfact>
</mgrwt>
</event>
<event>
 3    0  0.1668679E+001  0.1250000E+03  0.7546771E-02  0.1235069E+00
         21   -1    0    0  502  501  0.00000000000E+00  0.00000000000E+00  0.16376565821E+03  0.16376565821E+03  0.00000000000E+00 0.  1.
         21   -1    0    0  501  502 -0.00000000000E+00 -0.00000000000E+00 -0.23852680975E+02  0.23852680975E+02  0.00000000000E+00 0.  1.
         25    1    1    2    0    0  0.00000000000E+00  0.00000000000E+00  0.13991297724E+03  0.18761833919E+03  0.12500000000E+03 0.  0.
<mgrwt>
<rscale>  2 0.12500000E+03</rscale>
<asrwt>0</asrwt>
<pdfrwt beam="1">  1       21 0.25194716E-01 0.12500000E+03</pdfrwt>
<pdfrwt beam="2">  1       21 0.36696433E-02 0.12500000E+03</pdfrwt>
<totfact> 0.66288147E+06</totfact>
</mgrwt>
</event>
<event>
 3    0  0.1681169E+001  0.1250000E+03  0.7546771E-02  0.1235069E+00
         21   -1    0    0  502  501  0.00000000000E+00  0.00000000000E+00  0.27920406879E+02  0.27920406879E+02  0.00000000000E+00 0. -1.
         21   -1    0    0  501  502 -0.00000000000E+00 -0.00000000000E+00 -0.13990662876E+03  0.13990662876E+03  0.00000000000E+00 0. -1.
         25    1    1    2    0    0  0.00000000000E+00  0.00000000000E+00 -0.11198622188E+03  0.16782703564E+03  0.12500000000E+03 0.  0.
<mgrwt>
<rscale>  2 0.12500000E+03</rscale>
<asrwt>0</asrwt>
<pdfrwt beam="1">  1       21 0.42954472E-02 0.12500000E+03</pdfrwt>
<pdfrwt beam="2">  1       21 0.21524097E-01 0.12500000E+03</pdfrwt>
<totfact> 0.68575538E+06</totfact>
</mgrwt>
</event>
<event>
 3    0  0.1730055E+001  0.1250000E+03  0.7546771E-02  0.1235069E+00
         21   -1    0    0  502  501  0.00000000000E+00  0.00000000000E+00  0.62387501503E+02  0.62387501503E+02  0.00000000000E+00 0.  1.
         21   -1    0    0  501  502 -0.00000000000E+00 -0.00000000000E+00 -0.62612701357E+02  0.62612701357E+02  0.00000000000E+00 0.  1.
         25    1    1    2    0    0  0.00000000000E+00  0.00000000000E+00 -0.22519985467E+00  0.12500020286E+03  0.12500000000E+03 0.  0.
<mgrwt>
<rscale>  2 0.12500000E+03</rscale>
<asrwt>0</asrwt>
<pdfrwt beam="1">  1       21 0.95980772E-02 0.12500000E+03</pdfrwt>
<pdfrwt beam="2">  1       21 0.96327233E-02 0.12500000E+03</pdfrwt>
<totfact> 0.74043554E+06</totfact>
</mgrwt>
</event>
<event>
 3    0  0.1368989E+001  0.1250000E+03  0.7546771E-02  0.1235069E+00
         21   -1    0    0  502  501  0.00000000000E+00  0.00000000000E+00  0.50163510340E+01  0.50163510340E+01  0.00000000000E+00 0. -1.
         21   -1    0    0  501  502 -0.00000000000E+00 -0.00000000000E+00 -0.77870347858E+03  0.77870347858E+03  0.00000000000E+00 0. -1.
         25    1    1    2    0    0  0.00000000000E+00  0.00000000000E+00 -0.77368712755E+03  0.78371982962E+03  0.12500000000E+03 0.  0.
<mgrwt>
<rscale>  2 0.12500000E+03</rscale>
<asrwt>0</asrwt>
<pdfrwt beam="1">  1       21 0.77174661E-03 0.12500000E+03</pdfrwt>
<pdfrwt beam="2">  1       21 0.11980049E+00 0.12500000E+03</pdfrwt>
<totfact> 0.29909369E+06</totfact>
</mgrwt>
</event>
<event>
 3    0  0.1615770E+001  0.1250000E+03  0.7546771E-02  0.1235069E+00
         21   -1    0    0  502  501  0.00000000000E+00  0.00000000000E+00  0.21784742602E+03  0.21784742602E+03  0.00000000000E+00 0. -1.
         21   -1    0    0  501  502 -0.00000000000E+00 -0.00000000000E+00 -0.17931127631E+02  0.17931127631E+02  0.00000000000E+00 0. -1.
         25    1    1    2    0    0  0.00000000000E+00  0.00000000000E+00  0.19991629839E+03  0.23577855365E+03  0.12500000000E+03 0.  0.
<mgrwt>
<rscale>  2 0.12500000E+03</rscale>
<asrwt>0</asrwt>
<pdfrwt beam="1">  1       21 0.33514987E-01 0.12500000E+03</pdfrwt>
<pdfrwt beam="2">  1       21 0.27586352E-02 0.12500000E+03</pdfrwt>
<totfact> 0.61243572E+06</totfact>
</mgrwt>
</event>
<event>
 3    0  0.1672895E+001  0.1250000E+03  0.7546771E-02  0.1235069E+00
         21   -1    0    0  502  501  0.00000000000E+00  0.00000000000E+00  0.18542610015E+03  0.18542610015E+03  0.00000000000E+00 0.  1.
         21   -1    0    0  501  502 -0.00000000000E+00 -0.00000000000E+00 -0.21066343934E+02  0.21066343934E+02  0.00000000000E+00 0.  1.
         25    1    1    2    0    0  0.00000000000E+00  0.00000000000E+00  0.16435975621E+03  0.20649244408E+03  0.12500000000E+03 0.  0.
<mgrwt>
<rscale>  2 0.12500000E+03</rscale>
<asrwt>0</asrwt>
<pdfrwt beam="1">  1       21 0.28527091E-01 0.12500000E+03</pdfrwt>
<pdfrwt beam="2">  1       21 0.32409761E-02 0.12500000E+03</pdfrwt>
<totfact> 0.64230471E+06</totfact>
</mgrwt>
</event>
<event>
 3    0  0.1481519E+001  0.1250000E+03  0.7546771E-02  0.1235069E+00
         21   -1    0    0  502  501  0.00000000000E+00  0.00000000000E+00  0.85919104748E+01  0.85919104748E+01  0.00000000000E+00 0. -1.
         21   -1    0    0  501  502 -0.00000000000E+00 -0.00000000000E+00 -0.45464277258E+03  0.45464277258E+03  0.00000000000E+00 0. -1.
         25    1    1    2    0    0  0.00000000000E+00  0.00000000000E+00 -0.44605086210E+03  0.46323468305E+03  0.12500000000E+03 0.  0.
<mgrwt>
<rscale>  2 0.12500000E+03</rscale>
<asrwt>0</asrwt>
<pdfrwt beam="1">  1       21 0.13218323E-02 0.12500000E+03</pdfrwt>
<pdfrwt beam="2">  1       21 0.69945048E-01 0.12500000E+03</pdfrwt>
<totfact> 0.44110779E+06</totfact>
</mgrwt>
</event>
<event>
 3    0  0.1704691E+001  0.1250000E+03  0.7546771E-02  0.1235069E+00
         21   -1    0    0  502  501  0.00000000000E+00  0.00000000000E+00  0.57911651523E+02  0.57911651523E+02  0.00000000000E+00 0. -1.
         21   -1    0    0  501  502 -0.00000000000E+00 -0.00000000000E+00 -0.67451883987E+02  0.67451883987E+02  0.00000000000E+00 0. -1.
         25    1    1    2    0    0  0.00000000000E+00  0.00000000000E+00 -0.95402324640E+01  0.12536353551E+03  0.12500000000E+03 0.  0.
<mgrwt>
<rscale>  2 0.12500000E+03</rscale>
<asrwt>0</asrwt>
<pdfrwt beam="1">  1       21 0.89094849E-02 0.12500000E+03</pdfrwt>
<pdfrwt beam="2">  1       21 0.10377213E-01 0.12500000E+03</pdfrwt>
<totfact> 0.73994495E+06</totfact>
</mgrwt>
</event>
<event>
 3    0  0.1368989E+001  0.1250000E+03  0.7546771E-02  0.1235069E+00
         21   -1    0    0  502  501  0.00000000000E+00  0.00000000000E+00  0.22266124460E+01  0.22266124460E+01  0.00000000000E+00 0.  1.
         21   -1    0    0  501  502 -0.00000000000E+00 -0.00000000000E+00 -0.17543466116E+04  0.17543466116E+04  0.00000000000E+00 0.  1.
         25    1    1    2    0    0  0.00000000000E+00  0.00000000000E+00 -0.17521199992E+04  0.17565732241E+04  0.12500000000E+03 0.  0.
<mgrwt>
<rscale>  2 0.12500000E+03</rscale>
<asrwt>0</asrwt>
<pdfrwt beam="1">  1       21 0.34255334E-03 0.12500000E+03</pdfrwt>
<pdfrwt beam="2">  1       21 0.26990138E+00 0.12500000E+03</pdfrwt>
<totfact> 0.10578721E+06</totfact>
</mgrwt>
</event>
<event>
 3    0  0.1702946E+001  0.1250000E+03  0.7546771E-02  0.1235069E+00
         21   -1    0    0  502  501  0.00000000000E+00  0.00000000000E+00  0.50391652179E+02  0.50391652179E+02  0.00000000000E+00 0. -1.
         21   -1    0    0  501  502 -0.00000000000E+00 -0.00000000000E+00 -0.77517799696E+02  0.77517799696E+02  0.00000000000E+00 0. -1.
         25    1    1    2    0    0  0.00000000000E+00  0.00000000000E+00 -0.27126147517E+02  0.12790945188E+03  0.12500000000E+03 0.  0.
<mgrwt>
<rscale>  2 0.12500000E+03</rscale>
<asrwt>0</asrwt>
<pdfrwt beam="1">  1       21 0.77525619E-02 0.12500000E+03</pdfrwt>
<pdfrwt beam="2">  1       21 0.11925815E-01 0.12500000E+03</pdfrwt>
<totfact> 0.73645795E+06</totfact>
</mgrwt>
</event>
<event>
 3    0  0.1653737E+001  0.1250000E+03  0.7546771E-02  0.1235069E+00
         21   -1    0    0  502  501  0.00000000000E+00  0.00000000000E+00  0.17597038893E+03  0.17597038893E+03  0.00000000000E+00 0. -1.
         21   -1    0    0  501  502 -0.00000000000E+00 -0.00000000000E+00 -0.22198337026E+02  0.22198337026E+02  0.00000000000E+00 0. -1.
         25    1    1    2    0    0  0.00000000000E+00  0.00000000000E+00  0.15377205191E+03  0.19816872596E+03  0.12500000000E+03 0.  0.
<mgrwt>
<rscale>  2 0.12500000E+03</rscale>
<asrwt>0</asrwt>
<pdfrwt beam="1">  1       21 0.27072367E-01 0.12500000E+03</pdfrwt>
<pdfrwt beam="2">  1       21 0.34151289E-02 0.12500000E+03</pdfrwt>
<totfact> 0.65125873E+06</totfact>
</mgrwt>
</event>
<event>
 3    0  0.1729971E+001  0.1250000E+03  0.7546771E-02  0.1235069E+00
         21   -1    0    0  502  501  0.00000000000E+00  0.00000000000E+00  0.63804477476E+02  0.63804477476E+02  0.00000000000E+00 0.  1.
         21   -1    0    0  501  502 -0.00000000000E+00 -0.00000000000E+00 -0.61222192462E+02  0.61222192462E+02  0.00000000000E+00 0.  1.
         25    1    1    2    0    0  0.00000000000E+00  0.00000000000E+00  0.25822850143E+01  0.12502666994E+03  0.12500000000E+03 0.  0.
<mgrwt>
<rscale>  2 0.12500000E+03</rscale>
<asrwt>0</asrwt>
<pdfrwt beam="1">  1       21 0.98160734E-02 0.12500000E+03</pdfrwt>
<pdfrwt beam="2">  1       21 0.94187989E-02 0.12500000E+03</pdfrwt>
<totfact> 0.74039979E+06</totfact>
</mgrwt>
</event>
<event>
 3    0  0.1559315E+001  0.1250000E+03  0.7546771E-02  0.1235069E+00
         21   -1    0    0  502  501  0.00000000000E+00  0.00000000000E+00  0.11078804678E+02  0.11078804678E+02  0.00000000000E+00 0. -1.
         21   -1    0    0  501  502 -0.00000000000E+00 -0.00000000000E+00 -0.35258767653E+03  0.35258767653E+03  0.00000000000E+00 0. -1.
         25    1    1    2    0    0  0.00000000000E+00  0.00000000000E+00 -0.34150887185E+03  0.36366648121E+03  0.12500000000E+03 0.  0.
<mgrwt>
<rscale>  2 0.12500000E+03</rscale>
<asrwt>0</asrwt>
<pdfrwt beam="1">  1       21 0.17044313E-02 0.12500000E+03</pdfrwt>
<pdfrwt beam="2">  1       21 0.54244263E-01 0.12500000E+03</pdfrwt>
<totfact> 0.50544689E+06</totfact>
</mgrwt>
</event>
<event>
 3    0  0.1693141E+001  0.1250000E+03  0.7546771E-02  0.1235069E+00
         21   -1    0    0  502  501  0.00000000000E+00  0.00000000000E+00  0.10105026124E+03  0.10105026124E+03  0.00000000000E+00 0. -1.
         21   -1    0    0  501  502 -0.00000000000E+00 -0.00000000000E+00 -0.38656505704E+02  0.38656505704E+02  0.00000000000E+00 0. -1.
         25    1    1    2    0    0  0.00000000000E+00  0.00000000000E+00  0.62393755535E+02  0.13970676694E+03  0.12500000000E+03 0.  0.
<mgrwt>
<rscale>  2 0.12500000E+03</rscale>
<asrwt>0</asrwt>
<pdfrwt beam="1">  1       21 0.15546194E-01 0.12500000E+03</pdfrwt>
<pdfrwt beam="2">  1       21 0.59471548E-02 0.12500000E+03</pdfrwt>
<totfact> 0.72077612E+06</totfact>
</mgrwt>
</event>
<event>
 3    0  0.1368989E+001  0.1250000E+03  0.7546771E-02  0.1235069E+00
         21   -1    0    0  502  501  0.00000000000E+00  0.00000000000E+00  0.82610756699E+03  0.82610756699E+03  0.00000000000E+00 0.  1.
         21   -1    0    0  501  502 -0.00000000000E+00 -0.00000000000E+00 -0.47285004472E+01  0.47285004472E+01  0.00000000000E+00 0.  1.
         25    1    1    2    0    0  0.00000000000E+00  0.00000000000E+00  0.82137906655E+03  0.83083606744E+03  0.12500000000E+03 0.  0.
<mgrwt>
<rscale>  2 0.12500000E+03</rscale>
<asrwt>0</asrwt>
<pdfrwt beam="1">  1       21 0.12709336E+00 0.12500000E+03</pdfrwt>
<pdfrwt beam="2">  1       21 0.72746227E-03 0.12500000E+03</pdfrwt>
<totfact> 0.28366336E+06</totfact>
</mgrwt>
</event>
<event>
 3    0  0.1368989E+001  0.1250000E+03  0.7546771E-02  0.1235069E+00
         21   -1    0    0  502  501  0.00000000000E+00  0.00000000000E+00  0.64829656067E+03  0.64829656067E+03  0.00000000000E+00 0. -1.
         21   -1    0    0  501  502 -0.00000000000E+00 -0.00000000000E+00 -0.60254060209E+01  0.60254060209E+01  0.00000000000E+00 0. -1.
         25    1    1    2    0    0  0.00000000000E+00  0.00000000000E+00  0.64227115465E+03  0.65432196669E+03  0.12500000000E+03 0.  0.
<mgrwt>
<rscale>  2 0.12500000E+03</rscale>
<asrwt>0</asrwt>
<pdfrwt beam="1">  1       21 0.99737877E-01 0.12500000E+03</pdfrwt>
<pdfrwt beam="2">  1       21 0.92698605E-03 0.12500000E+03</pdfrwt>
<totfact> 0.34745437E+06</totfact>
</mgrwt>
</event>
<event>
 3    0  0.1374510E+001  0.1250000E+03  0.7546771E-02  0.1235069E+00
         21   -1    0    0  502  501  0.00000000000E+00  0.00000000000E+00  0.65501299007E+03  0.65501299007E+03  0.00000000000E+00 0.  1.
         21   -1    0    0  501  502 -0.00000000000E+00 -0.00000000000E+00 -0.59636221865E+01  0.59636221865E+01  0.00000000000E+00 0.  1.
         25    1    1    2    0    0  0.00000000000E+00  0.00000000000E+00  0.64904936788E+03  0.66097661226E+03  0.12500000000E+03 0.  0.
<mgrwt>
<rscale>  2 0.12500000E+03</rscale>
<asrwt>0</asrwt>
<pdfrwt beam="1">  1       21 0.10077117E+00 0.12500000E+03</pdfrwt>
<pdfrwt beam="2">  1       21 0.91748085E-03 0.12500000E+03</pdfrwt>
<totfact> 0.34469479E+06</totfact>
</mgrwt>
</event>
<event>
 3    0  0.1491001E+001  0.1250000E+03  0.7546771E-02  0.1235069E+00
         21   -1    0    0  502  501  0.00000000000E+00  0.00000000000E+00  0.96970133715E+01  0.96970133715E+01  0.00000000000E+00 0. -1.
         21   -1    0    0  501  502 -0.00000000000E+00 -0.00000000000E+00 -0.40283021693E+03  0.40283021693E+03  0.00000000000E+00 0. -1.
         25    1    1    2    0    0  0.00000000000E+00  0.00000000000E+00 -0.39313320356E+03  0.41252723030E+03  0.12500000000E+03 0.  0.
<mgrwt>
<rscale>  2 0.12500000E+03</rscale>
<asrwt>0</asrwt>
<pdfrwt beam="1">  1       21 0.14918485E-02 0.12500000E+03</pdfrwt>
<pdfrwt beam="2">  1       21 0.61973867E-01 0.12500000E+03</pdfrwt>
<totfact> 0.47221389E+06</totfact>
</mgrwt>
</event>
<event>
 3    0  0.1701661E+001  0.1250000E+03  0.7546771E-02  0.1235069E+00
         21   -1    0    0  502  501  0.00000000000E+00  0.00000000000E+00  0.12616541383E+03  0.12616541383E+03  0.00000000000E+00 0.  1.
         21   -1    0    0  501  502 -0.00000000000E+00 -0.00000000000E+00 -0.30961337831E+02  0.30961337831E+02  0.00000000000E+00 0.  1.
         25    1    1    2    0    0  0.00000000000E+00  0.00000000000E+00  0.95204075995E+02  0.15712675166E+03  0.12500000000E+03 0.  0.
<mgrwt>
<rscale>  2 0.12500000E+03</rscale>
<asrwt>0</asrwt>
<pdfrwt beam="1">  1       21 0.19410063E-01 0.12500000E+03</pdfrwt>
<pdfrwt beam="2">  1       21 0.47632828E-02 0.12500000E+03</pdfrwt>
<totfact> 0.69872291E+06</totfact>
</mgrwt>
</event>
<event>
 3    0  0.1368989E+001  0.1250000E+03  0.7546771E-02  0.1235069E+00
         21   -1    0    0  502  501  0.00000000000E+00  0.00000000000E+00  0.65194874522E+03  0.65194874522E+03  0.00000000000E+00 0. -1.
         21   -1    0    0  501  502 -0.00000000000E+00 -0.00000000000E+00 -0.59916519951E+01  0.59916519951E+01  0.00000000000E+00 0. -1.
         25    1    1    2    0    0  0.00000000000E+00  0.00000000000E+00  0.64595709323E+03  0.65794039722E+03  0.12500000000E+03 0.  0.
<mgrwt>
<rscale>  2 0.12500000E+03</rscale>
<asrwt>0</asrwt>
<pdfrwt beam="1">  1       21 0.10029975E+00 0.12500000E+03</pdfrwt>
<pdfrwt beam="2">  1       21 0.92179313E-03 0.12500000E+03</pdfrwt>
<totfact> 0.34595414E+06</totfact>
</mgrwt>
</event>
<event>
 3    0  0.1708645E+001  0.1250000E+03  0.7546771E-02  0.1235069E+00
         21   -1    0    0  502  501  0.00000000000E+00  0.00000000000E+00  0.32645308989E+02  0.32645308989E+02  0.00000000000E+00 0.  1.
         21   -1    0    0  501  502 -0.00000000000E+00 -0.00000000000E+00 -0.11965731436E+03  0.11965731436E+03  0.00000000000E+00 0.  1.
         25    1    1    2    0    0  0.00000000000E+00  0.00000000000E+00 -0.87012005368E+02  0.15230262335E+03  0.12500000000E+03 0.  0.
<mgrwt>
<rscale>  2 0.12500000E+03</rscale>
<asrwt>0</asrwt>
<pdfrwt beam="1">  1       21 0.50223553E-02 0.12500000E+03</pdfrwt>
<pdfrwt beam="2">  1       21 0.18408817E-01 0.12500000E+03</pdfrwt>
<totfact> 0.70471134E+06</totfact>
</mgrwt>
</event>
<event>
 3    0  0.1643161E+001  0.1250000E+03  0.7546771E-02  0.1235069E+00
         21   -1    0    0  502  501  0.00000000000E+00  0.00000000000E+00  0.23649567581E+03  0.23649567581E+03  0.00000000000E+00 0.  1.
         21   -1    0    0  501  502 -0.00000000000E+00 -0.00000000000E+00 -0.16517215321E+02  0.16517215321E+02  0.00000000000E+00 0.  1.
         25    1    1    2    0    0  0.00000000000E+00  0.00000000000E+00  0.21997846049E+03  0.25301289113E+03  0.12500000000E+03 0.  0.
<mgrwt>
<rscale>  2 0.12500000E+03</rscale>
<asrwt>0</asrwt>
<pdfrwt beam="1">  1       21 0.36383948E-01 0.12500000E+03</pdfrwt>
<pdfrwt beam="2">  1       21 0.25411102E-02 0.12500000E+03</pdfrwt>
<totfact> 0.59595685E+06</totfact>
</mgrwt>
</event>
<event>
 3    0  0.1368989E+001  0.1250000E+03  0.7546771E-02  0.1235069E+00
         21   -1    0    0  502  501  0.00000000000E+00  0.00000000000E+00  0.45661166597E+01  0.45661166597E+01  0.00000000000E+00 0.  1.
         21   -1    0    0  501  502 -0.00000000000E+00 -0.00000000000E+00 -0.85548624600E+03  0.85548624600E+03  0.00000000000E+00 0.  1.
         25    1    1    2    0    0  0.00000000000E+00  0.00000000000E+00 -0.85092012934E+03  0.86005236266E+03  0.12500000000E+03 0.  0.
<mgrwt>
<rscale>  2 0.12500000E+03</rscale>
<asrwt>0</asrwt>
<pdfrwt beam="1">  1       21 0.70247916E-03 0.12500000E+03</pdfrwt>
<pdfrwt beam="2">  1       21 0.13161333E+00 0.12500000E+03</pdfrwt>
<totfact> 0.27467063E+06</totfact>
</mgrwt>
</event>
<event>
 3    0  0.1368989E+001  0.1250000E+03  0.7546771E-02  0.1235069E+00
         21   -1    0    0  502  501  0.00000000000E+00  0.00000000000E+00  0.51858283761E+01  0.51858283761E+01  0.00000000000E+00 0. -1.
         21   -1    0    0  501  502 -0.00000000000E+00 -0.00000000000E+00 -0.75325477758E+03  0.75325477758E+03  0.00000000000E+00 0. -1.
         25    1    1    2    0    0  0.00000000000E+00  0.00000000000E+00 -0.74806894920E+03  0.75844060596E+03  0.12500000000E+03 0.  0.
<mgrwt>
<rscale>  2 0.12500000E+03</rscale>
<asrwt>0</asrwt>
<pdfrwt beam="1">  1       21 0.79781964E-03 0.12500000E+03</pdfrwt>
<pdfrwt beam="2">  1       21 0.11588537E+00 0.12500000E+03</pdfrwt>
<totfact> 0.30774191E+06</totfact>
</mgrwt>
</event>
<event>
 3    0  0.1700507E+001  0.1250000E+03  0.7546771E-02  0.1235069E+00
         21   -1    0    0  502  501  0.00000000000E+00  0.00000000000E+00  0.82381843612E+02  0.82381843612E+02  0.00000000000E+00 0. -1.
         21   -1    0    0  501  502 -0.00000000000E+00 -0.00000000000E+00 -0.47416394544E+02  0.47416394544E+02  0.00000000000E+00 0. -1.
         25    1    1    2    0    0  0.00000000000E+00  0.00000000000E+00  0.34965449068E+02  0.12979823816E+03  0.12500000000E+03 0.  0.
<mgrwt>
<rscale>  2 0.12500000E+03</rscale>
<asrwt>0</asrwt>
<pdfrwt beam="1">  1       21 0.12674130E-01 0.12500000E+03</pdfrwt>
<pdfrwt beam="2">  1       21 0.72948300E-02 0.12500000E+03</pdfrwt>
<totfact> 0.73391892E+06</totfact>
</mgrwt>
</event>
<event>
 3    0  0.1704892E+001  0.1250000E+03  0.7546771E-02  0.1235069E+00
         21   -1    0    0  502  501  0.00000000000E+00  0.00000000000E+00  0.27873059224E+02  0.27873059224E+02  0.00000000000E+00 0.  1.
         21   -1    0    0  501  502 -0.00000000000E+00 -0.00000000000E+00 -0.14014428659E+03  0.14014428659E+03  0.00000000000E+00 0.  1.
         25    1    1    2    0    0  0.00000000000E+00  0.00000000000E+00 -0.11227122737E+03  0.16801734581E+03  0.12500000000E+03 0.  0.
<mgrwt>
<rscale>  2 0.12500000E+03</rscale>
<asrwt>0</asrwt>
<pdfrwt beam="1">  1       21 0.42881630E-02 0.12500000E+03</pdfrwt>
<pdfrwt beam="2">  1       21 0.21560659E-01 0.12500000E+03</pdfrwt>
<totfact> 0.68552890E+06</totfact>
</mgrwt>
</event>
<event>
 3    0  0.1430009E+001  0.1250000E+03  0.7546771E-02  0.1235069E+00
         21   -1    0    0  502  501  0.00000000000E+00  0.00000000000E+00  0.67139505429E+01  0.67139505429E+01  0.00000000000E+00 0.  1.
         21   -1    0    0  501  502 -0.00000000000E+00 -0.00000000000E+00 -0.58181095840E+03  0.58181095840E+03  0.00000000000E+00 0.  1.
         25    1    1    2    0    0  0.00000000000E+00  0.00000000000E+00 -0.57509700785E+03  0.58852490894E+03  0.12500000000E+03 0.  0.
<mgrwt>
<rscale>  2 0.12500000E+03</rscale>
<asrwt>0</asrwt>
<pdfrwt beam="1">  1       21 0.10329153E-02 0.12500000E+03</pdfrwt>
<pdfrwt beam="2">  1       21 0.89509393E-01 0.12500000E+03</pdfrwt>
<totfact> 0.37616768E+06</totfact>
</mgrwt>
</event>
<event>
 3    0  0.1703254E+001  0.1250000E+03  0.7546771E-02  0.1235069E+00
         21   -1    0    0  502  501  0.00000000000E+00  0.00000000000E+00  0.55177235082E+02  0.55177235082E+02  0.00000000000E+00 0. -1.
         21   -1    0    0  501  502 -0.00000000000E+00 -0.00000000000E+00 -0.70794594804E+02  0.70794594804E+02  0.00000000000E+00 0. -1.
         25    1    1    2    0    0  0.00000000000E+00  0.00000000000E+00 -0.15617359722E+02  0.12597182989E+03  0.12500000000E+03 0.  0.
<mgrwt>
<rscale>  2 0.12500000E+03</rscale>
<asrwt>0</asrwt>
<pdfrwt beam="1">  1       21 0.84888054E-02 0.12500000E+03</pdfrwt>
<pdfrwt beam="2">  1       21 0.10891476E-01 0.12500000E+03</pdfrwt>
<totfact> 0.73909924E+06</totfact>
</mgrwt>
</event>
<event>
 3    0  0.1631024E+001  0.1250000E+03  0.7546771E-02  0.1235069E+00
         21   -1    0    0  502  501  0.00000000000E+00  0.00000000000E+00  0.17626464999E+02  0.17626464999E+02  0.00000000000E+00 0.  1.
         21   -1    0    0  501  502 -0.00000000000E+00 -0.00000000000E+00 -0.22161278510E+03  0.22161278510E+03  0.00000000000E+00 0.  1.
         25    1    1    2    0    0  0.00000000000E+00  0.00000000000E+00 -0.20398632010E+03  0.23923925010E+03  0.12500000000E+03 0.  0.
<mgrwt>
<rscale>  2 0.12500000E+03</rscale>
<asrwt>0</asrwt>
<pdfrwt beam="1">  1       21 0.27117638E-02 0.12500000E+03</pdfrwt>
<pdfrwt beam="2">  1       21 0.34094276E-01 0.12500000E+03</pdfrwt>
<totfact> 0.60906356E+06</totfact>
</mgrwt>
</event>
<event>
 3    0  0.1685522E+001  0.1250000E+03  0.7546771E-02  0.1235069E+00
         21   -1    0    0  502  501  0.00000000000E+00  0.00000000000E+00  0.11478598911E+03  0.11478598911E+03  0.00000000000E+00 0. -1.
         21   -1    0    0  501  502 -0.00000000000E+00 -0.00000000000E+00 -0.34030721260E+02  0.34030721260E+02  0.00000000000E+00 0. -1.
         25    1    1    2    0    0  0.00000000000E+00  0.00000000000E+00  0.80755267852E+02  0.14881671037E+03  0.12500000000E+03 0.  0.
<mgrwt>
<rscale>  2 0.12500000E+03</rscale>
<asrwt>0</asrwt>
<pdfrwt beam="1">  1       21 0.17659383E-01 0.12500000E+03</pdfrwt>
<pdfrwt beam="2">  1       21 0.52354956E-02 0.12500000E+03</pdfrwt>
<totfact> 0.70908162E+06</totfact>
</mgrwt>
</event>
<event>
 3    0  0.1667453E+001  0.1250000E+03  0.7546771E-02  0.1235069E+00
         21   -1    0    0  502  501  0.00000000000E+00  0.00000000000E+00  0.19762434194E+02  0.19762434194E+02  0.00000000000E+00 0.  1.
         21   -1    0    0  501  502 -0.00000000000E+00 -0.00000000000E+00 -0.19766036722E+03  0.19766036722E+03  0.00000000000E+00 0.  1.
         25    1    1    2    0    0  0.00000000000E+00  0.00000000000E+00 -0.17789793303E+03  0.21742280142E+03  0.12500000000E+03 0.  0.
<mgrwt>
<rscale>  2 0.12500000E+03</rscale>
<asrwt>0</asrwt>
<pdfrwt beam="1">  1       21 0.30403744E-02 0.12500000E+03</pdfrwt>
<pdfrwt beam="2">  1       21 0.30409288E-01 0.12500000E+03</pdfrwt>
<totfact> 0.63086934E+06</totfact>
</mgrwt>
</event>
<event>
 3    0  0.1699103E+001  0.1250000E+03  0.7546771E-02  0.1235069E+00
         21   -1    0    0  502  501  0.00000000000E+00  0.00000000000E+00  0.41285341405E+02  0.41285341405E+02  0.00000000000E+00 0. -1.
         21   -1    0    0  501  502 -0.00000000000E+00 -0.00000000000E+00 -0.94615906446E+02  0.94615906446E+02  0.00000000000E+00 0. -1.
         25    1    1    2    0    0  0.00000000000E+00  0.00000000000E+00 -0.53330565041E+02  0.13590124785E+03  0.12500000000E+03 0.  0.
<mgrwt>
<rscale>  2 0.12500000E+03</rscale>
<asrwt>0</asrwt>
<pdfrwt beam="1">  1       21 0.63515911E-02 0.12500000E+03</pdfrwt>
<pdfrwt beam="2">  1       21 0.14556293E-01 0.12500000E+03</pdfrwt>
<totfact> 0.72577360E+06</totfact>
</mgrwt>
</event>
<event>
 3    0  0.1368989E+001  0.1250000E+03  0.7546771E-02  0.1235069E+00
         21   -1    0    0  502  501  0.00000000000E+00  0.00000000000E+00  0.10957675493E+04  0.10957675493E+04  0.00000000000E+00 0.  1.
         21   -1    0    0  501  502 -0.00000000000E+00 -0.00000000000E+00 -0.35648527850E+01  0.35648527850E+01  0.00000000000E+00 0.  1.
         25    1    1    2    0    0  0.00000000000E+00  0.00000000000E+00  0.10922026966E+04  0.10993324021E+04  0.12500000000E+03 0.  0.
<mgrwt>
<rscale>  2 0.12500000E+03</rscale>
<asrwt>0</asrwt>
<pdfrwt beam="1">  1       21 0.16857935E+00 0.12500000E+03</pdfrwt>
<pdfrwt beam="2">  1       21 0.54843976E-03 0.12500000E+03</pdfrwt>
<totfact> 0.21266296E+06</totfact>
</mgrwt>
</event>
<event>
 3    0  0.1706681E+001  0.1250000E+03  0.7546771E-02  0.1235069E+00
         21   -1    0    0  502  501  0.00000000000E+00  0.00000000000E+00  0.11627136760E+03  0.11627136760E+03  0.00000000000E+00 0.  1.
         21   -1    0    0  501  502 -0.00000000000E+00 -0.00000000000E+00 -0.33595975353E+02  0.33595975353E+02  0.00000000000E+00 0.  1.
         25    1    1    2    0    0  0.00000000000E+00  0.00000000000E+00  0.82675392243E+02  0.14986734295E+03  0.12500000000E+03 0.  0.
<mgrwt>
<rscale>  2 0.12500000E+03</rscale>
<asrwt>0</asrwt>
<pdfrwt beam="1">  1       21 0.17887902E-01 0.12500000E+03</pdfrwt>
<pdfrwt beam="2">  1       21 0.51686117E-02 0.12500000E+03</pdfrwt>
<totfact> 0.70775869E+06</totfact>
</mgrwt>
</event>
<event>
 3    0  0.1368989E+001  0.1250000E+03  0.7546771E-02  0.1235069E+00
         21   -1    0    0  502  501  0.00000000000E+00  0.00000000000E+00  0.51754660030E+01  0.51754660030E+01  0.00000000000E+00 0. -1.
         21   -1    0    0  501  502 -0.00000000000E+00 -0.00000000000E+00 -0.75476295231E+03  0.75476295231E+03  0.00000000000E+00 0. -1.
         25    1    1    2    0    0  0.00000000000E+00  0.00000000000E+00 -0.74958748630E+03  0.75993841831E+03  0.12500000000E+03 0.  0.
<mgrwt>
<rscale>  2 0.12500000E+03</rscale>
<asrwt>0</asrwt>
<pdfrwt beam="1">  1       21 0.79622517E-03 0.12500000E+03</pdfrwt>
<pdfrwt beam="2">  1       21 0.11611743E+00 0.12500000E+03</pdfrwt>
<totfact> 0.30722347E+06</totfact>
</mgrwt>
</event>
<event>
 3    0  0.1618183E+001  0.1250000E+03  0.7546771E-02  0.1235069E+00
         21   -1    0    0  502  501  0.00000000000E+00  0.00000000000E+00  0.15789172133E+02  0.15789172133E+02  0.00000000000E+00 0.  1.
         21   -1    0    0  501  502 -0.00000000000E+00 -0.00000000000E+00 -0.24740055825E+03  0.24740055825E+03  0.00000000000E+00 0.  1.
         25    1    1    2    0    0  0.00000000000E+00  0.00000000000E+00 -0.23161138612E+03  0.26318973039E+03  0.12500000000E+03 0.  0.
<mgrwt>
<rscale>  2 0.12500000E+03</rscale>
<asrwt>0</asrwt>
<pdfrwt beam="1">  1       21 0.24291032E-02 0.12500000E+03</pdfrwt>
<pdfrwt beam="2">  1       21 0.38061628E-01 0.12500000E+03</pdfrwt>
<totfact> 0.58658141E+06</totfact>
</mgrwt>
</event>
<event>
 3    0  0.1639462E+001  0.1250000E+03  0.7546771E-02  0.1235069E+00
         21   -1    0    0  502  501  0.00000000000E+00  0.00000000000E+00  0.16384424750E+02  0.16384424750E+02  0.00000000000E+00 0.  1.
         21   -1    0    0  501  502 -0.00000000000E+00 -0.00000000000E+00 -0.23841239834E+03  0.23841239834E+03  0.00000000000E+00 0.  1.
         25    1    1    2    0    0  0.00000000000E+00  0.00000000000E+00 -0.22202797359E+03  0.25479682309E+03  0.12500000000E+03 0.  0.
<mgrwt>
<rscale>  2 0.12500000E+03</rscale>
<asrwt>0</asrwt>
<pdfrwt beam="1">  1       21 0.25206809E-02 0.12500000E+03</pdfrwt>
<pdfrwt beam="2">  1       21 0.36678828E-01 0.12500000E+03</pdfrwt>
<totfact> 0.59429493E+06</totfact>
</mgrwt>
</event>
<event>
 3    0  0.1714255E+001  0.1250000E+03  0.7546771E-02  0.1235069E+00
         21   -1    0    0  502  501  0.00000000000E+00  0.00000000000E+00  0.10277585269E+03  0.10277585269E+03  0.00000000000E+00 0.  1.
         21   -1    0    0  501  502 -0.00000000000E+00 -0.00000000000E+00 -0.38007468657E+02  0.38007468657E+02  0.00000000000E+00 0.  1.
         25    1    1    2    0    0  0.00000000000E+00  0.00000000000E+00  0.64768384036E+02  0.14078332135E+03  0.12500000000E+03 0.  0.
<mgrwt>
<rscale>  2 0.12500000E+03</rscale>
<asrwt>0</asrwt>
<pdfrwt beam="1">  1       21 0.15811670E-01 0.12500000E+03</pdfrwt>
<pdfrwt beam="2">  1       21 0.58473029E-02 0.12500000E+03</pdfrwt>
<totfact> 0.71937212E+06</totfact>
</mgrwt>
</event>
<event>
 3    0  0.1697714E+001  0.1250000E+03  0.7546771E-02  0.1235069E+00
         21   -1    0    0  502  501  0.00000000000E+00  0.00000000000E+00  0.91020275263E+02  0.91020275263E+02  0.00000000000E+00 0. -1.
         21   -1    0    0  501  502 -0.00000000000E+00 -0.00000000000E+00 -0.42916262214E+02  0.42916262214E+02  0.00000000000E+00 0. -1.
         25    1    1    2    0    0  0.00000000000E+00  0.00000000000E+00  0.48104013049E+02  0.13393653748E+03  0.12500000000E+03 0.  0.
<mgrwt>
<rscale>  2 0.12500000E+03</rscale>
<asrwt>0</asrwt>
<pdfrwt beam="1">  1       21 0.14003119E-01 0.12500000E+03</pdfrwt>
<pdfrwt beam="2">  1       21 0.66025019E-02 0.12500000E+03</pdfrwt>
<totfact> 0.72837592E+06</totfact>
</mgrwt>
</event>
<event>
 3    0  0.1404355E+001  0.1250000E+03  0.7546771E-02  0.1235069E+00
         21   -1    0    0  502  501  0.00000000000E+00  0.00000000000E+00  0.63685245444E+03  0.63685245444E+03  0.00000000000E+00 0.  1.
         21   -1    0    0  501  502 -0.00000000000E+00 -0.00000000000E+00 -0.61336813147E+01  0.61336813147E+01  0.00000000000E+00 0.  1.
         25    1    1    2    0    0  0.00000000000E+00  0.00000000000E+00  0.63071877312E+03  0.64298613575E+03  0.12500000000E+03 0.  0.
<mgrwt>
<rscale>  2 0.12500000E+03</rscale>
<asrwt>0</asrwt>
<pdfrwt beam="1">  1       21 0.97977248E-01 0.12500000E+03</pdfrwt>
<pdfrwt beam="2">  1       21 0.94364378E-03 0.12500000E+03</pdfrwt>
<totfact> 0.35217941E+06</totfact>
</mgrwt>
</event>
<event>
 3    0  0.1368989E+001  0.1250000E+03  0.7546771E-02  0.1235069E+00
         21   -1    0    0  502  501  0.00000000000E+00  0.00000000000E+00  0.22350894321E+01  0.22350894321E+01  0.00000000000E+00 0.  1.
         21   -1    0    0  501  502 -0.00000000000E+00 -0.00000000000E+00 -0.17476929307E+04  0.17476929307E+04  0.00000000000E+00 0.  1.
         25    1    1    2    0    0  0.00000000000E+00  0.00000000000E+00 -0.17454578413E+04  0.17499280201E+04  0.12500000000E+03 0.  0.
<mgrwt>
<rscale>  2 0.12500000E+03</rscale>
<asrwt>0</asrwt>
<pdfrwt beam="1">  1       21 0.34385887E-03 0.12500000E+03</pdfrwt>
<pdfrwt beam="2">  1       21 0.26887665E+00 0.12500000E+03</pdfrwt>
<totfact> 0.10658340E+06</totfact>
</mgrwt>
</event>
<event>
 3    0  0.1635794E+001  0.1250000E+03  0.7546771E-02  0.1235069E+00
         21   -1    0    0  502  501  0.00000000000E+00  0.00000000000E+00  0.20076262933E+03  0.20076262933E+03  0.00000000000E+00 0. -1.
         21   -1    0    0  501  502 -0.00000000000E+00 -0.00000000000E+00 -0.19457057386E+02  0.19457057386E+02  0.00000000000E+00 0. -1.
         25    1    1    2    0    0  0.00000000000E+00  0.00000000000E+00  0.18130557195E+03  0.22021968672E+03  0.12500000000E+03 0.  0.
<mgrwt>
<rscale>  2 0.12500000E+03</rscale>
<asrwt>0</asrwt>
<pdfrwt beam="1">  1       21 0.30886557E-01 0.12500000E+03</pdfrwt>
<pdfrwt beam="2">  1       21 0.29933936E-02 0.12500000E+03</pdfrwt>
<totfact> 0.62800088E+06</totfact>
</mgrwt>
</event>
<event>
 3    0  0.1368989E+001  0.1250000E+03  0.7546771E-02  0.1235069E+00
         21   -1    0    0  502  501  0.00000000000E+00  0.00000000000E+00  0.56418636304E+01  0.56418636304E+01  0.00000000000E+00 0. -1.
         21   -1    0    0  501  502 -0.00000000000E+00 -0.00000000000E+00 -0.69236873769E+03  0.69236873769E+03  0.00000000000E+00 0. -1.
         25    1    1    2    0    0  0.00000000000E+00  0.00000000000E+00 -0.68672687406E+03  0.69801060132E+03  0.12500000000E+03 0.  0.
<mgrwt>
<rscale>  2 0.12500000E+03</rscale>
<asrwt>0</asrwt>
<pdfrwt beam="1">  1       21 0.86797892E-03 0.12500000E+03</pdfrwt>
<pdfrwt beam="2">  1       21 0.10651828E+00 0.12500000E+03</pdfrwt>
<totfact> 0.32986975E+06</totfact>
</mgrwt>
</event>
<event>
 3    0  0.1620468E+001  0.1250000E+03  0.7546771E-02  0.1235069E+00
         21   -1    0    0  502  501  0.00000000000E+00  0.00000000000E+00  0.16665366323E+02  0.16665366323E+02  0.00000000000E+00 0.  1.
         21   -1    0    0  501  502 -0.00000000000E+00 -0.00000000000E+00 -0.23439328751E+03  0.23439328751E+03  0.00000000000E+00 0.  1.
         25    1    1    2    0    0  0.00000000000E+00  0.00000000000E+00 -0.21772792119E+03  0.25105865383E+03  0.12500000000E+03 0.  0.
<mgrwt>
<rscale>  2 0.12500000E+03</rscale>
<asrwt>0</asrwt>
<pdfrwt beam="1">  1       21 0.25639027E-02 0.12500000E+03</pdfrwt>
<pdfrwt beam="2">  1       21 0.36060503E-01 0.12500000E+03</pdfrwt>
<totfact> 0.59778663E+06</totfact>
</mgrwt>
</event>
<event>
 3    0  0.1564023E+001  0.1250000E+03  0.7546771E-02  0.1235069E+00
         21   -1    0    0  502  501  0.00000000000E+00  0.00000000000E+00  0.29781445555E+03  0.29781445555E+03  0.00000000000E+00 0. -1.
         21   -1    0    0  501  502 -0.00000000000E+00 -0.00000000000E+00 -0.13116388165E+02  0.13116388165E+02  0.00000000000E+00 0. -1.
         25    1    1    2    0    0  0.00000000000E+00  0.00000000000E+00  0.28469806738E+03  0.31093084371E+03  0.12500000000E+03 0.  0.
<mgrwt>
<rscale>  2 0.12500000E+03</rscale>
<asrwt>0</asrwt>
<pdfrwt beam="1">  1       21 0.45817603E-01 0.12500000E+03</pdfrwt>
<pdfrwt beam="2">  1       21 0.20179061E-02 0.12500000E+03</pdfrwt>
<totfact> 0.54559839E+06</totfact>
</mgrwt>
</event>
<event>
 3    0  0.1665562E+001  0.1250000E+03  0.7546771E-02  0.1235069E+00
         21   -1    0    0  502  501  0.00000000000E+00  0.00000000000E+00  0.16522381868E+03  0.16522381868E+03  0.00000000000E+00 0. -1.
         21   -1    0    0  501  502 -0.00000000000E+00 -0.00000000000E+00 -0.23642172365E+02  0.23642172365E+02  0.00000000000E+00 0. -1.
         25    1    1    2    0    0  0.00000000000E+00  0.00000000000E+00  0.14158164631E+03  0.18886599104E+03  0.12500000000E+03 0.  0.
<mgrwt>
<rscale>  2 0.12500000E+03</rscale>
<asrwt>0</asrwt>
<pdfrwt beam="1">  1       21 0.25419048E-01 0.12500000E+03</pdfrwt>
<pdfrwt beam="2">  1       21 0.36372574E-02 0.12500000E+03</pdfrwt>
<totfact> 0.66148721E+06</totfact>
</mgrwt>
</event>
<event>
 3    0  0.1728799E+001  0.1250000E+03  0.7546771E-02  0.1235069E+00
         21   -1    0    0  502  501  0.00000000000E+00  0.00000000000E+00  0.68842527050E+02  0.68842527050E+02  0.00000000000E+00 0.  1.
         21   -1    0    0  501  502 -0.00000000000E+00 -0.00000000000E+00 -0.56741815959E+02  0.56741815959E+02  0.00000000000E+00 0.  1.
         25    1    1    2    0    0  0.00000000000E+00  0.00000000000E+00  0.12100711091E+02  0.12558434301E+03  0.12500000000E+03 0.  0.
<mgrwt>
<rscale>  2 0.12500000E+03</rscale>
<asrwt>0</asrwt>
<pdfrwt beam="1">  1       21 0.10591158E-01 0.12500000E+03</pdfrwt>
<pdfrwt beam="2">  1       21 0.87295102E-02 0.12500000E+03</pdfrwt>
<totfact> 0.73963624E+06</totfact>
</mgrwt>
</event>
<event>
 3    0  0.1699159E+001  0.1250000E+03  0.7546771E-02  0.1235069E+00
         21   -1    0    0  502  501  0.00000000000E+00  0.00000000000E+00  0.12726718712E+03  0.12726718712E+03  0.00000000000E+00 0.  1.
         21   -1    0    0  501  502 -0.00000000000E+00 -0.00000000000E+00 -0.30693300357E+02  0.30693300357E+02  0.00000000000E+00 0.  1.
         25    1    1    2    0    0  0.00000000000E+00  0.00000000000E+00  0.96573886766E+02  0.15796048748E+03  0.12500000000E+03 0.  0.
<mgrwt>
<rscale>  2 0.12500000E+03</rscale>
<asrwt>0</asrwt>
<pdfrwt beam="1">  1       21 0.19579567E-01 0.12500000E+03</pdfrwt>
<pdfrwt beam="2">  1       21 0.47220463E-02 0.12500000E+03</pdfrwt>
<totfact> 0.69769565E+06</totfact>
</mgrwt>
</event>
<event>
 3    0  0.1727523E+001  0.1250000E+03  0.7546771E-02  0.1235069E+00
         21   -1    0    0  502  501  0.00000000000E+00  0.00000000000E+00  0.52625502655E+02  0.52625502655E+02  0.00000000000E+00 0.  1.
         21   -1    0    0  501  502 -0.00000000000E+00 -0.00000000000E+00 -0.74227319512E+02  0.74227319512E+02  0.00000000000E+00 0.  1.
         25    1    1    2    0    0  0.00000000000E+00  0.00000000000E+00 -0.21601816857E+02  0.12685282217E+03  0.12500000000E+03 0.  0.
<mgrwt>
<rscale>  2 0.12500000E+03</rscale>
<asrwt>0</asrwt>
<pdfrwt beam="1">  1       21 0.80962312E-02 0.12500000E+03</pdfrwt>
<pdfrwt beam="2">  1       21 0.11419588E-01 0.12500000E+03</pdfrwt>
<totfact> 0.73789185E+06</totfact>
</mgrwt>
</event>
<event>
 3    0  0.1700282E+001  0.1250000E+03  0.7546771E-02  0.1235069E+00
         21   -1    0    0  502  501  0.00000000000E+00  0.00000000000E+00  0.30857731054E+02  0.30857731054E+02  0.00000000000E+00 0.  1.
         21   -1    0    0  501  502 -0.00000000000E+00 -0.00000000000E+00 -0.12658902215E+03  0.12658902215E+03  0.00000000000E+00 0.  1.
         25    1    1    2    0    0  0.00000000000E+00  0.00000000000E+00 -0.95731291101E+02  0.15744675321E+03  0.12500000000E+03 0.  0.
<mgrwt>
<rscale>  2 0.12500000E+03</rscale>
<asrwt>0</asrwt>
<pdfrwt beam="1">  1       21 0.47473433E-02 0.12500000E+03</pdfrwt>
<pdfrwt beam="2">  1       21 0.19475234E-01 0.12500000E+03</pdfrwt>
<totfact> 0.69832829E+06</totfact>
</mgrwt>
</event>
<event>
 3    0  0.1724997E+001  0.1250000E+03  0.7546771E-02  0.1235069E+00
         21   -1    0    0  502  501  0.00000000000E+00  0.00000000000E+00  0.84989755122E+02  0.84989755122E+02  0.00000000000E+00 0.  1.
         21   -1    0    0  501  502 -0.00000000000E+00 -0.00000000000E+00 -0.45961421990E+02  0.45961421990E+02  0.00000000000E+00 0.  1.
         25    1    1    2    0    0  0.00000000000E+00  0.00000000000E+00  0.39028333132E+02  0.13095117711E+03  0.12500000000E+03 0.  0.
<mgrwt>
<rscale>  2 0.12500000E+03</rscale>
<asrwt>0</asrwt>
<pdfrwt beam="1">  1       21 0.13075347E-01 0.12500000E+03</pdfrwt>
<pdfrwt beam="2">  1       21 0.70709880E-02 0.12500000E+03</pdfrwt>
<totfact> 0.73237251E+06</totfact>
</mgrwt>
</event>
<event>
 3    0  0.1675001E+001  0.1250000E+03  0.7546771E-02  0.1235069E+00
         21   -1    0    0  502  501  0.00000000000E+00  0.00000000000E+00  0.29394578748E+02  0.29394578748E+02  0.00000000000E+00 0. -1.
         21   -1    0    0  501  502 -0.00000000000E+00 -0.00000000000E+00 -0.13289015071E+03  0.13289015071E+03  0.00000000000E+00 0. -1.
         25    1    1    2    0    0  0.00000000000E+00  0.00000000000E+00 -0.10349557197E+03  0.16228472946E+03  0.12500000000E+03 0.  0.
<mgrwt>
<rscale>  2 0.12500000E+03</rscale>
<asrwt>0</asrwt>
<pdfrwt beam="1">  1       21 0.45222428E-02 0.12500000E+03</pdfrwt>
<pdfrwt beam="2">  1       21 0.20444639E-01 0.12500000E+03</pdfrwt>
<totfact> 0.69241398E+06</totfact>
</mgrwt>
</event>
<event>
 3    0  0.1703855E+001  0.1250000E+03  0.7546771E-02  0.1235069E+00
         21   -1    0    0  502  501  0.00000000000E+00  0.00000000000E+00  0.79722749605E+02  0.79722749605E+02  0.00000000000E+00 0. -1.
         21   -1    0    0  501  502 -0.00000000000E+00 -0.00000000000E+00 -0.48997933706E+02  0.48997933706E+02  0.00000000000E+00 0. -1.
         25    1    1    2    0    0  0.00000000000E+00  0.00000000000E+00  0.30724815900E+02  0.12872068331E+03  0.12500000000E+03 0.  0.
<mgrwt>
<rscale>  2 0.12500000E+03</rscale>
<asrwt>0</asrwt>
<pdfrwt beam="1">  1       21 0.12265038E-01 0.12500000E+03</pdfrwt>
<pdfrwt beam="2">  1       21 0.75381436E-02 0.12500000E+03</pdfrwt>
<totfact> 0.73536421E+06</totfact>
</mgrwt>
</event>
<event>
 3    0  0.1681746E+001  0.1250000E+03  0.7546771E-02  0.1235069E+00
         21   -1    0    0  502  501  0.00000000000E+00  0.00000000000E+00  0.27969790313E+02  0.27969790313E+02  0.00000000000E+00 0. -1.
         21   -1    0    0  501  502 -0.00000000000E+00 -0.00000000000E+00 -0.13965960975E+03  0.13965960975E+03  0.00000000000E+00 0. -1.
         25    1    1    2    0    0  0.00000000000E+00  0.00000000000E+00 -0.11168981944E+03  0.16762940006E+03  0.12500000000E+03 0.  0.
<mgrwt>
<rscale>  2 0.12500000E+03</rscale>
<asrwt>0</asrwt>
<pdfrwt beam="1">  1       21 0.43030448E-02 0.12500000E+03</pdfrwt>
<pdfrwt beam="2">  1       21 0.21486093E-01 0.12500000E+03</pdfrwt>
<totfact> 0.68599074E+06</totfact>
</mgrwt>
</event>
<event>
 3    0  0.1685436E+001  0.1250000E+03  0.7546771E-02  0.1235069E+00
         21   -1    0    0  502  501  0.00000000000E+00  0.00000000000E+00  0.25842455612E+02  0.25842455612E+02  0.00000000000E+00 0.  1.
         21   -1    0    0  501  502 -0.00000000000E+00 -0.00000000000E+00 -0.15115630103E+03  0.15115630103E+03  0.00000000000E+00 0.  1.
         25    1    1    2    0    0  0.00000000000E+00  0.00000000000E+00 -0.12531384542E+03  0.17699875665E+03  0.12500000000E+03 0.  0.
<mgrwt>
<rscale>  2 0.12500000E+03</rscale>
<asrwt>0</asrwt>
<pdfrwt beam="1">  1       21 0.39757624E-02 0.12500000E+03</pdfrwt>
<pdfrwt beam="2">  1       21 0.23254816E-01 0.12500000E+03</pdfrwt>
<totfact> 0.67497508E+06</totfact>
</mgrwt>
</event>
<event>
 3    0  0.1690583E+001  0.1250000E+03  0.7546771E-02  0.1235069E+00
         21   -1    0    0  502  501  0.00000000000E+00  0.00000000000E+00  0.38211220019E+02  0.38211220019E+02  0.00000000000E+00 0. -1.
         21   -1    0    0  501  502 -0.00000000000E+00 -0.00000000000E+00 -0.10222782727E+03  0.10222782727E+03  0.00000000000E+00 0. -1.
         25    1    1    2    0    0  0.00000000000E+00  0.00000000000E+00 -0.64016607256E+02  0.14043904729E+03  0.12500000000E+03 0.  0.
<mgrwt>
<rscale>  2 0.12500000E+03</rscale>
<asrwt>0</asrwt>
<pdfrwt beam="1">  1       21 0.58786494E-02 0.12500000E+03</pdfrwt>
<pdfrwt beam="2">  1       21 0.15727358E-01 0.12500000E+03</pdfrwt>
<totfact> 0.71982044E+06</totfact>
</mgrwt>
</event>
<event>
 3    0  0.1368989E+001  0.1250000E+03  0.7546771E-02  0.1235069E+00
         21   -1    0    0  502  501  0.00000000000E+00  0.00000000000E+00  0.12012096550E+04  0.12012096550E+04  0.00000000000E+00 0.  1.
         21   -1    0    0  501  502 -0.00000000000E+00 -0.00000000000E+00 -0.32519302386E+01  0.32519302386E+01  0.00000000000E+00 0.  1.
         25    1    1    2    0    0  0.00000000000E+00  0.00000000000E+00  0.11979577248E+04  0.12044615853E+04  0.12500000000E+03 0.  0.
<mgrwt>
<rscale>  2 0.12500000E+03</rscale>
<asrwt>0</asrwt>
<pdfrwt beam="1">  1       21 0.18480113E+00 0.12500000E+03</pdfrwt>
<pdfrwt beam="2">  1       21 0.50029792E-03 0.12500000E+03</pdfrwt>
<totfact> 0.19054725E+06</totfact>
</mgrwt>
</event>
<event>
 3    0  0.1691836E+001  0.1250000E+03  0.7546771E-02  0.1235069E+00
         21   -1    0    0  502  501  0.00000000000E+00  0.00000000000E+00  0.26306954746E+02  0.26306954746E+02  0.00000000000E+00 0.  1.
         21   -1    0    0  501  502 -0.00000000000E+00 -0.00000000000E+00 -0.14848735012E+03  0.14848735012E+03  0.00000000000E+00 0.  1.
         25    1    1    2    0    0  0.00000000000E+00  0.00000000000E+00 -0.12218039537E+03  0.17479430487E+03  0.12500000000E+03 0.  0.
<mgrwt>
<rscale>  2 0.12500000E+03</rscale>
<asrwt>0</asrwt>
<pdfrwt beam="1">  1       21 0.40472238E-02 0.12500000E+03</pdfrwt>
<pdfrwt beam="2">  1       21 0.22844208E-01 0.12500000E+03</pdfrwt>
<totfact> 0.67753793E+06</totfact>
</mgrwt>
</event>
<event>
 3    0  0.1541613E+001  0.1250000E+03  0.7546771E-02  0.1235069E+00
         21   -1    0    0  502  501  0.00000000000E+00  0.00000000000E+00  0.37123554764E+03  0.37123554764E+03  0.00000000000E+00 0.  1.
         21   -1    0    0  501  502 -0.00000000000E+00 -0.00000000000E+00 -0.10522295143E+02  0.10522295143E+02  0.00000000000E+00 0.  1.
         25    1    1    2    0    0  0.00000000000E+00  0.00000000000E+00  0.36071325250E+03  0.38175784279E+03  0.12500000000E+03 0.  0.
<mgrwt>
<rscale>  2 0.12500000E+03</rscale>
<asrwt>0</asrwt>
<pdfrwt beam="1">  1       21 0.57113151E-01 0.12500000E+03</pdfrwt>
<pdfrwt beam="2">  1       21 0.16188149E-02 0.12500000E+03</pdfrwt>
<totfact> 0.49275204E+06</totfact>
</mgrwt>
</event>
<event>
 3    0  0.1628370E+001  0.1250000E+03  0.7546771E-02  0.1235069E+00
         21   -1    0    0  502  501  0.00000000000E+00  0.00000000000E+00  0.16905694359E+02  0.16905694359E+02  0.00000000000E+00 0.  1.
         21   -1    0    0  501  502 -0.00000000000E+00 -0.00000000000E+00 -0.23106119849E+03  0.23106119849E+03  0.00000000000E+00 0.  1.
         25    1    1    2    0    0  0.00000000000E+00  0.00000000000E+00 -0.21415550413E+03  0.24796689285E+03  0.12500000000E+03 0.  0.
<mgrwt>
<rscale>  2 0.12500000E+03</rscale>
<asrwt>0</asrwt>
<pdfrwt beam="1">  1       21 0.26008763E-02 0.12500000E+03</pdfrwt>
<pdfrwt beam="2">  1       21 0.35547874E-01 0.12500000E+03</pdfrwt>
<totfact> 0.60070134E+06</totfact>
</mgrwt>
</event>
<event>
 3    0  0.1674624E+001  0.1250000E+03  0.7546771E-02  0.1235069E+00
         21   -1    0    0  502  501  0.00000000000E+00  0.00000000000E+00  0.22775227070E+02  0.22775227070E+02  0.00000000000E+00 0.  1.
         21   -1    0    0  501  502 -0.00000000000E+00 -0.00000000000E+00 -0.17151310887E+03  0.17151310887E+03  0.00000000000E+00 0.  1.
         25    1    1    2    0    0  0.00000000000E+00  0.00000000000E+00 -0.14873788180E+03  0.19428833594E+03  0.12500000000E+03 0.  0.
<mgrwt>
<rscale>  2 0.12500000E+03</rscale>
<asrwt>0</asrwt>
<pdfrwt beam="1">  1       21 0.35038813E-02 0.12500000E+03</pdfrwt>
<pdfrwt beam="2">  1       21 0.26386630E-01 0.12500000E+03</pdfrwt>
<totfact> 0.65548997E+06</totfact>
</mgrwt>
</event>
<event>
 3    0  0.1368989E+001  0.1250000E+03  0.7546771E-02  0.1235069E+00
         21   -1    0    0  502  501  0.00000000000E+00  0.00000000000E+00  0.32125380533E+01  0.32125380533E+01  0.00000000000E+00 0. -1.
         21   -1    0    0  501  502 -0.00000000000E+00 -0.00000000000E+00 -0.12159389041E+04  0.12159389041E+04  0.00000000000E+00 0. -1.
         25    1    1    2    0    0  0.00000000000E+00  0.00000000000E+00 -0.12127263661E+04  0.12191514422E+04  0.12500000000E+03 0.  0.
<mgrwt>
<rscale>  2 0.12500000E+03</rscale>
<asrwt>0</asrwt>
<pdfrwt beam="1">  1       21 0.49423760E-03 0.12500000E+03</pdfrwt>
<pdfrwt beam="2">  1       21 0.18706715E+00 0.12500000E+03</pdfrwt>
<totfact> 0.18765901E+06</totfact>
</mgrwt>
</event>
<event>
 3    0  0.1520160E+001  0.1250000E+03  0.7546771E-02  0.1235069E+00
         21   -1    0    0  502  501  0.00000000000E+00  0.00000000000E+00  0.37099284890E+03  0.37099284890E+03  0.00000000000E+00 0. -1.
         21   -1    0    0  501  502 -0.00000000000E+00 -0.00000000000E+00 -0.10529178693E+02  0.10529178693E+02  0.00000000000E+00 0. -1.
         25    1    1    2    0    0  0.00000000000E+00  0.00000000000E+00  0.36046367021E+03  0.38152202759E+03  0.12500000000E+03 0.  0.
<mgrwt>
<rscale>  2 0.12500000E+03</rscale>
<asrwt>0</asrwt>
<pdfrwt beam="1">  1       21 0.57075813E-01 0.12500000E+03</pdfrwt>
<pdfrwt beam="2">  1       21 0.16198739E-02 0.12500000E+03</pdfrwt>
<totfact> 0.49291427E+06</totfact>
</mgrwt>
</event>
<event>
 3    0  0.1578298E+001  0.1250000E+03  0.7546771E-02  0.1235069E+00
         21   -1    0    0  502  501  0.00000000000E+00  0.00000000000E+00  0.30152424240E+03  0.30152424240E+03  0.00000000000E+00 0.  1.
         21   -1    0    0  501  502 -0.00000000000E+00 -0.00000000000E+00 -0.12955011408E+02  0.12955011408E+02  0.00000000000E+00 0.  1.
         25    1    1    2    0    0  0.00000000000E+00  0.00000000000E+00  0.28856923100E+03  0.31447925381E+03  0.12500000000E+03 0.  0.
<mgrwt>
<rscale>  2 0.12500000E+03</rscale>
<asrwt>0</asrwt>
<pdfrwt beam="1">  1       21 0.46388340E-01 0.12500000E+03</pdfrwt>
<pdfrwt beam="2">  1       21 0.19930789E-02 0.12500000E+03</pdfrwt>
<totfact> 0.54273756E+06</totfact>
</mgrwt>
</event>
<event>
 3    0  0.1726874E+001  0.1250000E+03  0.7546771E-02  0.1235069E+00
         21   -1    0    0  502  501  0.00000000000E+00  0.00000000000E+00  0.52145301229E+02  0.52145301229E+02  0.00000000000E+00 0.  1.
         21   -1    0    0  501  502 -0.00000000000E+00 -0.00000000000E+00 -0.74910872272E+02  0.74910872272E+02  0.00000000000E+00 0.  1.
         25    1    1    2    0    0  0.00000000000E+00  0.00000000000E+00 -0.22765571043E+02  0.12705617350E+03  0.12500000000E+03 0.  0.
<mgrwt>
<rscale>  2 0.12500000E+03</rscale>
<asrwt>0</asrwt>
<pdfrwt beam="1">  1       21 0.80223541E-02 0.12500000E+03</pdfrwt>
<pdfrwt beam="2">  1       21 0.11524749E-01 0.12500000E+03</pdfrwt>
<totfact> 0.73761491E+06</totfact>
</mgrwt>
</event>
<event>
 3    0  0.1716895E+001  0.1250000E+03  0.7546771E-02  0.1235069E+00
         21   -1    0    0  502  501  0.00000000000E+00  0.00000000000E+00  0.39720043529E+02  0.39720043529E+02  0.00000000000E+00 0.  1.
         21   -1    0    0  501  502 -0.00000000000E+00 -0.00000000000E+00 -0.98344554863E+02  0.98344554863E+02  0.00000000000E+00 0.  1.
         25    1    1    2    0    0  0.00000000000E+00  0.00000000000E+00 -0.58624511334E+02  0.13806459839E+03  0.12500000000E+03 0.  0.
<mgrwt>
<rscale>  2 0.12500000E+03</rscale>
<asrwt>0</asrwt>
<pdfrwt beam="1">  1       21 0.61107760E-02 0.12500000E+03</pdfrwt>
<pdfrwt beam="2">  1       21 0.15129931E-01 0.12500000E+03</pdfrwt>
<totfact> 0.72292989E+06</totfact>
</mgrwt>
</event>
<event>
 3    0  0.1368989E+001  0.1250000E+03  0.7546771E-02  0.1235069E+00
         21   -1    0    0  502  501  0.00000000000E+00  0.00000000000E+00  0.11624291576E+01  0.11624291576E+01  0.00000000000E+00 0.  1.
         21   -1    0    0  501  502 -0.00000000000E+00 -0.00000000000E+00 -0.33604198367E+04  0.33604198367E+04  0.00000000000E+00 0.  1.
         25    1    1    2    0    0  0.00000000000E+00  0.00000000000E+00 -0.33592574075E+04  0.33615822659E+04  0.12500000000E+03 0.  0.
<mgrwt>
<rscale>  2 0.12500000E+03</rscale>
<asrwt>0</asrwt>
<pdfrwt beam="1">  1       21 0.17883529E-03 0.12500000E+03</pdfrwt>
<pdfrwt beam="2">  1       21 0.51698755E+00 0.12500000E+03</pdfrwt>
<totfact> 0.85251021E+04</totfact>
</mgrwt>
</event>
<event>
 3    0  0.1662051E+001  0.1250000E+03  0.7546771E-02  0.1235069E+00
         21   -1    0    0  502  501  0.00000000000E+00  0.00000000000E+00  0.24964725602E+02  0.24964725602E+02  0.00000000000E+00 0. -1.
         21   -1    0    0  501  502 -0.00000000000E+00 -0.00000000000E+00 -0.15647077650E+03  0.15647077650E+03  0.00000000000E+00 0. -1.
         25    1    1    2    0    0  0.00000000000E+00  0.00000000000E+00 -0.13150605090E+03  0.18143550210E+03  0.12500000000E+03 0.  0.
<mgrwt>
<rscale>  2 0.12500000E+03</rscale>
<asrwt>0</asrwt>
<pdfrwt beam="1">  1       21 0.38407271E-02 0.12500000E+03</pdfrwt>
<pdfrwt beam="2">  1       21 0.24072427E-01 0.12500000E+03</pdfrwt>
<totfact> 0.66987241E+06</totfact>
</mgrwt>
</event>
<event>
 3    0  0.1368989E+001  0.1250000E+03  0.7546771E-02  0.1235069E+00
         21   -1    0    0  502  501  0.00000000000E+00  0.00000000000E+00  0.78413990759E+03  0.78413990759E+03  0.00000000000E+00 0.  1.
         21   -1    0    0  501  502 -0.00000000000E+00 -0.00000000000E+00 -0.49815727553E+01  0.49815727553E+01  0.00000000000E+00 0.  1.
         25    1    1    2    0    0  0.00000000000E+00  0.00000000000E+00  0.77915833483E+03  0.78912148034E+03  0.12500000000E+03 0.  0.
<mgrwt>
<rscale>  2 0.12500000E+03</rscale>
<asrwt>0</asrwt>
<pdfrwt beam="1">  1       21 0.12063681E+00 0.12500000E+03</pdfrwt>
<pdfrwt beam="2">  1       21 0.76639643E-03 0.12500000E+03</pdfrwt>
<totfact> 0.29726455E+06</totfact>
</mgrwt>
</event>
<event>
 3    0  0.1368989E+001  0.1250000E+03  0.7546771E-02  0.1235069E+00
         21   -1    0    0  502  501  0.00000000000E+00  0.00000000000E+00  0.11962016192E+04  0.11962016192E+04  0.00000000000E+00 0.  1.
         21   -1    0    0  501  502 -0.00000000000E+00 -0.00000000000E+00 -0.32655448189E+01  0.32655448189E+01  0.00000000000E+00 0.  1.
         25    1    1    2    0    0  0.00000000000E+00  0.00000000000E+00  0.11929360744E+04  0.11994671641E+04  0.12500000000E+03 0.  0.
<mgrwt>
<rscale>  2 0.12500000E+03</rscale>
<asrwt>0</asrwt>
<pdfrwt beam="1">  1       21 0.18403067E+00 0.12500000E+03</pdfrwt>
<pdfrwt beam="2">  1       21 0.50239247E-03 0.12500000E+03</pdfrwt>
<totfact> 0.19154030E+06</totfact>
</mgrwt>
</event>
<event>
 3    0  0.1404527E+001  0.1250000E+03  0.7546771E-02  0.1235069E+00
         21   -1    0    0  502  501  0.00000000000E+00  0.00000000000E+00  0.57564271786E+01  0.57564271786E+01  0.00000000000E+00 0.  1.
         21   -1    0    0  501  502 -0.00000000000E+00 -0.00000000000E+00 -0.67858931917E+03  0.67858931917E+03  0.00000000000E+00 0.  1.
         25    1    1    2    0    0  0.00000000000E+00  0.00000000000E+00 -0.67283289199E+03  0.68434574635E+03  0.12500000000E+03 0.  0.
<mgrwt>
<rscale>  2 0.12500000E+03</rscale>
<asrwt>0</asrwt>
<pdfrwt beam="1">  1       21 0.88560458E-03 0.12500000E+03</pdfrwt>
<pdfrwt beam="2">  1       21 0.10439831E+00 0.12500000E+03</pdfrwt>
<totfact> 0.33522463E+06</totfact>
</mgrwt>
</event>
<event>
 3    0  0.1558081E+001  0.1250000E+03  0.7546771E-02  0.1235069E+00
         21   -1    0    0  502  501  0.00000000000E+00  0.00000000000E+00  0.36341984895E+03  0.36341984895E+03  0.00000000000E+00 0.  1.
         21   -1    0    0  501  502 -0.00000000000E+00 -0.00000000000E+00 -0.10748587374E+02  0.10748587374E+02  0.00000000000E+00 0.  1.
         25    1    1    2    0    0  0.00000000000E+00  0.00000000000E+00  0.35267126157E+03  0.37416843632E+03  0.12500000000E+03 0.  0.
<mgrwt>
<rscale>  2 0.12500000E+03</rscale>
<asrwt>0</asrwt>
<pdfrwt beam="1">  1       21 0.55910737E-01 0.12500000E+03</pdfrwt>
<pdfrwt beam="2">  1       21 0.16536291E-02 0.12500000E+03</pdfrwt>
<totfact> 0.49801573E+06</totfact>
</mgrwt>
</event>
<event>
 3    0  0.1655476E+001  0.1250000E+03  0.7546771E-02  0.1235069E+00
         21   -1    0    0  502  501  0.00000000000E+00  0.00000000000E+00  0.19283683965E+02  0.19283683965E+02  0.00000000000E+00 0.  1.
         21   -1    0    0  501  502 -0.00000000000E+00 -0.00000000000E+00 -0.20256762178E+03  0.20256762178E+03  0.00000000000E+00 0.  1.
         25    1    1    2    0    0  0.00000000000E+00  0.00000000000E+00 -0.18328393781E+03  0.22185130574E+03  0.12500000000E+03 0.  0.
<mgrwt>
<rscale>  2 0.12500000E+03</rscale>
<asrwt>0</asrwt>
<pdfrwt beam="1">  1       21 0.29667207E-02 0.12500000E+03</pdfrwt>
<pdfrwt beam="2">  1       21 0.31164249E-01 0.12500000E+03</pdfrwt>
<totfact> 0.62633807E+06</totfact>
</mgrwt>
</event>
<event>
 3    0  0.1608563E+001  0.1250000E+03  0.7546771E-02  0.1235069E+00
         21   -1    0    0  502  501  0.00000000000E+00  0.00000000000E+00  0.13561186394E+02  0.13561186394E+02  0.00000000000E+00 0.  1.
         21   -1    0    0  501  502 -0.00000000000E+00 -0.00000000000E+00 -0.28804633213E+03  0.28804633213E+03  0.00000000000E+00 0.  1.
         25    1    1    2    0    0  0.00000000000E+00  0.00000000000E+00 -0.27448514574E+03  0.30160751852E+03  0.12500000000E+03 0.  0.
<mgrwt>
<rscale>  2 0.12500000E+03</rscale>
<asrwt>0</asrwt>
<pdfrwt beam="1">  1       21 0.20863364E-02 0.12500000E+03</pdfrwt>
<pdfrwt beam="2">  1       21 0.44314820E-01 0.12500000E+03</pdfrwt>
<totfact> 0.55322846E+06</totfact>
</mgrwt>
</event>
<event>
 3    0  0.1702629E+001  0.1250000E+03  0.7546771E-02  0.1235069E+00
         21   -1    0    0  502  501  0.00000000000E+00  0.00000000000E+00  0.71232849723E+02  0.71232849723E+02  0.00000000000E+00 0. -1.
         21   -1    0    0  501  502 -0.00000000000E+00 -0.00000000000E+00 -0.54837761162E+02  0.54837761162E+02  0.00000000000E+00 0. -1.
         25    1    1    2    0    0  0.00000000000E+00  0.00000000000E+00  0.16395088561E+02  0.12607061089E+03  0.12500000000E+03 0.  0.
<mgrwt>
<rscale>  2 0.12500000E+03</rscale>
<asrwt>0</asrwt>
<pdfrwt beam="1">  1       21 0.10958900E-01 0.12500000E+03</pdfrwt>
<pdfrwt beam="2">  1       21 0.84365786E-02 0.12500000E+03</pdfrwt>
<totfact> 0.73896309E+06</totfact>
</mgrwt>
</event>
<event>
 3    0  0.1368989E+001  0.1250000E+03  0.7546771E-02  0.1235069E+00
         21   -1    0    0  502  501  0.00000000000E+00  0.00000000000E+00  0.25390823386E+01  0.25390823386E+01  0.00000000000E+00 0. -1.
         21   -1    0    0  501  502 -0.00000000000E+00 -0.00000000000E+00 -0.15384495180E+04  0.15384495180E+04  0.00000000000E+00 0. -1.
         25    1    1    2    0    0  0.00000000000E+00  0.00000000000E+00 -0.15359104357E+04  0.15409886003E+04  0.12500000000E+03 0.  0.
<mgrwt>
<rscale>  2 0.12500000E+03</rscale>
<asrwt>0</asrwt>
<pdfrwt beam="1">  1       21 0.39062795E-03 0.12500000E+03</pdfrwt>
<pdfrwt beam="2">  1       21 0.23668461E+00 0.12500000E+03</pdfrwt>
<totfact> 0.13395800E+06</totfact>
</mgrwt>
</event>
<event>
 3    0  0.1483222E+001  0.1250000E+03  0.7546771E-02  0.1235069E+00
         21   -1    0    0  502  501  0.00000000000E+00  0.00000000000E+00  0.89252357187E+01  0.89252357187E+01  0.00000000000E+00 0.  1.
         21   -1    0    0  501  502 -0.00000000000E+00 -0.00000000000E+00 -0.43766351087E+03  0.43766351087E+03  0.00000000000E+00 0.  1.
         25    1    1    2    0    0  0.00000000000E+00  0.00000000000E+00 -0.42873827515E+03  0.44658874659E+03  0.12500000000E+03 0.  0.
<mgrwt>
<rscale>  2 0.12500000E+03</rscale>
<asrwt>0</asrwt>
<pdfrwt beam="1">  1       21 0.13731132E-02 0.12500000E+03</pdfrwt>
<pdfrwt beam="2">  1       21 0.67332847E-01 0.12500000E+03</pdfrwt>
<totfact> 0.45097096E+06</totfact>
</mgrwt>
</event>
<event>
 3    0  0.1620629E+001  0.1250000E+03  0.7546771E-02  0.1235069E+00
         21   -1    0    0  502  501  0.00000000000E+00  0.00000000000E+00  0.18068350658E+02  0.18068350658E+02  0.00000000000E+00 0. -1.
         21   -1    0    0  501  502 -0.00000000000E+00 -0.00000000000E+00 -0.21619294831E+03  0.21619294831E+03  0.00000000000E+00 0. -1.
         25    1    1    2    0    0  0.00000000000E+00  0.00000000000E+00 -0.19812459766E+03  0.23426129897E+03  0.12500000000E+03 0.  0.
<mgrwt>
<rscale>  2 0.12500000E+03</rscale>
<asrwt>0</asrwt>
<pdfrwt beam="1">  1       21 0.27797463E-02 0.12500000E+03</pdfrwt>
<pdfrwt beam="2">  1       21 0.33260453E-01 0.12500000E+03</pdfrwt>
<totfact> 0.61392445E+06</totfact>
</mgrwt>
</event>
<event>
 3    0  0.1691527E+001  0.1250000E+03  0.7546771E-02  0.1235069E+00
         21   -1    0    0  502  501  0.00000000000E+00  0.00000000000E+00  0.38396731632E+02  0.38396731632E+02  0.00000000000E+00 0. -1.
         21   -1    0    0  501  502 -0.00000000000E+00 -0.00000000000E+00 -0.10173391937E+03  0.10173391937E+03  0.00000000000E+00 0. -1.
         25    1    1    2    0    0  0.00000000000E+00  0.00000000000E+00 -0.63337187738E+02  0.14013065100E+03  0.12500000000E+03 0.  0.
<mgrwt>
<rscale>  2 0.12500000E+03</rscale>
<asrwt>0</asrwt>
<pdfrwt beam="1">  1       21 0.59071895E-02 0.12500000E+03</pdfrwt>
<pdfrwt beam="2">  1       21 0.15651372E-01 0.12500000E+03</pdfrwt>
<totfact> 0.72022257E+06</totfact>
</mgrwt>
</event>
<event>
 3    0  0.1368989E+001  0.1250000E+03  0.7546771E-02  0.1235069E+00
         21   -1    0    0  502  501  0.00000000000E+00  0.00000000000E+00  0.11762461861E+04  0.11762461861E+04  0.00000000000E+00 0. -1.
         21   -1    0    0  501  502 -0.00000000000E+00 -0.00000000000E+00 -0.33209459432E+01  0.33209459432E+01  0.00000000000E+00 0. -1.
         25    1    1    2    0    0  0.00000000000E+00  0.00000000000E+00  0.11729252402E+04  0.11795671321E+04  0.12500000000E+03 0.  0.
<mgrwt>
<rscale>  2 0.12500000E+03</rscale>
<asrwt>0</asrwt>
<pdfrwt beam="1">  1       21 0.18096062E+00 0.12500000E+03</pdfrwt>
<pdfrwt beam="2">  1       21 0.51091570E-03 0.12500000E+03</pdfrwt>
<totfact> 0.19555431E+06</totfact>
</mgrwt>
</event>
<event>
 3    0  0.1368989E+001  0.1250000E+03  0.7546771E-02  0.1235069E+00
         21   -1    0    0  502  501  0.00000000000E+00  0.00000000000E+00  0.64940925213E+03  0.64940925213E+03  0.00000000000E+00 0. -1.
         21   -1    0    0  501  502 -0.00000000000E+00 -0.00000000000E+00 -0.60150821492E+01  0.60150821492E+01  0.00000000000E+00 0. -1.
         25    1    1    2    0    0  0.00000000000E+00  0.00000000000E+00  0.64339416998E+03  0.65542433427E+03  0.12500000000E+03 0.  0.
<mgrwt>
<rscale>  2 0.12500000E+03</rscale>
<asrwt>0</asrwt>
<pdfrwt beam="1">  1       21 0.99909060E-01 0.12500000E+03</pdfrwt>
<pdfrwt beam="2">  1       21 0.92539777E-03 0.12500000E+03</pdfrwt>
<totfact> 0.34699956E+06</totfact>
</mgrwt>
</event>
<event>
 3    0  0.1669876E+001  0.1250000E+03  0.7546771E-02  0.1235069E+00
         21   -1    0    0  502  501  0.00000000000E+00  0.00000000000E+00  0.21777966226E+02  0.21777966226E+02  0.00000000000E+00 0.  1.
         21   -1    0    0  501  502 -0.00000000000E+00 -0.00000000000E+00 -0.17936707034E+03  0.17936707034E+03  0.00000000000E+00 0.  1.
         25    1    1    2    0    0  0.00000000000E+00  0.00000000000E+00 -0.15758910411E+03  0.20114503657E+03  0.12500000000E+03 0.  0.
<mgrwt>
<rscale>  2 0.12500000E+03</rscale>
<asrwt>0</asrwt>
<pdfrwt beam="1">  1       21 0.33504563E-02 0.12500000E+03</pdfrwt>
<pdfrwt beam="2">  1       21 0.27594934E-01 0.12500000E+03</pdfrwt>
<totfact> 0.64803391E+06</totfact>
</mgrwt>
</event>
<event>
 3    0  0.1721049E+001  0.1250000E+03  0.7546771E-02  0.1235069E+00
         21   -1    0    0  502  501  0.00000000000E+00  0.00000000000E+00  0.39428487045E+02  0.39428487045E+02  0.00000000000E+00 0.  1.
         21   -1    0    0  501  502 -0.00000000000E+00 -0.00000000000E+00 -0.99071770000E+02  0.99071770000E+02  0.00000000000E+00 0.  1.
         25    1    1    2    0    0  0.00000000000E+00  0.00000000000E+00 -0.59643282954E+02  0.13850025705E+03  0.12500000000E+03 0.  0.
<mgrwt>
<rscale>  2 0.12500000E+03</rscale>
<asrwt>0</asrwt>
<pdfrwt beam="1">  1       21 0.60659212E-02 0.12500000E+03</pdfrwt>
<pdfrwt beam="2">  1       21 0.15241810E-01 0.12500000E+03</pdfrwt>
<totfact> 0.72235706E+06</totfact>
</mgrwt>
</event>
<event>
 3    0  0.1702572E+001  0.1250000E+03  0.7546771E-02  0.1235069E+00
         21   -1    0    0  502  501  0.00000000000E+00  0.00000000000E+00  0.52359302024E+02  0.52359302024E+02  0.00000000000E+00 0. -1.
         21   -1    0    0  501  502 -0.00000000000E+00 -0.00000000000E+00 -0.74604699623E+02  0.74604699623E+02  0.00000000000E+00 0. -1.
         25    1    1    2    0    0  0.00000000000E+00  0.00000000000E+00 -0.22245397599E+02  0.12696400165E+03  0.12500000000E+03 0.  0.
<mgrwt>
<rscale>  2 0.12500000E+03</rscale>
<asrwt>0</asrwt>
<pdfrwt beam="1">  1       21 0.80552773E-02 0.12500000E+03</pdfrwt>
<pdfrwt beam="2">  1       21 0.11477646E-01 0.12500000E+03</pdfrwt>
<totfact> 0.73774037E+06</totfact>
</mgrwt>
</event>
<event>
 3    0  0.1368989E+001  0.1250000E+03  0.7546771E-02  0.1235069E+00
         21   -1    0    0  502  501  0.00000000000E+00  0.00000000000E+00  0.70504660931E+03  0.70504660931E+03  0.00000000000E+00 0.  1.
         21   -1    0    0  501  502 -0.00000000000E+00 -0.00000000000E+00 -0.55404138513E+01  0.55404138513E+01  0.00000000000E+00 0.  1.
         25    1    1    2    0    0  0.00000000000E+00  0.00000000000E+00  0.69950619546E+03  0.71058702316E+03  0.12500000000E+03 0.  0.
<mgrwt>
<rscale>  2 0.12500000E+03</rscale>
<asrwt>0</asrwt>
<pdfrwt beam="1">  1       21 0.10846864E+00 0.12500000E+03</pdfrwt>
<pdfrwt beam="2">  1       21 0.85237192E-03 0.12500000E+03</pdfrwt>
<totfact> 0.32505969E+06</totfact>
</mgrwt>
</event>
<event>
 3    0  0.1629987E+001  0.1250000E+03  0.7546771E-02  0.1235069E+00
         21   -1    0    0  502  501  0.00000000000E+00  0.00000000000E+00  0.21188081056E+03  0.21188081056E+03  0.00000000000E+00 0. -1.
         21   -1    0    0  501  502 -0.00000000000E+00 -0.00000000000E+00 -0.18436072571E+02  0.18436072571E+02  0.00000000000E+00 0. -1.
         25    1    1    2    0    0  0.00000000000E+00  0.00000000000E+00  0.19344473799E+03  0.23031688313E+03  0.12500000000E+03 0.  0.
<mgrwt>
<rscale>  2 0.12500000E+03</rscale>
<asrwt>0</asrwt>
<pdfrwt beam="1">  1       21 0.32597046E-01 0.12500000E+03</pdfrwt>
<pdfrwt beam="2">  1       21 0.28363190E-02 0.12500000E+03</pdfrwt>
<totfact> 0.61782459E+06</totfact>
</mgrwt>
</event>
<event>
 3    0  0.1702927E+001  0.1250000E+03  0.7546771E-02  0.1235069E+00
         21   -1    0    0  502  501  0.00000000000E+00  0.00000000000E+00  0.70817402362E+02  0.70817402362E+02  0.00000000000E+00 0. -1.
         21   -1    0    0  501  502 -0.00000000000E+00 -0.00000000000E+00 -0.55159464619E+02  0.55159464619E+02  0.00000000000E+00 0. -1.
         25    1    1    2    0    0  0.00000000000E+00  0.00000000000E+00  0.15657937743E+02  0.12597686698E+03  0.12500000000E+03 0.  0.
<mgrwt>
<rscale>  2 0.12500000E+03</rscale>
<asrwt>0</asrwt>
<pdfrwt beam="1">  1       21 0.10894985E-01 0.12500000E+03</pdfrwt>
<pdfrwt beam="2">  1       21 0.84860714E-02 0.12500000E+03</pdfrwt>
<totfact> 0.73909229E+06</totfact>
</mgrwt>
</event>
<event>
 3    0  0.1699736E+001  0.1250000E+03  0.7546771E-02  0.1235069E+00
         21   -1    0    0  502  501  0.00000000000E+00  0.00000000000E+00  0.89772018063E+02  0.89772018063E+02  0.00000000000E+00 0. -1.
         21   -1    0    0  501  502 -0.00000000000E+00 -0.00000000000E+00 -0.43513001983E+02  0.43513001983E+02  0.00000000000E+00 0. -1.
         25    1    1    2    0    0  0.00000000000E+00  0.00000000000E+00  0.46259016079E+02  0.13328502005E+03  0.12500000000E+03 0.  0.
<mgrwt>
<rscale>  2 0.12500000E+03</rscale>
<asrwt>0</asrwt>
<pdfrwt beam="1">  1       21 0.13811080E-01 0.12500000E+03</pdfrwt>
<pdfrwt beam="2">  1       21 0.66943080E-02 0.12500000E+03</pdfrwt>
<totfact> 0.72924362E+06</totfact>
</mgrwt>
</event>
<event>
 3    0  0.1677932E+001  0.1250000E+03  0.7546771E-02  0.1235069E+00
         21   -1    0    0  502  501  0.00000000000E+00  0.00000000000E+00  0.13150611663E+03  0.13150611663E+03  0.00000000000E+00 0. -1.
         21   -1    0    0  501  502 -0.00000000000E+00 -0.00000000000E+00 -0.29703941535E+02  0.29703941535E+02  0.00000000000E+00 0. -1.
         25    1    1    2    0    0  0.00000000000E+00  0.00000000000E+00  0.10180217510E+03  0.16121005817E+03  0.12500000000E+03 0.  0.
<mgrwt>
<rscale>  2 0.12500000E+03</rscale>
<asrwt>0</asrwt>
<pdfrwt beam="1">  1       21 0.20231710E-01 0.12500000E+03</pdfrwt>
<pdfrwt beam="2">  1       21 0.45698372E-02 0.12500000E+03</pdfrwt>
<totfact> 0.69371941E+06</totfact>
</mgrwt>
</event>
<event>
 3    0  0.1701280E+001  0.1250000E+03  0.7546771E-02  0.1235069E+00
         21   -1    0    0  502  501  0.00000000000E+00  0.00000000000E+00  0.31762724748E+02  0.31762724748E+02  0.00000000000E+00 0.  1.
         21   -1    0    0  501  502 -0.00000000000E+00 -0.00000000000E+00 -0.12298220732E+03  0.12298220732E+03  0.00000000000E+00 0.  1.
         25    1    1    2    0    0  0.00000000000E+00  0.00000000000E+00 -0.91219482574E+02  0.15474493207E+03  0.12500000000E+03 0.  0.
<mgrwt>
<rscale>  2 0.12500000E+03</rscale>
<asrwt>0</asrwt>
<pdfrwt beam="1">  1       21 0.48865730E-02 0.12500000E+03</pdfrwt>
<pdfrwt beam="2">  1       21 0.18920340E-01 0.12500000E+03</pdfrwt>
<totfact> 0.70167374E+06</totfact>
</mgrwt>
</event>
<event>
 3    0  0.1467554E+001  0.1250000E+03  0.7546771E-02  0.1235069E+00
         21   -1    0    0  502  501  0.00000000000E+00  0.00000000000E+00  0.81019957116E+01  0.81019957116E+01  0.00000000000E+00 0. -1.
         21   -1    0    0  501  502 -0.00000000000E+00 -0.00000000000E+00 -0.48213429617E+03  0.48213429617E+03  0.00000000000E+00 0. -1.
         25    1    1    2    0    0  0.00000000000E+00  0.00000000000E+00 -0.47403230046E+03  0.49023629188E+03  0.12500000000E+03 0.  0.
<mgrwt>
<rscale>  2 0.12500000E+03</rscale>
<asrwt>0</asrwt>
<pdfrwt beam="1">  1       21 0.12464609E-02 0.12500000E+03</pdfrwt>
<pdfrwt beam="2">  1       21 0.74174503E-01 0.12500000E+03</pdfrwt>
<totfact> 0.42578578E+06</totfact>
</mgrwt>
</event>
<event>
 3    0  0.1713904E+001  0.1250000E+03  0.7546771E-02  0.1235069E+00
         21   -1    0    0  502  501  0.00000000000E+00  0.00000000000E+00  0.36836230690E+02  0.36836230690E+02  0.00000000000E+00 0.  1.
         21   -1    0    0  501  502 -0.00000000000E+00 -0.00000000000E+00 -0.10604369467E+03  0.10604369467E+03  0.00000000000E+00 0.  1.
         25    1    1    2    0    0  0.00000000000E+00  0.00000000000E+00 -0.69207463977E+02  0.14287992536E+03  0.12500000000E+03 0.  0.
<mgrwt>
<rscale>  2 0.12500000E+03</rscale>
<asrwt>0</asrwt>
<pdfrwt beam="1">  1       21 0.56671125E-02 0.12500000E+03</pdfrwt>
<pdfrwt beam="2">  1       21 0.16314414E-01 0.12500000E+03</pdfrwt>
<totfact> 0.71665534E+06</totfact>
</mgrwt>
</event>
<event>
 3    0  0.1572259E+001  0.1250000E+03  0.7546771E-02  0.1235069E+00
         21   -1    0    0  502  501  0.00000000000E+00  0.00000000000E+00  0.31238808195E+03  0.31238808195E+03  0.00000000000E+00 0. -1.
         21   -1    0    0  501  502 -0.00000000000E+00 -0.00000000000E+00 -0.12504478326E+02  0.12504478326E+02  0.00000000000E+00 0. -1.
         25    1    1    2    0    0  0.00000000000E+00  0.00000000000E+00  0.29988360363E+03  0.32489256028E+03  0.12500000000E+03 0.  0.
<mgrwt>
<rscale>  2 0.12500000E+03</rscale>
<asrwt>0</asrwt>
<pdfrwt beam="1">  1       21 0.48059699E-01 0.12500000E+03</pdfrwt>
<pdfrwt beam="2">  1       21 0.19237661E-02 0.12500000E+03</pdfrwt>
<totfact> 0.53447898E+06</totfact>
</mgrwt>
</event>
<event>
 3    0  0.1514742E+001  0.1250000E+03  0.7546771E-02  0.1235069E+00
         21   -1    0    0  502  501  0.00000000000E+00  0.00000000000E+00  0.37362226359E+03  0.37362226359E+03  0.00000000000E+00 0. -1.
         21   -1    0    0  501  502 -0.00000000000E+00 -0.00000000000E+00 -0.10455078245E+02  0.10455078245E+02  0.00000000000E+00 0. -1.
         25    1    1    2    0    0  0.00000000000E+00  0.00000000000E+00  0.36316718535E+03  0.38407734184E+03  0.12500000000E+03 0.  0.
<mgrwt>
<rscale>  2 0.12500000E+03</rscale>
<asrwt>0</asrwt>
<pdfrwt beam="1">  1       21 0.57480338E-01 0.12500000E+03</pdfrwt>
<pdfrwt beam="2">  1       21 0.16084739E-02 0.12500000E+03</pdfrwt>
<totfact> 0.49115734E+06</totfact>
</mgrwt>
</event>
<event>
 3    0  0.1420208E+001  0.1250000E+03  0.7546771E-02  0.1235069E+00
         21   -1    0    0  502  501  0.00000000000E+00  0.00000000000E+00  0.67856738484E+01  0.67856738484E+01  0.00000000000E+00 0. -1.
         21   -1    0    0  501  502 -0.00000000000E+00 -0.00000000000E+00 -0.57566132521E+03  0.57566132521E+03  0.00000000000E+00 0. -1.
         25    1    1    2    0    0  0.00000000000E+00  0.00000000000E+00 -0.56887565136E+03  0.58244699905E+03  0.12500000000E+03 0.  0.
<mgrwt>
<rscale>  2 0.12500000E+03</rscale>
<asrwt>0</asrwt>
<pdfrwt beam="1">  1       21 0.10439495E-02 0.12500000E+03</pdfrwt>
<pdfrwt beam="2">  1       21 0.88563310E-01 0.12500000E+03</pdfrwt>
<totfact> 0.37898658E+06</totfact>
</mgrwt>
</event>
<event>
 3    0  0.1368989E+001  0.1250000E+03  0.7546771E-02  0.1235069E+00
         21   -1    0    0  502  501  0.00000000000E+00  0.00000000000E+00  0.49298895214E+01  0.49298895214E+01  0.00000000000E+00 0.  1.
         21   -1    0    0  501  502 -0.00000000000E+00 -0.00000000000E+00 -0.79236055556E+03  0.79236055556E+03  0.00000000000E+00 0.  1.
         25    1    1    2    0    0  0.00000000000E+00  0.00000000000E+00 -0.78743066604E+03  0.79729044508E+03  0.12500000000E+03 0.  0.
<mgrwt>
<rscale>  2 0.12500000E+03</rscale>
<asrwt>0</asrwt>
<pdfrwt beam="1">  1       21 0.75844509E-03 0.12500000E+03</pdfrwt>
<pdfrwt beam="2">  1       21 0.12190154E+00 0.12500000E+03</pdfrwt>
<totfact> 0.29452806E+06</totfact>
</mgrwt>
</event>
<event>
 3    0  0.1719503E+001  0.1250000E+03  0.7546771E-02  0.1235069E+00
         21   -1    0    0  502  501  0.00000000000E+00  0.00000000000E+00  0.97281730764E+02  0.97281730764E+02  0.00000000000E+00 0.  1.
         21   -1    0    0  501  502 -0.00000000000E+00 -0.00000000000E+00 -0.40153993656E+02  0.40153993656E+02  0.00000000000E+00 0.  1.
         25    1    1    2    0    0  0.00000000000E+00  0.00000000000E+00  0.57127737108E+02  0.13743572442E+03  0.12500000000E+03 0.  0.
<mgrwt>
<rscale>  2 0.12500000E+03</rscale>
<asrwt>0</asrwt>
<pdfrwt beam="1">  1       21 0.14966420E-01 0.12500000E+03</pdfrwt>
<pdfrwt beam="2">  1       21 0.61775375E-02 0.12500000E+03</pdfrwt>
<totfact> 0.72375543E+06</totfact>
</mgrwt>
</event>
<event>
 3    0  0.1705460E+001  0.1250000E+03  0.7546771E-02  0.1235069E+00
         21   -1    0    0  502  501  0.00000000000E+00  0.00000000000E+00  0.59863896876E+02  0.59863896876E+02  0.00000000000E+00 0. -1.
         21   -1    0    0  501  502 -0.00000000000E+00 -0.00000000000E+00 -0.65252183767E+02  0.65252183767E+02  0.00000000000E+00 0. -1.
         25    1    1    2    0    0  0.00000000000E+00  0.00000000000E+00 -0.53882868906E+01  0.12511608064E+03  0.12500000000E+03 0.  0.
<mgrwt>
<rscale>  2 0.12500000E+03</rscale>
<asrwt>0</asrwt>
<pdfrwt beam="1">  1       21 0.92098303E-02 0.12500000E+03</pdfrwt>
<pdfrwt beam="2">  1       21 0.10038797E-01 0.12500000E+03</pdfrwt>
<totfact> 0.74027904E+06</totfact>
</mgrwt>
</event>
<event>
 3    0  0.1701354E+001  0.1250000E+03  0.7546771E-02  0.1235069E+00
         21   -1    0    0  502  501  0.00000000000E+00  0.00000000000E+00  0.47924137588E+02  0.47924137588E+02  0.00000000000E+00 0. -1.
         21   -1    0    0  501  502 -0.00000000000E+00 -0.00000000000E+00 -0.81509030660E+02  0.81509030660E+02  0.00000000000E+00 0. -1.
         25    1    1    2    0    0  0.00000000000E+00  0.00000000000E+00 -0.33584893071E+02  0.12943316825E+03  0.12500000000E+03 0.  0.
<mgrwt>
<rscale>  2 0.12500000E+03</rscale>
<asrwt>0</asrwt>
<pdfrwt beam="1">  1       21 0.73729443E-02 0.12500000E+03</pdfrwt>
<pdfrwt beam="2">  1       21 0.12539851E-01 0.12500000E+03</pdfrwt>
<totfact> 0.73440771E+06</totfact>
</mgrwt>
</event>
<event>
 3    0  0.1368989E+001  0.1250000E+03  0.7546771E-02  0.1235069E+00
         21   -1    0    0  502  501  0.00000000000E+00  0.00000000000E+00  0.10399593012E+04  0.10399593012E+04  0.00000000000E+00 0.  1.
         21   -1    0    0  501  502 -0.00000000000E+00 -0.00000000000E+00 -0.37561566069E+01  0.37561566069E+01  0.00000000000E+00 0.  1.
         25    1    1    2    0    0  0.00000000000E+00  0.00000000000E+00  0.10362031446E+04  0.10437154578E+04  0.12500000000E+03 0.  0.
<mgrwt>
<rscale>  2 0.12500000E+03</rscale>
<asrwt>0</asrwt>
<pdfrwt beam="1">  1       21 0.15999351E+00 0.12500000E+03</pdfrwt>
<pdfrwt beam="2">  1       21 0.57787108E-03 0.12500000E+03</pdfrwt>
<totfact> 0.22548522E+06</totfact>
</mgrwt>
</event>
<event>
 3    0  0.1509283E+001  0.1250000E+03  0.7546771E-02  0.1235069E+00
         21   -1    0    0  502  501  0.00000000000E+00  0.00000000000E+00  0.35244769579E+03  0.35244769579E+03  0.00000000000E+00 0. -1.
         21   -1    0    0  501  502 -0.00000000000E+00 -0.00000000000E+00 -0.11083204818E+02  0.11083204818E+02  0.00000000000E+00 0. -1.
         25    1    1    2    0    0  0.00000000000E+00  0.00000000000E+00  0.34136449097E+03  0.36353090061E+03  0.12500000000E+03 0.  0.
<mgrwt>
<rscale>  2 0.12500000E+03</rscale>
<asrwt>0</asrwt>
<pdfrwt beam="1">  1       21 0.54222714E-01 0.12500000E+03</pdfrwt>
<pdfrwt beam="2">  1       21 0.17051087E-02 0.12500000E+03</pdfrwt>
<totfact> 0.50554403E+06</totfact>
</mgrwt>
</event>
<event>
 3    0  0.1573022E+001  0.1250000E+03  0.7546771E-02  0.1235069E+00
         21   -1    0    0  502  501  0.00000000000E+00  0.00000000000E+00  0.27876569199E+03  0.27876569199E+03  0.00000000000E+00 0. -1.
         21   -1    0    0  501  502 -0.00000000000E+00 -0.00000000000E+00 -0.14012664084E+02  0.14012664084E+02  0.00000000000E+00 0. -1.
         25    1    1    2    0    0  0.00000000000E+00  0.00000000000E+00  0.26475302791E+03  0.29277835607E+03  0.12500000000E+03 0.  0.
<mgrwt>
<rscale>  2 0.12500000E+03</rscale>
<asrwt>0</asrwt>
<pdfrwt beam="1">  1       21 0.42887026E-01 0.12500000E+03</pdfrwt>
<pdfrwt beam="2">  1       21 0.21557947E-02 0.12500000E+03</pdfrwt>
<totfact> 0.56061713E+06</totfact>
</mgrwt>
</event>
<event>
 3    0  0.1595350E+001  0.1250000E+03  0.7546771E-02  0.1235069E+00
         21   -1    0    0  502  501  0.00000000000E+00  0.00000000000E+00  0.24693785840E+03  0.24693785840E+03  0.00000000000E+00 0. -1.
         21   -1    0    0  501  502 -0.00000000000E+00 -0.00000000000E+00 -0.15818757097E+02  0.15818757097E+02  0.00000000000E+00 0. -1.
         25    1    1    2    0    0  0.00000000000E+00  0.00000000000E+00  0.23111910130E+03  0.26275661550E+03  0.12500000000E+03 0.  0.
<mgrwt>
<rscale>  2 0.12500000E+03</rscale>
<asrwt>0</asrwt>
<pdfrwt beam="1">  1       21 0.37990437E-01 0.12500000E+03</pdfrwt>
<pdfrwt beam="2">  1       21 0.24336551E-02 0.12500000E+03</pdfrwt>
<totfact> 0.58697531E+06</totfact>
</mgrwt>
</event>
<event>
 3    0  0.1650179E+001  0.1250000E+03  0.7546771E-02  0.1235069E+00
         21   -1    0    0  502  501  0.00000000000E+00  0.00000000000E+00  0.18282984895E+02  0.18282984895E+02  0.00000000000E+00 0.  1.
         21   -1    0    0  501  502 -0.00000000000E+00 -0.00000000000E+00 -0.21365493777E+03  0.21365493777E+03  0.00000000000E+00 0.  1.
         25    1    1    2    0    0  0.00000000000E+00  0.00000000000E+00 -0.19537195288E+03  0.23193792267E+03  0.12500000000E+03 0.  0.
<mgrwt>
<rscale>  2 0.12500000E+03</rscale>
<asrwt>0</asrwt>
<pdfrwt beam="1">  1       21 0.28127667E-02 0.12500000E+03</pdfrwt>
<pdfrwt beam="2">  1       21 0.32869993E-01 0.12500000E+03</pdfrwt>
<totfact> 0.61621648E+06</totfact>
</mgrwt>
</event>
<event>
 3    0  0.1606201E+001  0.1250000E+03  0.7546771E-02  0.1235069E+00
         21   -1    0    0  502  501  0.00000000000E+00  0.00000000000E+00  0.28918337304E+03  0.28918337304E+03  0.00000000000E+00 0.  1.
         21   -1    0    0  501  502 -0.00000000000E+00 -0.00000000000E+00 -0.13507865127E+02  0.13507865127E+02  0.00000000000E+00 0.  1.
         25    1    1    2    0    0  0.00000000000E+00  0.00000000000E+00  0.27567550791E+03  0.30269123817E+03  0.12500000000E+03 0.  0.
<mgrwt>
<rscale>  2 0.12500000E+03</rscale>
<asrwt>0</asrwt>
<pdfrwt beam="1">  1       21 0.44489745E-01 0.12500000E+03</pdfrwt>
<pdfrwt beam="2">  1       21 0.20781333E-02 0.12500000E+03</pdfrwt>
<totfact> 0.55233262E+06</totfact>
</mgrwt>
</event>
<event>
 3    0  0.1368989E+001  0.1250000E+03  0.7546771E-02  0.1235069E+00
         21   -1    0    0  502  501  0.00000000000E+00  0.00000000000E+00  0.83328444731E+03  0.83328444731E+03  0.00000000000E+00 0.  1.
         21   -1    0    0  501  502 -0.00000000000E+00 -0.00000000000E+00 -0.46877750000E+01  0.46877750000E+01  0.00000000000E+00 0.  1.
         25    1    1    2    0    0  0.00000000000E+00  0.00000000000E+00  0.82859667231E+03  0.83797222231E+03  0.12500000000E+03 0.  0.
<mgrwt>
<rscale>  2 0.12500000E+03</rscale>
<asrwt>0</asrwt>
<pdfrwt beam="1">  1       21 0.12819749E+00 0.12500000E+03</pdfrwt>
<pdfrwt beam="2">  1       21 0.72119682E-03 0.12500000E+03</pdfrwt>
<totfact> 0.28142767E+06</totfact>
</mgrwt>
</event>
<event>
 3    0  0.1368989E+001  0.1250000E+03  0.7546771E-02  0.1235069E+00
         21   -1    0    0  502  501  0.00000000000E+00  0.00000000000E+00  0.70131052900E+03  0.70131052900E+03  0.00000000000E+00 0. -1.
         21   -1    0    0  501  502 -0.00000000000E+00 -0.00000000000E+00 -0.55699292089E+01  0.55699292089E+01  0.00000000000E+00 0. -1.
         25    1    1    2    0    0  0.00000000000E+00  0.00000000000E+00  0.69574059979E+03  0.70688045821E+03  0.12500000000E+03 0.  0.
<mgrwt>
<rscale>  2 0.12500000E+03</rscale>
<asrwt>0</asrwt>
<pdfrwt beam="1">  1       21 0.10789386E+00 0.12500000E+03</pdfrwt>
<pdfrwt beam="2">  1       21 0.85691274E-03 0.12500000E+03</pdfrwt>
<totfact> 0.32646575E+06</totfact>
</mgrwt>
</event>
<event>
 3    0  0.1683920E+001  0.1250000E+03  0.7546771E-02  0.1235069E+00
         21   -1    0    0  502  501  0.00000000000E+00  0.00000000000E+00  0.24824103277E+02  0.24824103277E+02  0.00000000000E+00 0.  1.
         21   -1    0    0  501  502 -0.00000000000E+00 -0.00000000000E+00 -0.15735714424E+03  0.15735714424E+03  0.00000000000E+00 0.  1.
         25    1    1    2    0    0  0.00000000000E+00  0.00000000000E+00 -0.13253304096E+03  0.18218124752E+03  0.12500000000E+03 0.  0.
<mgrwt>
<rscale>  2 0.12500000E+03</rscale>
<asrwt>0</asrwt>
<pdfrwt beam="1">  1       21 0.38190928E-02 0.12500000E+03</pdfrwt>
<pdfrwt beam="2">  1       21 0.24208792E-01 0.12500000E+03</pdfrwt>
<totfact> 0.66902187E+06</totfact>
</mgrwt>
</event>
<event>
 3    0  0.1688551E+001  0.1250000E+03  0.7546771E-02  0.1235069E+00
         21   -1    0    0  502  501  0.00000000000E+00  0.00000000000E+00  0.36671852857E+02  0.36671852857E+02  0.00000000000E+00 0. -1.
         21   -1    0    0  501  502 -0.00000000000E+00 -0.00000000000E+00 -0.10651902469E+03  0.10651902469E+03  0.00000000000E+00 0. -1.
         25    1    1    2    0    0  0.00000000000E+00  0.00000000000E+00 -0.69847171835E+02  0.14319087755E+03  0.12500000000E+03 0.  0.
<mgrwt>
<rscale>  2 0.12500000E+03</rscale>
<asrwt>0</asrwt>
<pdfrwt beam="1">  1       21 0.56418236E-02 0.12500000E+03</pdfrwt>
<pdfrwt beam="2">  1       21 0.16387542E-01 0.12500000E+03</pdfrwt>
<totfact> 0.71625434E+06</totfact>
</mgrwt>
</event>
<event>
 3    0  0.1605384E+001  0.1250000E+03  0.7546771E-02  0.1235069E+00
         21   -1    0    0  502  501  0.00000000000E+00  0.00000000000E+00  0.14703404768E+02  0.14703404768E+02  0.00000000000E+00 0.  1.
         21   -1    0    0  501  502 -0.00000000000E+00 -0.00000000000E+00 -0.26566975891E+03  0.26566975891E+03  0.00000000000E+00 0.  1.
         25    1    1    2    0    0  0.00000000000E+00  0.00000000000E+00 -0.25096635414E+03  0.28037316368E+03  0.12500000000E+03 0.  0.
<mgrwt>
<rscale>  2 0.12500000E+03</rscale>
<asrwt>0</asrwt>
<pdfrwt beam="1">  1       21 0.22620624E-02 0.12500000E+03</pdfrwt>
<pdfrwt beam="2">  1       21 0.40872269E-01 0.12500000E+03</pdfrwt>
<totfact> 0.57127729E+06</totfact>
</mgrwt>
</event>
<event>
 3    0  0.1672145E+001  0.1250000E+03  0.7546771E-02  0.1235069E+00
         21   -1    0    0  502  501  0.00000000000E+00  0.00000000000E+00  0.29120941645E+02  0.29120941645E+02  0.00000000000E+00 0. -1.
         21   -1    0    0  501  502 -0.00000000000E+00 -0.00000000000E+00 -0.13413886294E+03  0.13413886294E+03  0.00000000000E+00 0. -1.
         25    1    1    2    0    0  0.00000000000E+00  0.00000000000E+00 -0.10501792129E+03  0.16325980458E+03  0.12500000000E+03 0.  0.
<mgrwt>
<rscale>  2 0.12500000E+03</rscale>
<asrwt>0</asrwt>
<pdfrwt beam="1">  1       21 0.44801450E-02 0.12500000E+03</pdfrwt>
<pdfrwt beam="2">  1       21 0.20636748E-01 0.12500000E+03</pdfrwt>
<totfact> 0.69123361E+06</totfact>
</mgrwt>
</event>
<event>
 3    0  0.1447850E+001  0.1250000E+03  0.7546771E-02  0.1235069E+00
         21   -1    0    0  502  501  0.00000000000E+00  0.00000000000E+00  0.79273152472E+01  0.79273152472E+01  0.00000000000E+00 0. -1.
         21   -1    0    0  501  502 -0.00000000000E+00 -0.00000000000E+00 -0.49275825146E+03  0.49275825146E+03  0.00000000000E+00 0. -1.
         25    1    1    2    0    0  0.00000000000E+00  0.00000000000E+00 -0.48483093622E+03  0.50068556671E+03  0.12500000000E+03 0.  0.
<mgrwt>
<rscale>  2 0.12500000E+03</rscale>
<asrwt>0</asrwt>
<pdfrwt beam="1">  1       21 0.12195869E-02 0.12500000E+03</pdfrwt>
<pdfrwt beam="2">  1       21 0.75808968E-01 0.12500000E+03</pdfrwt>
<totfact> 0.42006913E+06</totfact>
</mgrwt>
</event>
<event>
 3    0  0.1719669E+001  0.1250000E+03  0.7546771E-02  0.1235069E+00
         21   -1    0    0  502  501  0.00000000000E+00  0.00000000000E+00  0.92547289340E+02  0.92547289340E+02  0.00000000000E+00 0.  1.
         21   -1    0    0  501  502 -0.00000000000E+00 -0.00000000000E+00 -0.42208151399E+02  0.42208151399E+02  0.00000000000E+00 0.  1.
         25    1    1    2    0    0  0.00000000000E+00  0.00000000000E+00  0.50339137941E+02  0.13475544074E+03  0.12500000000E+03 0.  0.
<mgrwt>
<rscale>  2 0.12500000E+03</rscale>
<asrwt>0</asrwt>
<pdfrwt beam="1">  1       21 0.14238044E-01 0.12500000E+03</pdfrwt>
<pdfrwt beam="2">  1       21 0.64935618E-02 0.12500000E+03</pdfrwt>
<totfact> 0.72728869E+06</totfact>
</mgrwt>
</event>
<event>
 3    0  0.1729220E+001  0.1250000E+03  0.7546771E-02  0.1235069E+00
         21   -1    0    0  502  501  0.00000000000E+00  0.00000000000E+00  0.56893946615E+02  0.56893946615E+02  0.00000000000E+00 0.  1.
         21   -1    0    0  501  502 -0.00000000000E+00 -0.00000000000E+00 -0.68658446679E+02  0.68658446679E+02  0.00000000000E+00 0.  1.
         25    1    1    2    0    0  0.00000000000E+00  0.00000000000E+00 -0.11764500064E+02  0.12555239329E+03  0.12500000000E+03 0.  0.
<mgrwt>
<rscale>  2 0.12500000E+03</rscale>
<asrwt>0</asrwt>
<pdfrwt beam="1">  1       21 0.87529148E-02 0.12500000E+03</pdfrwt>
<pdfrwt beam="2">  1       21 0.10562838E-01 0.12500000E+03</pdfrwt>
<totfact> 0.73968079E+06</totfact>
</mgrwt>
</event>
<event>
 3    0  0.1368989E+001  0.1250000E+03  0.7546771E-02  0.1235069E+00
         21   -1    0    0  502  501  0.00000000000E+00  0.00000000000E+00  0.12569635899E+04  0.12569635899E+04  0.00000000000E+00 0. -1.
         21   -1    0    0  501  502 -0.00000000000E+00 -0.00000000000E+00 -0.31076874712E+01  0.31076874712E+01  0.00000000000E+00 0. -1.
         25    1    1    2    0    0  0.00000000000E+00  0.00000000000E+00  0.12538559024E+04  0.12600712773E+04  0.12500000000E+03 0.  0.
<mgrwt>
<rscale>  2 0.12500000E+03</rscale>
<asrwt>0</asrwt>
<pdfrwt beam="1">  1       21 0.19337861E+00 0.12500000E+03</pdfrwt>
<pdfrwt beam="2">  1       21 0.47810677E-03 0.12500000E+03</pdfrwt>
<totfact> 0.17984880E+06</totfact>
</mgrwt>
</event>
<event>
 3    0  0.1704753E+001  0.1250000E+03  0.7546771E-02  0.1235069E+00
         21   -1    0    0  502  501  0.00000000000E+00  0.00000000000E+00  0.66619625150E+02  0.66619625150E+02  0.00000000000E+00 0. -1.
         21   -1    0    0  501  502 -0.00000000000E+00 -0.00000000000E+00 -0.58635124277E+02  0.58635124277E+02  0.00000000000E+00 0. -1.
         25    1    1    2    0    0  0.00000000000E+00  0.00000000000E+00  0.79845008732E+01  0.12525474943E+03  0.12500000000E+03 0.  0.
<mgrwt>
<rscale>  2 0.12500000E+03</rscale>
<asrwt>0</asrwt>
<pdfrwt beam="1">  1       21 0.10249173E-01 0.12500000E+03</pdfrwt>
<pdfrwt beam="2">  1       21 0.90207884E-02 0.12500000E+03</pdfrwt>
<totfact> 0.74009180E+06</totfact>
</mgrwt>
</event>
<event>
 3    0  0.1547608E+001  0.1250000E+03  0.7546771E-02  0.1235069E+00
         21   -1    0    0  502  501  0.00000000000E+00  0.00000000000E+00  0.10908558825E+02  0.10908558825E+02  0.00000000000E+00 0. -1.
         21   -1    0    0  501  502 -0.00000000000E+00 -0.00000000000E+00 -0.35809038231E+03  0.35809038231E+03  0.00000000000E+00 0. -1.
         25    1    1    2    0    0  0.00000000000E+00  0.00000000000E+00 -0.34718182349E+03  0.36899894114E+03  0.12500000000E+03 0.  0.
<mgrwt>
<rscale>  2 0.12500000E+03</rscale>
<asrwt>0</asrwt>
<pdfrwt beam="1">  1       21 0.16782398E-02 0.12500000E+03</pdfrwt>
<pdfrwt beam="2">  1       21 0.55090830E-01 0.12500000E+03</pdfrwt>
<totfact> 0.50165189E+06</totfact>
</mgrwt>
</event>
<event>
 3    0  0.1674074E+001  0.1250000E+03  0.7546771E-02  0.1235069E+00
         21   -1    0    0  502  501  0.00000000000E+00  0.00000000000E+00  0.16152653299E+03  0.16152653299E+03  0.00000000000E+00 0.  1.
         21   -1    0    0  501  502 -0.00000000000E+00 -0.00000000000E+00 -0.24183333399E+02  0.24183333399E+02  0.00000000000E+00 0.  1.
         25    1    1    2    0    0  0.00000000000E+00  0.00000000000E+00  0.13734319959E+03  0.18570986639E+03  0.12500000000E+03 0.  0.
<mgrwt>
<rscale>  2 0.12500000E+03</rscale>
<asrwt>0</asrwt>
<pdfrwt beam="1">  1       21 0.24850235E-01 0.12500000E+03</pdfrwt>
<pdfrwt beam="2">  1       21 0.37205129E-02 0.12500000E+03</pdfrwt>
<totfact> 0.66502479E+06</totfact>
</mgrwt>
</event>
<event>
 3    0  0.1701250E+001  0.1250000E+03  0.7546771E-02  0.1235069E+00
         21   -1    0    0  502  501  0.00000000000E+00  0.00000000000E+00  0.84415867035E+02  0.84415867035E+02  0.00000000000E+00 0. -1.
         21   -1    0    0  501  502 -0.00000000000E+00 -0.00000000000E+00 -0.46273883539E+02  0.46273883539E+02  0.00000000000E+00 0. -1.
         25    1    1    2    0    0  0.00000000000E+00  0.00000000000E+00  0.38141983496E+02  0.13068975057E+03  0.12500000000E+03 0.  0.
<mgrwt>
<rscale>  2 0.12500000E+03</rscale>
<asrwt>0</asrwt>
<pdfrwt beam="1">  1       21 0.12987056E-01 0.12500000E+03</pdfrwt>
<pdfrwt beam="2">  1       21 0.71190590E-02 0.12500000E+03</pdfrwt>
<totfact> 0.73272511E+06</totfact>
</mgrwt>
</event>
<event>
 3    0  0.1699850E+001  0.1250000E+03  0.7546771E-02  0.1235069E+00
         21   -1    0    0  502  501  0.00000000000E+00  0.00000000000E+00  0.14170097605E+03  0.14170097605E+03  0.00000000000E+00 0.  1.
         21   -1    0    0  501  502 -0.00000000000E+00 -0.00000000000E+00 -0.27566853164E+02  0.27566853164E+02  0.00000000000E+00 0.  1.
         25    1    1    2    0    0  0.00000000000E+00  0.00000000000E+00  0.11413412289E+03  0.16926782921E+03  0.12500000000E+03 0.  0.
<mgrwt>
<rscale>  2 0.12500000E+03</rscale>
<asrwt>0</asrwt>
<pdfrwt beam="1">  1       21 0.21800150E-01 0.12500000E+03</pdfrwt>
<pdfrwt beam="2">  1       21 0.42410544E-02 0.12500000E+03</pdfrwt>
<totfact> 0.68404425E+06</totfact>
</mgrwt>
</event>
<event>
 3    0  0.1729632E+001  0.1250000E+03  0.7546771E-02  0.1235069E+00
         21   -1    0    0  502  501  0.00000000000E+00  0.00000000000E+00  0.58567823764E+02  0.58567823764E+02  0.00000000000E+00 0.  1.
         21   -1    0    0  501  502 -0.00000000000E+00 -0.00000000000E+00 -0.66696178020E+02  0.66696178020E+02  0.00000000000E+00 0.  1.
         25    1    1    2    0    0  0.00000000000E+00  0.00000000000E+00 -0.81283542564E+01  0.12526400178E+03  0.12500000000E+03 0.  0.
<mgrwt>
<rscale>  2 0.12500000E+03</rscale>
<asrwt>0</asrwt>
<pdfrwt beam="1">  1       21 0.90104345E-02 0.12500000E+03</pdfrwt>
<pdfrwt beam="2">  1       21 0.10260950E-01 0.12500000E+03</pdfrwt>
<totfact> 0.74007931E+06</totfact>
</mgrwt>
</event>
<event>
 3    0  0.1705375E+001  0.1250000E+03  0.7546771E-02  0.1235069E+00
         21   -1    0    0  502  501  0.00000000000E+00  0.00000000000E+00  0.63445960901E+02  0.63445960901E+02  0.00000000000E+00 0. -1.
         21   -1    0    0  501  502 -0.00000000000E+00 -0.00000000000E+00 -0.61568143102E+02  0.61568143102E+02  0.00000000000E+00 0. -1.
         25    1    1    2    0    0  0.00000000000E+00  0.00000000000E+00  0.18778177991E+01  0.12501410400E+03  0.12500000000E+03 0.  0.
<mgrwt>
<rscale>  2 0.12500000E+03</rscale>
<asrwt>0</asrwt>
<pdfrwt beam="1">  1       21 0.97609170E-02 0.12500000E+03</pdfrwt>
<pdfrwt beam="2">  1       21 0.94720221E-02 0.12500000E+03</pdfrwt>
<totfact> 0.74041676E+06</totfact>
</mgrwt>
</event>
<event>
 3    0  0.1589843E+001  0.1250000E+03  0.7546771E-02  0.1235069E+00
         21   -1    0    0  502  501  0.00000000000E+00  0.00000000000E+00  0.13870260940E+02  0.13870260940E+02  0.00000000000E+00 0.  1.
         21   -1    0    0  501  502 -0.00000000000E+00 -0.00000000000E+00 -0.28162772256E+03  0.28162772256E+03  0.00000000000E+00 0.  1.
         25    1    1    2    0    0  0.00000000000E+00  0.00000000000E+00 -0.26775746162E+03  0.29549798351E+03  0.12500000000E+03 0.  0.
<mgrwt>
<rscale>  2 0.12500000E+03</rscale>
<asrwt>0</asrwt>
<pdfrwt beam="1">  1       21 0.21338864E-02 0.12500000E+03</pdfrwt>
<pdfrwt beam="2">  1       21 0.43327340E-01 0.12500000E+03</pdfrwt>
<totfact> 0.55832397E+06</totfact>
</mgrwt>
</event>
<event>
 3    0  0.1694242E+001  0.1250000E+03  0.7546771E-02  0.1235069E+00
         21   -1    0    0  502  501  0.00000000000E+00  0.00000000000E+00  0.38945270022E+02  0.38945270022E+02  0.00000000000E+00 0. -1.
         21   -1    0    0  501  502 -0.00000000000E+00 -0.00000000000E+00 -0.10030101211E+03  0.10030101211E+03  0.00000000000E+00 0. -1.
         25    1    1    2    0    0  0.00000000000E+00  0.00000000000E+00 -0.61355742087E+02  0.13924628213E+03  0.12500000000E+03 0.  0.
<mgrwt>
<rscale>  2 0.12500000E+03</rscale>
<asrwt>0</asrwt>
<pdfrwt beam="1">  1       21 0.59915801E-02 0.12500000E+03</pdfrwt>
<pdfrwt beam="2">  1       21 0.15430925E-01 0.12500000E+03</pdfrwt>
<totfact> 0.72137858E+06</totfact>
</mgrwt>
</event>
<event>
 3    0  0.1395355E+001  0.1250000E+03  0.7546771E-02  0.1235069E+00
         21   -1    0    0  502  501  0.00000000000E+00  0.00000000000E+00  0.63017331436E+03  0.63017331436E+03  0.00000000000E+00 0. -1.
         21   -1    0    0  501  502 -0.00000000000E+00 -0.00000000000E+00 -0.61986915520E+01  0.61986915520E+01  0.00000000000E+00 0. -1.
         25    1    1    2    0    0  0.00000000000E+00  0.00000000000E+00  0.62397462281E+03  0.63637200591E+03  0.12500000000E+03 0.  0.
<mgrwt>
<rscale>  2 0.12500000E+03</rscale>
<asrwt>0</asrwt>
<pdfrwt beam="1">  1       21 0.96949690E-01 0.12500000E+03</pdfrwt>
<pdfrwt beam="2">  1       21 0.95364535E-03 0.12500000E+03</pdfrwt>
<totfact> 0.35497755E+06</totfact>
</mgrwt>
</event>
<event>
 3    0  0.1425815E+001  0.1250000E+03  0.7546771E-02  0.1235069E+00
         21   -1    0    0  502  501  0.00000000000E+00  0.00000000000E+00  0.68240605038E+01  0.68240605038E+01  0.00000000000E+00 0. -1.
         21   -1    0    0  501  502 -0.00000000000E+00 -0.00000000000E+00 -0.57242311932E+03  0.57242311932E+03  0.00000000000E+00 0. -1.
         25    1    1    2    0    0  0.00000000000E+00  0.00000000000E+00 -0.56559905881E+03  0.57924717982E+03  0.12500000000E+03 0.  0.
<mgrwt>
<rscale>  2 0.12500000E+03</rscale>
<asrwt>0</asrwt>
<pdfrwt beam="1">  1       21 0.10498552E-02 0.12500000E+03</pdfrwt>
<pdfrwt beam="2">  1       21 0.88065113E-01 0.12500000E+03</pdfrwt>
<totfact> 0.38048283E+06</totfact>
</mgrwt>
</event>
<event>
 3    0  0.1579163E+001  0.1250000E+03  0.7546771E-02  0.1235069E+00
         21   -1    0    0  502  501  0.00000000000E+00  0.00000000000E+00  0.11849219872E+02  0.11849219872E+02  0.00000000000E+00 0.  1.
         21   -1    0    0  501  502 -0.00000000000E+00 -0.00000000000E+00 -0.32966305311E+03  0.32966305311E+03  0.00000000000E+00 0.  1.
         25    1    1    2    0    0  0.00000000000E+00  0.00000000000E+00 -0.31781383324E+03  0.34151227298E+03  0.12500000000E+03 0.  0.
<mgrwt>
<rscale>  2 0.12500000E+03</rscale>
<asrwt>0</asrwt>
<pdfrwt beam="1">  1       21 0.18229566E-02 0.12500000E+03</pdfrwt>
<pdfrwt beam="2">  1       21 0.50717402E-01 0.12500000E+03</pdfrwt>
<totfact> 0.52171444E+06</totfact>
</mgrwt>
</event>
<event>
 3    0  0.1616819E+001  0.1250000E+03  0.7546771E-02  0.1235069E+00
         21   -1    0    0  502  501  0.00000000000E+00  0.00000000000E+00  0.24761011636E+03  0.24761011636E+03  0.00000000000E+00 0.  1.
         21   -1    0    0  501  502 -0.00000000000E+00 -0.00000000000E+00 -0.15775809395E+02  0.15775809395E+02  0.00000000000E+00 0.  1.
         25    1    1    2    0    0  0.00000000000E+00  0.00000000000E+00  0.23183430697E+03  0.26338592576E+03  0.12500000000E+03 0.  0.
<mgrwt>
<rscale>  2 0.12500000E+03</rscale>
<asrwt>0</asrwt>
<pdfrwt beam="1">  1       21 0.38093861E-01 0.12500000E+03</pdfrwt>
<pdfrwt beam="2">  1       21 0.24270478E-02 0.12500000E+03</pdfrwt>
<totfact> 0.58640318E+06</totfact>
</mgrwt>
</event>
<event>
 3    0  0.1368989E+001  0.1250000E+03  0.7546771E-02  0.1235069E+00
         21   -1    0    0  502  501  0.00000000000E+00  0.00000000000E+00  0.12234907428E+04  0.12234907428E+04  0.00000000000E+00 0.  1.
         21   -1    0    0  501  502 -0.00000000000E+00 -0.00000000000E+00 -0.31927090768E+01  0.31927090768E+01  0.00000000000E+00 0.  1.
         25    1    1    2    0    0  0.00000000000E+00  0.00000000000E+00  0.12202980338E+04  0.12266834519E+04  0.12500000000E+03 0.  0.
<mgrwt>
<rscale>  2 0.12500000E+03</rscale>
<asrwt>0</asrwt>
<pdfrwt beam="1">  1       21 0.18822897E+00 0.12500000E+03</pdfrwt>
<pdfrwt beam="2">  1       21 0.49118699E-03 0.12500000E+03</pdfrwt>
<totfact> 0.18619661E+06</totfact>
</mgrwt>
</event>
<event>
 3    0  0.1368989E+001  0.1250000E+03  0.7546771E-02  0.1235069E+00
         21   -1    0    0  502  501  0.00000000000E+00  0.00000000000E+00  0.73889312934E+03  0.73889312934E+03  0.00000000000E+00 0. -1.
         21   -1    0    0  501  502 -0.00000000000E+00 -0.00000000000E+00 -0.52866237956E+01  0.52866237956E+01  0.00000000000E+00 0. -1.
         25    1    1    2    0    0  0.00000000000E+00  0.00000000000E+00  0.73360650555E+03  0.74417975314E+03  0.12500000000E+03 0.  0.
<mgrwt>
<rscale>  2 0.12500000E+03</rscale>
<asrwt>0</asrwt>
<pdfrwt beam="1">  1       21 0.11367578E+00 0.12500000E+03</pdfrwt>
<pdfrwt beam="2">  1       21 0.81332732E-03 0.12500000E+03</pdfrwt>
<totfact> 0.31274650E+06</totfact>
</mgrwt>
</event>
<event>
 3    0  0.1571465E+001  0.1250000E+03  0.7546771E-02  0.1235069E+00
         21   -1    0    0  502  501  0.00000000000E+00  0.00000000000E+00  0.13964336461E+02  0.13964336461E+02  0.00000000000E+00 0. -1.
         21   -1    0    0  501  502 -0.00000000000E+00 -0.00000000000E+00 -0.27973044126E+03  0.27973044126E+03  0.00000000000E+00 0. -1.
         25    1    1    2    0    0  0.00000000000E+00  0.00000000000E+00 -0.26576610480E+03  0.29369477772E+03  0.12500000000E+03 0.  0.
<mgrwt>
<rscale>  2 0.12500000E+03</rscale>
<asrwt>0</asrwt>
<pdfrwt beam="1">  1       21 0.21483595E-02 0.12500000E+03</pdfrwt>
<pdfrwt beam="2">  1       21 0.43035452E-01 0.12500000E+03</pdfrwt>
<totfact> 0.55984266E+06</totfact>
</mgrwt>
</event>
<event>
 3    0  0.1727784E+001  0.1250000E+03  0.7546771E-02  0.1235069E+00
         21   -1    0    0  502  501  0.00000000000E+00  0.00000000000E+00  0.80280074794E+02  0.80280074794E+02  0.00000000000E+00 0.  1.
         21   -1    0    0  501  502 -0.00000000000E+00 -0.00000000000E+00 -0.48657777288E+02  0.48657777288E+02  0.00000000000E+00 0.  1.
         25    1    1    2    0    0  0.00000000000E+00  0.00000000000E+00  0.31622297505E+02  0.12893785208E+03  0.12500000000E+03 0.  0.
<mgrwt>
<rscale>  2 0.12500000E+03</rscale>
<asrwt>0</asrwt>
<pdfrwt beam="1">  1       21 0.12350781E-01 0.12500000E+03</pdfrwt>
<pdfrwt beam="2">  1       21 0.74858119E-02 0.12500000E+03</pdfrwt>
<totfact> 0.73507229E+06</totfact>
</mgrwt>
</event>
<event>
 3    0  0.1368989E+001  0.1250000E+03  0.7546771E-02  0.1235069E+00
         21   -1    0    0  502  501  0.00000000000E+00  0.00000000000E+00  0.19701060876E+04  0.19701060876E+04  0.00000000000E+00 0. -1.
         21   -1    0    0  501  502 -0.00000000000E+00 -0.00000000000E+00 -0.19827612454E+01  0.19827612454E+01  0.00000000000E+00 0. -1.
         25    1    1    2    0    0  0.00000000000E+00  0.00000000000E+00  0.19681233264E+04  0.19720888489E+04  0.12500000000E+03 0.  0.
<mgrwt>
<rscale>  2 0.12500000E+03</rscale>
<asrwt>0</asrwt>
<pdfrwt beam="1">  1       21 0.30309168E+00 0.12500000E+03</pdfrwt>
<pdfrwt beam="2">  1       21 0.30504177E-03 0.12500000E+03</pdfrwt>
<totfact> 0.82235237E+05</totfact>
</mgrwt>
</event>
<event>
 3    0  0.1645352E+001  0.1250000E+03  0.7546771E-02  0.1235069E+00
         21   -1    0    0  502  501  0.00000000000E+00  0.00000000000E+00  0.19679679815E+03  0.19679679815E+03  0.00000000000E+00 0. -1.
         21   -1    0    0  501  502 -0.00000000000E+00 -0.00000000000E+00 -0.19849154238E+02  0.19849154238E+02  0.00000000000E+00 0. -1.
         25    1    1    2    0    0  0.00000000000E+00  0.00000000000E+00  0.17694764391E+03  0.21664595239E+03  0.12500000000E+03 0.  0.
<mgrwt>
<rscale>  2 0.12500000E+03</rscale>
<asrwt>0</asrwt>
<pdfrwt beam="1">  1       21 0.30276429E-01 0.12500000E+03</pdfrwt>
<pdfrwt beam="2">  1       21 0.30537162E-02 0.12500000E+03</pdfrwt>
<totfact> 0.63167018E+06</totfact>
</mgrwt>
</event>
<event>
 3    0  0.1473041E+001  0.1250000E+03  0.7546771E-02  0.1235069E+00
         21   -1    0    0  502  501  0.00000000000E+00  0.00000000000E+00  0.47098981980E+03  0.47098981980E+03  0.00000000000E+00 0.  1.
         21   -1    0    0  501  502 -0.00000000000E+00 -0.00000000000E+00 -0.82937036764E+01  0.82937036764E+01  0.00000000000E+00 0.  1.
         25    1    1    2    0    0  0.00000000000E+00  0.00000000000E+00  0.46269611612E+03  0.47928352348E+03  0.12500000000E+03 0.  0.
<mgrwt>
<rscale>  2 0.12500000E+03</rscale>
<asrwt>0</asrwt>
<pdfrwt beam="1">  1       21 0.72459952E-01 0.12500000E+03</pdfrwt>
<pdfrwt beam="2">  1       21 0.12759548E-02 0.12500000E+03</pdfrwt>
<totfact> 0.43190332E+06</totfact>
</mgrwt>
</event>
<event>
 3    0  0.1674575E+001  0.1250000E+03  0.7546771E-02  0.1235069E+00
         21   -1    0    0  502  501  0.00000000000E+00  0.00000000000E+00  0.12743954853E+03  0.12743954853E+03  0.00000000000E+00 0. -1.
         21   -1    0    0  501  502 -0.00000000000E+00 -0.00000000000E+00 -0.30651787808E+02  0.30651787808E+02  0.00000000000E+00 0. -1.
         25    1    1    2    0    0  0.00000000000E+00  0.00000000000E+00  0.96787760725E+02  0.15809133634E+03  0.12500000000E+03 0.  0.
<mgrwt>
<rscale>  2 0.12500000E+03</rscale>
<asrwt>0</asrwt>
<pdfrwt beam="1">  1       21 0.19606084E-01 0.12500000E+03</pdfrwt>
<pdfrwt beam="2">  1       21 0.47156597E-02 0.12500000E+03</pdfrwt>
<totfact> 0.69753469E+06</totfact>
</mgrwt>
</event>
<event>
 3    0  0.1444045E+001  0.1250000E+03  0.7546771E-02  0.1235069E+00
         21   -1    0    0  502  501  0.00000000000E+00  0.00000000000E+00  0.63719052465E+01  0.63719052465E+01  0.00000000000E+00 0.  1.
         21   -1    0    0  501  502 -0.00000000000E+00 -0.00000000000E+00 -0.61304270056E+03  0.61304270056E+03  0.00000000000E+00 0.  1.
         25    1    1    2    0    0  0.00000000000E+00  0.00000000000E+00 -0.60667079531E+03  0.61941460580E+03  0.12500000000E+03 0.  0.
<mgrwt>
<rscale>  2 0.12500000E+03</rscale>
<asrwt>0</asrwt>
<pdfrwt beam="1">  1       21 0.98029314E-03 0.12500000E+03</pdfrwt>
<pdfrwt beam="2">  1       21 0.94314259E-01 0.12500000E+03</pdfrwt>
<totfact> 0.36229093E+06</totfact>
</mgrwt>
</event>
<event>
 3    0  0.1701724E+001  0.1250000E+03  0.7546771E-02  0.1235069E+00
         21   -1    0    0  502  501  0.00000000000E+00  0.00000000000E+00  0.78573582012E+02  0.78573582012E+02  0.00000000000E+00 0. -1.
         21   -1    0    0  501  502 -0.00000000000E+00 -0.00000000000E+00 -0.49714546543E+02  0.49714546543E+02  0.00000000000E+00 0. -1.
         25    1    1    2    0    0  0.00000000000E+00  0.00000000000E+00  0.28859035468E+02  0.12828812856E+03  0.12500000000E+03 0.  0.
<mgrwt>
<rscale>  2 0.12500000E+03</rscale>
<asrwt>0</asrwt>
<pdfrwt beam="1">  1       21 0.12088243E-01 0.12500000E+03</pdfrwt>
<pdfrwt beam="2">  1       21 0.76483918E-02 0.12500000E+03</pdfrwt>
<totfact> 0.73594673E+06</totfact>
</mgrwt>
</event>
<event>
 3    0  0.1697932E+001  0.1250000E+03  0.7546771E-02  0.1235069E+00
         21   -1    0    0  502  501  0.00000000000E+00  0.00000000000E+00  0.12780661688E+03  0.12780661688E+03  0.00000000000E+00 0.  1.
         21   -1    0    0  501  502 -0.00000000000E+00 -0.00000000000E+00 -0.30563754017E+02  0.30563754017E+02  0.00000000000E+00 0.  1.
         25    1    1    2    0    0  0.00000000000E+00  0.00000000000E+00  0.97242862859E+02  0.15837037089E+03  0.12500000000E+03 0.  0.
<mgrwt>
<rscale>  2 0.12500000E+03</rscale>
<asrwt>0</asrwt>
<pdfrwt beam="1">  1       21 0.19662556E-01 0.12500000E+03</pdfrwt>
<pdfrwt beam="2">  1       21 0.47021161E-02 0.12500000E+03</pdfrwt>
<totfact> 0.69719169E+06</totfact>
</mgrwt>
</event>
<event>
 3    0  0.1368989E+001  0.1250000E+03  0.7546771E-02  0.1235069E+00
         21   -1    0    0  502  501  0.00000000000E+00  0.00000000000E+00  0.99809790134E+03  0.99809790134E+03  0.00000000000E+00 0. -1.
         21   -1    0    0  501  502 -0.00000000000E+00 -0.00000000000E+00 -0.39136942325E+01  0.39136942325E+01  0.00000000000E+00 0. -1.
         25    1    1    2    0    0  0.00000000000E+00  0.00000000000E+00  0.99418420711E+03  0.10020115956E+04  0.12500000000E+03 0.  0.
<mgrwt>
<rscale>  2 0.12500000E+03</rscale>
<asrwt>0</asrwt>
<pdfrwt beam="1">  1       21 0.15355332E+00 0.12500000E+03</pdfrwt>
<pdfrwt beam="2">  1       21 0.60210760E-03 0.12500000E+03</pdfrwt>
<totfact> 0.23568549E+06</totfact>
</mgrwt>
</event>
<event>
 3    0  0.1713354E+001  0.1250000E+03  0.7546771E-02  0.1235069E+00
         21   -1    0    0  502  501  0.00000000000E+00  0.00000000000E+00  0.11315215885E+03  0.11315215885E+03  0.00000000000E+00 0.  1.
         21   -1    0    0  501  502 -0.00000000000E+00 -0.00000000000E+00 -0.34522098737E+02  0.34522098737E+02  0.00000000000E+00 0.  1.
         25    1    1    2    0    0  0.00000000000E+00  0.00000000000E+00  0.78630060110E+02  0.14767425758E+03  0.12500000000E+03 0.  0.
<mgrwt>
<rscale>  2 0.12500000E+03</rscale>
<asrwt>0</asrwt>
<pdfrwt beam="1">  1       21 0.17408024E-01 0.12500000E+03</pdfrwt>
<pdfrwt beam="2">  1       21 0.53110922E-02 0.12500000E+03</pdfrwt>
<totfact> 0.71052593E+06</totfact>
</mgrwt>
</event>
<event>
 3    0  0.1563814E+001  0.1250000E+03  0.7546771E-02  0.1235069E+00
         21   -1    0    0  502  501  0.00000000000E+00  0.00000000000E+00  0.11976631118E+02  0.11976631118E+02  0.00000000000E+00 0.  1.
         21   -1    0    0  501  502 -0.00000000000E+00 -0.00000000000E+00 -0.32615599174E+03  0.32615599174E+03  0.00000000000E+00 0.  1.
         25    1    1    2    0    0  0.00000000000E+00  0.00000000000E+00 -0.31417936062E+03  0.33813262285E+03  0.12500000000E+03 0.  0.
<mgrwt>
<rscale>  2 0.12500000E+03</rscale>
<asrwt>0</asrwt>
<pdfrwt beam="1">  1       21 0.18425584E-02 0.12500000E+03</pdfrwt>
<pdfrwt beam="2">  1       21 0.50177851E-01 0.12500000E+03</pdfrwt>
<totfact> 0.52426991E+06</totfact>
</mgrwt>
</event>
<event>
 3    0  0.1541274E+001  0.1250000E+03  0.7546771E-02  0.1235069E+00
         21   -1    0    0  502  501  0.00000000000E+00  0.00000000000E+00  0.10047155431E+02  0.10047155431E+02  0.00000000000E+00 0.  1.
         21   -1    0    0  501  502 -0.00000000000E+00 -0.00000000000E+00 -0.38879163629E+03  0.38879163629E+03  0.00000000000E+00 0.  1.
         25    1    1    2    0    0  0.00000000000E+00  0.00000000000E+00 -0.37874448086E+03  0.39883879172E+03  0.12500000000E+03 0.  0.
<mgrwt>
<rscale>  2 0.12500000E+03</rscale>
<asrwt>0</asrwt>
<pdfrwt beam="1">  1       21 0.15457162E-02 0.12500000E+03</pdfrwt>
<pdfrwt beam="2">  1       21 0.59814097E-01 0.12500000E+03</pdfrwt>
<totfact> 0.48118468E+06</totfact>
</mgrwt>
</event>
<event>
 3    0  0.1368989E+001  0.1250000E+03  0.7546771E-02  0.1235069E+00
         21   -1    0    0  502  501  0.00000000000E+00  0.00000000000E+00  0.39953164696E+01  0.39953164696E+01  0.00000000000E+00 0. -1.
         21   -1    0    0  501  502 -0.00000000000E+00 -0.00000000000E+00 -0.97770728044E+03  0.97770728044E+03  0.00000000000E+00 0. -1.
         25    1    1    2    0    0  0.00000000000E+00  0.00000000000E+00 -0.97371196397E+03  0.98170259691E+03  0.12500000000E+03 0.  0.
<mgrwt>
<rscale>  2 0.12500000E+03</rscale>
<asrwt>0</asrwt>
<pdfrwt beam="1">  1       21 0.61466351E-03 0.12500000E+03</pdfrwt>
<pdfrwt beam="2">  1       21 0.15041664E+00 0.12500000E+03</pdfrwt>
<totfact> 0.24081360E+06</totfact>
</mgrwt>
</event>
<event>
 3    0  0.1653433E+001  0.1250000E+03  0.7546771E-02  0.1235069E+00
         21   -1    0    0  502  501  0.00000000000E+00  0.00000000000E+00  0.20322591255E+03  0.20322591255E+03  0.00000000000E+00 0.  1.
         21   -1    0    0  501  502 -0.00000000000E+00 -0.00000000000E+00 -0.19221220124E+02  0.19221220124E+02  0.00000000000E+00 0.  1.
         25    1    1    2    0    0  0.00000000000E+00  0.00000000000E+00  0.18400469242E+03  0.22244713267E+03  0.12500000000E+03 0.  0.
<mgrwt>
<rscale>  2 0.12500000E+03</rscale>
<asrwt>0</asrwt>
<pdfrwt beam="1">  1       21 0.31265523E-01 0.12500000E+03</pdfrwt>
<pdfrwt beam="2">  1       21 0.29571109E-02 0.12500000E+03</pdfrwt>
<totfact> 0.62573279E+06</totfact>
</mgrwt>
</event>
<event>
 3    0  0.1672618E+001  0.1250000E+03  0.7546771E-02  0.1235069E+00
         21   -1    0    0  502  501  0.00000000000E+00  0.00000000000E+00  0.22666058071E+02  0.22666058071E+02  0.00000000000E+00 0.  1.
         21   -1    0    0  501  502 -0.00000000000E+00 -0.00000000000E+00 -0.17233918609E+03  0.17233918609E+03  0.00000000000E+00 0.  1.
         25    1    1    2    0    0  0.00000000000E+00  0.00000000000E+00 -0.14967312802E+03  0.19500524417E+03  0.12500000000E+03 0.  0.
<mgrwt>
<rscale>  2 0.12500000E+03</rscale>
<asrwt>0</asrwt>
<pdfrwt beam="1">  1       21 0.34870858E-02 0.12500000E+03</pdfrwt>
<pdfrwt beam="2">  1       21 0.26513721E-01 0.12500000E+03</pdfrwt>
<totfact> 0.65470448E+06</totfact>
</mgrwt>
</event>
<event>
 3    0  0.1716204E+001  0.1250000E+03  0.7546771E-02  0.1235069E+00
         21   -1    0    0  502  501  0.00000000000E+00  0.00000000000E+00  0.11180500713E+03  0.11180500713E+03  0.00000000000E+00 0.  1.
         21   -1    0    0  501  502 -0.00000000000E+00 -0.00000000000E+00 -0.34938059575E+02  0.34938059575E+02  0.00000000000E+00 0.  1.
         25    1    1    2    0    0  0.00000000000E+00  0.00000000000E+00  0.76866947556E+02  0.14674306671E+03  0.12500000000E+03 0.  0.
<mgrwt>
<rscale>  2 0.12500000E+03</rscale>
<asrwt>0</asrwt>
<pdfrwt beam="1">  1       21 0.17200770E-01 0.12500000E+03</pdfrwt>
<pdfrwt beam="2">  1       21 0.53750861E-02 0.12500000E+03</pdfrwt>
<totfact> 0.71170770E+06</totfact>
</mgrwt>
</event>
<event>
 3    0  0.1700220E+001  0.1250000E+03  0.7546771E-02  0.1235069E+00
         21   -1    0    0  502  501  0.00000000000E+00  0.00000000000E+00  0.27486822450E+02  0.27486822450E+02  0.00000000000E+00 0.  1.
         21   -1    0    0  501  502 -0.00000000000E+00 -0.00000000000E+00 -0.14211355303E+03  0.14211355303E+03  0.00000000000E+00 0.  1.
         25    1    1    2    0    0  0.00000000000E+00  0.00000000000E+00 -0.11462673058E+03  0.16960037548E+03  0.12500000000E+03 0.  0.
<mgrwt>
<rscale>  2 0.12500000E+03</rscale>
<asrwt>0</asrwt>
<pdfrwt beam="1">  1       21 0.42287420E-02 0.12500000E+03</pdfrwt>
<pdfrwt beam="2">  1       21 0.21863623E-01 0.12500000E+03</pdfrwt>
<totfact> 0.68365040E+06</totfact>
</mgrwt>
</event>
<event>
 3    0  0.1726933E+001  0.1250000E+03  0.7546771E-02  0.1235069E+00
         21   -1    0    0  502  501  0.00000000000E+00  0.00000000000E+00  0.50038533822E+02  0.50038533822E+02  0.00000000000E+00 0.  1.
         21   -1    0    0  501  502 -0.00000000000E+00 -0.00000000000E+00 -0.78064837269E+02  0.78064837269E+02  0.00000000000E+00 0.  1.
         25    1    1    2    0    0  0.00000000000E+00  0.00000000000E+00 -0.28026303446E+02  0.12810337109E+03  0.12500000000E+03 0.  0.
<mgrwt>
<rscale>  2 0.12500000E+03</rscale>
<asrwt>0</asrwt>
<pdfrwt beam="1">  1       21 0.76982360E-02 0.12500000E+03</pdfrwt>
<pdfrwt beam="2">  1       21 0.12009975E-01 0.12500000E+03</pdfrwt>
<totfact> 0.73619600E+06</totfact>
</mgrwt>
</event>
<event>
 3    0  0.1655996E+001  0.1250000E+03  0.7546771E-02  0.1235069E+00
         21   -1    0    0  502  501  0.00000000000E+00  0.00000000000E+00  0.21086869370E+03  0.21086869370E+03  0.00000000000E+00 0.  1.
         21   -1    0    0  501  502 -0.00000000000E+00 -0.00000000000E+00 -0.18524561098E+02  0.18524561098E+02  0.00000000000E+00 0.  1.
         25    1    1    2    0    0  0.00000000000E+00  0.00000000000E+00  0.19234413260E+03  0.22939325479E+03  0.12500000000E+03 0.  0.
<mgrwt>
<rscale>  2 0.12500000E+03</rscale>
<asrwt>0</asrwt>
<pdfrwt beam="1">  1       21 0.32441336E-01 0.12500000E+03</pdfrwt>
<pdfrwt beam="2">  1       21 0.28499326E-02 0.12500000E+03</pdfrwt>
<totfact> 0.61874414E+06</totfact>
</mgrwt>
</event>
<event>
 3    0  0.1687091E+001  0.1250000E+03  0.7546771E-02  0.1235069E+00
         21   -1    0    0  502  501  0.00000000000E+00  0.00000000000E+00  0.32999909752E+02  0.32999909752E+02  0.00000000000E+00 0. -1.
         21   -1    0    0  501  502 -0.00000000000E+00 -0.00000000000E+00 -0.11837153584E+03  0.11837153584E+03  0.00000000000E+00 0. -1.
         25    1    1    2    0    0  0.00000000000E+00  0.00000000000E+00 -0.85371626090E+02  0.15137144559E+03  0.12500000000E+03 0.  0.
<mgrwt>
<rscale>  2 0.12500000E+03</rscale>
<asrwt>0</asrwt>
<pdfrwt beam="1">  1       21 0.50769092E-02 0.12500000E+03</pdfrwt>
<pdfrwt beam="2">  1       21 0.18211006E-01 0.12500000E+03</pdfrwt>
<totfact> 0.70587345E+06</totfact>
</mgrwt>
</event>
<event>
 3    0  0.1671210E+001  0.1250000E+03  0.7546771E-02  0.1235069E+00
         21   -1    0    0  502  501  0.00000000000E+00  0.00000000000E+00  0.18611301994E+03  0.18611301994E+03  0.00000000000E+00 0.  1.
         21   -1    0    0  501  502 -0.00000000000E+00 -0.00000000000E+00 -0.20988590703E+02  0.20988590703E+02  0.00000000000E+00 0.  1.
         25    1    1    2    0    0  0.00000000000E+00  0.00000000000E+00  0.16512442924E+03  0.20710161064E+03  0.12500000000E+03 0.  0.
<mgrwt>
<rscale>  2 0.12500000E+03</rscale>
<asrwt>0</asrwt>
<pdfrwt beam="1">  1       21 0.28632771E-01 0.12500000E+03</pdfrwt>
<pdfrwt beam="2">  1       21 0.32290141E-02 0.12500000E+03</pdfrwt>
<totfact> 0.64165776E+06</totfact>
</mgrwt>
</event>
<event>
 3    0  0.1541588E+001  0.1250000E+03  0.7546771E-02  0.1235069E+00
         21   -1    0    0  502  501  0.00000000000E+00  0.00000000000E+00  0.11977370477E+02  0.11977370477E+02  0.00000000000E+00 0. -1.
         21   -1    0    0  501  502 -0.00000000000E+00 -0.00000000000E+00 -0.32613585824E+03  0.32613585824E+03  0.00000000000E+00 0. -1.
         25    1    1    2    0    0  0.00000000000E+00  0.00000000000E+00 -0.31415848776E+03  0.33811322872E+03  0.12500000000E+03 0.  0.
<mgrwt>
<rscale>  2 0.12500000E+03</rscale>
<asrwt>0</asrwt>
<pdfrwt beam="1">  1       21 0.18426722E-02 0.12500000E+03</pdfrwt>
<pdfrwt beam="2">  1       21 0.50174752E-01 0.12500000E+03</pdfrwt>
<totfact> 0.52428464E+06</totfact>
</mgrwt>
</event>
<event>
 3    0  0.1368989E+001  0.1250000E+03  0.7546771E-02  0.1235069E+00
         21   -1    0    0  502  501  0.00000000000E+00  0.00000000000E+00  0.86837161798E+03  0.86837161798E+03  0.00000000000E+00 0.  1.
         21   -1    0    0  501  502 -0.00000000000E+00 -0.00000000000E+00 -0.44983621288E+01  0.44983621288E+01  0.00000000000E+00 0.  1.
         25    1    1    2    0    0  0.00000000000E+00  0.00000000000E+00  0.86387325585E+03  0.87286998010E+03  0.12500000000E+03 0.  0.
<mgrwt>
<rscale>  2 0.12500000E+03</rscale>
<asrwt>0</asrwt>
<pdfrwt beam="1">  1       21 0.13359550E+00 0.12500000E+03</pdfrwt>
<pdfrwt beam="2">  1       21 0.69205640E-03 0.12500000E+03</pdfrwt>
<totfact> 0.27085591E+06</totfact>
</mgrwt>
</event>
<event>
 3    0  0.1729981E+001  0.1250000E+03  0.7546771E-02  0.1235069E+00
         21   -1    0    0  502  501  0.00000000000E+00  0.00000000000E+00  0.61293369829E+02  0.61293369829E+02  0.00000000000E+00 0.  1.
         21   -1    0    0  501  502 -0.00000000000E+00 -0.00000000000E+00 -0.63730384068E+02  0.63730384068E+02  0.00000000000E+00 0.  1.
         25    1    1    2    0    0  0.00000000000E+00  0.00000000000E+00 -0.24370142389E+01  0.12502375390E+03  0.12500000000E+03 0.  0.
<mgrwt>
<rscale>  2 0.12500000E+03</rscale>
<asrwt>0</asrwt>
<pdfrwt beam="1">  1       21 0.94297492E-02 0.12500000E+03</pdfrwt>
<pdfrwt beam="2">  1       21 0.98046744E-02 0.12500000E+03</pdfrwt>
<totfact> 0.74040373E+06</totfact>
</mgrwt>
</event>
<event>
 3    0  0.1512257E+001  0.1250000E+03  0.7546771E-02  0.1235069E+00
         21   -1    0    0  502  501  0.00000000000E+00  0.00000000000E+00  0.99583372217E+01  0.99583372217E+01  0.00000000000E+00 0. -1.
         21   -1    0    0  501  502 -0.00000000000E+00 -0.00000000000E+00 -0.39225926106E+03  0.39225926106E+03  0.00000000000E+00 0. -1.
         25    1    1    2    0    0  0.00000000000E+00  0.00000000000E+00 -0.38230092384E+03  0.40221759829E+03  0.12500000000E+03 0.  0.
<mgrwt>
<rscale>  2 0.12500000E+03</rscale>
<asrwt>0</asrwt>
<pdfrwt beam="1">  1       21 0.15320521E-02 0.12500000E+03</pdfrwt>
<pdfrwt beam="2">  1       21 0.60347571E-01 0.12500000E+03</pdfrwt>
<totfact> 0.47894610E+06</totfact>
</mgrwt>
</event>
<event>
 3    0  0.1704353E+001  0.1250000E+03  0.7546771E-02  0.1235069E+00
         21   -1    0    0  502  501  0.00000000000E+00  0.00000000000E+00  0.12497610129E+03  0.12497610129E+03  0.00000000000E+00 0.  1.
         21   -1    0    0  501  502 -0.00000000000E+00 -0.00000000000E+00 -0.31255975820E+02  0.31255975820E+02  0.00000000000E+00 0.  1.
         25    1    1    2    0    0  0.00000000000E+00  0.00000000000E+00  0.93720125470E+02  0.15623207711E+03  0.12500000000E+03 0.  0.
<mgrwt>
<rscale>  2 0.12500000E+03</rscale>
<asrwt>0</asrwt>
<pdfrwt beam="1">  1       21 0.19227092E-01 0.12500000E+03</pdfrwt>
<pdfrwt beam="2">  1       21 0.48086117E-02 0.12500000E+03</pdfrwt>
<totfact> 0.69982850E+06</totfact>
</mgrwt>
</event>
<event>
 3    0  0.1663632E+001  0.1250000E+03  0.7546771E-02  0.1235069E+00
         21   -1    0    0  502  501  0.00000000000E+00  0.00000000000E+00  0.28337186361E+02  0.28337186361E+02  0.00000000000E+00 0. -1.
         21   -1    0    0  501  502 -0.00000000000E+00 -0.00000000000E+00 -0.13784890110E+03  0.13784890110E+03  0.00000000000E+00 0. -1.
         25    1    1    2    0    0  0.00000000000E+00  0.00000000000E+00 -0.10951171474E+03  0.16618608746E+03  0.12500000000E+03 0.  0.
<mgrwt>
<rscale>  2 0.12500000E+03</rscale>
<asrwt>0</asrwt>
<pdfrwt beam="1">  1       21 0.43595672E-02 0.12500000E+03</pdfrwt>
<pdfrwt beam="2">  1       21 0.21207523E-01 0.12500000E+03</pdfrwt>
<totfact> 0.68771412E+06</totfact>
</mgrwt>
</event>
<event>
 3    0  0.1699844E+001  0.1250000E+03  0.7546771E-02  0.1235069E+00
         21   -1    0    0  502  501  0.00000000000E+00  0.00000000000E+00  0.85396314238E+02  0.85396314238E+02  0.00000000000E+00 0. -1.
         21   -1    0    0  501  502 -0.00000000000E+00 -0.00000000000E+00 -0.45742606515E+02  0.45742606515E+02  0.00000000000E+00 0. -1.
         25    1    1    2    0    0  0.00000000000E+00  0.00000000000E+00  0.39653707723E+02  0.13113892075E+03  0.12500000000E+03 0.  0.
<mgrwt>
<rscale>  2 0.12500000E+03</rscale>
<asrwt>0</asrwt>
<pdfrwt beam="1">  1       21 0.13137894E-01 0.12500000E+03</pdfrwt>
<pdfrwt beam="2">  1       21 0.70373241E-02 0.12500000E+03</pdfrwt>
<totfact> 0.73211957E+06</totfact>
</mgrwt>
</event>
<event>
 3    0  0.1394789E+001  0.1250000E+03  0.7546771E-02  0.1235069E+00
         21   -1    0    0  502  501  0.00000000000E+00  0.00000000000E+00  0.56122206005E+03  0.56122206005E+03  0.00000000000E+00 0. -1.
         21   -1    0    0  501  502 -0.00000000000E+00 -0.00000000000E+00 -0.69602574062E+01  0.69602574062E+01  0.00000000000E+00 0. -1.
         25    1    1    2    0    0  0.00000000000E+00  0.00000000000E+00  0.55426180265E+03  0.56818231746E+03  0.12500000000E+03 0.  0.
<mgrwt>
<rscale>  2 0.12500000E+03</rscale>
<asrwt>0</asrwt>
<pdfrwt beam="1">  1       21 0.86341819E-01 0.12500000E+03</pdfrwt>
<pdfrwt beam="2">  1       21 0.10708093E-02 0.12500000E+03</pdfrwt>
<totfact> 0.38572260E+06</totfact>
</mgrwt>
</event>
<event>
 3    0  0.1726132E+001  0.1250000E+03  0.7546771E-02  0.1235069E+00
         21   -1    0    0  502  501  0.00000000000E+00  0.00000000000E+00  0.48015064615E+02  0.48015064615E+02  0.00000000000E+00 0.  1.
         21   -1    0    0  501  502 -0.00000000000E+00 -0.00000000000E+00 -0.81354675481E+02  0.81354675481E+02  0.00000000000E+00 0.  1.
         25    1    1    2    0    0  0.00000000000E+00  0.00000000000E+00 -0.33339610866E+02  0.12936974010E+03  0.12500000000E+03 0.  0.
<mgrwt>
<rscale>  2 0.12500000E+03</rscale>
<asrwt>0</asrwt>
<pdfrwt beam="1">  1       21 0.73869331E-02 0.12500000E+03</pdfrwt>
<pdfrwt beam="2">  1       21 0.12516104E-01 0.12500000E+03</pdfrwt>
<totfact> 0.73449272E+06</totfact>
</mgrwt>
</event>
<event>
 3    0  0.1682086E+001  0.1250000E+03  0.7546771E-02  0.1235069E+00
         21   -1    0    0  502  501  0.00000000000E+00  0.00000000000E+00  0.10967536616E+03  0.10967536616E+03  0.00000000000E+00 0. -1.
         21   -1    0    0  501  502 -0.00000000000E+00 -0.00000000000E+00 -0.35616475574E+02  0.35616475574E+02  0.00000000000E+00 0. -1.
         25    1    1    2    0    0  0.00000000000E+00  0.00000000000E+00  0.74058890589E+02  0.14529184174E+03  0.12500000000E+03 0.  0.
<mgrwt>
<rscale>  2 0.12500000E+03</rscale>
<asrwt>0</asrwt>
<pdfrwt beam="1">  1       21 0.16873133E-01 0.12500000E+03</pdfrwt>
<pdfrwt beam="2">  1       21 0.54794578E-02 0.12500000E+03</pdfrwt>
<totfact> 0.71355771E+06</totfact>
</mgrwt>
</event>
<event>
 3    0  0.1634113E+001  0.1250000E+03  0.7546771E-02  0.1235069E+00
         21   -1    0    0  502  501  0.00000000000E+00  0.00000000000E+00  0.22814047399E+03  0.22814047399E+03  0.00000000000E+00 0.  1.
         21   -1    0    0  501  502 -0.00000000000E+00 -0.00000000000E+00 -0.17122126257E+02  0.17122126257E+02  0.00000000000E+00 0.  1.
         25    1    1    2    0    0  0.00000000000E+00  0.00000000000E+00  0.21101834774E+03  0.24526260025E+03  0.12500000000E+03 0.  0.
<mgrwt>
<rscale>  2 0.12500000E+03</rscale>
<asrwt>0</asrwt>
<pdfrwt beam="1">  1       21 0.35098532E-01 0.12500000E+03</pdfrwt>
<pdfrwt beam="2">  1       21 0.26341734E-02 0.12500000E+03</pdfrwt>
<totfact> 0.60327099E+06</totfact>
</mgrwt>
</event>
<event>
 3    0  0.1563523E+001  0.1250000E+03  0.7546771E-02  0.1235069E+00
         21   -1    0    0  502  501  0.00000000000E+00  0.00000000000E+00  0.11597066048E+02  0.11597066048E+02  0.00000000000E+00 0.  1.
         21   -1    0    0  501  502 -0.00000000000E+00 -0.00000000000E+00 -0.33683088325E+03  0.33683088325E+03  0.00000000000E+00 0.  1.
         25    1    1    2    0    0  0.00000000000E+00  0.00000000000E+00 -0.32523381720E+03  0.34842794930E+03  0.12500000000E+03 0.  0.
<mgrwt>
<rscale>  2 0.12500000E+03</rscale>
<asrwt>0</asrwt>
<pdfrwt beam="1">  1       21 0.17841637E-02 0.12500000E+03</pdfrwt>
<pdfrwt beam="2">  1       21 0.51820146E-01 0.12500000E+03</pdfrwt>
<totfact> 0.51654737E+06</totfact>
</mgrwt>
</event>
<event>
 3    0  0.1631458E+001  0.1250000E+03  0.7546771E-02  0.1235069E+00
         21   -1    0    0  502  501  0.00000000000E+00  0.00000000000E+00  0.17640905226E+02  0.17640905226E+02  0.00000000000E+00 0.  1.
         21   -1    0    0  501  502 -0.00000000000E+00 -0.00000000000E+00 -0.22143138064E+03  0.22143138064E+03  0.00000000000E+00 0.  1.
         25    1    1    2    0    0  0.00000000000E+00  0.00000000000E+00 -0.20379047541E+03  0.23907228586E+03  0.12500000000E+03 0.  0.
<mgrwt>
<rscale>  2 0.12500000E+03</rscale>
<asrwt>0</asrwt>
<pdfrwt beam="1">  1       21 0.27139853E-02 0.12500000E+03</pdfrwt>
<pdfrwt beam="2">  1       21 0.34066367E-01 0.12500000E+03</pdfrwt>
<totfact> 0.60922550E+06</totfact>
</mgrwt>
</event>
<event>
 3    0  0.1694253E+001  0.1250000E+03  0.7546771E-02  0.1235069E+00
         21   -1    0    0  502  501  0.00000000000E+00  0.00000000000E+00  0.40125470906E+02  0.40125470906E+02  0.00000000000E+00 0. -1.
         21   -1    0    0  501  502 -0.00000000000E+00 -0.00000000000E+00 -0.97350882415E+02  0.97350882415E+02  0.00000000000E+00 0. -1.
         25    1    1    2    0    0  0.00000000000E+00  0.00000000000E+00 -0.57225411509E+02  0.13747635332E+03  0.12500000000E+03 0.  0.
<mgrwt>
<rscale>  2 0.12500000E+03</rscale>
<asrwt>0</asrwt>
<pdfrwt beam="1">  1       21 0.61731494E-02 0.12500000E+03</pdfrwt>
<pdfrwt beam="2">  1       21 0.14977059E-01 0.12500000E+03</pdfrwt>
<totfact> 0.72370216E+06</totfact>
</mgrwt>
</event>
<event>
 3    0  0.1682333E+001  0.1250000E+03  0.7546771E-02  0.1235069E+00
         21   -1    0    0  502  501  0.00000000000E+00  0.00000000000E+00  0.13883590609E+03  0.13883590609E+03  0.00000000000E+00 0. -1.
         21   -1    0    0  501  502 -0.00000000000E+00 -0.00000000000E+00 -0.28135733112E+02  0.28135733112E+02  0.00000000000E+00 0. -1.
         25    1    1    2    0    0  0.00000000000E+00  0.00000000000E+00  0.11070017298E+03  0.16697163920E+03  0.12500000000E+03 0.  0.
<mgrwt>
<rscale>  2 0.12500000E+03</rscale>
<asrwt>0</asrwt>
<pdfrwt beam="1">  1       21 0.21359370E-01 0.12500000E+03</pdfrwt>
<pdfrwt beam="2">  1       21 0.43285744E-02 0.12500000E+03</pdfrwt>
<totfact> 0.68677512E+06</totfact>
</mgrwt>
</event>
<event>
 3    0  0.1704047E+001  0.1250000E+03  0.7546771E-02  0.1235069E+00
         21   -1    0    0  502  501  0.00000000000E+00  0.00000000000E+00  0.72734028258E+02  0.72734028258E+02  0.00000000000E+00 0. -1.
         21   -1    0    0  501  502 -0.00000000000E+00 -0.00000000000E+00 -0.53705948833E+02  0.53705948833E+02  0.00000000000E+00 0. -1.
         25    1    1    2    0    0  0.00000000000E+00  0.00000000000E+00  0.19028079425E+02  0.12643997709E+03  0.12500000000E+03 0.  0.
<mgrwt>
<rscale>  2 0.12500000E+03</rscale>
<asrwt>0</asrwt>
<pdfrwt beam="1">  1       21 0.11189850E-01 0.12500000E+03</pdfrwt>
<pdfrwt beam="2">  1       21 0.82624537E-02 0.12500000E+03</pdfrwt>
<totfact> 0.73845590E+06</totfact>
</mgrwt>
</event>
<event>
 3    0  0.1698866E+001  0.1250000E+03  0.7546771E-02  0.1235069E+00
         21   -1    0    0  502  501  0.00000000000E+00  0.00000000000E+00  0.86065002047E+02  0.86065002047E+02  0.00000000000E+00 0. -1.
         21   -1    0    0  501  502 -0.00000000000E+00 -0.00000000000E+00 -0.45387206264E+02  0.45387206264E+02  0.00000000000E+00 0. -1.
         25    1    1    2    0    0  0.00000000000E+00  0.00000000000E+00  0.40677795783E+02  0.13145220831E+03  0.12500000000E+03 0.  0.
<mgrwt>
<rscale>  2 0.12500000E+03</rscale>
<asrwt>0</asrwt>
<pdfrwt beam="1">  1       21 0.13240770E-01 0.12500000E+03</pdfrwt>
<pdfrwt beam="2">  1       21 0.69826471E-02 0.12500000E+03</pdfrwt>
<totfact> 0.73169797E+06</totfact>
</mgrwt>
</event>
<event>
 3    0  0.1508716E+001  0.1250000E+03  0.7546771E-02  0.1235069E+00
         21   -1    0    0  502  501  0.00000000000E+00  0.00000000000E+00  0.91979964821E+01  0.91979964821E+01  0.00000000000E+00 0.  1.
         21   -1    0    0  501  502 -0.00000000000E+00 -0.00000000000E+00 -0.42468487649E+03  0.42468487649E+03  0.00000000000E+00 0.  1.
         25    1    1    2    0    0  0.00000000000E+00  0.00000000000E+00 -0.41548688001E+03  0.43388287298E+03  0.12500000000E+03 0.  0.
<mgrwt>
<rscale>  2 0.12500000E+03</rscale>
<asrwt>0</asrwt>
<pdfrwt beam="1">  1       21 0.14150764E-02 0.12500000E+03</pdfrwt>
<pdfrwt beam="2">  1       21 0.65336134E-01 0.12500000E+03</pdfrwt>
<totfact> 0.45872242E+06</totfact>
</mgrwt>
</event>
<event>
 3    0  0.1640039E+001  0.1250000E+03  0.7546771E-02  0.1235069E+00
         21   -1    0    0  502  501  0.00000000000E+00  0.00000000000E+00  0.21746224743E+03  0.21746224743E+03  0.00000000000E+00 0.  1.
         21   -1    0    0  501  502 -0.00000000000E+00 -0.00000000000E+00 -0.17962888024E+02  0.17962888024E+02  0.00000000000E+00 0.  1.
         25    1    1    2    0    0  0.00000000000E+00  0.00000000000E+00  0.19949935941E+03  0.23542513545E+03  0.12500000000E+03 0.  0.
<mgrwt>
<rscale>  2 0.12500000E+03</rscale>
<asrwt>0</asrwt>
<pdfrwt beam="1">  1       21 0.33455729E-01 0.12500000E+03</pdfrwt>
<pdfrwt beam="2">  1       21 0.27635214E-02 0.12500000E+03</pdfrwt>
<totfact> 0.61278193E+06</totfact>
</mgrwt>
</event>
<event>
 3    0  0.1695461E+001  0.1250000E+03  0.7546771E-02  0.1235069E+00
         21   -1    0    0  502  501  0.00000000000E+00  0.00000000000E+00  0.44435511597E+02  0.44435511597E+02  0.00000000000E+00 0. -1.
         21   -1    0    0  501  502 -0.00000000000E+00 -0.00000000000E+00 -0.87908293605E+02  0.87908293605E+02  0.00000000000E+00 0. -1.
         25    1    1    2    0    0  0.00000000000E+00  0.00000000000E+00 -0.43472782008E+02  0.13234380520E+03  0.12500000000E+03 0.  0.
<mgrwt>
<rscale>  2 0.12500000E+03</rscale>
<asrwt>0</asrwt>
<pdfrwt beam="1">  1       21 0.68362326E-02 0.12500000E+03</pdfrwt>
<pdfrwt beam="2">  1       21 0.13524353E-01 0.12500000E+03</pdfrwt>
<totfact> 0.73050150E+06</totfact>
</mgrwt>
</event>
<event>
 3    0  0.1569292E+001  0.1250000E+03  0.7546771E-02  0.1235069E+00
         21   -1    0    0  502  501  0.00000000000E+00  0.00000000000E+00  0.13226397995E+02  0.13226397995E+02  0.00000000000E+00 0. -1.
         21   -1    0    0  501  502 -0.00000000000E+00 -0.00000000000E+00 -0.29533740037E+03  0.29533740037E+03  0.00000000000E+00 0. -1.
         25    1    1    2    0    0  0.00000000000E+00  0.00000000000E+00 -0.28211100237E+03  0.30856379836E+03  0.12500000000E+03 0.  0.
<mgrwt>
<rscale>  2 0.12500000E+03</rscale>
<asrwt>0</asrwt>
<pdfrwt beam="1">  1       21 0.20348306E-02 0.12500000E+03</pdfrwt>
<pdfrwt beam="2">  1       21 0.45436520E-01 0.12500000E+03</pdfrwt>
<totfact> 0.54751915E+06</totfact>
</mgrwt>
</event>
<event>
 3    0  0.1702300E+001  0.1250000E+03  0.7546771E-02  0.1235069E+00
         21   -1    0    0  502  501  0.00000000000E+00  0.00000000000E+00  0.80987586086E+02  0.80987586086E+02  0.00000000000E+00 0. -1.
         21   -1    0    0  501  502 -0.00000000000E+00 -0.00000000000E+00 -0.48232700699E+02  0.48232700699E+02  0.00000000000E+00 0. -1.
         25    1    1    2    0    0  0.00000000000E+00  0.00000000000E+00  0.32754885387E+02  0.12922028678E+03  0.12500000000E+03 0.  0.
<mgrwt>
<rscale>  2 0.12500000E+03</rscale>
<asrwt>0</asrwt>
<pdfrwt beam="1">  1       21 0.12459629E-01 0.12500000E+03</pdfrwt>
<pdfrwt beam="2">  1       21 0.74204155E-02 0.12500000E+03</pdfrwt>
<totfact> 0.73469313E+06</totfact>
</mgrwt>
</event>
<event>
 3    0  0.1700702E+001  0.1250000E+03  0.7546771E-02  0.1235069E+00
         21   -1    0    0  502  501  0.00000000000E+00  0.00000000000E+00  0.49145275968E+02  0.49145275968E+02  0.00000000000E+00 0. -1.
         21   -1    0    0  501  502 -0.00000000000E+00 -0.00000000000E+00 -0.79483733137E+02  0.79483733137E+02  0.00000000000E+00 0. -1.
         25    1    1    2    0    0  0.00000000000E+00  0.00000000000E+00 -0.30338457169E+02  0.12862900911E+03  0.12500000000E+03 0.  0.
<mgrwt>
<rscale>  2 0.12500000E+03</rscale>
<asrwt>0</asrwt>
<pdfrwt beam="1">  1       21 0.75608118E-02 0.12500000E+03</pdfrwt>
<pdfrwt beam="2">  1       21 0.12228266E-01 0.12500000E+03</pdfrwt>
<totfact> 0.73548755E+06</totfact>
</mgrwt>
</event>
<event>
 3    0  0.1720860E+001  0.1250000E+03  0.7546771E-02  0.1235069E+00
         21   -1    0    0  502  501  0.00000000000E+00  0.00000000000E+00  0.96536769679E+02  0.96536769679E+02  0.00000000000E+00 0.  1.
         21   -1    0    0  501  502 -0.00000000000E+00 -0.00000000000E+00 -0.40463856549E+02  0.40463856549E+02  0.00000000000E+00 0.  1.
         25    1    1    2    0    0  0.00000000000E+00  0.00000000000E+00  0.56072913129E+02  0.13700062623E+03  0.12500000000E+03 0.  0.
<mgrwt>
<rscale>  2 0.12500000E+03</rscale>
<asrwt>0</asrwt>
<pdfrwt beam="1">  1       21 0.14851811E-01 0.12500000E+03</pdfrwt>
<pdfrwt beam="2">  1       21 0.62252088E-02 0.12500000E+03</pdfrwt>
<totfact> 0.72432645E+06</totfact>
</mgrwt>
</event>
<event>
 3    0  0.1687989E+001  0.1250000E+03  0.7546771E-02  0.1235069E+00
         21   -1    0    0  502  501  0.00000000000E+00  0.00000000000E+00  0.11361328720E+03  0.11361328720E+03  0.00000000000E+00 0. -1.
         21   -1    0    0  501  502 -0.00000000000E+00 -0.00000000000E+00 -0.34381982041E+02  0.34381982041E+02  0.00000000000E+00 0. -1.
         25    1    1    2    0    0  0.00000000000E+00  0.00000000000E+00  0.79231305157E+02  0.14799526924E+03  0.12500000000E+03 0.  0.
<mgrwt>
<rscale>  2 0.12500000E+03</rscale>
<asrwt>0</asrwt>
<pdfrwt beam="1">  1       21 0.17478967E-01 0.12500000E+03</pdfrwt>
<pdfrwt beam="2">  1       21 0.52895358E-02 0.12500000E+03</pdfrwt>
<totfact> 0.71011949E+06</totfact>
</mgrwt>
</event>
<event>
 3    0  0.1550526E+001  0.1250000E+03  0.7546771E-02  0.1235069E+00
         21   -1    0    0  502  501  0.00000000000E+00  0.00000000000E+00  0.12131345630E+02  0.12131345630E+02  0.00000000000E+00 0. -1.
         21   -1    0    0  501  502 -0.00000000000E+00 -0.00000000000E+00 -0.32199643131E+03  0.32199643131E+03  0.00000000000E+00 0. -1.
         25    1    1    2    0    0  0.00000000000E+00  0.00000000000E+00 -0.30986508568E+03  0.33412777695E+03  0.12500000000E+03 0.  0.
<mgrwt>
<rscale>  2 0.12500000E+03</rscale>
<asrwt>0</asrwt>
<pdfrwt beam="1">  1       21 0.18663608E-02 0.12500000E+03</pdfrwt>
<pdfrwt beam="2">  1       21 0.49537915E-01 0.12500000E+03</pdfrwt>
<totfact> 0.52732438E+06</totfact>
</mgrwt>
</event>
<event>
 3    0  0.1611581E+001  0.1250000E+03  0.7546771E-02  0.1235069E+00
         21   -1    0    0  502  501  0.00000000000E+00  0.00000000000E+00  0.22782672022E+03  0.22782672022E+03  0.00000000000E+00 0. -1.
         21   -1    0    0  501  502 -0.00000000000E+00 -0.00000000000E+00 -0.17145706159E+02  0.17145706159E+02  0.00000000000E+00 0. -1.
         25    1    1    2    0    0  0.00000000000E+00  0.00000000000E+00  0.21068101406E+03  0.24497242637E+03  0.12500000000E+03 0.  0.
<mgrwt>
<rscale>  2 0.12500000E+03</rscale>
<asrwt>0</asrwt>
<pdfrwt beam="1">  1       21 0.35050263E-01 0.12500000E+03</pdfrwt>
<pdfrwt beam="2">  1       21 0.26378011E-02 0.12500000E+03</pdfrwt>
<totfact> 0.60354785E+06</totfact>
</mgrwt>
</event>
<event>
 3    0  0.1677406E+001  0.1250000E+03  0.7546771E-02  0.1235069E+00
         21   -1    0    0  502  501  0.00000000000E+00  0.00000000000E+00  0.15413145397E+03  0.15413145397E+03  0.00000000000E+00 0.  1.
         21   -1    0    0  501  502 -0.00000000000E+00 -0.00000000000E+00 -0.25343626492E+02  0.25343626492E+02  0.00000000000E+00 0.  1.
         25    1    1    2    0    0  0.00000000000E+00  0.00000000000E+00  0.12878782747E+03  0.17947508046E+03  0.12500000000E+03 0.  0.
<mgrwt>
<rscale>  2 0.12500000E+03</rscale>
<asrwt>0</asrwt>
<pdfrwt beam="1">  1       21 0.23712531E-01 0.12500000E+03</pdfrwt>
<pdfrwt beam="2">  1       21 0.38990196E-02 0.12500000E+03</pdfrwt>
<totfact> 0.67211805E+06</totfact>
</mgrwt>
</event>
<event>
 3    0  0.1518784E+001  0.1250000E+03  0.7546771E-02  0.1235069E+00
         21   -1    0    0  502  501  0.00000000000E+00  0.00000000000E+00  0.95547443794E+01  0.95547443794E+01  0.00000000000E+00 0. -1.
         21   -1    0    0  501  502 -0.00000000000E+00 -0.00000000000E+00 -0.40882831030E+03  0.40882831030E+03  0.00000000000E+00 0. -1.
         25    1    1    2    0    0  0.00000000000E+00  0.00000000000E+00 -0.39927356592E+03  0.41838305468E+03  0.12500000000E+03 0.  0.
<mgrwt>
<rscale>  2 0.12500000E+03</rscale>
<asrwt>0</asrwt>
<pdfrwt beam="1">  1       21 0.14699608E-02 0.12500000E+03</pdfrwt>
<pdfrwt beam="2">  1       21 0.62896658E-01 0.12500000E+03</pdfrwt>
<totfact> 0.46845458E+06</totfact>
</mgrwt>
</event>
<event>
 3    0  0.1368989E+001  0.1250000E+03  0.7546771E-02  0.1235069E+00
         21   -1    0    0  502  501  0.00000000000E+00  0.00000000000E+00  0.45663212419E+01  0.45663212419E+01  0.00000000000E+00 0. -1.
         21   -1    0    0  501  502 -0.00000000000E+00 -0.00000000000E+00 -0.85544791814E+03  0.85544791814E+03  0.00000000000E+00 0. -1.
         25    1    1    2    0    0  0.00000000000E+00  0.00000000000E+00 -0.85088159690E+03  0.86001423939E+03  0.12500000000E+03 0.  0.
<mgrwt>
<rscale>  2 0.12500000E+03</rscale>
<asrwt>0</asrwt>
<pdfrwt beam="1">  1       21 0.70251084E-03 0.12500000E+03</pdfrwt>
<pdfrwt beam="2">  1       21 0.13160739E+00 0.12500000E+03</pdfrwt>
<totfact> 0.27468216E+06</totfact>
</mgrwt>
</event>
<event>
 3    0  0.1384946E+001  0.1250000E+03  0.7546771E-02  0.1235069E+00
         21   -1    0    0  502  501  0.00000000000E+00  0.00000000000E+00  0.59751348676E+03  0.59751348676E+03  0.00000000000E+00 0. -1.
         21   -1    0    0  501  502 -0.00000000000E+00 -0.00000000000E+00 -0.65375093392E+01  0.65375093392E+01  0.00000000000E+00 0. -1.
         25    1    1    2    0    0  0.00000000000E+00  0.00000000000E+00  0.59097597743E+03  0.60405099610E+03  0.12500000000E+03 0.  0.
<mgrwt>
<rscale>  2 0.12500000E+03</rscale>
<asrwt>0</asrwt>
<pdfrwt beam="1">  1       21 0.91925109E-01 0.12500000E+03</pdfrwt>
<pdfrwt beam="2">  1       21 0.10057711E-02 0.12500000E+03</pdfrwt>
<totfact> 0.36910081E+06</totfact>
</mgrwt>
</event>
<event>
 3    0  0.1523673E+001  0.1250000E+03  0.7546771E-02  0.1235069E+00
         21   -1    0    0  502  501  0.00000000000E+00  0.00000000000E+00  0.36929192442E+03  0.36929192442E+03  0.00000000000E+00 0. -1.
         21   -1    0    0  501  502 -0.00000000000E+00 -0.00000000000E+00 -0.10577675118E+02  0.10577675118E+02  0.00000000000E+00 0. -1.
         25    1    1    2    0    0  0.00000000000E+00  0.00000000000E+00  0.35871424930E+03  0.37986959953E+03  0.12500000000E+03 0.  0.
<mgrwt>
<rscale>  2 0.12500000E+03</rscale>
<asrwt>0</asrwt>
<pdfrwt beam="1">  1       21 0.56814132E-01 0.12500000E+03</pdfrwt>
<pdfrwt beam="2">  1       21 0.16273349E-02 0.12500000E+03</pdfrwt>
<totfact> 0.49405346E+06</totfact>
</mgrwt>
</event>
<event>
 3    0  0.1368989E+001  0.1250000E+03  0.7546771E-02  0.1235069E+00
         21   -1    0    0  502  501  0.00000000000E+00  0.00000000000E+00  0.29535060237E+01  0.29535060237E+01  0.00000000000E+00 0.  1.
         21   -1    0    0  501  502 -0.00000000000E+00 -0.00000000000E+00 -0.13225806782E+04  0.13225806782E+04  0.00000000000E+00 0.  1.
         25    1    1    2    0    0  0.00000000000E+00  0.00000000000E+00 -0.13196271722E+04  0.13255341843E+04  0.12500000000E+03 0.  0.
<mgrwt>
<rscale>  2 0.12500000E+03</rscale>
<asrwt>0</asrwt>
<pdfrwt beam="1">  1       21 0.45438487E-03 0.12500000E+03</pdfrwt>
<pdfrwt beam="2">  1       21 0.20347425E+00 0.12500000E+03</pdfrwt>
<totfact> 0.16799988E+06</totfact>
</mgrwt>
</event>
<event>
 3    0  0.1368989E+001  0.1250000E+03  0.7546771E-02  0.1235069E+00
         21   -1    0    0  502  501  0.00000000000E+00  0.00000000000E+00  0.16816701662E+04  0.16816701662E+04  0.00000000000E+00 0.  1.
         21   -1    0    0  501  502 -0.00000000000E+00 -0.00000000000E+00 -0.23228395666E+01  0.23228395666E+01  0.00000000000E+00 0.  1.
         25    1    1    2    0    0  0.00000000000E+00  0.00000000000E+00  0.16793473266E+04  0.16839930057E+04  0.12500000000E+03 0.  0.
<mgrwt>
<rscale>  2 0.12500000E+03</rscale>
<asrwt>0</asrwt>
<pdfrwt beam="1">  1       21 0.25871751E+00 0.12500000E+03</pdfrwt>
<pdfrwt beam="2">  1       21 0.35736128E-03 0.12500000E+03</pdfrwt>
<totfact> 0.11471143E+06</totfact>
</mgrwt>
</event>
<event>
 3    0  0.1666632E+001  0.1250000E+03  0.7546771E-02  0.1235069E+00
         21   -1    0    0  502  501  0.00000000000E+00  0.00000000000E+00  0.18798256570E+03  0.18798256570E+03  0.00000000000E+00 0.  1.
         21   -1    0    0  501  502 -0.00000000000E+00 -0.00000000000E+00 -0.20779852564E+02  0.20779852564E+02  0.00000000000E+00 0.  1.
         25    1    1    2    0    0  0.00000000000E+00  0.00000000000E+00  0.16720271314E+03  0.20876241827E+03  0.12500000000E+03 0.  0.
<mgrwt>
<rscale>  2 0.12500000E+03</rscale>
<asrwt>0</asrwt>
<pdfrwt beam="1">  1       21 0.28920394E-01 0.12500000E+03</pdfrwt>
<pdfrwt beam="2">  1       21 0.31969005E-02 0.12500000E+03</pdfrwt>
<totfact> 0.63989980E+06</totfact>
</mgrwt>
</event>
<event>
 3    0  0.1475927E+001  0.1250000E+03  0.7546771E-02  0.1235069E+00
         21   -1    0    0  502  501  0.00000000000E+00  0.00000000000E+00  0.52704819672E+03  0.52704819672E+03  0.00000000000E+00 0.  1.
         21   -1    0    0  501  502 -0.00000000000E+00 -0.00000000000E+00 -0.74115612658E+01  0.74115612658E+01  0.00000000000E+00 0.  1.
         25    1    1    2    0    0  0.00000000000E+00  0.00000000000E+00  0.51963663545E+03  0.53445975798E+03  0.12500000000E+03 0.  0.
<mgrwt>
<rscale>  2 0.12500000E+03</rscale>
<asrwt>0</asrwt>
<pdfrwt beam="1">  1       21 0.81084309E-01 0.12500000E+03</pdfrwt>
<pdfrwt beam="2">  1       21 0.11402406E-02 0.12500000E+03</pdfrwt>
<totfact> 0.40234860E+06</totfact>
</mgrwt>
</event>
<event>
 3    0  0.1368989E+001  0.1250000E+03  0.7546771E-02  0.1235069E+00
         21   -1    0    0  502  501  0.00000000000E+00  0.00000000000E+00  0.28201960454E+01  0.28201960454E+01  0.00000000000E+00 0.  1.
         21   -1    0    0  501  502 -0.00000000000E+00 -0.00000000000E+00 -0.13850987439E+04  0.13850987439E+04  0.00000000000E+00 0.  1.
         25    1    1    2    0    0  0.00000000000E+00  0.00000000000E+00 -0.13822785478E+04  0.13879189399E+04  0.12500000000E+03 0.  0.
<mgrwt>
<rscale>  2 0.12500000E+03</rscale>
<asrwt>0</asrwt>
<pdfrwt beam="1">  1       21 0.43387608E-03 0.12500000E+03</pdfrwt>
<pdfrwt beam="2">  1       21 0.21309223E+00 0.12500000E+03</pdfrwt>
<totfact> 0.15742568E+06</totfact>
</mgrwt>
</event>
<event>
 3    0  0.1714050E+001  0.1250000E+03  0.7546771E-02  0.1235069E+00
         21   -1    0    0  502  501  0.00000000000E+00  0.00000000000E+00  0.11731589497E+03  0.11731589497E+03  0.00000000000E+00 0.  1.
         21   -1    0    0  501  502 -0.00000000000E+00 -0.00000000000E+00 -0.33296852067E+02  0.33296852067E+02  0.00000000000E+00 0.  1.
         25    1    1    2    0    0  0.00000000000E+00  0.00000000000E+00  0.84019042906E+02  0.15061274704E+03  0.12500000000E+03 0.  0.
<mgrwt>
<rscale>  2 0.12500000E+03</rscale>
<asrwt>0</asrwt>
<pdfrwt beam="1">  1       21 0.18048599E-01 0.12500000E+03</pdfrwt>
<pdfrwt beam="2">  1       21 0.51225927E-02 0.12500000E+03</pdfrwt>
<totfact> 0.70682314E+06</totfact>
</mgrwt>
</event>
<event>
 3    0  0.1648963E+001  0.1250000E+03  0.7546771E-02  0.1235069E+00
         21   -1    0    0  502  501  0.00000000000E+00  0.00000000000E+00  0.17558475481E+02  0.17558475481E+02  0.00000000000E+00 0.  1.
         21   -1    0    0  501  502 -0.00000000000E+00 -0.00000000000E+00 -0.22247090895E+03  0.22247090895E+03  0.00000000000E+00 0.  1.
         25    1    1    2    0    0  0.00000000000E+00  0.00000000000E+00 -0.20491243347E+03  0.24002938443E+03  0.12500000000E+03 0.  0.
<mgrwt>
<rscale>  2 0.12500000E+03</rscale>
<asrwt>0</asrwt>
<pdfrwt beam="1">  1       21 0.27013040E-02 0.12500000E+03</pdfrwt>
<pdfrwt beam="2">  1       21 0.34226293E-01 0.12500000E+03</pdfrwt>
<totfact> 0.60829819E+06</totfact>
</mgrwt>
</event>
<event>
 3    0  0.1723002E+001  0.1250000E+03  0.7546771E-02  0.1235069E+00
         21   -1    0    0  502  501  0.00000000000E+00  0.00000000000E+00  0.43344001806E+02  0.43344001806E+02  0.00000000000E+00 0.  1.
         21   -1    0    0  501  502 -0.00000000000E+00 -0.00000000000E+00 -0.90122043125E+02  0.90122043125E+02  0.00000000000E+00 0.  1.
         25    1    1    2    0    0  0.00000000000E+00  0.00000000000E+00 -0.46778041319E+02  0.13346604493E+03  0.12500000000E+03 0.  0.
<mgrwt>
<rscale>  2 0.12500000E+03</rscale>
<asrwt>0</asrwt>
<pdfrwt beam="1">  1       21 0.66683080E-02 0.12500000E+03</pdfrwt>
<pdfrwt beam="2">  1       21 0.13864930E-01 0.12500000E+03</pdfrwt>
<totfact> 0.72900229E+06</totfact>
</mgrwt>
</event>
<event>
 3    0  0.1712579E+001  0.1250000E+03  0.7546771E-02  0.1235069E+00
         21   -1    0    0  502  501  0.00000000000E+00  0.00000000000E+00  0.36609620770E+02  0.36609620770E+02  0.00000000000E+00 0.  1.
         21   -1    0    0  501  502 -0.00000000000E+00 -0.00000000000E+00 -0.10670009462E+03  0.10670009462E+03  0.00000000000E+00 0.  1.
         25    1    1    2    0    0  0.00000000000E+00  0.00000000000E+00 -0.70090473847E+02  0.14330971539E+03  0.12500000000E+03 0.  0.
<mgrwt>
<rscale>  2 0.12500000E+03</rscale>
<asrwt>0</asrwt>
<pdfrwt beam="1">  1       21 0.56322494E-02 0.12500000E+03</pdfrwt>
<pdfrwt beam="2">  1       21 0.16415399E-01 0.12500000E+03</pdfrwt>
<totfact> 0.71610122E+06</totfact>
</mgrwt>
</event>
<event>
 3    0  0.1699186E+001  0.1250000E+03  0.7546771E-02  0.1235069E+00
         21   -1    0    0  502  501  0.00000000000E+00  0.00000000000E+00  0.43561085455E+02  0.43561085455E+02  0.00000000000E+00 0. -1.
         21   -1    0    0  501  502 -0.00000000000E+00 -0.00000000000E+00 -0.89672926173E+02  0.89672926173E+02  0.00000000000E+00 0. -1.
         25    1    1    2    0    0  0.00000000000E+00  0.00000000000E+00 -0.46111840718E+02  0.13323401163E+03  0.12500000000E+03 0.  0.
<mgrwt>
<rscale>  2 0.12500000E+03</rscale>
<asrwt>0</asrwt>
<pdfrwt beam="1">  1       21 0.67017056E-02 0.12500000E+03</pdfrwt>
<pdfrwt beam="2">  1       21 0.13795835E-01 0.12500000E+03</pdfrwt>
<totfact> 0.72931166E+06</totfact>
</mgrwt>
</event>
<event>
 3    0  0.1723721E+001  0.1250000E+03  0.7546771E-02  0.1235069E+00
         21   -1    0    0  502  501  0.00000000000E+00  0.00000000000E+00  0.45726890267E+02  0.45726890267E+02  0.00000000000E+00 0.  1.
         21   -1    0    0  501  502 -0.00000000000E+00 -0.00000000000E+00 -0.85425664794E+02  0.85425664794E+02  0.00000000000E+00 0.  1.
         25    1    1    2    0    0  0.00000000000E+00  0.00000000000E+00 -0.39698774527E+02  0.13115255506E+03  0.12500000000E+03 0.  0.
<mgrwt>
<rscale>  2 0.12500000E+03</rscale>
<asrwt>0</asrwt>
<pdfrwt beam="1">  1       21 0.70349062E-02 0.12500000E+03</pdfrwt>
<pdfrwt beam="2">  1       21 0.13142410E-01 0.12500000E+03</pdfrwt>
<totfact> 0.73210121E+06</totfact>
</mgrwt>
</event>
<event>
 3    0  0.1669200E+001  0.1250000E+03  0.7546771E-02  0.1235069E+00
         21   -1    0    0  502  501  0.00000000000E+00  0.00000000000E+00  0.17361614005E+03  0.17361614005E+03  0.00000000000E+00 0.  1.
         21   -1    0    0  501  502 -0.00000000000E+00 -0.00000000000E+00 -0.22499348269E+02  0.22499348269E+02  0.00000000000E+00 0.  1.
         25    1    1    2    0    0  0.00000000000E+00  0.00000000000E+00  0.15111679178E+03  0.19611548832E+03  0.12500000000E+03 0.  0.
<mgrwt>
<rscale>  2 0.12500000E+03</rscale>
<asrwt>0</asrwt>
<pdfrwt beam="1">  1       21 0.26710175E-01 0.12500000E+03</pdfrwt>
<pdfrwt beam="2">  1       21 0.34614383E-02 0.12500000E+03</pdfrwt>
<totfact> 0.65349143E+06</totfact>
</mgrwt>
</event>
<event>
 3    0  0.1426855E+001  0.1250000E+03  0.7546771E-02  0.1235069E+00
         21   -1    0    0  502  501  0.00000000000E+00  0.00000000000E+00  0.50608603119E+03  0.50608603119E+03  0.00000000000E+00 0. -1.
         21   -1    0    0  501  502 -0.00000000000E+00 -0.00000000000E+00 -0.77185493361E+01  0.77185493361E+01  0.00000000000E+00 0. -1.
         25    1    1    2    0    0  0.00000000000E+00  0.00000000000E+00  0.49836748185E+03  0.51380458052E+03  0.12500000000E+03 0.  0.
<mgrwt>
<rscale>  2 0.12500000E+03</rscale>
<asrwt>0</asrwt>
<pdfrwt beam="1">  1       21 0.77859364E-01 0.12500000E+03</pdfrwt>
<pdfrwt beam="2">  1       21 0.11874695E-02 0.12500000E+03</pdfrwt>
<totfact> 0.41305187E+06</totfact>
</mgrwt>
</event>
<event>
 3    0  0.1467184E+001  0.1250000E+03  0.7546771E-02  0.1235069E+00
         21   -1    0    0  502  501  0.00000000000E+00  0.00000000000E+00  0.89795985495E+01  0.89795985495E+01  0.00000000000E+00 0. -1.
         21   -1    0    0  501  502 -0.00000000000E+00 -0.00000000000E+00 -0.43501387935E+03  0.43501387935E+03  0.00000000000E+00 0. -1.
         25    1    1    2    0    0  0.00000000000E+00  0.00000000000E+00 -0.42603428080E+03  0.44399347790E+03  0.12500000000E+03 0.  0.
<mgrwt>
<rscale>  2 0.12500000E+03</rscale>
<asrwt>0</asrwt>
<pdfrwt beam="1">  1       21 0.13814770E-02 0.12500000E+03</pdfrwt>
<pdfrwt beam="2">  1       21 0.66925196E-01 0.12500000E+03</pdfrwt>
<totfact> 0.45253886E+06</totfact>
</mgrwt>
</event>
<event>
 3    0  0.1552630E+001  0.1250000E+03  0.7546771E-02  0.1235069E+00
         21   -1    0    0  502  501  0.00000000000E+00  0.00000000000E+00  0.30297530183E+03  0.30297530183E+03  0.00000000000E+00 0. -1.
         21   -1    0    0  501  502 -0.00000000000E+00 -0.00000000000E+00 -0.12892965124E+02  0.12892965124E+02  0.00000000000E+00 0. -1.
         25    1    1    2    0    0  0.00000000000E+00  0.00000000000E+00  0.29008233671E+03  0.31586826696E+03  0.12500000000E+03 0.  0.
<mgrwt>
<rscale>  2 0.12500000E+03</rscale>
<asrwt>0</asrwt>
<pdfrwt beam="1">  1       21 0.46611579E-01 0.12500000E+03</pdfrwt>
<pdfrwt beam="2">  1       21 0.19835333E-02 0.12500000E+03</pdfrwt>
<totfact> 0.54162396E+06</totfact>
</mgrwt>
</event>
<event>
 3    0  0.1431250E+001  0.1250000E+03  0.7546771E-02  0.1235069E+00
         21   -1    0    0  502  501  0.00000000000E+00  0.00000000000E+00  0.54025584649E+03  0.54025584649E+03  0.00000000000E+00 0. -1.
         21   -1    0    0  501  502 -0.00000000000E+00 -0.00000000000E+00 -0.72303706205E+01  0.72303706205E+01  0.00000000000E+00 0. -1.
         25    1    1    2    0    0  0.00000000000E+00  0.00000000000E+00  0.53302547586E+03  0.54748621711E+03  0.12500000000E+03 0.  0.
<mgrwt>
<rscale>  2 0.12500000E+03</rscale>
<asrwt>0</asrwt>
<pdfrwt beam="1">  1       21 0.83116252E-01 0.12500000E+03</pdfrwt>
<pdfrwt beam="2">  1       21 0.11123651E-02 0.12500000E+03</pdfrwt>
<totfact> 0.39580579E+06</totfact>
</mgrwt>
</event>
<event>
 3    0  0.1630278E+001  0.1250000E+03  0.7546771E-02  0.1235069E+00
         21   -1    0    0  502  501  0.00000000000E+00  0.00000000000E+00  0.16123358301E+02  0.16123358301E+02  0.00000000000E+00 0.  1.
         21   -1    0    0  501  502 -0.00000000000E+00 -0.00000000000E+00 -0.24227272799E+03  0.24227272799E+03  0.00000000000E+00 0.  1.
         25    1    1    2    0    0  0.00000000000E+00  0.00000000000E+00 -0.22614936969E+03  0.25839608629E+03  0.12500000000E+03 0.  0.
<mgrwt>
<rscale>  2 0.12500000E+03</rscale>
<asrwt>0</asrwt>
<pdfrwt beam="1">  1       21 0.24805168E-02 0.12500000E+03</pdfrwt>
<pdfrwt beam="2">  1       21 0.37272726E-01 0.12500000E+03</pdfrwt>
<totfact> 0.59096594E+06</totfact>
</mgrwt>
</event>
<event>
 3    0  0.1368989E+001  0.1250000E+03  0.7546771E-02  0.1235069E+00
         21   -1    0    0  502  501  0.00000000000E+00  0.00000000000E+00  0.78186272996E+03  0.78186272996E+03  0.00000000000E+00 0. -1.
         21   -1    0    0  501  502 -0.00000000000E+00 -0.00000000000E+00 -0.49960816014E+01  0.49960816014E+01  0.00000000000E+00 0. -1.
         25    1    1    2    0    0  0.00000000000E+00  0.00000000000E+00  0.77686664836E+03  0.78685881156E+03  0.12500000000E+03 0.  0.
<mgrwt>
<rscale>  2 0.12500000E+03</rscale>
<asrwt>0</asrwt>
<pdfrwt beam="1">  1       21 0.12028648E+00 0.12500000E+03</pdfrwt>
<pdfrwt beam="2">  1       21 0.76862856E-03 0.12500000E+03</pdfrwt>
<totfact> 0.29802888E+06</totfact>
</mgrwt>
</event>
<event>
 3    0  0.1368989E+001  0.1250000E+03  0.7546771E-02  0.1235069E+00
         21   -1    0    0  502  501  0.00000000000E+00  0.00000000000E+00  0.23143941904E+01  0.23143941904E+01  0.00000000000E+00 0.  1.
         21   -1    0    0  501  502 -0.00000000000E+00 -0.00000000000E+00 -0.16878066909E+04  0.16878066909E+04  0.00000000000E+00 0.  1.
         25    1    1    2    0    0  0.00000000000E+00  0.00000000000E+00 -0.16854922967E+04  0.16901210851E+04  0.12500000000E+03 0.  0.
<mgrwt>
<rscale>  2 0.12500000E+03</rscale>
<asrwt>0</asrwt>
<pdfrwt beam="1">  1       21 0.35606110E-03 0.12500000E+03</pdfrwt>
<pdfrwt beam="2">  1       21 0.25966224E+00 0.12500000E+03</pdfrwt>
<totfact> 0.11393687E+06</totfact>
</mgrwt>
</event>
<event>
 3    0  0.1645275E+001  0.1250000E+03  0.7546771E-02  0.1235069E+00
         21   -1    0    0  502  501  0.00000000000E+00  0.00000000000E+00  0.18699711593E+03  0.18699711593E+03  0.00000000000E+00 0. -1.
         21   -1    0    0  501  502 -0.00000000000E+00 -0.00000000000E+00 -0.20889359606E+02  0.20889359606E+02  0.00000000000E+00 0. -1.
         25    1    1    2    0    0  0.00000000000E+00  0.00000000000E+00  0.16610775632E+03  0.20788647553E+03  0.12500000000E+03 0.  0.
<mgrwt>
<rscale>  2 0.12500000E+03</rscale>
<asrwt>0</asrwt>
<pdfrwt beam="1">  1       21 0.28768786E-01 0.12500000E+03</pdfrwt>
<pdfrwt beam="2">  1       21 0.32137477E-02 0.12500000E+03</pdfrwt>
<totfact> 0.64082591E+06</totfact>
</mgrwt>
</event>
<event>
 3    0  0.1681234E+001  0.1250000E+03  0.7546771E-02  0.1235069E+00
         21   -1    0    0  502  501  0.00000000000E+00  0.00000000000E+00  0.25546320628E+02  0.25546320628E+02  0.00000000000E+00 0.  1.
         21   -1    0    0  501  502 -0.00000000000E+00 -0.00000000000E+00 -0.15290851692E+03  0.15290851692E+03  0.00000000000E+00 0.  1.
         25    1    1    2    0    0  0.00000000000E+00  0.00000000000E+00 -0.12736219629E+03  0.17845483755E+03  0.12500000000E+03 0.  0.
<mgrwt>
<rscale>  2 0.12500000E+03</rscale>
<asrwt>0</asrwt>
<pdfrwt beam="1">  1       21 0.39302031E-02 0.12500000E+03</pdfrwt>
<pdfrwt beam="2">  1       21 0.23524387E-01 0.12500000E+03</pdfrwt>
<totfact> 0.67329236E+06</totfact>
</mgrwt>
</event>
<event>
 3    0  0.1441219E+001  0.1250000E+03  0.7546771E-02  0.1235069E+00
         21   -1    0    0  502  501  0.00000000000E+00  0.00000000000E+00  0.61504918540E+03  0.61504918540E+03  0.00000000000E+00 0.  1.
         21   -1    0    0  501  502 -0.00000000000E+00 -0.00000000000E+00 -0.63511180775E+01  0.63511180775E+01  0.00000000000E+00 0.  1.
         25    1    1    2    0    0  0.00000000000E+00  0.00000000000E+00  0.60869806733E+03  0.62140030348E+03  0.12500000000E+03 0.  0.
<mgrwt>
<rscale>  2 0.12500000E+03</rscale>
<asrwt>0</asrwt>
<pdfrwt beam="1">  1       21 0.94622904E-01 0.12500000E+03</pdfrwt>
<pdfrwt beam="2">  1       21 0.97709558E-03 0.12500000E+03</pdfrwt>
<totfact> 0.36142384E+06</totfact>
</mgrwt>
</event>
<event>
 3    0  0.1535330E+001  0.1250000E+03  0.7546771E-02  0.1235069E+00
         21   -1    0    0  502  501  0.00000000000E+00  0.00000000000E+00  0.11502006345E+02  0.11502006345E+02  0.00000000000E+00 0. -1.
         21   -1    0    0  501  502 -0.00000000000E+00 -0.00000000000E+00 -0.33961466224E+03  0.33961466224E+03  0.00000000000E+00 0. -1.
         25    1    1    2    0    0  0.00000000000E+00  0.00000000000E+00 -0.32811265589E+03  0.35111666858E+03  0.12500000000E+03 0.  0.
<mgrwt>
<rscale>  2 0.12500000E+03</rscale>
<asrwt>0</asrwt>
<pdfrwt beam="1">  1       21 0.17695395E-02 0.12500000E+03</pdfrwt>
<pdfrwt beam="2">  1       21 0.52248407E-01 0.12500000E+03</pdfrwt>
<totfact> 0.51456069E+06</totfact>
</mgrwt>
</event>
<event>
 3    0  0.1722915E+001  0.1250000E+03  0.7546771E-02  0.1235069E+00
         21   -1    0    0  502  501  0.00000000000E+00  0.00000000000E+00  0.95394287288E+02  0.95394287288E+02  0.00000000000E+00 0.  1.
         21   -1    0    0  501  502 -0.00000000000E+00 -0.00000000000E+00 -0.40948468834E+02  0.40948468834E+02  0.00000000000E+00 0.  1.
         25    1    1    2    0    0  0.00000000000E+00  0.00000000000E+00  0.54445818454E+02  0.13634275612E+03  0.12500000000E+03 0.  0.
<mgrwt>
<rscale>  2 0.12500000E+03</rscale>
<asrwt>0</asrwt>
<pdfrwt beam="1">  1       21 0.14676044E-01 0.12500000E+03</pdfrwt>
<pdfrwt beam="2">  1       21 0.62997645E-02 0.12500000E+03</pdfrwt>
<totfact> 0.72519167E+06</totfact>
</mgrwt>
</event>
<event>
 3    0  0.1709806E+001  0.1250000E+03  0.7546771E-02  0.1235069E+00
         21   -1    0    0  502  501  0.00000000000E+00  0.00000000000E+00  0.11481641852E+03  0.11481641852E+03  0.00000000000E+00 0.  1.
         21   -1    0    0  501  502 -0.00000000000E+00 -0.00000000000E+00 -0.34021702214E+02  0.34021702214E+02  0.00000000000E+00 0.  1.
         25    1    1    2    0    0  0.00000000000E+00  0.00000000000E+00  0.80794716302E+02  0.14883812073E+03  0.12500000000E+03 0.  0.
<mgrwt>
<rscale>  2 0.12500000E+03</rscale>
<asrwt>0</asrwt>
<pdfrwt beam="1">  1       21 0.17664064E-01 0.12500000E+03</pdfrwt>
<pdfrwt beam="2">  1       21 0.52341081E-02 0.12500000E+03</pdfrwt>
<totfact> 0.70905461E+06</totfact>
</mgrwt>
</event>
<event>
 3    0  0.1410062E+001  0.1250000E+03  0.7546771E-02  0.1235069E+00
         21   -1    0    0  502  501  0.00000000000E+00  0.00000000000E+00  0.62904291242E+01  0.62904291242E+01  0.00000000000E+00 0. -1.
         21   -1    0    0  501  502 -0.00000000000E+00 -0.00000000000E+00 -0.62098307173E+03  0.62098307173E+03  0.00000000000E+00 0. -1.
         25    1    1    2    0    0  0.00000000000E+00  0.00000000000E+00 -0.61469264260E+03  0.62727350085E+03  0.12500000000E+03 0.  0.
<mgrwt>
<rscale>  2 0.12500000E+03</rscale>
<asrwt>0</asrwt>
<pdfrwt beam="1">  1       21 0.96775826E-03 0.12500000E+03</pdfrwt>
<pdfrwt beam="2">  1       21 0.95535863E-01 0.12500000E+03</pdfrwt>
<totfact> 0.35887561E+06</totfact>
</mgrwt>
</event>
<event>
 3    0  0.1591188E+001  0.1250000E+03  0.7546771E-02  0.1235069E+00
         21   -1    0    0  502  501  0.00000000000E+00  0.00000000000E+00  0.28076307000E+03  0.28076307000E+03  0.00000000000E+00 0.  1.
         21   -1    0    0  501  502 -0.00000000000E+00 -0.00000000000E+00 -0.13912976518E+02  0.13912976518E+02  0.00000000000E+00 0.  1.
         25    1    1    2    0    0  0.00000000000E+00  0.00000000000E+00  0.26685009348E+03  0.29467604652E+03  0.12500000000E+03 0.  0.
<mgrwt>
<rscale>  2 0.12500000E+03</rscale>
<asrwt>0</asrwt>
<pdfrwt beam="1">  1       21 0.43194314E-01 0.12500000E+03</pdfrwt>
<pdfrwt beam="2">  1       21 0.21404581E-02 0.12500000E+03</pdfrwt>
<totfact> 0.55901539E+06</totfact>
</mgrwt>
</event>
<event>
 3    0  0.1727271E+001  0.1250000E+03  0.7546771E-02  0.1235069E+00
         21   -1    0    0  502  501  0.00000000000E+00  0.00000000000E+00  0.80689809947E+02  0.80689809947E+02  0.00000000000E+00 0.  1.
         21   -1    0    0  501  502 -0.00000000000E+00 -0.00000000000E+00 -0.48410697740E+02  0.48410697740E+02  0.00000000000E+00 0.  1.
         25    1    1    2    0    0  0.00000000000E+00  0.00000000000E+00  0.32279112207E+02  0.12910050769E+03  0.12500000000E+03 0.  0.
<mgrwt>
<rscale>  2 0.12500000E+03</rscale>
<asrwt>0</asrwt>
<pdfrwt beam="1">  1       21 0.12413817E-01 0.12500000E+03</pdfrwt>
<pdfrwt beam="2">  1       21 0.74477996E-02 0.12500000E+03</pdfrwt>
<totfact> 0.73485386E+06</totfact>
</mgrwt>
</event>
<event>
 3    0  0.1692432E+001  0.1250000E+03  0.7546771E-02  0.1235069E+00
         21   -1    0    0  502  501  0.00000000000E+00  0.00000000000E+00  0.38576823050E+02  0.38576823050E+02  0.00000000000E+00 0. -1.
         21   -1    0    0  501  502 -0.00000000000E+00 -0.00000000000E+00 -0.10125898638E+03  0.10125898638E+03  0.00000000000E+00 0. -1.
         25    1    1    2    0    0  0.00000000000E+00  0.00000000000E+00 -0.62682163334E+02  0.13983580943E+03  0.12500000000E+03 0.  0.
<mgrwt>
<rscale>  2 0.12500000E+03</rscale>
<asrwt>0</asrwt>
<pdfrwt beam="1">  1       21 0.59348958E-02 0.12500000E+03</pdfrwt>
<pdfrwt beam="2">  1       21 0.15578306E-01 0.12500000E+03</pdfrwt>
<totfact> 0.72060750E+06</totfact>
</mgrwt>
</event>
<event>
 3    0  0.1368989E+001  0.1250000E+03  0.7546771E-02  0.1235069E+00
         21   -1    0    0  502  501  0.00000000000E+00  0.00000000000E+00  0.97054310167E+03  0.97054310167E+03  0.00000000000E+00 0.  1.
         21   -1    0    0  501  502 -0.00000000000E+00 -0.00000000000E+00 -0.40248083710E+01  0.40248083710E+01  0.00000000000E+00 0.  1.
         25    1    1    2    0    0  0.00000000000E+00  0.00000000000E+00  0.96651829330E+03  0.97456791004E+03  0.12500000000E+03 0.  0.
<mgrwt>
<rscale>  2 0.12500000E+03</rscale>
<asrwt>0</asrwt>
<pdfrwt beam="1">  1       21 0.14931414E+00 0.12500000E+03</pdfrwt>
<pdfrwt beam="2">  1       21 0.61920206E-03 0.12500000E+03</pdfrwt>
<totfact> 0.24265000E+06</totfact>
</mgrwt>
</event>
<event>
 3    0  0.1725136E+001  0.1250000E+03  0.7546771E-02  0.1235069E+00
         21   -1    0    0  502  501  0.00000000000E+00  0.00000000000E+00  0.49076514728E+02  0.49076514728E+02  0.00000000000E+00 0.  1.
         21   -1    0    0  501  502 -0.00000000000E+00 -0.00000000000E+00 -0.79595098015E+02  0.79595098015E+02  0.00000000000E+00 0.  1.
         25    1    1    2    0    0  0.00000000000E+00  0.00000000000E+00 -0.30518583287E+02  0.12867161274E+03  0.12500000000E+03 0.  0.
<mgrwt>
<rscale>  2 0.12500000E+03</rscale>
<asrwt>0</asrwt>
<pdfrwt beam="1">  1       21 0.75502330E-02 0.12500000E+03</pdfrwt>
<pdfrwt beam="2">  1       21 0.12245400E-01 0.12500000E+03</pdfrwt>
<totfact> 0.73543022E+06</totfact>
</mgrwt>
</event>
<event>
 3    0  0.1368989E+001  0.1250000E+03  0.7546771E-02  0.1235069E+00
         21   -1    0    0  502  501  0.00000000000E+00  0.00000000000E+00  0.38284284120E+01  0.38284284120E+01  0.00000000000E+00 0. -1.
         21   -1    0    0  501  502 -0.00000000000E+00 -0.00000000000E+00 -0.10203272935E+04  0.10203272935E+04  0.00000000000E+00 0. -1.
         25    1    1    2    0    0  0.00000000000E+00  0.00000000000E+00 -0.10164988651E+04  0.10241557219E+04  0.12500000000E+03 0.  0.
<mgrwt>
<rscale>  2 0.12500000E+03</rscale>
<asrwt>0</asrwt>
<pdfrwt beam="1">  1       21 0.58898853E-03 0.12500000E+03</pdfrwt>
<pdfrwt beam="2">  1       21 0.15697355E+00 0.12500000E+03</pdfrwt>
<totfact> 0.23021416E+06</totfact>
</mgrwt>
</event>
<event>
 3    0  0.1368989E+001  0.1250000E+03  0.7546771E-02  0.1235069E+00
         21   -1    0    0  502  501  0.00000000000E+00  0.00000000000E+00  0.92101667036E+03  0.92101667036E+03  0.00000000000E+00 0.  1.
         21   -1    0    0  501  502 -0.00000000000E+00 -0.00000000000E+00 -0.42412370218E+01  0.42412370218E+01  0.00000000000E+00 0.  1.
         25    1    1    2    0    0  0.00000000000E+00  0.00000000000E+00  0.91677543334E+03  0.92525790738E+03  0.12500000000E+03 0.  0.
<mgrwt>
<rscale>  2 0.12500000E+03</rscale>
<asrwt>0</asrwt>
<pdfrwt beam="1">  1       21 0.14169471E+00 0.12500000E+03</pdfrwt>
<pdfrwt beam="2">  1       21 0.65249874E-03 0.12500000E+03</pdfrwt>
<totfact> 0.25585768E+06</totfact>
</mgrwt>
</event>
<event>
 3    0  0.1706427E+001  0.1250000E+03  0.7546771E-02  0.1235069E+00
         21   -1    0    0  502  501  0.00000000000E+00  0.00000000000E+00  0.11638951789E+03  0.11638951789E+03  0.00000000000E+00 0.  1.
         21   -1    0    0  501  502 -0.00000000000E+00 -0.00000000000E+00 -0.33561871128E+02  0.33561871128E+02  0.00000000000E+00 0.  1.
         25    1    1    2    0    0  0.00000000000E+00  0.00000000000E+00  0.82827646759E+02  0.14995138902E+03  0.12500000000E+03 0.  0.
<mgrwt>
<rscale>  2 0.12500000E+03</rscale>
<asrwt>0</asrwt>
<pdfrwt beam="1">  1       21 0.17906080E-01 0.12500000E+03</pdfrwt>
<pdfrwt beam="2">  1       21 0.51633648E-02 0.12500000E+03</pdfrwt>
<totfact> 0.70765308E+06</totfact>
</mgrwt>
</event>
<event>
 3    0  0.1641768E+001  0.1250000E+03  0.7546771E-02  0.1235069E+00
         21   -1    0    0  502  501  0.00000000000E+00  0.00000000000E+00  0.21674386530E+03  0.21674386530E+03  0.00000000000E+00 0.  1.
         21   -1    0    0  501  502 -0.00000000000E+00 -0.00000000000E+00 -0.18022424739E+02  0.18022424739E+02  0.00000000000E+00 0.  1.
         25    1    1    2    0    0  0.00000000000E+00  0.00000000000E+00  0.19872144056E+03  0.23476629004E+03  0.12500000000E+03 0.  0.
<mgrwt>
<rscale>  2 0.12500000E+03</rscale>
<asrwt>0</asrwt>
<pdfrwt beam="1">  1       21 0.33345208E-01 0.12500000E+03</pdfrwt>
<pdfrwt beam="2">  1       21 0.27726809E-02 0.12500000E+03</pdfrwt>
<totfact> 0.61342825E+06</totfact>
</mgrwt>
</event>
<event>
 3    0  0.1721787E+001  0.1250000E+03  0.7546771E-02  0.1235069E+00
         21   -1    0    0  502  501  0.00000000000E+00  0.00000000000E+00  0.87134632257E+02  0.87134632257E+02  0.00000000000E+00 0.  1.
         21   -1    0    0  501  502 -0.00000000000E+00 -0.00000000000E+00 -0.44830050909E+02  0.44830050909E+02  0.00000000000E+00 0.  1.
         25    1    1    2    0    0  0.00000000000E+00  0.00000000000E+00  0.42304581348E+02  0.13196468317E+03  0.12500000000E+03 0.  0.
<mgrwt>
<rscale>  2 0.12500000E+03</rscale>
<asrwt>0</asrwt>
<pdfrwt beam="1">  1       21 0.13405328E-01 0.12500000E+03</pdfrwt>
<pdfrwt beam="2">  1       21 0.68969309E-02 0.12500000E+03</pdfrwt>
<totfact> 0.73100966E+06</totfact>
</mgrwt>
</event>
<event>
 3    0  0.1607124E+001  0.1250000E+03  0.7546771E-02  0.1235069E+00
         21   -1    0    0  502  501  0.00000000000E+00  0.00000000000E+00  0.28878016506E+03  0.28878016506E+03  0.00000000000E+00 0.  1.
         21   -1    0    0  501  502 -0.00000000000E+00 -0.00000000000E+00 -0.13526725422E+02  0.13526725422E+02  0.00000000000E+00 0.  1.
         25    1    1    2    0    0  0.00000000000E+00  0.00000000000E+00  0.27525343964E+03  0.30230689048E+03  0.12500000000E+03 0.  0.
<mgrwt>
<rscale>  2 0.12500000E+03</rscale>
<asrwt>0</asrwt>
<pdfrwt beam="1">  1       21 0.44427713E-01 0.12500000E+03</pdfrwt>
<pdfrwt beam="2">  1       21 0.20810349E-02 0.12500000E+03</pdfrwt>
<totfact> 0.55265007E+06</totfact>
</mgrwt>
</event>
<event>
 3    0  0.1727783E+001  0.1250000E+03  0.7546771E-02  0.1235069E+00
         21   -1    0    0  502  501  0.00000000000E+00  0.00000000000E+00  0.73747858882E+02  0.73747858882E+02  0.00000000000E+00 0.  1.
         21   -1    0    0  501  502 -0.00000000000E+00 -0.00000000000E+00 -0.52967639457E+02  0.52967639457E+02  0.00000000000E+00 0.  1.
         25    1    1    2    0    0  0.00000000000E+00  0.00000000000E+00  0.20780219425E+02  0.12671549834E+03  0.12500000000E+03 0.  0.
<mgrwt>
<rscale>  2 0.12500000E+03</rscale>
<asrwt>0</asrwt>
<pdfrwt beam="1">  1       21 0.11345824E-01 0.12500000E+03</pdfrwt>
<pdfrwt beam="2">  1       21 0.81488676E-02 0.12500000E+03</pdfrwt>
<totfact> 0.73807919E+06</totfact>
</mgrwt>
</event>
<event>
 3    0  0.1460628E+001  0.1250000E+03  0.7546771E-02  0.1235069E+00
         21   -1    0    0  502  501  0.00000000000E+00  0.00000000000E+00  0.74779797022E+01  0.74779797022E+01  0.00000000000E+00 0. -1.
         21   -1    0    0  501  502 -0.00000000000E+00 -0.00000000000E+00 -0.52236702366E+03  0.52236702366E+03  0.00000000000E+00 0. -1.
         25    1    1    2    0    0  0.00000000000E+00  0.00000000000E+00 -0.51488904396E+03  0.52984500336E+03  0.12500000000E+03 0.  0.
<mgrwt>
<rscale>  2 0.12500000E+03</rscale>
<asrwt>0</asrwt>
<pdfrwt beam="1">  1       21 0.11504585E-02 0.12500000E+03</pdfrwt>
<pdfrwt beam="2">  1       21 0.80364150E-01 0.12500000E+03</pdfrwt>
<totfact> 0.40470425E+06</totfact>
</mgrwt>
</event>
<event>
 3    0  0.1456683E+001  0.1250000E+03  0.7546771E-02  0.1235069E+00
         21   -1    0    0  502  501  0.00000000000E+00  0.00000000000E+00  0.53761388582E+03  0.53761388582E+03  0.00000000000E+00 0.  1.
         21   -1    0    0  501  502 -0.00000000000E+00 -0.00000000000E+00 -0.72659023568E+01  0.72659023568E+01  0.00000000000E+00 0.  1.
         25    1    1    2    0    0  0.00000000000E+00  0.00000000000E+00  0.53034798346E+03  0.54487978817E+03  0.12500000000E+03 0.  0.
<mgrwt>
<rscale>  2 0.12500000E+03</rscale>
<asrwt>0</asrwt>
<pdfrwt beam="1">  1       21 0.82709797E-01 0.12500000E+03</pdfrwt>
<pdfrwt beam="2">  1       21 0.11178316E-02 0.12500000E+03</pdfrwt>
<totfact> 0.39710251E+06</totfact>
</mgrwt>
</event>
<event>
 3    0  0.1547866E+001  0.1250000E+03  0.7546771E-02  0.1235069E+00
         21   -1    0    0  502  501  0.00000000000E+00  0.00000000000E+00  0.36825377626E+03  0.36825377626E+03  0.00000000000E+00 0.  1.
         21   -1    0    0  501  502 -0.00000000000E+00 -0.00000000000E+00 -0.10607494754E+02  0.10607494754E+02  0.00000000000E+00 0.  1.
         25    1    1    2    0    0  0.00000000000E+00  0.00000000000E+00  0.35764628151E+03  0.37886127101E+03  0.12500000000E+03 0.  0.
<mgrwt>
<rscale>  2 0.12500000E+03</rscale>
<asrwt>0</asrwt>
<pdfrwt beam="1">  1       21 0.56654417E-01 0.12500000E+03</pdfrwt>
<pdfrwt beam="2">  1       21 0.16319226E-02 0.12500000E+03</pdfrwt>
<totfact> 0.49475063E+06</totfact>
</mgrwt>
</event>
<event>
 3    0  0.1368989E+001  0.1250000E+03  0.7546771E-02  0.1235069E+00
         21   -1    0    0  502  501  0.00000000000E+00  0.00000000000E+00  0.42575076613E+01  0.42575076613E+01  0.00000000000E+00 0. -1.
         21   -1    0    0  501  502 -0.00000000000E+00 -0.00000000000E+00 -0.91749688099E+03  0.91749688099E+03  0.00000000000E+00 0. -1.
         25    1    1    2    0    0  0.00000000000E+00  0.00000000000E+00 -0.91323937333E+03  0.92175438865E+03  0.12500000000E+03 0.  0.
<mgrwt>
<rscale>  2 0.12500000E+03</rscale>
<asrwt>0</asrwt>
<pdfrwt beam="1">  1       21 0.65500105E-03 0.12500000E+03</pdfrwt>
<pdfrwt beam="2">  1       21 0.14115339E+00 0.12500000E+03</pdfrwt>
<totfact> 0.25683173E+06</totfact>
</mgrwt>
</event>
<event>
 3    0  0.1694838E+001  0.1250000E+03  0.7546771E-02  0.1235069E+00
         21   -1    0    0  502  501  0.00000000000E+00  0.00000000000E+00  0.42307741786E+02  0.42307741786E+02  0.00000000000E+00 0. -1.
         21   -1    0    0  501  502 -0.00000000000E+00 -0.00000000000E+00 -0.92329437477E+02  0.92329437477E+02  0.00000000000E+00 0. -1.
         25    1    1    2    0    0  0.00000000000E+00  0.00000000000E+00 -0.50021695692E+02  0.13463717926E+03  0.12500000000E+03 0.  0.
<mgrwt>
<rscale>  2 0.12500000E+03</rscale>
<asrwt>0</asrwt>
<pdfrwt beam="1">  1       21 0.65088834E-02 0.12500000E+03</pdfrwt>
<pdfrwt beam="2">  1       21 0.14204529E-01 0.12500000E+03</pdfrwt>
<totfact> 0.72744547E+06</totfact>
</mgrwt>
</event>
<event>
 3    0  0.1609273E+001  0.1250000E+03  0.7546771E-02  0.1235069E+00
         21   -1    0    0  502  501  0.00000000000E+00  0.00000000000E+00  0.14796731628E+02  0.14796731628E+02  0.00000000000E+00 0.  1.
         21   -1    0    0  501  502 -0.00000000000E+00 -0.00000000000E+00 -0.26399411020E+03  0.26399411020E+03  0.00000000000E+00 0.  1.
         25    1    1    2    0    0  0.00000000000E+00  0.00000000000E+00 -0.24919737857E+03  0.27879084183E+03  0.12500000000E+03 0.  0.
<mgrwt>
<rscale>  2 0.12500000E+03</rscale>
<asrwt>0</asrwt>
<pdfrwt beam="1">  1       21 0.22764204E-02 0.12500000E+03</pdfrwt>
<pdfrwt beam="2">  1       21 0.40614476E-01 0.12500000E+03</pdfrwt>
<totfact> 0.57266119E+06</totfact>
</mgrwt>
</event>
<event>
 3    0  0.1705063E+001  0.1250000E+03  0.7546771E-02  0.1235069E+00
         21   -1    0    0  502  501  0.00000000000E+00  0.00000000000E+00  0.58714989965E+02  0.58714989965E+02  0.00000000000E+00 0. -1.
         21   -1    0    0  501  502 -0.00000000000E+00 -0.00000000000E+00 -0.66529007368E+02  0.66529007368E+02  0.00000000000E+00 0. -1.
         25    1    1    2    0    0  0.00000000000E+00  0.00000000000E+00 -0.78140174024E+01  0.12524399733E+03  0.12500000000E+03 0.  0.
<mgrwt>
<rscale>  2 0.12500000E+03</rscale>
<asrwt>0</asrwt>
<pdfrwt beam="1">  1       21 0.90330754E-02 0.12500000E+03</pdfrwt>
<pdfrwt beam="2">  1       21 0.10235232E-01 0.12500000E+03</pdfrwt>
<totfact> 0.74010632E+06</totfact>
</mgrwt>
</event>
<event>
 3    0  0.1601451E+001  0.1250000E+03  0.7546771E-02  0.1235069E+00
         21   -1    0    0  502  501  0.00000000000E+00  0.00000000000E+00  0.15964754344E+02  0.15964754344E+02  0.00000000000E+00 0. -1.
         21   -1    0    0  501  502 -0.00000000000E+00 -0.00000000000E+00 -0.24467961835E+03  0.24467961835E+03  0.00000000000E+00 0. -1.
         25    1    1    2    0    0  0.00000000000E+00  0.00000000000E+00 -0.22871486400E+03  0.26064437269E+03  0.12500000000E+03 0.  0.
<mgrwt>
<rscale>  2 0.12500000E+03</rscale>
<asrwt>0</asrwt>
<pdfrwt beam="1">  1       21 0.24561160E-02 0.12500000E+03</pdfrwt>
<pdfrwt beam="2">  1       21 0.37643019E-01 0.12500000E+03</pdfrwt>
<totfact> 0.58890260E+06</totfact>
</mgrwt>
</event>
<event>
 3    0  0.1571734E+001  0.1250000E+03  0.7546771E-02  0.1235069E+00
         21   -1    0    0  502  501  0.00000000000E+00  0.00000000000E+00  0.30447001197E+03  0.30447001197E+03  0.00000000000E+00 0.  1.
         21   -1    0    0  501  502 -0.00000000000E+00 -0.00000000000E+00 -0.12829670728E+02  0.12829670728E+02  0.00000000000E+00 0.  1.
         25    1    1    2    0    0  0.00000000000E+00  0.00000000000E+00  0.29164034124E+03  0.31729968269E+03  0.12500000000E+03 0.  0.
<mgrwt>
<rscale>  2 0.12500000E+03</rscale>
<asrwt>0</asrwt>
<pdfrwt beam="1">  1       21 0.46841535E-01 0.12500000E+03</pdfrwt>
<pdfrwt beam="2">  1       21 0.19737957E-02 0.12500000E+03</pdfrwt>
<totfact> 0.54048028E+06</totfact>
</mgrwt>
</event>
<event>
 3    0  0.1400800E+001  0.1250000E+03  0.7546771E-02  0.1235069E+00
         21   -1    0    0  502  501  0.00000000000E+00  0.00000000000E+00  0.59997503275E+03  0.59997503275E+03  0.00000000000E+00 0.  1.
         21   -1    0    0  501  502 -0.00000000000E+00 -0.00000000000E+00 -0.65106875900E+01  0.65106875900E+01  0.00000000000E+00 0.  1.
         25    1    1    2    0    0  0.00000000000E+00  0.00000000000E+00  0.59346434516E+03  0.60648572034E+03  0.12500000000E+03 0.  0.
<mgrwt>
<rscale>  2 0.12500000E+03</rscale>
<asrwt>0</asrwt>
<pdfrwt beam="1">  1       21 0.92303808E-01 0.12500000E+03</pdfrwt>
<pdfrwt beam="2">  1       21 0.10016447E-02 0.12500000E+03</pdfrwt>
<totfact> 0.36800968E+06</totfact>
</mgrwt>
</event>
<event>
 3    0  0.1465303E+001  0.1250000E+03  0.7546771E-02  0.1235069E+00
         21   -1    0    0  502  501  0.00000000000E+00  0.00000000000E+00  0.73520332518E+01  0.73520332518E+01  0.00000000000E+00 0.  1.
         21   -1    0    0  501  502 -0.00000000000E+00 -0.00000000000E+00 -0.53131560566E+03  0.53131560566E+03  0.00000000000E+00 0.  1.
         25    1    1    2    0    0  0.00000000000E+00  0.00000000000E+00 -0.52396357241E+03  0.53866763891E+03  0.12500000000E+03 0.  0.
<mgrwt>
<rscale>  2 0.12500000E+03</rscale>
<asrwt>0</asrwt>
<pdfrwt beam="1">  1       21 0.11310820E-02 0.12500000E+03</pdfrwt>
<pdfrwt beam="2">  1       21 0.81740863E-01 0.12500000E+03</pdfrwt>
<totfact> 0.40021790E+06</totfact>
</mgrwt>
</event>
<event>
 3    0  0.1465563E+001  0.1250000E+03  0.7546771E-02  0.1235069E+00
         21   -1    0    0  502  501  0.00000000000E+00  0.00000000000E+00  0.49624771071E+03  0.49624771071E+03  0.00000000000E+00 0.  1.
         21   -1    0    0  501  502 -0.00000000000E+00 -0.00000000000E+00 -0.78715728370E+01  0.78715728370E+01  0.00000000000E+00 0.  1.
         25    1    1    2    0    0  0.00000000000E+00  0.00000000000E+00  0.48837613787E+03  0.50411928354E+03  0.12500000000E+03 0.  0.
<mgrwt>
<rscale>  2 0.12500000E+03</rscale>
<asrwt>0</asrwt>
<pdfrwt beam="1">  1       21 0.76345777E-01 0.12500000E+03</pdfrwt>
<pdfrwt beam="2">  1       21 0.12110116E-02 0.12500000E+03</pdfrwt>
<totfact> 0.41821558E+06</totfact>
</mgrwt>
</event>
<event>
 3    0  0.1716123E+001  0.1250000E+03  0.7546771E-02  0.1235069E+00
         21   -1    0    0  502  501  0.00000000000E+00  0.00000000000E+00  0.37224674754E+02  0.37224674754E+02  0.00000000000E+00 0.  1.
         21   -1    0    0  501  502 -0.00000000000E+00 -0.00000000000E+00 -0.10493711566E+03  0.10493711566E+03  0.00000000000E+00 0.  1.
         25    1    1    2    0    0  0.00000000000E+00  0.00000000000E+00 -0.67712440902E+02  0.14216179041E+03  0.12500000000E+03 0.  0.
<mgrwt>
<rscale>  2 0.12500000E+03</rscale>
<asrwt>0</asrwt>
<pdfrwt beam="1">  1       21 0.57268731E-02 0.12500000E+03</pdfrwt>
<pdfrwt beam="2">  1       21 0.16144171E-01 0.12500000E+03</pdfrwt>
<totfact> 0.71758333E+06</totfact>
</mgrwt>
</event>
<event>
 3    0  0.1368989E+001  0.1250000E+03  0.7546771E-02  0.1235069E+00
         21   -1    0    0  502  501  0.00000000000E+00  0.00000000000E+00  0.71645289391E+03  0.71645289391E+03  0.00000000000E+00 0. -1.
         21   -1    0    0  501  502 -0.00000000000E+00 -0.00000000000E+00 -0.54522077211E+01  0.54522077211E+01  0.00000000000E+00 0. -1.
         25    1    1    2    0    0  0.00000000000E+00  0.00000000000E+00  0.71100068619E+03  0.72190510163E+03  0.12500000000E+03 0.  0.
<mgrwt>
<rscale>  2 0.12500000E+03</rscale>
<asrwt>0</asrwt>
<pdfrwt beam="1">  1       21 0.11022345E+00 0.12500000E+03</pdfrwt>
<pdfrwt beam="2">  1       21 0.83880176E-03 0.12500000E+03</pdfrwt>
<totfact> 0.32082565E+06</totfact>
</mgrwt>
</event>
<event>
 3    0  0.1720093E+001  0.1250000E+03  0.7546771E-02  0.1235069E+00
         21   -1    0    0  502  501  0.00000000000E+00  0.00000000000E+00  0.40436472372E+02  0.40436472372E+02  0.00000000000E+00 0.  1.
         21   -1    0    0  501  502 -0.00000000000E+00 -0.00000000000E+00 -0.96602145806E+02  0.96602145806E+02  0.00000000000E+00 0.  1.
         25    1    1    2    0    0  0.00000000000E+00  0.00000000000E+00 -0.56165673434E+02  0.13703861818E+03  0.12500000000E+03 0.  0.
<mgrwt>
<rscale>  2 0.12500000E+03</rscale>
<asrwt>0</asrwt>
<pdfrwt beam="1">  1       21 0.62209959E-02 0.12500000E+03</pdfrwt>
<pdfrwt beam="2">  1       21 0.14861868E-01 0.12500000E+03</pdfrwt>
<totfact> 0.72427655E+06</totfact>
</mgrwt>
</event>
