<event>
 5    1  0.4149151E-003  0.6394487E+02  0.7546771E-02  0.1429239E+00
          2   -1    0    0  502    0  0.00000000000E+00  0.00000000000E+00  0.27028982012E+04  0.27028982012E+04  0.00000000000E+00 0. -1.
         -2   -1    0    0    0  501 -0.00000000000E+00 -0.00000000000E+00 -0.30246658225E+02  0.30246658225E+02  0.00000000000E+00 0.  1.
         25    1    1    2    0    0 -0.60400969135E+02 -0.94927627136E+01  0.68488422499E+03  0.69887752236E+03  0.12500000000E+03 0.  0.
          2    1    1    2  502    0  0.55446573717E+02 -0.34344379814E+02  0.19890630647E+04  0.19901320897E+04  0.00000000000E+00 0. -1.
         -2    1    1    2    0  501  0.49543954181E+01  0.43837142527E+02 -0.12957467678E+01  0.44135247350E+02  0.00000000000E+00 0.  1.
<mgrwt>
<rscale>  0 0.53113145E+02</rscale>
<asrwt>0</asrwt>
<pdfrwt beam="1">  1        2 0.41583030E+00 0.63944871E+02</pdfrwt>
<pdfrwt beam="2">  1       -2 0.46533342E-02 0.44116223E+02</pdfrwt>
<totfact> 0.69568935E+02</totfact>
</mgrwt>
</event>
<event>
 5    1  0.4149151E-003  0.1485804E+03  0.7546771E-02  0.1366452E+00
         -1   -1    0    0    0  501 -0.00000000000E+00  0.00000000000E+00  0.31108263695E+02  0.31108263695E+02  0.00000000000E+00 0.  1.
          2   -1    0    0  502    0  0.00000000000E+00 -0.00000000000E+00 -0.36503457533E+04  0.36503457533E+04  0.00000000000E+00 0. -1.
         25    1    1    2    0    0 -0.32622602592E+02 -0.17253707549E+03 -0.93018966223E+03  0.95483563211E+03  0.12500000000E+03 0.  0.
          2    1    1    2  502    0  0.27775511173E+02  0.14164390505E+03 -0.26913917567E+04  0.26952595539E+04  0.00000000000E+00 0. -1.
         -1    1    1    2    0  501  0.48470914192E+01  0.30893170441E+02  0.23439293437E+01  0.31358830971E+02  0.00000000000E+00 0.  1.
<mgrwt>
<rscale>  0 0.68163575E+02</rscale>
<asrwt>0</asrwt>
<pdfrwt beam="2">  1        2 0.56159162E+00 0.14858037E+03</pdfrwt>
<pdfrwt beam="1">  1       -1 0.47858871E-02 0.31271109E+02</pdfrwt>
<totfact> 0.15438347E+02</totfact>
</mgrwt>
</event>
<event>
 5    1  0.4149151E-003  0.5104300E+03  0.7546771E-02  0.1011092E+00
         -1   -1    0    0    0  501 -0.00000000000E+00  0.00000000000E+00  0.81745162917E+02  0.81745162917E+02  0.00000000000E+00 0.  1.
          2   -1    0    0  502    0  0.00000000000E+00 -0.00000000000E+00 -0.79680199121E+03  0.79680199121E+03  0.00000000000E+00 0. -1.
         25    1    1    2    0    0  0.16789447584E+03 -0.16197466815E+03 -0.34244490960E+03  0.43280233854E+03  0.12500000000E+03 0.  0.
          2    1    1    2  502    0 -0.47592226245E+02  0.68970263499E+02 -0.19301663388E+03  0.21042181018E+03  0.00000000000E+00 0. -1.
         -1    1    1    2    0  501 -0.12030224960E+03  0.93004404649E+02 -0.17959528482E+03  0.23532300540E+03  0.00000000000E+00 0.  1.
<mgrwt>
<rscale>  0 0.51043005E+03</rscale>
<asrwt>0</asrwt>
<pdfrwt beam="2">  1        2 0.12258493E+00 0.51043005E+03</pdfrwt>
<pdfrwt beam="1">  1       -1 0.12576178E-01 0.51043005E+03</pdfrwt>
<totfact> 0.17280565E+03</totfact>
</mgrwt>
</event>
<event>
 5    1  0.4149151E-003  0.8399241E+02  0.7546771E-02  0.1378339E+00
          2   -1    0    0  502    0  0.00000000000E+00  0.00000000000E+00  0.13105880874E+04  0.13105880874E+04  0.00000000000E+00 0. -1.
         -1   -1    0    0    0  501 -0.00000000000E+00 -0.00000000000E+00 -0.25637023284E+03  0.25637023284E+03  0.00000000000E+00 0.  1.
         25    1    1    2    0    0 -0.63145385749E+00 -0.40407439256E+02  0.53880426970E+02  0.14199035281E+03  0.12500000000E+03 0.  0.
          2    1    1    2  502    0 -0.23009425508E+02 -0.44561511851E+02  0.12029483485E+04  0.12039933102E+04  0.00000000000E+00 0. -1.
         -1    1    1    2    0  501  0.23640879365E+02  0.84968951106E+02 -0.20261092092E+03  0.22097465715E+03  0.00000000000E+00 0.  1.
<mgrwt>
<rscale>  0 0.64902511E+02</rscale>
<asrwt>0</asrwt>
<pdfrwt beam="1">  1        2 0.20162893E+00 0.50151391E+02</pdfrwt>
<pdfrwt beam="2">  1       -1 0.39441575E-01 0.83992406E+02</pdfrwt>
<totfact> 0.14154486E+02</totfact>
</mgrwt>
</event>
<event>
 5    1  0.4149151E-003  0.3540001E+02  0.7546771E-02  0.1578302E+00
          1   -1    0    0  502    0  0.00000000000E+00  0.00000000000E+00  0.10494325583E+04  0.10494325583E+04  0.00000000000E+00 0. -1.
          1   -1    0    0  501    0 -0.00000000000E+00 -0.00000000000E+00 -0.15192647879E+03  0.15192647879E+03  0.00000000000E+00 0. -1.
         25    1    1    2    0    0  0.37737480248E+02  0.27468577800E+02  0.61276826908E+02  0.14682809574E+03  0.12500000000E+03 0.  0.
          1    1    1    2  501    0 -0.35333762286E+02  0.11209124485E+01 -0.10606437658E+03  0.11180064035E+03  0.00000000000E+00 0. -1.
          1    1    1    2  502    0 -0.24037179615E+01 -0.28589490248E+02  0.94229362922E+03  0.94273030103E+03  0.00000000000E+00 0. -1.
<mgrwt>
<rscale>  0 0.31869093E+02</rscale>
<asrwt>0</asrwt>
<pdfrwt beam="1">  1        1 0.16145116E+00 0.28690361E+02</pdfrwt>
<pdfrwt beam="2">  1        1 0.23373305E-01 0.35400012E+02</pdfrwt>
<totfact> 0.40346415E+02</totfact>
</mgrwt>
</event>
<event>
 5    1  0.4149151E-003  0.4182036E+02  0.7546771E-02  0.1589540E+00
         -2   -1    0    0    0  501 -0.00000000000E+00  0.00000000000E+00  0.33630988129E+02  0.33630988129E+02  0.00000000000E+00 0.  1.
          1   -1    0    0  502    0  0.00000000000E+00 -0.00000000000E+00 -0.34322642887E+03  0.34322642887E+03  0.00000000000E+00 0. -1.
         25    1    1    2    0    0  0.26838673991E+02 -0.62622232847E+01 -0.16457923518E+03  0.20849665348E+03  0.12500000000E+03 0.  0.
          1    1    1    2  502    0 -0.35032289002E+02  0.27395107306E+02 -0.13745020354E+03  0.14446560709E+03  0.00000000000E+00 0. -1.
         -2    1    1    2    0  501  0.81936150108E+01 -0.21132884021E+02 -0.75660020156E+01  0.23895156424E+02  0.00000000000E+00 0.  1.
<mgrwt>
<rscale>  0 0.30787789E+02</rscale>
<asrwt>0</asrwt>
<pdfrwt beam="2">  1        1 0.52804068E-01 0.41820362E+02</pdfrwt>
<pdfrwt beam="1">  1       -2 0.51739980E-02 0.22665703E+02</pdfrwt>
<totfact> 0.93783475E+03</totfact>
</mgrwt>
</event>
<event>
 5    1  0.4149151E-003  0.1729171E+03  0.7546771E-02  0.1253323E+00
          2   -1    0    0  502    0  0.00000000000E+00  0.00000000000E+00  0.72484023048E+03  0.72484023048E+03  0.00000000000E+00 0. -1.
         -2   -1    0    0    0  501 -0.00000000000E+00 -0.00000000000E+00 -0.41280768548E+03  0.41280768548E+03  0.00000000000E+00 0.  1.
         25    1    1    2    0    0 -0.10004053988E+03 -0.97312293986E+02 -0.26130289144E+02  0.18917078049E+03  0.12500000000E+03 0.  0.
          2    1    1    2  502    0 -0.71703327251E+02  0.22557913841E+02  0.61205983024E+03  0.61665830280E+03  0.00000000000E+00 0. -1.
         -2    1    1    2    0  501  0.17174386713E+03  0.74754380145E+02 -0.27389699610E+03  0.33181883268E+03  0.00000000000E+00 0.  1.
<mgrwt>
<rscale>  0 0.11400804E+03</rscale>
<asrwt>0</asrwt>
<pdfrwt beam="1">  1        2 0.11151388E+00 0.75167989E+02</pdfrwt>
<pdfrwt beam="2">  1       -2 0.63508875E-01 0.17291714E+03</pdfrwt>
<totfact> 0.10004722E+02</totfact>
</mgrwt>
</event>
<event>
 5    1  0.4149151E-003  0.1152569E+03  0.7546771E-02  0.1327195E+00
         -2   -1    0    0    0  501 -0.00000000000E+00  0.00000000000E+00  0.23021095379E+03  0.23021095379E+03  0.00000000000E+00 0.  1.
          2   -1    0    0  502    0  0.00000000000E+00 -0.00000000000E+00 -0.29043009723E+03  0.29043009723E+03  0.00000000000E+00 0. -1.
         25    1    1    2    0    0  0.54715672700E+02  0.15371952331E+03  0.52137827091E+02  0.21205388395E+03  0.12500000000E+03 0.  0.
          2    1    1    2  502    0 -0.51037545119E+02 -0.97394433282E+02 -0.18583678695E+03  0.21593012303E+03  0.00000000000E+00 0. -1.
         -2    1    1    2    0  501 -0.36781275807E+01 -0.56325090027E+02  0.73479816421E+02  0.92657044040E+02  0.00000000000E+00 0.  1.
<mgrwt>
<rscale>  0 0.80657808E+02</rscale>
<asrwt>0</asrwt>
<pdfrwt beam="2">  1        2 0.44681553E-01 0.11525689E+03</pdfrwt>
<pdfrwt beam="1">  1       -2 0.35417070E-01 0.56445056E+02</pdfrwt>
<totfact> 0.83189961E+02</totfact>
</mgrwt>
</event>
<event>
 5    1  0.4149151E-003  0.5378171E+02  0.7546771E-02  0.1460557E+00
          2   -1    0    0  502    0  0.00000000000E+00  0.00000000000E+00  0.25214802439E+03  0.25214802439E+03  0.00000000000E+00 0. -1.
         -1   -1    0    0    0  501 -0.00000000000E+00 -0.00000000000E+00 -0.77439290977E+02  0.77439290977E+02  0.00000000000E+00 0.  1.
         25    1    1    2    0    0  0.18334752777E+02  0.65701279407E+02  0.22460981028E+02  0.14416073302E+03  0.12500000000E+03 0.  0.
          2    1    1    2  502    0  0.20054242415E+02 -0.49741768685E+02  0.12417418811E+03  0.13526139576E+03  0.00000000000E+00 0. -1.
         -1    1    1    2    0  501 -0.38388995191E+02 -0.15959510722E+02  0.28073564276E+02  0.50165186589E+02  0.00000000000E+00 0.  1.
<mgrwt>
<rscale>  0 0.47285686E+02</rscale>
<asrwt>0</asrwt>
<pdfrwt beam="1">  1        2 0.38792003E-01 0.53781712E+02</pdfrwt>
<pdfrwt beam="2">  1       -1 0.11913737E-01 0.41574282E+02</pdfrwt>
<totfact> 0.60842784E+03</totfact>
</mgrwt>
</event>
<event>
 5    1  0.4149151E-003  0.2438377E+03  0.7546771E-02  0.1298092E+00
          1   -1    0    0  502    0 -0.00000000000E+00  0.00000000000E+00  0.21259560204E+04  0.21259560204E+04  0.00000000000E+00 0. -1.
          2   -1    0    0  501    0  0.00000000000E+00 -0.00000000000E+00 -0.64053747513E+03  0.64053747513E+03  0.00000000000E+00 0. -1.
         25    1    1    2    0    0 -0.21728672277E+03  0.15910638383E+03  0.13319694562E+03  0.32541479314E+03  0.12500000000E+03 0.  0.
          2    1    1    2  501    0  0.20499273160E+03 -0.12664910049E+03 -0.51759770791E+03  0.57093730120E+03  0.00000000000E+00 0. -1.
          1    1    1    2  502    0  0.12293991169E+02 -0.32457283348E+02  0.18698193075E+04  0.18701414011E+04  0.00000000000E+00 0. -1.
<mgrwt>
<rscale>  0 0.91994677E+02</rscale>
<asrwt>0</asrwt>
<pdfrwt beam="2">  1        2 0.98544228E-01 0.24383768E+03</pdfrwt>
<pdfrwt beam="1">  1        1 0.32707015E+00 0.34707599E+02</pdfrwt>
<totfact> 0.23536830E+01</totfact>
</mgrwt>
</event>
<event>
 5    1  0.4149151E-003  0.1903645E+03  0.7546771E-02  0.1248004E+00
          1   -1    0    0  502    0  0.00000000000E+00  0.00000000000E+00  0.21709181061E+04  0.21709181061E+04  0.00000000000E+00 0. -1.
         -1   -1    0    0    0  501 -0.00000000000E+00 -0.00000000000E+00 -0.58421828444E+02  0.58421828444E+02  0.00000000000E+00 0. -1.
         25    1    1    2    0    0  0.66642349785E+02 -0.12973636150E+03  0.65938988998E+03  0.68679891765E+03  0.12500000000E+03 0.  0.
          1    1    1    2  502    0 -0.11324817424E+03  0.18461754387E+03  0.14544902964E+04  0.14705273914E+04  0.00000000000E+00 0. -1.
         -1    1    1    2    0  501  0.46605824453E+02 -0.54881182362E+02 -0.13839087636E+01  0.72013625474E+02  0.00000000000E+00 0. -1.
<mgrwt>
<rscale>  0 0.11707392E+03</rscale>
<asrwt>0</asrwt>
<pdfrwt beam="1">  1        1 0.33398734E+00 0.19036447E+03</pdfrwt>
<pdfrwt beam="2">  1       -1 0.89879753E-02 0.72000327E+02</pdfrwt>
<totfact> 0.18035107E+02</totfact>
</mgrwt>
</event>
<event>
 5    1  0.4149151E-003  0.4491152E+02  0.7546771E-02  0.1487521E+00
         -1   -1    0    0    0  501 -0.00000000000E+00  0.00000000000E+00  0.68217971591E+01  0.68217971591E+01  0.00000000000E+00 0.  1.
          2   -1    0    0  502    0  0.00000000000E+00 -0.00000000000E+00 -0.19549551401E+04  0.19549551401E+04  0.00000000000E+00 0. -1.
         25    1    1    2    0    0 -0.40324332429E+02 -0.45740051646E+02 -0.10201037821E+04  0.10295411261E+04  0.12500000000E+03 0.  0.
          2    1    1    2  502    0  0.44136537956E+02  0.48316467120E+01 -0.60053657077E+03  0.60217568170E+03  0.00000000000E+00 0. -1.
         -1    1    1    2    0  501 -0.38122055271E+01  0.40908404934E+02 -0.32749299001E+03  0.33006012938E+03  0.00000000000E+00 0.  1.
<mgrwt>
<rscale>  0 0.42956012E+02</rscale>
<asrwt>0</asrwt>
<pdfrwt beam="2">  1        2 0.30076229E+00 0.44911521E+02</pdfrwt>
<pdfrwt beam="1">  1       -1 0.10495074E-02 0.41085648E+02</pdfrwt>
<totfact> 0.14106192E+04</totfact>
</mgrwt>
</event>
<event>
 5    1  0.4149151E-003  0.5941257E+02  0.7546771E-02  0.1529186E+00
          3   -1    0    0  502    0  0.00000000000E+00  0.00000000000E+00  0.12549640889E+03  0.12549640889E+03  0.00000000000E+00 0. -1.
         -3   -1    0    0    0  501 -0.00000000000E+00 -0.00000000000E+00 -0.15797953557E+03  0.15797953557E+03  0.00000000000E+00 0.  1.
         25    1    1    2    0    0  0.76204738952E+02 -0.11382432992E+02  0.25166536919E+02  0.14898012149E+03  0.12500000000E+03 0.  0.
          3    1    1    2  502    0 -0.53489156652E+02  0.57629119179E+01  0.16875396945E+02  0.56383331359E+02  0.00000000000E+00 0. -1.
         -3    1    1    2    0  501 -0.22715582301E+02  0.56195210739E+01 -0.74525060538E+02  0.78112491604E+02  0.00000000000E+00 0.  1.
<mgrwt>
<rscale>  0 0.37286396E+02</rscale>
<asrwt>0</asrwt>
<pdfrwt beam="1">  1        3 0.19307140E-01 0.59412569E+02</pdfrwt>
<pdfrwt beam="2">  1       -3 0.24304544E-01 0.23400357E+02</pdfrwt>
<totfact> 0.66756205E+02</totfact>
</mgrwt>
</event>
<event>
 5    1  0.4149151E-003  0.1104421E+03  0.7546771E-02  0.1442604E+00
          1   -1    0    0  502    0  0.00000000000E+00  0.00000000000E+00  0.62774322773E+02  0.62774322773E+02  0.00000000000E+00 0. -1.
         -2   -1    0    0    0  501 -0.00000000000E+00 -0.00000000000E+00 -0.45550875535E+03  0.45550875535E+03  0.00000000000E+00 0.  1.
         25    1    1    2    0    0  0.74258292712E+02 -0.77807233826E+02 -0.92184198156E+02  0.18892111068E+03  0.12500000000E+03 0.  0.
          1    1    1    2  502    0 -0.15527045628E+02 -0.17105182773E+02 -0.50850676659E+02  0.55852195483E+02  0.00000000000E+00 0. -1.
         -2    1    1    2    0  501 -0.58731247084E+02  0.94912416599E+02 -0.24969955776E+03  0.27350977196E+03  0.00000000000E+00 0.  1.
<mgrwt>
<rscale>  0 0.50511093E+02</rscale>
<asrwt>0</asrwt>
<pdfrwt beam="1">  1        1 0.96575880E-02 0.23101438E+02</pdfrwt>
<pdfrwt beam="2">  1       -2 0.70078271E-01 0.11044207E+03</pdfrwt>
<totfact> 0.95936114E+02</totfact>
</mgrwt>
</event>
<event>
 5    1  0.4149151E-003  0.1894564E+03  0.7546771E-02  0.1239501E+00
          2   -1    0    0  501    0  0.00000000000E+00  0.00000000000E+00  0.29769939239E+03  0.29769939239E+03  0.00000000000E+00 0. -1.
          1   -1    0    0  502    0 -0.00000000000E+00 -0.00000000000E+00 -0.29839251840E+03  0.29839251840E+03  0.00000000000E+00 0. -1.
         25    1    1    2    0    0 -0.16947706971E+03 -0.16664304359E+03  0.58710129798E+01  0.26861096390E+03  0.12500000000E+03 0.  0.
          2    1    1    2  501    0  0.93797038786E+02  0.14459060606E+03  0.96656784562E+02  0.19760278805E+03  0.00000000000E+00 0. -1.
          1    1    1    2  502    0  0.75680030928E+02  0.22052437529E+02 -0.10322092355E+03  0.12987815883E+03  0.00000000000E+00 0. -1.
<mgrwt>
<rscale>  0 0.12220628E+03</rscale>
<asrwt>0</asrwt>
<pdfrwt beam="1">  1        2 0.45799907E-01 0.18945638E+03</pdfrwt>
<pdfrwt beam="2">  1        1 0.45906541E-01 0.78827515E+02</pdfrwt>
<totfact> 0.13195010E+03</totfact>
</mgrwt>
</event>
<event>
 5    1  0.4315097E-003  0.9172706E+02  0.7546771E-02  0.1422767E+00
         -1   -1    0    0    0  501 -0.00000000000E+00  0.00000000000E+00  0.23888137339E+02  0.23888137339E+02  0.00000000000E+00 0.  1.
          2   -1    0    0  502    0  0.00000000000E+00 -0.00000000000E+00 -0.92330088775E+03  0.92330088775E+03  0.00000000000E+00 0. -1.
         25    1    1    2    0    0  0.77078319607E+02 -0.67726309242E+02 -0.58477385595E+03  0.60672348143E+03  0.12500000000E+03 0.  0.
          2    1    1    2  502    0 -0.79234318658E+02  0.35488367581E+02 -0.27975717959E+03  0.29291906906E+03  0.00000000000E+00 0. -1.
         -1    1    1    2    0  501  0.21559990506E+01  0.32237941660E+02 -0.34881714872E+02  0.47546474599E+02  0.00000000000E+00 0.  1.
<mgrwt>
<rscale>  0 0.54439850E+02</rscale>
<asrwt>0</asrwt>
<pdfrwt beam="2">  1        2 0.14204629E+00 0.91727060E+02</pdfrwt>
<pdfrwt beam="1">  1       -1 0.36750980E-02 0.32309955E+02</pdfrwt>
<totfact> 0.77144442E+03</totfact>
</mgrwt>
</event>
<event>
 5    1  0.4149151E-003  0.4074421E+02  0.7546771E-02  0.1612300E+00
          2   -1    0    0  502    0  0.00000000000E+00  0.00000000000E+00  0.12268930330E+04  0.12268930330E+04  0.00000000000E+00 0.  1.
         -1   -1    0    0    0  501 -0.00000000000E+00 -0.00000000000E+00 -0.18766901224E+04  0.18766901224E+04  0.00000000000E+00 0.  1.
         25    1    1    2    0    0  0.29163210571E+02 -0.90521733286E+01  0.78645006725E+03  0.79690723611E+03  0.12500000000E+03 0.  0.
          2    1    1    2  502    0 -0.86984833387E+00 -0.20271803670E+02  0.43475593188E+03  0.43522916144E+03  0.00000000000E+00 0.  1.
         -1    1    1    2    0  501 -0.28293362237E+02  0.29323976999E+02 -0.18710030885E+04  0.18714467578E+04  0.00000000000E+00 0.  1.
<mgrwt>
<rscale>  0 0.28752716E+02</rscale>
<asrwt>0</asrwt>
<pdfrwt beam="1">  1        2 0.18875277E+00 0.20290457E+02</pdfrwt>
<pdfrwt beam="2">  1       -1 0.28872156E+00 0.40744211E+02</pdfrwt>
<totfact> 0.15230945E+00</totfact>
</mgrwt>
</event>
<event>
 5    1  0.4149151E-003  0.1273621E+03  0.7546771E-02  0.1373284E+00
          2   -1    0    0  501    0  0.00000000000E+00  0.00000000000E+00  0.74263494297E+02  0.74263494297E+02  0.00000000000E+00 0. -1.
          1   -1    0    0  502    0 -0.00000000000E+00 -0.00000000000E+00 -0.97917564738E+03  0.97917564738E+03  0.00000000000E+00 0. -1.
         25    1    1    2    0    0  0.28333294477E+02  0.10135360062E+03 -0.37328371498E+03  0.40748136129E+03  0.12500000000E+03 0.  0.
          2    1    1    2  501    0 -0.28378288360E+01  0.34357445476E+02  0.42918742530E+02  0.55050029905E+02  0.00000000000E+00 0. -1.
          1    1    1    2  502    0 -0.25495465641E+02 -0.13571104609E+03 -0.57454718064E+03  0.59090775048E+03  0.00000000000E+00 0. -1.
<mgrwt>
<rscale>  0 0.66262647E+02</rscale>
<asrwt>0</asrwt>
<pdfrwt beam="1">  1        2 0.11425152E-01 0.34474445E+02</pdfrwt>
<pdfrwt beam="2">  1        1 0.15064241E+00 0.12736212E+03</pdfrwt>
<totfact> 0.11317754E+03</totfact>
</mgrwt>
</event>
<event>
 5    1  0.4149151E-003  0.7773896E+02  0.7546771E-02  0.1386418E+00
         -3   -1    0    0    0  501  0.00000000000E+00  0.00000000000E+00  0.32029924930E+03  0.32029924930E+03  0.00000000000E+00 0.  1.
         -3   -1    0    0    0  502 -0.00000000000E+00 -0.00000000000E+00 -0.35087247762E+03  0.35087247762E+03  0.00000000000E+00 0.  1.
         25    1    1    2    0    0 -0.52316210960E+02 -0.16523173000E+02  0.21334432000E+03  0.25328008223E+03  0.12500000000E+03 0.  0.
         -3    1    1    2    0  502  0.42086308769E+02  0.66223518947E+02 -0.31831173209E+03  0.32784016019E+03  0.00000000000E+00 0.  1.
         -3    1    1    2    0  501  0.10229902192E+02 -0.49700345946E+02  0.74394183764E+02  0.90051484518E+02  0.00000000000E+00 0.  1.
<mgrwt>
<rscale>  0 0.62806445E+02</rscale>
<asrwt>0</asrwt>
<pdfrwt beam="1">  1       -3 0.49276808E-01 0.50742244E+02</pdfrwt>
<pdfrwt beam="2">  1       -3 0.53980381E-01 0.77738965E+02</pdfrwt>
<totfact> 0.30792805E+01</totfact>
</mgrwt>
</event>
<event>
 5    1  0.4149151E-003  0.9201568E+02  0.7546771E-02  0.1466742E+00
          2   -1    0    0  501    0  0.00000000000E+00  0.00000000000E+00  0.25265333458E+04  0.25265333458E+04  0.00000000000E+00 0. -1.
          1   -1    0    0  502    0 -0.00000000000E+00 -0.00000000000E+00 -0.14167991304E+02  0.14167991304E+02  0.00000000000E+00 0. -1.
         25    1    1    2    0    0 -0.21095782364E+02 -0.82773825240E+02  0.72535611574E+03  0.74098787630E+03  0.12500000000E+03 0.  0.
          2    1    1    2  501    0  0.44326497616E+02  0.82222593331E+02  0.17657487939E+04  0.17682178023E+04  0.00000000000E+00 0. -1.
          1    1    1    2  502    0 -0.23230715253E+02  0.55123190895E+00  0.21260444809E+02  0.31495658451E+02  0.00000000000E+00 0. -1.
<mgrwt>
<rscale>  0 0.46240585E+02</rscale>
<asrwt>0</asrwt>
<pdfrwt beam="1">  1        2 0.38869708E+00 0.92015679E+02</pdfrwt>
<pdfrwt beam="2">  1        1 0.21796930E-02 0.23237254E+02</pdfrwt>
<totfact> 0.23196732E+03</totfact>
</mgrwt>
</event>
<event>
 5    1  0.4149151E-003  0.8882738E+02  0.7546771E-02  0.1329843E+00
          2   -1    0    0  502    0  0.00000000000E+00  0.00000000000E+00  0.22747690789E+04  0.22747690789E+04  0.00000000000E+00 0. -1.
         -1   -1    0    0    0  501 -0.00000000000E+00 -0.00000000000E+00 -0.10823414024E+03  0.10823414024E+03  0.00000000000E+00 0.  1.
         25    1    1    2    0    0  0.10704841210E+02  0.38177509283E+02  0.23691849390E+03  0.27079048837E+03  0.12500000000E+03 0.  0.
          2    1    1    2  502    0  0.70871130699E+02  0.98291045243E+01  0.19955669442E+04  0.19968492074E+04  0.00000000000E+00 0. -1.
         -1    1    1    2    0  501 -0.81575971908E+02 -0.48006613808E+02 -0.65950499373E+02  0.11536352339E+03  0.00000000000E+00 0.  1.
<mgrwt>
<rscale>  0 0.79721722E+02</rscale>
<asrwt>0</asrwt>
<pdfrwt beam="1">  1        2 0.34996444E+00 0.71549483E+02</pdfrwt>
<pdfrwt beam="2">  1       -1 0.16651408E-01 0.88827378E+02</pdfrwt>
<totfact> 0.18552065E+02</totfact>
</mgrwt>
</event>
<event>
 5    1  0.4149151E-003  0.9322906E+02  0.7546771E-02  0.1455345E+00
          1   -1    0    0  502    0  0.00000000000E+00  0.00000000000E+00  0.13517621151E+03  0.13517621151E+03  0.00000000000E+00 0. -1.
         -1   -1    0    0    0  501 -0.00000000000E+00 -0.00000000000E+00 -0.11014793671E+04  0.11014793671E+04  0.00000000000E+00 0.  1.
         25    1    1    2    0    0  0.29552833342E+02  0.10439441262E+03 -0.98498787781E+02  0.19260990250E+03  0.12500000000E+03 0.  0.
          1    1    1    2  502    0  0.12168517137E+02 -0.21737072951E+02  0.84067733034E+02  0.87680995017E+02  0.00000000000E+00 0. -1.
         -1    1    1    2    0  501 -0.41721350479E+02 -0.82657339672E+02 -0.95187210080E+03  0.95636468105E+03  0.00000000000E+00 0.  1.
<mgrwt>
<rscale>  0 0.48191883E+02</rscale>
<asrwt>0</asrwt>
<pdfrwt beam="1">  1        1 0.20796340E-01 0.24911306E+02</pdfrwt>
<pdfrwt beam="2">  1       -1 0.16945837E+00 0.93229061E+02</pdfrwt>
<totfact> 0.65721232E+01</totfact>
</mgrwt>
</event>
<event>
 5    1  0.4149151E-003  0.7481670E+02  0.7546771E-02  0.1483674E+00
          2   -1    0    0  502    0  0.00000000000E+00  0.00000000000E+00  0.25796937926E+03  0.25796937926E+03  0.00000000000E+00 0. -1.
         -1   -1    0    0    0  501 -0.00000000000E+00 -0.00000000000E+00 -0.95244009822E+02  0.95244009822E+02  0.00000000000E+00 0.  1.
         25    1    1    2    0    0 -0.81432101878E+02 -0.59132860279E+01 -0.49293390063E+01  0.14938357524E+03  0.12500000000E+03 0.  0.
          2    1    1    2  502    0  0.69007787140E+02  0.27995102716E+02  0.16137022833E+03  0.17772493087E+03  0.00000000000E+00 0. -1.
         -1    1    1    2    0  501  0.12424314737E+02 -0.22081816688E+02  0.62844801202E+01  0.26104882979E+02  0.00000000000E+00 0.  1.
<mgrwt>
<rscale>  0 0.43538953E+02</rscale>
<asrwt>0</asrwt>
<pdfrwt beam="1">  1        2 0.39687597E-01 0.74816697E+02</pdfrwt>
<pdfrwt beam="2">  1       -1 0.14652925E-01 0.25337131E+02</pdfrwt>
<totfact> 0.42253980E+03</totfact>
</mgrwt>
</event>
<event>
 5    1  0.4149151E-003  0.5330613E+02  0.7546771E-02  0.1535131E+00
          1   -1    0    0  502    0  0.00000000000E+00  0.00000000000E+00  0.20356086573E+02  0.20356086573E+02  0.00000000000E+00 0. -1.
         -2   -1    0    0    0  501 -0.00000000000E+00 -0.00000000000E+00 -0.13845243676E+04  0.13845243676E+04  0.00000000000E+00 0.  1.
         25    1    1    2    0    0  0.82294750097E+01  0.51250707727E+02 -0.23092257137E+03  0.26766507667E+03  0.12500000000E+03 0.  0.
          1    1    1    2  502    0 -0.33258242360E+02 -0.49637227707E+02 -0.51384845330E+03  0.51731054311E+03  0.00000000000E+00 0. -1.
         -2    1    1    2    0  501  0.25028767351E+02 -0.16134800197E+01 -0.61939725635E+03  0.61990483438E+03  0.00000000000E+00 0.  1.
<mgrwt>
<rscale>  0 0.36564412E+02</rscale>
<asrwt>0</asrwt>
<pdfrwt beam="1">  1        1 0.31317054E-02 0.53306134E+02</pdfrwt>
<pdfrwt beam="2">  1       -2 0.21300377E+00 0.25080720E+02</pdfrwt>
<totfact> 0.33704148E+02</totfact>
</mgrwt>
</event>
<event>
 5    1  0.4149151E-003  0.7518629E+02  0.7546771E-02  0.1403566E+00
          2   -1    0    0  501    0  0.00000000000E+00  0.00000000000E+00  0.22564535454E+04  0.22564535454E+04  0.00000000000E+00 0. -1.
          1   -1    0    0  502    0 -0.00000000000E+00 -0.00000000000E+00 -0.86274347815E+01  0.86274347815E+01  0.00000000000E+00 0. -1.
         25    1    1    2    0    0 -0.31046764832E+02 -0.89173244728E+02  0.12453316856E+04  0.12551461175E+04  0.12500000000E+03 0.  0.
          2    1    1    2  501    0 -0.10665746950E+02  0.70361978031E+02  0.74636634573E+03  0.74975148426E+03  0.00000000000E+00 0. -1.
          1    1    1    2  502    0  0.41712511782E+02  0.18811266697E+02  0.25612807933E+03  0.26018337844E+03  0.00000000000E+00 0. -1.
<mgrwt>
<rscale>  0 0.58654723E+02</rscale>
<asrwt>0</asrwt>
<pdfrwt beam="1">  1        2 0.34714623E+00 0.75186289E+02</pdfrwt>
<pdfrwt beam="2">  1        1 0.13272995E-02 0.45758031E+02</pdfrwt>
<totfact> 0.71834291E+03</totfact>
</mgrwt>
</event>
<event>
 5    1  0.4149151E-003  0.3900316E+03  0.7546771E-02  0.1133869E+00
          1   -1    0    0  502    0  0.00000000000E+00  0.00000000000E+00  0.24952108598E+04  0.24952108598E+04  0.00000000000E+00 0. -1.
         -2   -1    0    0    0  501 -0.00000000000E+00 -0.00000000000E+00 -0.21074002093E+03  0.21074002093E+03  0.00000000000E+00 0.  1.
         25    1    1    2    0    0  0.40464591311E+03 -0.96542652757E+02  0.16530000963E+03  0.46476649189E+03  0.12500000000E+03 0.  0.
          1    1    1    2  502    0 -0.49922917422E+02  0.11362996412E+03  0.16403498489E+04  0.16450385081E+04  0.00000000000E+00 0. -1.
         -2    1    1    2    0  501 -0.35472299569E+03 -0.17087311359E+02  0.47882098031E+03  0.59614588069E+03  0.00000000000E+00 0.  1.
<mgrwt>
<rscale>  0 0.22001828E+03</rscale>
<asrwt>0</asrwt>
<pdfrwt beam="1">  1        1 0.38387857E+00 0.12411312E+03</pdfrwt>
<pdfrwt beam="2">  1       -2 0.32421543E-01 0.39003164E+03</pdfrwt>
<totfact> 0.14048533E+01</totfact>
</mgrwt>
</event>
<event>
 5    1  0.4149151E-003  0.5717630E+02  0.7546771E-02  0.1438771E+00
          2   -1    0    0  502    0  0.00000000000E+00  0.00000000000E+00  0.42238064906E+03  0.42238064906E+03  0.00000000000E+00 0. -1.
         -1   -1    0    0    0  501 -0.00000000000E+00 -0.00000000000E+00 -0.41114194616E+02  0.41114194616E+02  0.00000000000E+00 0.  1.
         25    1    1    2    0    0 -0.78795232292E+02 -0.67271442900E+01  0.26512885663E+03  0.30359883682E+03  0.12500000000E+03 0.  0.
          2    1    1    2  502    0  0.30662715827E+02  0.34180096915E+02  0.84286573986E+02  0.95982851184E+02  0.00000000000E+00 0. -1.
         -1    1    1    2    0  501  0.48132516465E+02 -0.27452952625E+02  0.31851023834E+02  0.63913155676E+02  0.00000000000E+00 0.  1.
<mgrwt>
<rscale>  0 0.51238978E+02</rscale>
<asrwt>0</asrwt>
<pdfrwt beam="1">  1        2 0.64981635E-01 0.45918201E+02</pdfrwt>
<pdfrwt beam="2">  1       -1 0.63252610E-02 0.57176301E+02</pdfrwt>
<totfact> 0.93576859E+03</totfact>
</mgrwt>
</event>
<event>
 5    1  0.4149151E-003  0.1205245E+03  0.7546771E-02  0.1426660E+00
          2   -1    0    0  501    0  0.00000000000E+00  0.00000000000E+00  0.37892008404E+04  0.37892008404E+04  0.00000000000E+00 0. -1.
          3   -1    0    0  502    0 -0.00000000000E+00 -0.00000000000E+00 -0.63252172377E+03  0.63252172377E+03  0.00000000000E+00 0. -1.
         25    1    1    2    0    0 -0.66916191708E+01 -0.12635749202E+03  0.13716883301E+04  0.13831720314E+04  0.12500000000E+03 0.  0.
          2    1    1    2  501    0 -0.15800895778E+02  0.11836740019E+03  0.24100645081E+04  0.24130212272E+04  0.00000000000E+00 0. -1.
          3    1    1    2  502    0  0.22492514949E+02  0.79900918322E+01 -0.62507372153E+03  0.62552930559E+03  0.00000000000E+00 0. -1.
<mgrwt>
<rscale>  0 0.53636404E+02</rscale>
<asrwt>0</asrwt>
<pdfrwt beam="1">  1        2 0.58295396E+00 0.12052449E+03</pdfrwt>
<pdfrwt beam="2">  1        3 0.97311036E-01 0.23869537E+02</pdfrwt>
<totfact> 0.42040077E-01</totfact>
</mgrwt>
</event>
<event>
 5    1  0.4149151E-003  0.7518648E+02  0.7546771E-02  0.1343862E+00
          2   -1    0    0  502    0  0.00000000000E+00  0.00000000000E+00  0.36580410874E+04  0.36580410874E+04  0.00000000000E+00 0. -1.
         -1   -1    0    0    0  501 -0.00000000000E+00 -0.00000000000E+00 -0.30832646678E+03  0.30832646678E+03  0.00000000000E+00 0.  1.
         25    1    1    2    0    0 -0.36099117511E+02 -0.33209929280E+02  0.58578562712E+02  0.14650083173E+03  0.12500000000E+03 0.  0.
          2    1    1    2  502    0  0.67240445218E+02 -0.34820937864E+02  0.35497957355E+04  0.35506032641E+04  0.00000000000E+00 0. -1.
         -1    1    1    2    0  501 -0.31141327708E+02  0.68030867144E+02 -0.25865967762E+03  0.26926345835E+03  0.00000000000E+00 0.  1.
<mgrwt>
<rscale>  0 0.75002842E+02</rscale>
<asrwt>0</asrwt>
<pdfrwt beam="1">  1        2 0.56277552E+00 0.75186475E+02</pdfrwt>
<pdfrwt beam="2">  1       -1 0.47434844E-01 0.74819658E+02</pdfrwt>
<totfact> 0.53220512E+00</totfact>
</mgrwt>
</event>
<event>
 5    1  0.4149151E-003  0.6492538E+02  0.7546771E-02  0.1398100E+00
         -2   -1    0    0    0  501 -0.00000000000E+00  0.00000000000E+00  0.70961601113E+03  0.70961601113E+03  0.00000000000E+00 0.  1.
          1   -1    0    0  502    0  0.00000000000E+00 -0.00000000000E+00 -0.14130334774E+04  0.14130334774E+04  0.00000000000E+00 0. -1.
         25    1    1    2    0    0  0.15174177590E+02  0.42210011160E+02 -0.65629259921E+00  0.13280576579E+03  0.12500000000E+03 0.  0.
          1    1    1    2  502    0  0.39219915244E+02 -0.52345219989E+02 -0.13443165398E+04  0.13459068255E+04  0.00000000000E+00 0. -1.
         -2    1    1    2    0  501 -0.54394092834E+02  0.10135208829E+02  0.64155536613E+03  0.64393689722E+03  0.00000000000E+00 0.  1.
<mgrwt>
<rscale>  0 0.59936129E+02</rscale>
<asrwt>0</asrwt>
<pdfrwt beam="2">  1        1 0.21738976E+00 0.64925382E+02</pdfrwt>
<pdfrwt beam="1">  1       -2 0.10917170E+00 0.55330279E+02</pdfrwt>
<totfact> 0.60919596E+00</totfact>
</mgrwt>
</event>
<event>
 5    1  0.4149151E-003  0.1487830E+03  0.7546771E-02  0.1242406E+00
         -3   -1    0    0    0  501 -0.00000000000E+00  0.00000000000E+00  0.22596594607E+03  0.22596594607E+03  0.00000000000E+00 0.  1.
          2   -1    0    0  502    0  0.00000000000E+00 -0.00000000000E+00 -0.15461496652E+04  0.15461496652E+04  0.00000000000E+00 0. -1.
         25    1    1    2    0    0  0.13023057361E+03  0.90811848703E+02 -0.43237066948E+03  0.47725903867E+03  0.12500000000E+03 0.  0.
          2    1    1    2  502    0 -0.82764398138E+02  0.51471464271E+02 -0.10611596134E+04  0.10656260988E+04  0.00000000000E+00 0. -1.
         -3    1    1    2    0  501 -0.47466175468E+02 -0.14228331297E+03  0.17334656376E+03  0.22923047383E+03  0.00000000000E+00 0.  1.
<mgrwt>
<rscale>  0 0.12042014E+03</rscale>
<asrwt>0</asrwt>
<pdfrwt beam="2">  1        2 0.23786919E+00 0.97464133E+02</pdfrwt>
<pdfrwt beam="1">  1       -3 0.34763991E-01 0.14878305E+03</pdfrwt>
<totfact> 0.69394289E+01</totfact>
</mgrwt>
</event>
<event>
 5    1  0.4149151E-003  0.3892462E+02  0.7546771E-02  0.1574035E+00
          2   -1    0    0  501    0  0.00000000000E+00  0.00000000000E+00  0.64754013593E+03  0.64754013593E+03  0.00000000000E+00 0. -1.
          1   -1    0    0  502    0 -0.00000000000E+00 -0.00000000000E+00 -0.24970238055E+03  0.24970238055E+03  0.00000000000E+00 0. -1.
         25    1    1    2    0    0 -0.33496635239E+02 -0.54726052369E+02  0.18340091940E+03  0.23103649628E+03  0.12500000000E+03 0.  0.
          2    1    1    2  501    0  0.80054030561E+01  0.25568610571E+02  0.43824920986E+03  0.43906743248E+03  0.00000000000E+00 0. -1.
          1    1    1    2  502    0  0.25491232183E+02  0.29157441798E+02 -0.22381237387E+03  0.22713858771E+03  0.00000000000E+00 0. -1.
<mgrwt>
<rscale>  0 0.32293799E+02</rscale>
<asrwt>0</asrwt>
<pdfrwt beam="1">  1        2 0.99621559E-01 0.26792542E+02</pdfrwt>
<pdfrwt beam="2">  1        1 0.38415751E-01 0.38924618E+02</pdfrwt>
<totfact> 0.72486009E+02</totfact>
</mgrwt>
</event>
<event>
 5    1  0.4149151E-003  0.6994516E+02  0.7546771E-02  0.1456393E+00
          1   -1    0    0  502    0 -0.00000000000E+00  0.00000000000E+00  0.10824318089E+04  0.10824318089E+04  0.00000000000E+00 0. -1.
          2   -1    0    0  501    0  0.00000000000E+00 -0.00000000000E+00 -0.57799684895E+03  0.57799684895E+03  0.00000000000E+00 0. -1.
         25    1    1    2    0    0 -0.94926579954E+02 -0.15124658855E+02  0.54621857522E+02  0.16687827362E+03  0.12500000000E+03 0.  0.
          2    1    1    2  501    0  0.64095036320E+02  0.26750601555E+02 -0.51927657139E+03  0.52390068330E+03  0.00000000000E+00 0. -1.
          1    1    1    2  502    0  0.30831543634E+02 -0.11625942700E+02  0.96908967380E+03  0.96964970092E+03  0.00000000000E+00 0. -1.
<mgrwt>
<rscale>  0 0.48007705E+02</rscale>
<asrwt>0</asrwt>
<pdfrwt beam="2">  1        2 0.88922592E-01 0.69945157E+02</pdfrwt>
<pdfrwt beam="1">  1        1 0.16652797E+00 0.32950670E+02</pdfrwt>
<totfact> 0.11999280E+02</totfact>
</mgrwt>
</event>
<event>
 5    1  0.4149151E-003  0.6345935E+02  0.7546771E-02  0.1525691E+00
         -1   -1    0    0    0  501 -0.00000000000E+00  0.00000000000E+00  0.12160416026E+02  0.12160416026E+02  0.00000000000E+00 0.  1.
          2   -1    0    0  502    0  0.00000000000E+00 -0.00000000000E+00 -0.13670267509E+04  0.13670267509E+04  0.00000000000E+00 0. -1.
         25    1    1    2    0    0  0.21542348084E+02 -0.46878649156E+02 -0.11111916987E+04  0.11193898658E+04  0.12500000000E+03 0.  0.
          2    1    1    2  502    0  0.22356809226E+02 -0.16935738169E+01 -0.90134733621E+02  0.92881458407E+02  0.00000000000E+00 0. -1.
         -1    1    1    2    0  501 -0.43899157309E+02  0.48572222973E+02 -0.15353990253E+03  0.16691584265E+03  0.00000000000E+00 0.  1.
<mgrwt>
<rscale>  0 0.37720198E+02</rscale>
<asrwt>0</asrwt>
<pdfrwt beam="2">  1        2 0.21031181E+00 0.22420863E+02</pdfrwt>
<pdfrwt beam="1">  1       -1 0.18708332E-02 0.63459345E+02</pdfrwt>
<totfact> 0.13921608E+04</totfact>
</mgrwt>
</event>
<event>
 5    1  0.4149151E-003  0.8540083E+02  0.7546771E-02  0.1352578E+00
          2   -1    0    0  501    0  0.00000000000E+00  0.00000000000E+00  0.44876782397E+04  0.44876782397E+04  0.00000000000E+00 0.  1.
          2   -1    0    0  502    0 -0.00000000000E+00 -0.00000000000E+00 -0.85812142842E+03  0.85812142842E+03  0.00000000000E+00 0.  1.
         25    1    1    2    0    0 -0.42607495024E+02 -0.12902772427E+03 -0.64833203812E+03  0.67410902969E+03  0.12500000000E+03 0.  0.
          2    1    1    2  501    0 -0.19685045141E+00  0.85373767286E+02  0.44696263648E+04  0.44704416515E+04  0.00000000000E+00 0.  1.
          2    1    1    2  502    0  0.42804345475E+02  0.43653956987E+02 -0.19173751535E+03  0.20124898694E+03  0.00000000000E+00 0.  1.
<mgrwt>
<rscale>  0 0.72258242E+02</rscale>
<asrwt>0</asrwt>
<pdfrwt beam="1">  1        2 0.69041203E+00 0.85400834E+02</pdfrwt>
<pdfrwt beam="2">  1        2 0.13201868E+00 0.61138204E+02</pdfrwt>
<totfact> 0.12352023E+00</totfact>
</mgrwt>
</event>
<event>
 5    1  0.4149151E-003  0.5850440E+02  0.7546771E-02  0.1543173E+00
          2   -1    0    0  501    0  0.00000000000E+00  0.00000000000E+00  0.13810925277E+04  0.13810925277E+04  0.00000000000E+00 0. -1.
          3   -1    0    0  502    0 -0.00000000000E+00 -0.00000000000E+00 -0.25067124030E+03  0.25067124030E+03  0.00000000000E+00 0.  1.
         25    1    1    2    0    0 -0.54367325288E+02  0.13539759576E+02 -0.10292428614E+03  0.17134042087E+03  0.12500000000E+03 0.  0.
          2    1    1    2  501    0  0.47555779923E+02 -0.34127716287E+02  0.13452067095E+04  0.13464796116E+04  0.00000000000E+00 0. -1.
          3    1    1    2  502    0  0.68115453648E+01  0.20587956711E+02 -0.11186113598E+03  0.11394373548E+03  0.00000000000E+00 0.  1.
<mgrwt>
<rscale>  0 0.35618778E+02</rscale>
<asrwt>0</asrwt>
<pdfrwt beam="1">  1        2 0.21247577E+00 0.58504396E+02</pdfrwt>
<pdfrwt beam="2">  1        3 0.38564807E-01 0.21685505E+02</pdfrwt>
<totfact> 0.61217609E+01</totfact>
</mgrwt>
</event>
<event>
 5    1  0.4149151E-003  0.1719784E+03  0.7546771E-02  0.1294321E+00
          1   -1    0    0  502    0 -0.00000000000E+00  0.00000000000E+00  0.24707801661E+03  0.24707801661E+03  0.00000000000E+00 0.  1.
          2   -1    0    0  501    0  0.00000000000E+00 -0.00000000000E+00 -0.24920354875E+03  0.24920354875E+03  0.00000000000E+00 0. -1.
         25    1    1    2    0    0  0.35558952987E+02  0.17130273950E+03 -0.81907458987E+02  0.23009324096E+03  0.12500000000E+03 0.  0.
          2    1    1    2  501    0 -0.50954038762E+02  0.83009083008E+00 -0.32179731982E+02  0.60270542285E+02  0.00000000000E+00 0. -1.
          1    1    1    2  502    0  0.15395085775E+02 -0.17213283033E+03  0.11196165883E+03  0.20591778211E+03  0.00000000000E+00 0.  1.
<mgrwt>
<rscale>  0 0.93617086E+02</rscale>
<asrwt>0</asrwt>
<pdfrwt beam="2">  1        2 0.38339008E-01 0.50960800E+02</pdfrwt>
<pdfrwt beam="1">  1        1 0.38012002E-01 0.17197844E+03</pdfrwt>
<totfact> 0.19829823E+03</totfact>
</mgrwt>
</event>
<event>
 5    1  0.4149151E-003  0.1240166E+03  0.7546771E-02  0.1246611E+00
          2   -1    0    0  501    0  0.00000000000E+00  0.00000000000E+00  0.14255315665E+04  0.14255315665E+04  0.00000000000E+00 0. -1.
          1   -1    0    0  502    0 -0.00000000000E+00 -0.00000000000E+00 -0.12045529689E+03  0.12045529689E+03  0.00000000000E+00 0. -1.
         25    1    1    2    0    0 -0.37032083405E+02  0.11643856747E+03  0.12425389444E+03  0.21446059190E+03  0.12500000000E+03 0.  0.
          2    1    1    2  501    0 -0.74320345872E+02 -0.10373225348E+03  0.12091997704E+04  0.12159144620E+04  0.00000000000E+00 0. -1.
          1    1    1    2  502    0  0.11135242928E+03 -0.12706313991E+02 -0.28377395253E+02  0.11561180944E+03  0.00000000000E+00 0. -1.
<mgrwt>
<rscale>  0 0.11789474E+03</rscale>
<asrwt>0</asrwt>
<pdfrwt beam="1">  1        2 0.21931254E+00 0.12401664E+03</pdfrwt>
<pdfrwt beam="2">  1        1 0.18531585E-01 0.11207504E+03</pdfrwt>
<totfact> 0.59141874E+02</totfact>
</mgrwt>
</event>
<event>
 5    1  0.4149151E-003  0.7273213E+02  0.7546771E-02  0.1398151E+00
          2   -1    0    0  502    0  0.00000000000E+00  0.00000000000E+00  0.18458687843E+04  0.18458687843E+04  0.00000000000E+00 0. -1.
         -1   -1    0    0    0  501 -0.00000000000E+00 -0.00000000000E+00 -0.20337348013E+02  0.20337348013E+02  0.00000000000E+00 0.  1.
         25    1    1    2    0    0  0.15581042890E+02  0.11327258858E+03  0.74587698681E+03  0.76487314483E+03  0.12500000000E+03 0.  0.
          2    1    1    2  502    0 -0.16820531487E+02 -0.46417643316E+02  0.98048096702E+03  0.98172320670E+03  0.00000000000E+00 0. -1.
         -1    1    1    2    0  501  0.12394885963E+01 -0.66854945266E+02  0.99173482498E+02  0.11960978083E+03  0.00000000000E+00 0.  1.
<mgrwt>
<rscale>  0 0.59923966E+02</rscale>
<asrwt>0</asrwt>
<pdfrwt beam="1">  1        2 0.28397968E+00 0.49371327E+02</pdfrwt>
<pdfrwt beam="2">  1       -1 0.31288242E-02 0.72732129E+02</pdfrwt>
<totfact> 0.37238298E+03</totfact>
</mgrwt>
</event>
<event>
 5    1  0.4149151E-003  0.1274876E+03  0.7546771E-02  0.1234674E+00
          1   -1    0    0  502    0 -0.00000000000E+00  0.00000000000E+00  0.21974684859E+04  0.21974684859E+04  0.00000000000E+00 0. -1.
          2   -1    0    0  501    0  0.00000000000E+00 -0.00000000000E+00 -0.10737774348E+04  0.10737774348E+04  0.00000000000E+00 0. -1.
         25    1    1    2    0    0  0.87954647535E+02 -0.18631435271E+03 -0.20039139739E+03  0.31341788430E+03  0.12500000000E+03 0.  0.
          2    1    1    2  501    0  0.17124191851E+02  0.12226930675E+03 -0.81042543658E+03  0.81977582885E+03  0.00000000000E+00 0. -1.
          1    1    1    2  502    0 -0.10507883939E+03  0.64045045967E+02  0.21345078852E+04  0.21380522075E+04  0.00000000000E+00 0. -1.
<mgrwt>
<rscale>  0 0.12525336E+03</rscale>
<asrwt>0</asrwt>
<pdfrwt beam="2">  1        2 0.16519653E+00 0.12748763E+03</pdfrwt>
<pdfrwt beam="1">  1        1 0.33807207E+00 0.12305824E+03</pdfrwt>
<totfact> 0.94057473E+00</totfact>
</mgrwt>
</event>
<event>
 5    1  0.4149151E-003  0.7317211E+02  0.7546771E-02  0.1451869E+00
          2   -1    0    0  502    0  0.00000000000E+00  0.00000000000E+00  0.17024619297E+04  0.17024619297E+04  0.00000000000E+00 0. -1.
          2   -1    0    0  501    0 -0.00000000000E+00 -0.00000000000E+00 -0.27517057892E+03  0.27517057892E+03  0.00000000000E+00 0. -1.
         25    1    1    2    0    0 -0.81755212910E+02  0.66008571919E+02  0.11857999226E+03  0.20180996251E+03  0.12500000000E+03 0.  0.
          2    1    1    2  501    0  0.25422373390E+02 -0.20341470926E+02 -0.23156363459E+03  0.23384137652E+03  0.00000000000E+00 0. -1.
          2    1    1    2  502    0  0.56332839520E+02 -0.45667100993E+02  0.15402749931E+04  0.15419811696E+04  0.00000000000E+00 0. -1.
<mgrwt>
<rscale>  0 0.48809760E+02</rscale>
<asrwt>0</asrwt>
<pdfrwt beam="1">  1        2 0.26191722E+00 0.73172106E+02</pdfrwt>
<pdfrwt beam="2">  1        2 0.42333936E-01 0.32558755E+02</pdfrwt>
<totfact> 0.21866203E+02</totfact>
</mgrwt>
</event>
<event>
 5    1  0.4149151E-003  0.6887253E+02  0.7546771E-02  0.1457369E+00
          1   -1    0    0  502    0 -0.00000000000E+00  0.00000000000E+00  0.61974238281E+03  0.61974238281E+03  0.00000000000E+00 0. -1.
          2   -1    0    0  501    0  0.00000000000E+00 -0.00000000000E+00 -0.43859855434E+03  0.43859855434E+03  0.00000000000E+00 0. -1.
         25    1    1    2    0    0  0.99696271527E+02 -0.17268511209E+02 -0.20585049411E+03  0.26122207786E+03  0.12500000000E+03 0.  0.
          2    1    1    2  501    0 -0.33225093711E+02  0.31303226865E+00 -0.20171145568E+03  0.20442973412E+03  0.00000000000E+00 0. -1.
          1    1    1    2  502    0 -0.66471177816E+02  0.16955478941E+02  0.58870577826E+03  0.59268912518E+03  0.00000000000E+00 0. -1.
<mgrwt>
<rscale>  0 0.47837202E+02</rscale>
<asrwt>0</asrwt>
<pdfrwt beam="2">  1        2 0.67476701E-01 0.33226568E+02</pdfrwt>
<pdfrwt beam="1">  1        1 0.95344982E-01 0.68872532E+02</pdfrwt>
<totfact> 0.35268927E+02</totfact>
</mgrwt>
</event>
<event>
 5    1  0.4149151E-003  0.1120634E+03  0.7546771E-02  0.1272191E+00
          2   -1    0    0  501    0  0.00000000000E+00  0.00000000000E+00  0.82310888244E+03  0.82310888244E+03  0.00000000000E+00 0. -1.
          1   -1    0    0  502    0 -0.00000000000E+00 -0.00000000000E+00 -0.12868967647E+04  0.12868967647E+04  0.00000000000E+00 0. -1.
         25    1    1    2    0    0 -0.72078484016E+02 -0.85684022527E+02 -0.30380949137E+03  0.34707674457E+03  0.12500000000E+03 0.  0.
          2    1    1    2  501    0  0.11254762031E+03 -0.18477452732E+01  0.79508292941E+03  0.80301136084E+03  0.00000000000E+00 0. -1.
          1    1    1    2  502    0 -0.40469136295E+02  0.87531767801E+02 -0.95506132033E+03  0.95991754174E+03  0.00000000000E+00 0. -1.
<mgrwt>
<rscale>  0 0.10395552E+03</rscale>
<asrwt>0</asrwt>
<pdfrwt beam="1">  1        2 0.12663214E+00 0.11206341E+03</pdfrwt>
<pdfrwt beam="2">  1        1 0.19798412E+00 0.96434233E+02</pdfrwt>
<totfact> 0.52656864E+01</totfact>
</mgrwt>
</event>
<event>
 5    1  0.4149151E-003  0.5440929E+02  0.7546771E-02  0.1562834E+00
          2   -1    0    0  501    0  0.00000000000E+00  0.00000000000E+00  0.77035170028E+03  0.77035170028E+03  0.00000000000E+00 0. -1.
          2   -1    0    0  502    0 -0.00000000000E+00 -0.00000000000E+00 -0.73426522820E+03  0.73426522820E+03  0.00000000000E+00 0. -1.
         25    1    1    2    0    0 -0.34073392880E+02 -0.12874159491E+01 -0.96241560757E+02  0.16140040756E+03  0.12500000000E+03 0.  0.
          2    1    1    2  501    0  0.54383111939E+02  0.44965936270E+01  0.73658813880E+03  0.73860668048E+03  0.00000000000E+00 0. -1.
          2    1    1    2  502    0 -0.20309719059E+02 -0.32091776780E+01 -0.60426010596E+03  0.60460984045E+03  0.00000000000E+00 0. -1.
<mgrwt>
<rscale>  0 0.33447684E+02</rscale>
<asrwt>0</asrwt>
<pdfrwt beam="1">  1        2 0.11851565E+00 0.54409292E+02</pdfrwt>
<pdfrwt beam="2">  1        2 0.11296388E+00 0.20561700E+02</pdfrwt>
<totfact> 0.26404401E+02</totfact>
</mgrwt>
</event>
<event>
 5    1  0.4149151E-003  0.1350297E+03  0.7546771E-02  0.1239589E+00
         -3   -1    0    0    0  501 -0.00000000000E+00  0.00000000000E+00  0.85403535057E+03  0.85403535057E+03  0.00000000000E+00 0.  1.
          2   -1    0    0  502    0  0.00000000000E+00 -0.00000000000E+00 -0.77094762164E+03  0.77094762164E+03  0.00000000000E+00 0. -1.
         25    1    1    2    0    0 -0.99462043256E+02 -0.18452250403E+03  0.17496742005E+03  0.30029960144E+03  0.12500000000E+03 0.  0.
          2    1    1    2  502    0  0.13675085460E+01  0.13364865961E+03 -0.69692736752E+03  0.70962778264E+03  0.00000000000E+00 0. -1.
         -3    1    1    2    0  501  0.98094534710E+02  0.50873844420E+02  0.60504767639E+03  0.61505558813E+03  0.00000000000E+00 0.  1.
<mgrwt>
<rscale>  0 0.12215174E+03</rscale>
<asrwt>0</asrwt>
<pdfrwt beam="2">  1        2 0.11860733E+00 0.13502969E+03</pdfrwt>
<pdfrwt beam="1">  1       -3 0.13139005E+00 0.11050197E+03</pdfrwt>
<totfact> 0.11226127E+01</totfact>
</mgrwt>
</event>
<event>
 5    1  0.4149151E-003  0.5420787E+02  0.7546771E-02  0.1447592E+00
         -2   -1    0    0    0  501 -0.00000000000E+00  0.00000000000E+00  0.21121324602E+03  0.21121324602E+03  0.00000000000E+00 0.  1.
          2   -1    0    0  502    0  0.00000000000E+00 -0.00000000000E+00 -0.78057962762E+02  0.78057962762E+02  0.00000000000E+00 0. -1.
         25    1    1    2    0    0 -0.37818347845E+00  0.51814977282E+02  0.12549595355E+03  0.18455126456E+03  0.12500000000E+03 0.  0.
          2    1    1    2  502    0 -0.42819933832E+02 -0.37989051031E+02 -0.54641412826E+01  0.57502796206E+02  0.00000000000E+00 0. -1.
         -2    1    1    2    0  501  0.43198117311E+02 -0.13825926252E+02  0.13123470990E+02  0.47217148016E+02  0.00000000000E+00 0.  1.
<mgrwt>
<rscale>  0 0.49585201E+02</rscale>
<asrwt>0</asrwt>
<pdfrwt beam="2">  1        2 0.12008917E-01 0.54207873E+02</pdfrwt>
<pdfrwt beam="1">  1       -2 0.32494345E-01 0.45356737E+02</pdfrwt>
<totfact> 0.39846972E+03</totfact>
</mgrwt>
</event>
<event>
 5    1  0.4149151E-003  0.1053837E+03  0.7546771E-02  0.1357014E+00
         -2   -1    0    0    0  501 -0.00000000000E+00  0.00000000000E+00  0.20751744415E+02  0.20751744415E+02  0.00000000000E+00 0.  1.
          1   -1    0    0  502    0  0.00000000000E+00 -0.00000000000E+00 -0.14048057636E+04  0.14048057636E+04  0.00000000000E+00 0. -1.
         25    1    1    2    0    0 -0.82719707974E+02  0.10883501108E+03 -0.73081262432E+03  0.75392287510E+03  0.12500000000E+03 0.  0.
          1    1    1    2  502    0  0.71532689957E+02 -0.62446805677E+02 -0.54684026034E+03  0.55502324240E+03  0.00000000000E+00 0. -1.
         -2    1    1    2    0  501  0.11187018017E+02 -0.46388205403E+02 -0.10640113455E+03  0.11661139055E+03  0.00000000000E+00 0.  1.
<mgrwt>
<rscale>  0 0.70913391E+02</rscale>
<asrwt>0</asrwt>
<pdfrwt beam="2">  1        1 0.21612395E+00 0.10538373E+03</pdfrwt>
<pdfrwt beam="1">  1       -2 0.31925763E-02 0.47718078E+02</pdfrwt>
<totfact> 0.25139184E+03</totfact>
</mgrwt>
</event>
<event>
 5    1  0.4149151E-003  0.8516788E+02  0.7546771E-02  0.1369304E+00
          2   -1    0    0  502    0  0.00000000000E+00  0.00000000000E+00  0.44478679842E+03  0.44478679842E+03  0.00000000000E+00 0. -1.
         -1   -1    0    0    0  501 -0.00000000000E+00 -0.00000000000E+00 -0.89159041572E+03  0.89159041572E+03  0.00000000000E+00 0.  1.
         25    1    1    2    0    0  0.34480720593E+02  0.11177688877E+03 -0.53405048327E+02  0.17933235108E+03  0.12500000000E+03 0.  0.
          2    1    1    2  502    0 -0.45266307378E+02 -0.28096924132E+02  0.37765213908E+03  0.38139168041E+03  0.00000000000E+00 0. -1.
         -1    1    1    2    0  501  0.10785586786E+02 -0.83679964641E+02 -0.77105070805E+03  0.77565318265E+03  0.00000000000E+00 0.  1.
<mgrwt>
<rscale>  0 0.67361107E+02</rscale>
<asrwt>0</asrwt>
<pdfrwt beam="1">  1        2 0.68428739E-01 0.53277347E+02</pdfrwt>
<pdfrwt beam="2">  1       -1 0.13716776E+00 0.85167880E+02</pdfrwt>
<totfact> 0.42372499E+01</totfact>
</mgrwt>
</event>
<event>
 5    1  0.4149151E-003  0.1415797E+03  0.7546771E-02  0.1307907E+00
          2   -1    0    0  501    0  0.00000000000E+00  0.00000000000E+00  0.32229190555E+04  0.32229190555E+04  0.00000000000E+00 0. -1.
          2   -1    0    0  502    0 -0.00000000000E+00 -0.00000000000E+00 -0.25338345590E+03  0.25338345590E+03  0.00000000000E+00 0. -1.
         25    1    1    2    0    0 -0.66843407329E+02  0.90764495290E+02  0.17958293149E+03  0.24613261465E+03  0.12500000000E+03 0.  0.
          2    1    1    2  501    0  0.24943556637E+02  0.48601157283E+02  0.29857296224E+04  0.29862293334E+04  0.00000000000E+00 0. -1.
          2    1    1    2  502    0  0.41899850691E+02 -0.13936565257E+03 -0.19577695431E+03  0.24394056334E+03  0.00000000000E+00 0. -1.
<mgrwt>
<rscale>  0 0.87944656E+02</rscale>
<asrwt>0</asrwt>
<pdfrwt beam="1">  1        2 0.49583367E+00 0.54628321E+02</pdfrwt>
<pdfrwt beam="2">  1        2 0.38982072E-01 0.14157972E+03</pdfrwt>
<totfact> 0.40709694E+01</totfact>
</mgrwt>
</event>
<event>
 5    1  0.4149151E-003  0.4710277E+02  0.7546771E-02  0.1526441E+00
         -2   -1    0    0    0  501 -0.00000000000E+00  0.00000000000E+00  0.10912236636E+02  0.10912236636E+02  0.00000000000E+00 0. -1.
          2   -1    0    0  502    0  0.00000000000E+00 -0.00000000000E+00 -0.28631600191E+04  0.28631600191E+04  0.00000000000E+00 0.  1.
         25    1    1    2    0    0 -0.40503393363E+02  0.60312538032E+02 -0.24811481527E+04  0.24853569730E+04  0.12500000000E+03 0.  0.
          2    1    1    2  502    0  0.25161171239E+02 -0.16441466043E+02 -0.31240695059E+03  0.31384950075E+03  0.00000000000E+00 0.  1.
         -2    1    1    2    0  501  0.15342222124E+02 -0.43871071989E+02 -0.58692679140E+02  0.74865782048E+02  0.00000000000E+00 0. -1.
<mgrwt>
<rscale>  0 0.37626517E+02</rscale>
<asrwt>0</asrwt>
<pdfrwt beam="2">  1        2 0.44048596E+00 0.30056719E+02</pdfrwt>
<pdfrwt beam="1">  1       -2 0.16788064E-02 0.47102772E+02</pdfrwt>
<totfact> 0.27952170E+03</totfact>
</mgrwt>
</event>
<event>
 5    1  0.4149151E-003  0.1047909E+03  0.7546771E-02  0.1401261E+00
          3   -1    0    0  502    0 -0.00000000000E+00  0.00000000000E+00  0.11509488502E+03  0.11509488502E+03  0.00000000000E+00 0. -1.
          1   -1    0    0  501    0  0.00000000000E+00 -0.00000000000E+00 -0.46557486133E+03  0.46557486133E+03  0.00000000000E+00 0. -1.
         25    1    1    2    0    0  0.13522099393E+02 -0.12220513117E+03 -0.10574138366E+03  0.20475151153E+03  0.12500000000E+03 0.  0.
          1    1    1    2  501    0  0.12614185689E+02  0.10135618967E+03 -0.29689129166E+03  0.31396916079E+03  0.00000000000E+00 0. -1.
          3    1    1    2  502    0 -0.26136285082E+02  0.20848941497E+02  0.52152699013E+02  0.61949074035E+02  0.00000000000E+00 0. -1.
<mgrwt>
<rscale>  0 0.59190386E+02</rscale>
<asrwt>0</asrwt>
<pdfrwt beam="2">  1        1 0.71626902E-01 0.10479087E+03</pdfrwt>
<pdfrwt beam="1">  1        3 0.17706905E-01 0.33433273E+02</pdfrwt>
<totfact> 0.63146871E+02</totfact>
</mgrwt>
</event>
<event>
 5    1  0.4149151E-003  0.4618968E+02  0.7546771E-02  0.1554713E+00
         -1   -1    0    0    0  501 -0.00000000000E+00  0.00000000000E+00  0.95048079037E+03  0.95048079037E+03  0.00000000000E+00 0.  1.
          2   -1    0    0  502    0  0.00000000000E+00 -0.00000000000E+00 -0.12968967176E+02  0.12968967176E+02  0.00000000000E+00 0. -1.
         25    1    1    2    0    0  0.29461904737E+01 -0.24238701270E+02  0.41609983623E+03  0.43515545313E+03  0.12500000000E+03 0.  0.
          2    1    1    2  502    0 -0.46459305170E+01 -0.25075445866E+02  0.76155474856E+02  0.80312010349E+02  0.00000000000E+00 0. -1.
         -1    1    1    2    0  501  0.16997400432E+01  0.49314147136E+02  0.44525651211E+03  0.44798229407E+03  0.00000000000E+00 0.  1.
<mgrwt>
<rscale>  0 0.34321114E+02</rscale>
<asrwt>0</asrwt>
<pdfrwt beam="2">  1        2 0.19952265E-02 0.25502209E+02</pdfrwt>
<pdfrwt beam="1">  1       -1 0.14622776E+00 0.46189680E+02</pdfrwt>
<totfact> 0.20591876E+03</totfact>
</mgrwt>
</event>
<event>
 5    1  0.4149151E-003  0.4102904E+02  0.7546771E-02  0.1508486E+00
          2   -1    0    0  502    0  0.00000000000E+00  0.00000000000E+00  0.10529084164E+04  0.10529084164E+04  0.00000000000E+00 0. -1.
         -1   -1    0    0    0  501 -0.00000000000E+00 -0.00000000000E+00 -0.13670841203E+02  0.13670841203E+02  0.00000000000E+00 0.  1.
         25    1    1    2    0    0  0.59594279775E+02  0.18723103431E+01  0.53775535836E+03  0.55530244838E+03  0.12500000000E+03 0.  0.
          2    1    1    2  502    0 -0.31542926034E+02  0.25112904753E+02  0.40837935143E+03  0.41036484845E+03  0.00000000000E+00 0. -1.
         -1    1    1    2    0  501 -0.28051353740E+02 -0.26985215096E+02  0.93102865368E+02  0.10091196074E+03  0.00000000000E+00 0.  1.
<mgrwt>
<rscale>  0 0.39962677E+02</rscale>
<asrwt>0</asrwt>
<pdfrwt beam="1">  1        2 0.16198585E+00 0.41029038E+02</pdfrwt>
<pdfrwt beam="2">  1       -1 0.21032072E-02 0.38924032E+02</pdfrwt>
<totfact> 0.15171562E+04</totfact>
</mgrwt>
</event>
<event>
 5    1  0.4149151E-003  0.6429219E+02  0.7546771E-02  0.1418085E+00
         -2   -1    0    0    0  501 -0.00000000000E+00  0.00000000000E+00  0.38124523320E+02  0.38124523320E+02  0.00000000000E+00 0.  1.
          1   -1    0    0  502    0  0.00000000000E+00 -0.00000000000E+00 -0.57465977870E+03  0.57465977870E+03  0.00000000000E+00 0. -1.
         25    1    1    2    0    0 -0.28292016786E+02 -0.99544099976E+02 -0.26097657459E+03  0.30731618658E+03  0.12500000000E+03 0.  0.
          1    1    1    2  502    0  0.12900792840E+02  0.46011808080E+02 -0.22572781497E+03  0.23073049948E+03  0.00000000000E+00 0. -1.
         -2    1    1    2    0  501  0.15391223946E+02  0.53532291896E+02 -0.49830865824E+02  0.74737615957E+02  0.00000000000E+00 0.  1.
<mgrwt>
<rscale>  0 0.55428123E+02</rscale>
<asrwt>0</asrwt>
<pdfrwt beam="2">  1        1 0.88409186E-01 0.47786158E+02</pdfrwt>
<pdfrwt beam="1">  1       -2 0.58653120E-02 0.64292191E+02</pdfrwt>
<totfact> 0.46910160E+03</totfact>
</mgrwt>
</event>
<event>
 5    1  0.4149151E-003  0.9833155E+02  0.7546771E-02  0.1362402E+00
          1   -1    0    0  502    0  0.00000000000E+00  0.00000000000E+00  0.13297154044E+03  0.13297154044E+03  0.00000000000E+00 0. -1.
          1   -1    0    0  501    0 -0.00000000000E+00 -0.00000000000E+00 -0.73481567232E+03  0.73481567232E+03  0.00000000000E+00 0. -1.
         25    1    1    2    0    0  0.45142781975E+02 -0.61342300687E+02  0.15548364140E+02  0.14719884594E+03  0.12500000000E+03 0.  0.
          1    1    1    2  501    0  0.19090610817E+02 -0.44993018328E+02 -0.59171773078E+03  0.59373284905E+03  0.00000000000E+00 0. -1.
          1    1    1    2  502    0 -0.64233392792E+02  0.10633531902E+03 -0.25674765240E+02  0.12685551777E+03  0.00000000000E+00 0. -1.
<mgrwt>
<rscale>  0 0.69325409E+02</rscale>
<asrwt>0</asrwt>
<pdfrwt beam="1">  1        1 0.20457160E-01 0.98331550E+02</pdfrwt>
<pdfrwt beam="2">  1        1 0.11304857E+00 0.48875588E+02</pdfrwt>
<totfact> 0.81325882E+02</totfact>
</mgrwt>
</event>
<event>
 5    1  0.4149151E-003  0.7169630E+02  0.7546771E-02  0.1358596E+00
          1   -1    0    0  502    0 -0.00000000000E+00  0.00000000000E+00  0.98687644218E+03  0.98687644218E+03  0.00000000000E+00 0. -1.
          2   -1    0    0  501    0  0.00000000000E+00 -0.00000000000E+00 -0.82018670274E+03  0.82018670274E+03  0.00000000000E+00 0. -1.
         25    1    1    2    0    0  0.51441476107E+02  0.44311235173E+02 -0.30953131886E+03  0.34065282677E+03  0.12500000000E+03 0.  0.
          2    1    1    2  501    0  0.16672319810E+02 -0.67171457342E+02 -0.49133743414E+03  0.49618791311E+03  0.00000000000E+00 0. -1.
          1    1    1    2  502    0 -0.68113795918E+02  0.22860222169E+02  0.96755849245E+03  0.97022240505E+03  0.00000000000E+00 0. -1.
<mgrwt>
<rscale>  0 0.70441986E+02</rscale>
<asrwt>0</asrwt>
<pdfrwt beam="2">  1        2 0.12618257E+00 0.69209616E+02</pdfrwt>
<pdfrwt beam="1">  1        1 0.15182715E+00 0.71696301E+02</pdfrwt>
<totfact> 0.88404692E+01</totfact>
</mgrwt>
</event>
<event>
 5    1  0.4149151E-003  0.7365663E+02  0.7546771E-02  0.1499982E+00
          1   -1    0    0  502    0 -0.00000000000E+00  0.00000000000E+00  0.83270475313E+02  0.83270475313E+02  0.00000000000E+00 0. -1.
          2   -1    0    0  501    0  0.00000000000E+00 -0.00000000000E+00 -0.88227945416E+03  0.88227945416E+03  0.00000000000E+00 0.  1.
         25    1    1    2    0    0 -0.51058443372E+02  0.64802266002E+02 -0.12784673219E+03  0.19691644231E+03  0.12500000000E+03 0.  0.
          2    1    1    2  501    0 -0.73974083703E+01 -0.21755668650E+02 -0.69256708769E+03  0.69294819556E+03  0.00000000000E+00 0.  1.
          1    1    1    2  502    0  0.58455851742E+02 -0.43046597353E+02  0.21404841036E+02  0.75685291612E+02  0.00000000000E+00 0. -1.
<mgrwt>
<rscale>  0 0.41140609E+02</rscale>
<asrwt>0</asrwt>
<pdfrwt beam="2">  1        2 0.13573530E+00 0.22978920E+02</pdfrwt>
<pdfrwt beam="1">  1        1 0.12810843E-01 0.73656626E+02</pdfrwt>
<totfact> 0.20318964E+03</totfact>
</mgrwt>
</event>
<event>
 5    1  0.4149151E-003  0.8905700E+02  0.7546771E-02  0.1468461E+00
         -1   -1    0    0    0  501 -0.00000000000E+00  0.00000000000E+00  0.32977724172E+03  0.32977724172E+03  0.00000000000E+00 0.  1.
          1   -1    0    0  502    0  0.00000000000E+00 -0.00000000000E+00 -0.18232619739E+03  0.18232619739E+03  0.00000000000E+00 0. -1.
         25    1    1    2    0    0  0.53658522362E+02  0.61942019492E+02 -0.57771965219E+02  0.16024559515E+03  0.12500000000E+03 0.  0.
          1    1    1    2  502    0 -0.76356011383E+02 -0.55071571157E+02 -0.42293531632E+02  0.10320785456E+03  0.00000000000E+00 0. -1.
         -1    1    1    2    0  501  0.22697489021E+02 -0.68704483349E+01  0.24751654119E+03  0.24864998940E+03  0.00000000000E+00 0.  1.
<mgrwt>
<rscale>  0 0.45955905E+02</rscale>
<asrwt>0</asrwt>
<pdfrwt beam="2">  1        1 0.28050184E-01 0.89057004E+02</pdfrwt>
<pdfrwt beam="1">  1       -1 0.50734960E-01 0.23714533E+02</pdfrwt>
<totfact> 0.65640894E+02</totfact>
</mgrwt>
</event>
<event>
 5    1  0.4149151E-003  0.3969600E+02  0.7546771E-02  0.1598051E+00
         -3   -1    0    0    0  501 -0.00000000000E+00  0.00000000000E+00  0.59236990498E+02  0.59236990498E+02  0.00000000000E+00 0.  1.
          1   -1    0    0  502    0  0.00000000000E+00 -0.00000000000E+00 -0.48322372779E+03  0.48322372779E+03  0.00000000000E+00 0.  1.
         25    1    1    2    0    0  0.37863801286E+02 -0.28076410183E+02 -0.32941908570E+03  0.35547698418E+03  0.12500000000E+03 0.  0.
          1    1    1    2  502    0 -0.16427960288E+02  0.35477004051E+02 -0.13504303557E+03  0.14058846735E+03  0.00000000000E+00 0.  1.
         -3    1    1    2    0  501 -0.21435840997E+02 -0.74005938686E+01  0.40475383983E+02  0.46395266757E+02  0.00000000000E+00 0.  1.
<mgrwt>
<rscale>  0 0.30003363E+02</rscale>
<asrwt>0</asrwt>
<pdfrwt beam="2">  1        1 0.74342112E-01 0.39696002E+02</pdfrwt>
<pdfrwt beam="1">  1       -3 0.91133831E-02 0.22677391E+02</pdfrwt>
<totfact> 0.16743827E+03</totfact>
</mgrwt>
</event>
<event>
 5    1  0.4149151E-003  0.4137259E+02  0.7546771E-02  0.1538736E+00
          2   -1    0    0  502    0  0.00000000000E+00  0.00000000000E+00  0.52422476658E+03  0.52422476658E+03  0.00000000000E+00 0. -1.
         -1   -1    0    0    0  501 -0.00000000000E+00 -0.00000000000E+00 -0.21823764700E+02  0.21823764700E+02  0.00000000000E+00 0.  1.
         25    1    1    2    0    0  0.38442773082E+01 -0.29006241531E+02  0.29452477171E+03  0.32128800423E+03  0.12500000000E+03 0.  0.
          2    1    1    2  502    0 -0.35406809995E+02  0.29015366716E+02  0.16674711777E+03  0.17291655498E+03  0.00000000000E+00 0. -1.
         -1    1    1    2    0  501  0.31562532687E+02 -0.91251840739E-02  0.41129112397E+02  0.51843972065E+02  0.00000000000E+00 0.  1.
<mgrwt>
<rscale>  0 0.36136183E+02</rscale>
<asrwt>0</asrwt>
<pdfrwt beam="1">  1        2 0.80649954E-01 0.41372589E+02</pdfrwt>
<pdfrwt beam="2">  1       -1 0.33575027E-02 0.31562534E+02</pdfrwt>
<totfact> 0.17160527E+04</totfact>
</mgrwt>
</event>
<event>
 5    1  0.4149151E-003  0.5815509E+02  0.7546771E-02  0.1438869E+00
         -1   -1    0    0    0  501 -0.00000000000E+00  0.00000000000E+00  0.14069902983E+03  0.14069902983E+03  0.00000000000E+00 0.  1.
          2   -1    0    0  502    0  0.00000000000E+00 -0.00000000000E+00 -0.16936034077E+03  0.16936034077E+03  0.00000000000E+00 0. -1.
         25    1    1    2    0    0  0.45054513436E+02  0.82947878750E+02  0.46946786588E+02  0.16352143756E+03  0.12500000000E+03 0.  0.
          2    1    1    2  502    0 -0.98610450568E+01 -0.54724843549E+02 -0.83915530200E+02  0.10066709949E+03  0.00000000000E+00 0. -1.
         -1    1    1    2    0  501 -0.35193468379E+02 -0.28223035201E+02  0.83074326724E+01  0.45870833545E+02  0.00000000000E+00 0.  1.
<mgrwt>
<rscale>  0 0.51220213E+02</rscale>
<asrwt>0</asrwt>
<pdfrwt beam="2">  1        2 0.26055437E-01 0.58155094E+02</pdfrwt>
<pdfrwt beam="1">  1       -1 0.21646005E-01 0.45112304E+02</pdfrwt>
<totfact> 0.37378512E+03</totfact>
</mgrwt>
</event>
<event>
 5    1  0.4149151E-003  0.8331578E+02  0.7546771E-02  0.1443469E+00
          1   -1    0    0  501    0  0.00000000000E+00  0.00000000000E+00  0.28945207422E+03  0.28945207422E+03  0.00000000000E+00 0. -1.
          1   -1    0    0  502    0 -0.00000000000E+00 -0.00000000000E+00 -0.18173671825E+03  0.18173671825E+03  0.00000000000E+00 0. -1.
         25    1    1    2    0    0  0.61782572265E+01  0.75790152908E+02  0.66468428342E+02  0.16070273833E+03  0.12500000000E+03 0.  0.
          1    1    1    2  501    0  0.30420243476E+02  0.61472416193E+00  0.16097010726E+03  0.16382046432E+03  0.00000000000E+00 0. -1.
          1    1    1    2  502    0 -0.36598500703E+02 -0.76404877070E+02 -0.11972317964E+03  0.14666558982E+03  0.00000000000E+00 0. -1.
<mgrwt>
<rscale>  0 0.50348822E+02</rscale>
<asrwt>0</asrwt>
<pdfrwt beam="1">  1        1 0.44531088E-01 0.30426454E+02</pdfrwt>
<pdfrwt beam="2">  1        1 0.27959495E-01 0.83315784E+02</pdfrwt>
<totfact> 0.17580101E+03</totfact>
</mgrwt>
</event>
<event>
 5    1  0.4149151E-003  0.9449762E+02  0.7546771E-02  0.1418861E+00
          2   -1    0    0  501    0  0.00000000000E+00  0.00000000000E+00  0.89670466161E+03  0.89670466161E+03  0.00000000000E+00 0. -1.
          1   -1    0    0  502    0 -0.00000000000E+00 -0.00000000000E+00 -0.11196873431E+04  0.11196873431E+04  0.00000000000E+00 0. -1.
         25    1    1    2    0    0  0.80681780807E+02 -0.14251729367E+02 -0.37474421863E+03  0.40344874637E+03  0.12500000000E+03 0.  0.
          2    1    1    2  501    0  0.16538824718E+02  0.27765201606E+02  0.87875721773E+03  0.87935128751E+03  0.00000000000E+00 0. -1.
          1    1    1    2  502    0 -0.97220605525E+02 -0.13513472238E+02 -0.72699568057E+03  0.73359197081E+03  0.00000000000E+00 0. -1.
<mgrwt>
<rscale>  0 0.55262587E+02</rscale>
<asrwt>0</asrwt>
<pdfrwt beam="1">  1        2 0.13795456E+00 0.32317784E+02</pdfrwt>
<pdfrwt beam="2">  1        1 0.17225959E+00 0.94497615E+02</pdfrwt>
<totfact> 0.64863198E+01</totfact>
</mgrwt>
</event>
<event>
 5    1  0.4149151E-003  0.5840276E+02  0.7546771E-02  0.1483316E+00
         -2   -1    0    0    0  501 -0.00000000000E+00  0.00000000000E+00  0.12158323510E+03  0.12158323510E+03  0.00000000000E+00 0.  1.
          2   -1    0    0  502    0  0.00000000000E+00 -0.00000000000E+00 -0.24612462320E+04  0.24612462320E+04  0.00000000000E+00 0. -1.
         25    1    1    2    0    0  0.63300106382E+02  0.59572416731E+02 -0.13374164138E+04  0.13460547687E+04  0.12500000000E+03 0.  0.
          2    1    1    2  502    0 -0.13277181767E+02 -0.29708033249E+02 -0.11120217511E+04  0.11124977419E+04  0.00000000000E+00 0. -1.
         -2    1    1    2    0  501 -0.50022924615E+02 -0.29864383482E+02  0.10977516808E+03  0.12427695649E+03  0.00000000000E+00 0.  1.
<mgrwt>
<rscale>  0 0.43593866E+02</rscale>
<asrwt>0</asrwt>
<pdfrwt beam="2">  1        2 0.37865329E+00 0.32539988E+02</pdfrwt>
<pdfrwt beam="1">  1       -2 0.18705112E-01 0.58402761E+02</pdfrwt>
<totfact> 0.12554169E+02</totfact>
</mgrwt>
</event>
<event>
 5    1  0.4149151E-003  0.4278048E+03  0.7546771E-02  0.1183786E+00
          2   -1    0    0  502    0  0.00000000000E+00  0.00000000000E+00  0.77170122559E+03  0.77170122559E+03  0.00000000000E+00 0. -1.
         -1   -1    0    0    0  501 -0.00000000000E+00 -0.00000000000E+00 -0.10895397415E+04  0.10895397415E+04  0.00000000000E+00 0.  1.
         25    1    1    2    0    0  0.29197017565E+03 -0.30645859905E+03  0.50819853678E+03  0.67309301675E+03  0.12500000000E+03 0.  0.
          2    1    1    2  502    0 -0.34860401755E+03  0.27841147198E+03 -0.97233386575E+02  0.45660928620E+03  0.00000000000E+00 0. -1.
         -1    1    1    2    0  501  0.56633841898E+02  0.28047127077E+02 -0.72880366616E+03  0.73153866418E+03  0.00000000000E+00 0.  1.
<mgrwt>
<rscale>  0 0.16442799E+03</rscale>
<asrwt>0</asrwt>
<pdfrwt beam="1">  1        2 0.11872327E+00 0.42780482E+03</pdfrwt>
<pdfrwt beam="2">  1       -1 0.16762150E+00 0.63198365E+02</pdfrwt>
<totfact> 0.13161792E+01</totfact>
</mgrwt>
</event>
<event>
 5    1  0.4149151E-003  0.1243879E+03  0.7546771E-02  0.1378157E+00
          2   -1    0    0  502    0  0.00000000000E+00  0.00000000000E+00  0.16780824229E+03  0.16780824229E+03  0.00000000000E+00 0. -1.
         -3   -1    0    0    0  501 -0.00000000000E+00 -0.00000000000E+00 -0.51981856545E+03  0.51981856545E+03  0.00000000000E+00 0.  1.
         25    1    1    2    0    0  0.13965033246E+03  0.64441484631E+02 -0.72210659351E+02  0.21093671948E+03  0.12500000000E+03 0.  0.
          2    1    1    2  502    0 -0.28515216669E+02 -0.18360263211E+02  0.85557338167E+02  0.92034096731E+02  0.00000000000E+00 0. -1.
         -3    1    1    2    0  501 -0.11113511580E+03 -0.46081221420E+02 -0.36535700198E+03  0.38465599153E+03  0.00000000000E+00 0.  1.
<mgrwt>
<rscale>  0 0.64950721E+02</rscale>
<asrwt>0</asrwt>
<pdfrwt beam="1">  1        2 0.25816652E-01 0.33914847E+02</pdfrwt>
<pdfrwt beam="2">  1       -3 0.79972088E-01 0.12438789E+03</pdfrwt>
<totfact> 0.17674237E+02</totfact>
</mgrwt>
</event>
<event>
 5    1  0.4149151E-003  0.4612568E+02  0.7546771E-02  0.1569545E+00
         -1   -1    0    0    0  501 -0.00000000000E+00  0.00000000000E+00  0.53334199198E+02  0.53334199198E+02  0.00000000000E+00 0.  1.
          1   -1    0    0  502    0  0.00000000000E+00 -0.00000000000E+00 -0.49092265433E+03  0.49092265433E+03  0.00000000000E+00 0. -1.
         25    1    1    2    0    0 -0.51614128219E+02  0.31775311070E+02 -0.35202873748E+03  0.37844804219E+03  0.12500000000E+03 0.  0.
          1    1    1    2  502    0  0.28361898717E+02 -0.31736563467E+02 -0.11825888925E+03  0.12568520854E+03  0.00000000000E+00 0. -1.
         -1    1    1    2    0  501  0.23252229501E+02 -0.38747603478E-01  0.32699171598E+02  0.40123602796E+02  0.00000000000E+00 0.  1.
<mgrwt>
<rscale>  0 0.32749447E+02</rscale>
<asrwt>0</asrwt>
<pdfrwt beam="2">  1        1 0.75526564E-01 0.46125676E+02</pdfrwt>
<pdfrwt beam="1">  1       -1 0.82052612E-02 0.23252262E+02</pdfrwt>
<totfact> 0.32569148E+03</totfact>
</mgrwt>
</event>
<event>
 5    1  0.4149151E-003  0.6927503E+02  0.7546771E-02  0.1470363E+00
         -1   -1    0    0    0  501 -0.00000000000E+00  0.00000000000E+00  0.59239127083E+01  0.59239127083E+01  0.00000000000E+00 0.  1.
          2   -1    0    0  502    0  0.00000000000E+00 -0.00000000000E+00 -0.28129101647E+04  0.28129101647E+04  0.00000000000E+00 0. -1.
         25    1    1    2    0    0 -0.58613725532E+02 -0.25330698055E+01 -0.20176197548E+04  0.20223393534E+04  0.12500000000E+03 0.  0.
          2    1    1    2  502    0 -0.66216230054E+01 -0.29335390532E+02 -0.33697375390E+03  0.33831305302E+03  0.00000000000E+00 0. -1.
         -1    1    1    2    0  501  0.65235348537E+02  0.31868460338E+02 -0.45239274331E+03  0.45818167102E+03  0.00000000000E+00 0.  1.
<mgrwt>
<rscale>  0 0.45643593E+02</rscale>
<asrwt>0</asrwt>
<pdfrwt beam="2">  1        2 0.43275504E+00 0.30073427E+02</pdfrwt>
<pdfrwt beam="1">  1       -1 0.91137196E-03 0.69275031E+02</pdfrwt>
<totfact> 0.75036194E+03</totfact>
</mgrwt>
</event>
<event>
 5    1  0.4149151E-003  0.1626606E+03  0.7546771E-02  0.1377816E+00
          1   -1    0    0  502    0 -0.00000000000E+00  0.00000000000E+00  0.11806528520E+04  0.11806528520E+04  0.00000000000E+00 0. -1.
          2   -1    0    0  501    0  0.00000000000E+00 -0.00000000000E+00 -0.74667458567E+02  0.74667458567E+02  0.00000000000E+00 0. -1.
         25    1    1    2    0    0  0.11337739522E+03 -0.12280509408E+03  0.17817783228E+03  0.27442278476E+03  0.12500000000E+03 0.  0.
          2    1    1    2  501    0 -0.23068955631E+02 -0.12008425692E+02 -0.10950513535E+02  0.28218659575E+02  0.00000000000E+00 0. -1.
          1    1    1    2  502    0 -0.90308439587E+02  0.13481351978E+03  0.93875807469E+03  0.95267886623E+03  0.00000000000E+00 0. -1.
<mgrwt>
<rscale>  0 0.65041225E+02</rscale>
<asrwt>0</asrwt>
<pdfrwt beam="2">  1        2 0.11487302E-01 0.26007287E+02</pdfrwt>
<pdfrwt beam="1">  1        1 0.18163889E+00 0.16266060E+03</pdfrwt>
<totfact> 0.77706828E+02</totfact>
</mgrwt>
</event>
<event>
 5    1  0.4149151E-003  0.5335998E+03  0.7546771E-02  0.1158872E+00
          2   -1    0    0  501    0  0.00000000000E+00  0.00000000000E+00  0.16150072088E+04  0.16150072088E+04  0.00000000000E+00 0. -1.
          1   -1    0    0  502    0 -0.00000000000E+00 -0.00000000000E+00 -0.81881337541E+03  0.81881337541E+03  0.00000000000E+00 0. -1.
         25    1    1    2    0    0  0.45607480338E+03 -0.25978363611E+03  0.29589118338E+02  0.54036309995E+03  0.12500000000E+03 0.  0.
          2    1    1    2  501    0  0.41494220306E+02  0.53024894421E+02  0.12000505159E+04  0.12019378729E+04  0.00000000000E+00 0. -1.
          1    1    1    2  502    0 -0.49756902368E+03  0.20675874169E+03 -0.43344580082E+03  0.69151961132E+03  0.00000000000E+00 0. -1.
<mgrwt>
<rscale>  0 0.18954575E+03</rscale>
<asrwt>0</asrwt>
<pdfrwt beam="1">  1        2 0.24846265E+00 0.67330600E+02</pdfrwt>
<pdfrwt beam="2">  1        1 0.12597129E+00 0.53359975E+03</pdfrwt>
<totfact> 0.39602033E+01</totfact>
</mgrwt>
</event>
<event>
 5    1  0.4149151E-003  0.1200495E+03  0.7546771E-02  0.1258397E+00
         -3   -1    0    0    0  501 -0.00000000000E+00  0.00000000000E+00  0.99668743181E+02  0.99668743181E+02  0.00000000000E+00 0.  1.
          2   -1    0    0  502    0  0.00000000000E+00 -0.00000000000E+00 -0.13369258019E+04  0.13369258019E+04  0.00000000000E+00 0. -1.
         25    1    1    2    0    0 -0.40052200627E+02 -0.62661758090E+02 -0.17832373018E+03  0.23011959379E+03  0.12500000000E+03 0.  0.
          2    1    1    2  502    0 -0.98437208857E+02  0.30211736206E+02 -0.10592412000E+04  0.10642342566E+04  0.00000000000E+00 0. -1.
         -3    1    1    2    0  501  0.13848940948E+03  0.32450021884E+02  0.30787141841E+00  0.14224069476E+03  0.00000000000E+00 0.  1.
<mgrwt>
<rscale>  0 0.11118178E+03</rscale>
<asrwt>0</asrwt>
<pdfrwt beam="2">  1        2 0.20568090E+00 0.10296909E+03</pdfrwt>
<pdfrwt beam="1">  1       -3 0.15333652E-01 0.12004951E+03</pdfrwt>
<totfact> 0.37851165E+02</totfact>
</mgrwt>
</event>
<event>
 5    1  0.4149151E-003  0.5084535E+02  0.7546771E-02  0.1485890E+00
          2   -1    0    0  502    0  0.00000000000E+00  0.00000000000E+00  0.16003966173E+03  0.16003966173E+03  0.00000000000E+00 0. -1.
         -1   -1    0    0    0  501 -0.00000000000E+00 -0.00000000000E+00 -0.11718285114E+03  0.11718285114E+03  0.00000000000E+00 0.  1.
         25    1    1    2    0    0  0.47834637520E+02  0.62510169392E+02 -0.17472989962E+02  0.14874803932E+03  0.12500000000E+03 0.  0.
          2    1    1    2  502    0 -0.14208918907E+02 -0.33845679152E+02  0.73679078463E+02  0.82316644592E+02  0.00000000000E+00 0. -1.
         -1    1    1    2    0  501 -0.33625718614E+02 -0.28664490240E+02 -0.13349277906E+02  0.46157828952E+02  0.00000000000E+00 0.  1.
<mgrwt>
<rscale>  0 0.43201780E+02</rscale>
<asrwt>0</asrwt>
<pdfrwt beam="1">  1        2 0.24621487E-01 0.36707266E+02</pdfrwt>
<pdfrwt beam="2">  1       -1 0.18028131E-01 0.50845350E+02</pdfrwt>
<totfact> 0.52167581E+03</totfact>
</mgrwt>
</event>
<event>
 5    1  0.4149151E-003  0.1362522E+03  0.7546771E-02  0.1274377E+00
         -3   -1    0    0    0  501 -0.00000000000E+00  0.00000000000E+00  0.23079320128E+04  0.23079320128E+04  0.00000000000E+00 0.  1.
          3   -1    0    0  502    0  0.00000000000E+00 -0.00000000000E+00 -0.14526815084E+03  0.14526815084E+03  0.00000000000E+00 0. -1.
         25    1    1    2    0    0  0.12153374763E+03 -0.84548401496E+02  0.35379250360E+03  0.40337701920E+03  0.12500000000E+03 0.  0.
          3    1    1    2  502    0 -0.66105823976E+02 -0.40764551400E+02 -0.10525059435E+03  0.13080296719E+03  0.00000000000E+00 0. -1.
         -3    1    1    2    0  501 -0.55427923657E+02  0.12531295290E+03  0.19141219527E+04  0.19190201773E+04  0.00000000000E+00 0.  1.
<mgrwt>
<rscale>  0 0.10286845E+03</rscale>
<asrwt>0</asrwt>
<pdfrwt beam="2">  1        3 0.22348948E-01 0.77664204E+02</pdfrwt>
<pdfrwt beam="1">  1       -3 0.35506644E+00 0.13625220E+03</pdfrwt>
<totfact> 0.98896009E-01</totfact>
</mgrwt>
</event>
<event>
 5    1  0.4149151E-003  0.4401175E+02  0.7546771E-02  0.1565611E+00
          2   -1    0    0  502    0  0.00000000000E+00  0.00000000000E+00  0.18073267954E+04  0.18073267954E+04  0.00000000000E+00 0. -1.
         -1   -1    0    0    0  501 -0.00000000000E+00 -0.00000000000E+00 -0.70659792205E+01  0.70659792205E+01  0.00000000000E+00 0.  1.
         25    1    1    2    0    0 -0.35979990295E+02 -0.21707349107E+02  0.89752252527E+03  0.90715900044E+03  0.12500000000E+03 0.  0.
          2    1    1    2  502    0  0.45042558237E+02 -0.15687814304E+01  0.80806311014E+03  0.80931902430E+03  0.00000000000E+00 0. -1.
         -1    1    1    2    0  501 -0.90625679423E+01  0.23276130537E+02  0.94675180746E+02  0.97914749858E+02  0.00000000000E+00 0.  1.
<mgrwt>
<rscale>  0 0.33156184E+02</rscale>
<asrwt>0</asrwt>
<pdfrwt beam="1">  1        2 0.27804991E+00 0.44011752E+02</pdfrwt>
<pdfrwt beam="2">  1       -1 0.10870752E-02 0.24978158E+02</pdfrwt>
<totfact> 0.14321808E+04</totfact>
</mgrwt>
</event>
<event>
 5    1  0.4149151E-003  0.2826573E+02  0.7546771E-02  0.1651730E+00
          2   -1    0    0  502    0  0.00000000000E+00  0.00000000000E+00  0.38284350572E+04  0.38284350572E+04  0.00000000000E+00 0. -1.
         -1   -1    0    0    0  501 -0.00000000000E+00 -0.00000000000E+00 -0.33033876389E+01  0.33033876389E+01  0.00000000000E+00 0.  1.
         25    1    1    2    0    0 -0.27647212468E+02 -0.24024293038E+01  0.30035881858E+04  0.30063162059E+04  0.12500000000E+03 0.  0.
          2    1    1    2  502    0  0.22238086992E+02 -0.20251164321E+02  0.74018196583E+03  0.74079280822E+03  0.00000000000E+00 0. -1.
         -1    1    1    2    0  501  0.54091254760E+01  0.22653593625E+02  0.81361517915E+02  0.84629430696E+02  0.00000000000E+00 0.  1.
<mgrwt>
<rscale>  0 0.25657763E+02</rscale>
<asrwt>0</asrwt>
<pdfrwt beam="1">  1        2 0.58898646E+00 0.28265725E+02</pdfrwt>
<pdfrwt beam="2">  1       -1 0.50821655E-03 0.23290426E+02</pdfrwt>
<totfact> 0.33969560E+03</totfact>
</mgrwt>
</event>
<event>
 5    1  0.4149151E-003  0.2060082E+03  0.7546771E-02  0.1243082E+00
          2   -1    0    0  501    0  0.00000000000E+00  0.00000000000E+00  0.11447413036E+04  0.11447413036E+04  0.00000000000E+00 0. -1.
          2   -1    0    0  502    0 -0.00000000000E+00 -0.00000000000E+00 -0.37223571810E+04  0.37223571810E+04  0.00000000000E+00 0. -1.
         25    1    1    2    0    0  0.66340233515E+02 -0.25657468677E+03 -0.10108141102E+04  0.10524266064E+04  0.12500000000E+03 0.  0.
          2    1    1    2  501    0 -0.84180767366E+01  0.69401956813E+02  0.11192762702E+04  0.11214574734E+04  0.00000000000E+00 0. -1.
          2    1    1    2  502    0 -0.57922156778E+02  0.18717272996E+03 -0.26860780375E+04  0.26932144049E+04  0.00000000000E+00 0. -1.
<mgrwt>
<rscale>  0 0.12000901E+03</rscale>
<asrwt>0</asrwt>
<pdfrwt beam="1">  1        2 0.17611405E+00 0.69910626E+02</pdfrwt>
<pdfrwt beam="2">  1        2 0.57267033E+00 0.20600819E+03</pdfrwt>
<totfact> 0.27479217E+00</totfact>
</mgrwt>
</event>
<event>
 5    1  0.4149151E-003  0.3727161E+02  0.7546771E-02  0.1583928E+00
          1   -1    0    0  502    0 -0.00000000000E+00  0.00000000000E+00  0.65223963044E+03  0.65223963044E+03  0.00000000000E+00 0. -1.
          2   -1    0    0  501    0  0.00000000000E+00 -0.00000000000E+00 -0.72655731008E+03  0.72655731008E+03  0.00000000000E+00 0.  1.
         25    1    1    2    0    0 -0.18982870734E+02 -0.33047666880E+01  0.23836467244E+03  0.26984067138E+03  0.12500000000E+03 0.  0.
          2    1    1    2  501    0  0.23107720839E+02  0.29300217783E+02 -0.70989372094E+03  0.71087380354E+03  0.00000000000E+00 0.  1.
          1    1    1    2  502    0 -0.41248501054E+01 -0.25995451095E+02  0.39721136885E+03  0.39808246559E+03  0.00000000000E+00 0. -1.
<mgrwt>
<rscale>  0 0.31321142E+02</rscale>
<asrwt>0</asrwt>
<pdfrwt beam="2">  1        2 0.11177805E+00 0.37271611E+02</pdfrwt>
<pdfrwt beam="1">  1        1 0.10034456E+00 0.26320674E+02</pdfrwt>
<totfact> 0.19950481E+02</totfact>
</mgrwt>
</event>
<event>
 5    1  0.4149151E-003  0.9047907E+02  0.7546771E-02  0.1337438E+00
          2   -1    0    0  502    0  0.00000000000E+00  0.00000000000E+00  0.12211487247E+04  0.12211487247E+04  0.00000000000E+00 0. -1.
         -1   -1    0    0    0  501 -0.00000000000E+00 -0.00000000000E+00 -0.94905493624E+02  0.94905493624E+02  0.00000000000E+00 0.  1.
         25    1    1    2    0    0  0.38769811058E+02 -0.13709930598E+03  0.12020607249E+02  0.18991791108E+03  0.12500000000E+03 0.  0.
          2    1    1    2  502    0 -0.51824708672E+02  0.72680801439E+02  0.80942109094E+03  0.81432843607E+03  0.00000000000E+00 0. -1.
         -1    1    1    2    0  501  0.13054897614E+02  0.64418504540E+02  0.30480153288E+03  0.31180787117E+03  0.00000000000E+00 0.  1.
<mgrwt>
<rscale>  0 0.77116866E+02</rscale>
<asrwt>0</asrwt>
<pdfrwt beam="1">  1        2 0.18786902E+00 0.90479068E+02</pdfrwt>
<pdfrwt beam="2">  1       -1 0.14600846E-01 0.65728031E+02</pdfrwt>
<totfact> 0.74793803E+02</totfact>
</mgrwt>
</event>
<event>
 5    1  0.4149151E-003  0.5629333E+02  0.7546771E-02  0.1474972E+00
          1   -1    0    0  502    0  0.00000000000E+00  0.00000000000E+00  0.60703543444E+02  0.60703543444E+02  0.00000000000E+00 0. -1.
         -1   -1    0    0    0  501 -0.00000000000E+00 -0.00000000000E+00 -0.33958117650E+03  0.33958117650E+03  0.00000000000E+00 0.  1.
         25    1    1    2    0    0 -0.39129890400E+02 -0.70772454311E+02 -0.86224999882E+02  0.17204545683E+03  0.12500000000E+03 0.  0.
          1    1    1    2  502    0  0.34887671461E+02  0.35213339932E+02 -0.22638225559E+02  0.54494203229E+02  0.00000000000E+00 0. -1.
         -1    1    1    2    0  501  0.42422189392E+01  0.35559114379E+02 -0.17001440761E+03  0.17374505988E+03  0.00000000000E+00 0.  1.
<mgrwt>
<rscale>  0 0.44899171E+02</rscale>
<asrwt>0</asrwt>
<pdfrwt beam="1">  1        1 0.93390067E-02 0.56293328E+02</pdfrwt>
<pdfrwt beam="2">  1       -1 0.52243258E-01 0.35811270E+02</pdfrwt>
<totfact> 0.24472731E+03</totfact>
</mgrwt>
</event>
<event>
 5    1  0.4149151E-003  0.5563727E+02  0.7546771E-02  0.1458221E+00
          2   -1    0    0  502    0  0.00000000000E+00  0.00000000000E+00  0.88608800196E+03  0.88608800196E+03  0.00000000000E+00 0. -1.
         -1   -1    0    0    0  501 -0.00000000000E+00 -0.00000000000E+00 -0.69989517702E+02  0.69989517702E+02  0.00000000000E+00 0.  1.
         25    1    1    2    0    0  0.61417928519E+02 -0.17520619361E+02  0.63604577978E+03  0.65135118640E+03  0.12500000000E+03 0.  0.
          2    1    1    2  502    0 -0.29557976936E+02 -0.28234243377E+02  0.22772812782E+03  0.23136755758E+03  0.00000000000E+00 0. -1.
         -1    1    1    2    0  501 -0.31859951583E+02  0.45754862738E+02 -0.47675423342E+02  0.73358775684E+02  0.00000000000E+00 0.  1.
<mgrwt>
<rscale>  0 0.47688872E+02</rscale>
<asrwt>0</asrwt>
<pdfrwt beam="1">  1        2 0.13632122E+00 0.40875989E+02</pdfrwt>
<pdfrwt beam="2">  1       -1 0.10767619E-01 0.55637272E+02</pdfrwt>
<totfact> 0.18935043E+03</totfact>
</mgrwt>
</event>
<event>
 5    1  0.4149151E-003  0.8458367E+02  0.7546771E-02  0.1458143E+00
          1   -1    0    0  502    0  0.00000000000E+00  0.00000000000E+00  0.78922303936E+03  0.78922303936E+03  0.00000000000E+00 0. -1.
         -1   -1    0    0    0  501 -0.00000000000E+00 -0.00000000000E+00 -0.11540136827E+03  0.11540136827E+03  0.00000000000E+00 0.  1.
         25    1    1    2    0    0  0.10201933049E+02  0.60731220892E+02  0.16099650212E+03  0.21292541963E+03  0.12500000000E+03 0.  0.
          1    1    1    2  502    0 -0.52776948967E+01  0.26379800984E+02  0.58059705509E+03  0.58121999995E+03  0.00000000000E+00 0. -1.
         -1    1    1    2    0  501 -0.49242381521E+01 -0.87111021876E+02 -0.67771886117E+02  0.11047898805E+03  0.00000000000E+00 0.  1.
<mgrwt>
<rscale>  0 0.47702387E+02</rscale>
<asrwt>0</asrwt>
<pdfrwt beam="1">  1        1 0.12141893E+00 0.26902564E+02</pdfrwt>
<pdfrwt beam="2">  1       -1 0.17754057E-01 0.84583674E+02</pdfrwt>
<totfact> 0.62185924E+02</totfact>
</mgrwt>
</event>
<event>
 5    1  0.4149151E-003  0.5352787E+02  0.7546771E-02  0.1529045E+00
          2   -1    0    0  502    0  0.00000000000E+00  0.00000000000E+00  0.14775784719E+04  0.14775784719E+04  0.00000000000E+00 0. -1.
         -1   -1    0    0    0  501 -0.00000000000E+00 -0.00000000000E+00 -0.23510654255E+02  0.23510654255E+02  0.00000000000E+00 0.  1.
         25    1    1    2    0    0  0.17893697093E+02 -0.66605141761E+02  0.70047751830E+03  0.71487773986E+03  0.12500000000E+03 0.  0.
          2    1    1    2  502    0 -0.21934358438E+02  0.13954826417E+02  0.72631113389E+03  0.72677624925E+03  0.00000000000E+00 0. -1.
         -1    1    1    2    0  501  0.40406613447E+01  0.52650315344E+02  0.27279165490E+02  0.59435137081E+02  0.00000000000E+00 0.  1.
<mgrwt>
<rscale>  0 0.37303802E+02</rscale>
<asrwt>0</asrwt>
<pdfrwt beam="1">  1        2 0.22731969E+00 0.25997178E+02</pdfrwt>
<pdfrwt beam="2">  1       -1 0.36170249E-02 0.53527874E+02</pdfrwt>
<totfact> 0.46699969E+03</totfact>
</mgrwt>
</event>
<event>
 5    1  0.4149151E-003  0.1066782E+03  0.7546771E-02  0.1281685E+00
          1   -1    0    0  502    0  0.00000000000E+00  0.00000000000E+00  0.12450619372E+04  0.12450619372E+04  0.00000000000E+00 0. -1.
          1   -1    0    0  501    0 -0.00000000000E+00 -0.00000000000E+00 -0.19968440600E+03  0.19968440600E+03  0.00000000000E+00 0. -1.
         25    1    1    2    0    0 -0.35368917525E+02  0.16017674023E+03  0.82052735088E+02  0.22195765311E+03  0.12500000000E+03 0.  0.
          1    1    1    2  501    0  0.69429471360E+02 -0.74164111451E+02 -0.10753852686E+03  0.14793681651E+03  0.00000000000E+00 0. -1.
          1    1    1    2  502    0 -0.34060553835E+02 -0.86012628779E+02  0.10708633230E+04  0.10748518736E+04  0.00000000000E+00 0. -1.
<mgrwt>
<rscale>  0 0.99342400E+02</rscale>
<asrwt>0</asrwt>
<pdfrwt beam="1">  1        1 0.19154799E+00 0.92511046E+02</pdfrwt>
<pdfrwt beam="2">  1        1 0.30720679E-01 0.10667821E+03</pdfrwt>
<totfact> 0.20148226E+02</totfact>
</mgrwt>
</event>
<event>
 5    1  0.4149151E-003  0.8466585E+02  0.7546771E-02  0.1334727E+00
          2   -1    0    0  502    0  0.00000000000E+00  0.00000000000E+00  0.81101966543E+03  0.81101966543E+03  0.00000000000E+00 0. -1.
          2   -1    0    0  501    0 -0.00000000000E+00 -0.00000000000E+00 -0.22875135402E+04  0.22875135402E+04  0.00000000000E+00 0. -1.
         25    1    1    2    0    0  0.12642794940E+03 -0.39326768021E+02 -0.15003206309E+04  0.15113297511E+04  0.12500000000E+03 0.  0.
          2    1    1    2  501    0 -0.54916519847E+02  0.46983459367E+02 -0.77840571009E+03  0.78175361790E+03  0.00000000000E+00 0. -1.
          2    1    1    2  502    0 -0.71511429548E+02 -0.76566913464E+01  0.80223246622E+03  0.80544983663E+03  0.00000000000E+00 0. -1.
<mgrwt>
<rscale>  0 0.78033210E+02</rscale>
<asrwt>0</asrwt>
<pdfrwt beam="1">  1        2 0.12477226E+00 0.71920160E+02</pdfrwt>
<pdfrwt beam="2">  1        2 0.35192515E+00 0.84665854E+02</pdfrwt>
<totfact> 0.34441331E+01</totfact>
</mgrwt>
</event>
<event>
 5    1  0.4149151E-003  0.1889433E+03  0.7546771E-02  0.1240232E+00
          1   -1    0    0  502    0  0.00000000000E+00  0.00000000000E+00  0.85334514700E+03  0.85334514700E+03  0.00000000000E+00 0. -1.
         -3   -1    0    0    0  501 -0.00000000000E+00 -0.00000000000E+00 -0.38092977619E+03  0.38092977619E+03  0.00000000000E+00 0.  1.
         25    1    1    2    0    0 -0.13175312004E+03  0.17789878321E+03  0.39943640328E+03  0.47347787908E+03  0.12500000000E+03 0.  0.
          1    1    1    2  502    0  0.78427727436E+02  0.21308250146E+01  0.38702762189E+03  0.39489977077E+03  0.00000000000E+00 0. -1.
         -3    1    1    2    0  501  0.53325392603E+02 -0.18002960822E+03 -0.31404865436E+03  0.36589727334E+03  0.00000000000E+00 0.  1.
<mgrwt>
<rscale>  0 0.12175327E+03</rscale>
<asrwt>0</asrwt>
<pdfrwt beam="1">  1        1 0.13128387E+00 0.78456669E+02</pdfrwt>
<pdfrwt beam="2">  1       -3 0.58604581E-01 0.18894326E+03</pdfrwt>
<totfact> 0.34838220E+01</totfact>
</mgrwt>
</event>
<event>
 5    1  0.4149151E-003  0.6763224E+02  0.7546771E-02  0.1477365E+00
          1   -1    0    0  501    0  0.00000000000E+00  0.00000000000E+00  0.90953972448E+03  0.90953972448E+03  0.00000000000E+00 0. -1.
          1   -1    0    0  502    0 -0.00000000000E+00 -0.00000000000E+00 -0.20969729434E+03  0.20969729434E+03  0.00000000000E+00 0. -1.
         25    1    1    2    0    0  0.85475283925E+02 -0.44685304339E+02  0.56979126436E+03  0.59126126672E+03  0.12500000000E+03 0.  0.
          1    1    1    2  501    0 -0.27178099624E+02  0.10960619436E+02  0.32263081745E+03  0.32395899223E+03  0.00000000000E+00 0. -1.
          1    1    1    2  502    0 -0.58297184301E+02  0.33724684903E+02 -0.19257965168E+03  0.20401675987E+03  0.00000000000E+00 0. -1.
<mgrwt>
<rscale>  0 0.44519256E+02</rscale>
<asrwt>0</asrwt>
<pdfrwt beam="1">  1        1 0.13992919E+00 0.29305021E+02</pdfrwt>
<pdfrwt beam="2">  1        1 0.32261123E-01 0.67632237E+02</pdfrwt>
<totfact> 0.34736367E+02</totfact>
</mgrwt>
</event>
<event>
 5    1  0.4149151E-003  0.5133917E+02  0.7546771E-02  0.1456116E+00
         -2   -1    0    0    0  501 -0.00000000000E+00  0.00000000000E+00  0.25389372382E+02  0.25389372382E+02  0.00000000000E+00 0.  1.
          2   -1    0    0  502    0  0.00000000000E+00 -0.00000000000E+00 -0.88803904042E+03  0.88803904042E+03  0.00000000000E+00 0. -1.
         25    1    1    2    0    0  0.61803867617E+02 -0.62073560277E+02 -0.29894898701E+03  0.33566105192E+03  0.12500000000E+03 0.  0.
          2    1    1    2  502    0 -0.20250084486E+02  0.44846039231E+02 -0.48197002091E+03  0.48447531848E+03  0.00000000000E+00 0. -1.
         -2    1    1    2    0  501 -0.41553783131E+02  0.17227521047E+02 -0.81730660116E+02  0.93292042409E+02  0.00000000000E+00 0.  1.
<mgrwt>
<rscale>  0 0.48056313E+02</rscale>
<asrwt>0</asrwt>
<pdfrwt beam="2">  1        2 0.13662136E+00 0.51339167E+02</pdfrwt>
<pdfrwt beam="1">  1       -2 0.39060580E-02 0.44983379E+02</pdfrwt>
<totfact> 0.78394178E+03</totfact>
</mgrwt>
</event>
<event>
 5    1  0.4149151E-003  0.8079394E+02  0.7546771E-02  0.1403958E+00
          2   -1    0    0  501    0  0.00000000000E+00  0.00000000000E+00  0.40107929816E+03  0.40107929816E+03  0.00000000000E+00 0. -1.
          3   -1    0    0  502    0 -0.00000000000E+00 -0.00000000000E+00 -0.18590160449E+04  0.18590160449E+04  0.00000000000E+00 0. -1.
         25    1    1    2    0    0 -0.33483131285E+02 -0.10733800424E+03  0.13161005665E+02  0.16864394239E+03  0.12500000000E+03 0.  0.
          2    1    1    2  501    0  0.32909153042E+02  0.26815089218E+02  0.30780929460E+03  0.31072274330E+03  0.00000000000E+00 0. -1.
          3    1    1    2  502    0  0.57397824323E+00  0.80522915021E+02 -0.17789070470E+04  0.17807286573E+04  0.00000000000E+00 0. -1.
<mgrwt>
<rscale>  0 0.58564144E+02</rscale>
<asrwt>0</asrwt>
<pdfrwt beam="1">  1        2 0.61704506E-01 0.42450693E+02</pdfrwt>
<pdfrwt beam="2">  1        3 0.28600247E+00 0.80793944E+02</pdfrwt>
<totfact> 0.28364470E+00</totfact>
</mgrwt>
</event>
<event>
 5    1  0.4149151E-003  0.1371549E+03  0.7546771E-02  0.1300357E+00
          2   -1    0    0  502    0  0.00000000000E+00  0.00000000000E+00  0.23333348109E+03  0.23333348109E+03  0.00000000000E+00 0. -1.
          2   -1    0    0  501    0 -0.00000000000E+00 -0.00000000000E+00 -0.18141207606E+04  0.18141207606E+04  0.00000000000E+00 0. -1.
         25    1    1    2    0    0 -0.96226170677E+02  0.91851794315E+02 -0.10301302921E+04  0.10461785922E+04  0.12500000000E+03 0.  0.
          2    1    1    2  501    0 -0.34603656789E+02 -0.49538762265E+02 -0.75366504883E+03  0.75608366459E+03  0.00000000000E+00 0. -1.
          2    1    1    2  502    0  0.13082982747E+03 -0.42313032050E+02  0.20300806145E+03  0.24519198488E+03  0.00000000000E+00 0. -1.
<mgrwt>
<rscale>  0 0.91038179E+02</rscale>
<asrwt>0</asrwt>
<pdfrwt beam="1">  1        2 0.35897461E-01 0.13715491E+03</pdfrwt>
<pdfrwt beam="2">  1        2 0.27909549E+00 0.60427659E+02</pdfrwt>
<totfact> 0.23842639E+02</totfact>
</mgrwt>
</event>
<event>
 5    1  0.4149151E-003  0.8299328E+02  0.7546771E-02  0.1416522E+00
         -2   -1    0    0    0  501  0.00000000000E+00  0.00000000000E+00  0.84537279092E+03  0.84537279092E+03  0.00000000000E+00 0.  1.
         -1   -1    0    0    0  502 -0.00000000000E+00 -0.00000000000E+00 -0.69512725815E+02  0.69512725815E+02  0.00000000000E+00 0.  1.
         25    1    1    2    0    0 -0.63326865127E+02 -0.29299290538E+02  0.14064873807E+03  0.20068833497E+03  0.12500000000E+03 0.  0.
         -2    1    1    2    0  501  0.53772004868E+02  0.65528362698E+02  0.66246469585E+03  0.66786590576E+03  0.00000000000E+00 0.  1.
         -1    1    1    2    0  502  0.95548602587E+01 -0.36229072160E+02 -0.27253368817E+02  0.46331276003E+02  0.00000000000E+00 0.  1.
<mgrwt>
<rscale>  0 0.55763617E+02</rscale>
<asrwt>0</asrwt>
<pdfrwt beam="1">  1       -2 0.13005735E+00 0.82993276E+02</pdfrwt>
<pdfrwt beam="2">  1       -1 0.10694266E-01 0.37467867E+02</pdfrwt>
<totfact> 0.17116157E+02</totfact>
</mgrwt>
</event>
<event>
 5    1  0.4149151E-003  0.8956347E+02  0.7546771E-02  0.1425744E+00
          1   -1    0    0  502    0 -0.00000000000E+00  0.00000000000E+00  0.60088588935E+03  0.60088588935E+03  0.00000000000E+00 0. -1.
          2   -1    0    0  501    0  0.00000000000E+00 -0.00000000000E+00 -0.60174441713E+03  0.60174441713E+03  0.00000000000E+00 0. -1.
         25    1    1    2    0    0  0.73670226344E+02  0.56655318036E+02 -0.26065588103E+03  0.30365048267E+03  0.12500000000E+03 0.  0.
          2    1    1    2  501    0  0.11890156543E+02 -0.30081373429E+02 -0.31529540386E+03  0.31695024301E+03  0.00000000000E+00 0. -1.
          1    1    1    2  502    0 -0.85560382887E+02 -0.26573944608E+02  0.57509275711E+03  0.58202958081E+03  0.00000000000E+00 0. -1.
<mgrwt>
<rscale>  0 0.53823986E+02</rscale>
<asrwt>0</asrwt>
<pdfrwt beam="2">  1        2 0.92576064E-01 0.32346018E+02</pdfrwt>
<pdfrwt beam="1">  1        1 0.92443983E-01 0.89563468E+02</pdfrwt>
<totfact> 0.26260776E+02</totfact>
</mgrwt>
</event>
<event>
 5    1  0.4149151E-003  0.8380359E+02  0.7546771E-02  0.1358387E+00
          2   -1    0    0  502    0  0.00000000000E+00  0.00000000000E+00  0.66360896267E+03  0.66360896267E+03  0.00000000000E+00 0. -1.
         -1   -1    0    0    0  501 -0.00000000000E+00 -0.00000000000E+00 -0.42479386856E+02  0.42479386856E+02  0.00000000000E+00 0.  1.
         25    1    1    2    0    0 -0.89770396749E+02  0.93644667445E+02  0.37135044711E+03  0.41273987261E+03  0.12500000000E+03 0.  0.
          2    1    1    2  502    0  0.27196139856E+02 -0.52712973617E+02  0.18547331165E+03  0.19472708323E+03  0.00000000000E+00 0. -1.
         -1    1    1    2    0  501  0.62574256892E+02 -0.40931693828E+02  0.64305817063E+02  0.98621393690E+02  0.00000000000E+00 0.  1.
<mgrwt>
<rscale>  0 0.70504064E+02</rscale>
<asrwt>0</asrwt>
<pdfrwt beam="1">  1        2 0.10209368E+00 0.59315155E+02</pdfrwt>
<pdfrwt beam="2">  1       -1 0.65352908E-02 0.83803592E+02</pdfrwt>
<totfact> 0.56816128E+03</totfact>
</mgrwt>
</event>
<event>
 5    1  0.4149151E-003  0.1123895E+03  0.7546771E-02  0.1346422E+00
          2   -1    0    0  502    0  0.00000000000E+00  0.00000000000E+00  0.12558680360E+03  0.12558680360E+03  0.00000000000E+00 0. -1.
          2   -1    0    0  501    0 -0.00000000000E+00 -0.00000000000E+00 -0.13902492646E+04  0.13902492646E+04  0.00000000000E+00 0. -1.
         25    1    1    2    0    0 -0.87282393434E+02 -0.30155053977E+02 -0.10494918706E+04  0.10609362516E+04  0.12500000000E+03 0.  0.
          2    1    1    2  501    0  0.60623958871E+01 -0.48587090209E+02 -0.30595744241E+03  0.30985063263E+03  0.00000000000E+00 0. -1.
          2    1    1    2  502    0  0.81219997547E+02  0.78742144186E+02  0.90786852015E+02  0.14504918397E+03  0.00000000000E+00 0. -1.
<mgrwt>
<rscale>  0 0.74182356E+02</rscale>
<asrwt>0</asrwt>
<pdfrwt beam="1">  1        2 0.19321046E-01 0.11238950E+03</pdfrwt>
<pdfrwt beam="2">  1        2 0.21388451E+00 0.48963844E+02</pdfrwt>
<totfact> 0.77234777E+02</totfact>
</mgrwt>
</event>
<event>
 5    1  0.4149151E-003  0.5301074E+02  0.7546771E-02  0.1511901E+00
          2   -1    0    0  502    0  0.00000000000E+00  0.00000000000E+00  0.63282259968E+03  0.63282259968E+03  0.00000000000E+00 0. -1.
         -3   -1    0    0    0  501 -0.00000000000E+00 -0.00000000000E+00 -0.10918732513E+03  0.10918732513E+03  0.00000000000E+00 0.  1.
         25    1    1    2    0    0  0.64017218210E+02  0.38531966076E+02  0.90714863306E+01  0.14591164622E+03  0.12500000000E+03 0.  0.
          2    1    1    2  502    0 -0.17078096311E+02 -0.23976842189E+02  0.53997253970E+03  0.54077434663E+03  0.00000000000E+00 0. -1.
         -3    1    1    2    0  501 -0.46939121898E+02 -0.14555123887E+02 -0.25408751489E+02  0.55323931966E+02  0.00000000000E+00 0.  1.
<mgrwt>
<rscale>  0 0.39503029E+02</rscale>
<asrwt>0</asrwt>
<pdfrwt beam="1">  1        2 0.97357321E-01 0.29437227E+02</pdfrwt>
<pdfrwt beam="2">  1       -3 0.16798050E-01 0.53010743E+02</pdfrwt>
<totfact> 0.82654468E+02</totfact>
</mgrwt>
</event>
<event>
 5    1  0.1089795E-002  0.7020118E+02  0.7546771E-02  0.1373659E+00
         -1   -1    0    0    0  501 -0.00000000000E+00  0.00000000000E+00  0.94905690384E+01  0.94905690384E+01  0.00000000000E+00 0.  1.
          2   -1    0    0  502    0  0.00000000000E+00 -0.00000000000E+00 -0.27517597164E+04  0.27517597164E+04  0.00000000000E+00 0. -1.
         25    1    1    2    0    0 -0.10214911161E+03 -0.14309200765E+02 -0.20753514334E+04  0.20816694661E+04  0.12500000000E+03 0.  0.
          2    1    1    2  502    0  0.53271494825E+02 -0.32403199683E+02 -0.35305858933E+03  0.35852222666E+03  0.00000000000E+00 0. -1.
         -1    1    1    2    0  501  0.48877616783E+02  0.46712400448E+02 -0.31385912461E+03  0.32105859259E+03  0.00000000000E+00 0.  1.
<mgrwt>
<rscale>  0 0.66160494E+02</rscale>
<asrwt>0</asrwt>
<pdfrwt beam="2">  1        2 0.42334819E+00 0.62352382E+02</pdfrwt>
<pdfrwt beam="1">  1       -1 0.14600857E-02 0.70201184E+02</pdfrwt>
<totfact> 0.36994934E+03</totfact>
</mgrwt>
</event>
<event>
 5    1  0.4149151E-003  0.4506214E+02  0.7546771E-02  0.1550764E+00
         -1   -1    0    0    0  501 -0.00000000000E+00  0.00000000000E+00  0.37667875515E+03  0.37667875515E+03  0.00000000000E+00 0.  1.
          2   -1    0    0  502    0  0.00000000000E+00 -0.00000000000E+00 -0.28840433356E+02  0.28840433356E+02  0.00000000000E+00 0. -1.
         25    1    1    2    0    0  0.22938706776E+02  0.19919874629E+02  0.24773989448E+03  0.27914698815E+03  0.12500000000E+03 0.  0.
          2    1    1    2  502    0 -0.17640128694E+02 -0.46200374082E+02  0.55502924911E+02  0.74338572621E+02  0.00000000000E+00 0. -1.
         -1    1    1    2    0  501 -0.52985780828E+01  0.26280499452E+02  0.44595502397E+02  0.52033627734E+02  0.00000000000E+00 0.  1.
<mgrwt>
<rscale>  0 0.34757523E+02</rscale>
<asrwt>0</asrwt>
<pdfrwt beam="2">  1        2 0.44369900E-02 0.45062144E+02</pdfrwt>
<pdfrwt beam="1">  1       -1 0.57950574E-01 0.26809319E+02</pdfrwt>
<totfact> 0.56535634E+03</totfact>
</mgrwt>
</event>
<event>
 5    1  0.4149151E-003  0.1367106E+03  0.7546771E-02  0.1270212E+00
          2   -1    0    0  502    0  0.00000000000E+00  0.00000000000E+00  0.17223739577E+04  0.17223739577E+04  0.00000000000E+00 0. -1.
         -3   -1    0    0    0  501 -0.00000000000E+00 -0.00000000000E+00 -0.66787003961E+03  0.66787003961E+03  0.00000000000E+00 0.  1.
         25    1    1    2    0    0 -0.19837064806E+02  0.99695766977E+02  0.34844135471E+02  0.16483891795E+03  0.12500000000E+03 0.  0.
          2    1    1    2  502    0 -0.80569368086E+02 -0.72474470927E+00  0.16132707645E+04  0.16152815568E+04  0.00000000000E+00 0. -1.
         -3    1    1    2    0  501  0.10040643289E+03 -0.98971022268E+02 -0.59361098184E+03  0.61012352256E+03  0.00000000000E+00 0.  1.
<mgrwt>
<rscale>  0 0.10495302E+03</rscale>
<asrwt>0</asrwt>
<pdfrwt beam="1">  1        2 0.26498061E+00 0.80572628E+02</pdfrwt>
<pdfrwt beam="2">  1       -3 0.10274924E+00 0.13671064E+03</pdfrwt>
<totfact> 0.60967892E+00</totfact>
</mgrwt>
</event>
<event>
 5    1  0.4149151E-003  0.4905747E+02  0.7546771E-02  0.1576834E+00
          1   -1    0    0  502    0 -0.00000000000E+00  0.00000000000E+00  0.72895812336E+02  0.72895812336E+02  0.00000000000E+00 0. -1.
          2   -1    0    0  501    0  0.00000000000E+00 -0.00000000000E+00 -0.40941278257E+03  0.40941278257E+03  0.00000000000E+00 0. -1.
         25    1    1    2    0    0 -0.50610996271E+02 -0.80943515908E+00 -0.31878232257E+03  0.34613479645E+03  0.12500000000E+03 0.  0.
          2    1    1    2  501    0  0.45783902826E+02 -0.19517466205E+02 -0.66534431295E+02  0.83089877800E+02  0.00000000000E+00 0. -1.
          1    1    1    2  502    0  0.48270934455E+01  0.20326901364E+02  0.48799783630E+02  0.53083920659E+02  0.00000000000E+00 0. -1.
<mgrwt>
<rscale>  0 0.32014343E+02</rscale>
<asrwt>0</asrwt>
<pdfrwt beam="2">  1        2 0.62986581E-01 0.49057471E+02</pdfrwt>
<pdfrwt beam="1">  1        1 0.11214741E-01 0.20892194E+02</pdfrwt>
<totfact> 0.49316198E+03</totfact>
</mgrwt>
</event>
<event>
 5    1  0.4149151E-003  0.1305955E+03  0.7546771E-02  0.1337704E+00
          1   -1    0    0  502    0  0.00000000000E+00  0.00000000000E+00  0.80936531222E+02  0.80936531222E+02  0.00000000000E+00 0. -1.
          1   -1    0    0  501    0 -0.00000000000E+00 -0.00000000000E+00 -0.94598829888E+03  0.94598829888E+03  0.00000000000E+00 0. -1.
         25    1    1    2    0    0 -0.86654395375E+02 -0.58905746723E+02 -0.61411272724E+03  0.63540405491E+03  0.12500000000E+03 0.  0.
          1    1    1    2  501    0 -0.41107803842E+02  0.19346293051E+02 -0.25370976669E+03  0.25774556506E+03  0.00000000000E+00 0. -1.
          1    1    1    2  502    0  0.12776219922E+03  0.39559453672E+02  0.27707262733E+01  0.13377521014E+03  0.00000000000E+00 0. -1.
<mgrwt>
<rscale>  0 0.77027965E+02</rscale>
<asrwt>0</asrwt>
<pdfrwt beam="1">  1        1 0.12451774E-01 0.13059551E+03</pdfrwt>
<pdfrwt beam="2">  1        1 0.14553666E+00 0.45432704E+02</pdfrwt>
<totfact> 0.10775455E+03</totfact>
</mgrwt>
</event>
<event>
 5    1  0.4149151E-003  0.8317608E+02  0.7546771E-02  0.1341161E+00
          2   -1    0    0  501    0  0.00000000000E+00  0.00000000000E+00  0.12313809900E+04  0.12313809900E+04  0.00000000000E+00 0. -1.
          1   -1    0    0  502    0 -0.00000000000E+00 -0.00000000000E+00 -0.46543322106E+03  0.46543322106E+03  0.00000000000E+00 0. -1.
         25    1    1    2    0    0 -0.83027916272E+02 -0.99199562651E+02  0.20126099795E+03  0.26993550601E+03  0.12500000000E+03 0.  0.
          2    1    1    2  501    0  0.75766960546E+02  0.30353730692E+02  0.99131539813E+03  0.99466989492E+03  0.00000000000E+00 0. -1.
          1    1    1    2  502    0  0.72609557261E+01  0.68845831958E+02 -0.42662862714E+03  0.43220881013E+03  0.00000000000E+00 0. -1.
<mgrwt>
<rscale>  0 0.75882055E+02</rscale>
<asrwt>0</asrwt>
<pdfrwt beam="1">  1        2 0.18944323E+00 0.83176083E+02</pdfrwt>
<pdfrwt beam="2">  1        1 0.71605111E-01 0.69227668E+02</pdfrwt>
<totfact> 0.14480287E+02</totfact>
</mgrwt>
</event>
<event>
 5    1  0.4149151E-003  0.4067783E+02  0.7546771E-02  0.1551933E+00
          2   -1    0    0  502    0  0.00000000000E+00  0.00000000000E+00  0.10053563792E+03  0.10053563792E+03  0.00000000000E+00 0. -1.
         -1   -1    0    0    0  501 -0.00000000000E+00 -0.00000000000E+00 -0.11378499378E+03  0.11378499378E+03  0.00000000000E+00 0.  1.
         25    1    1    2    0    0 -0.30206631432E+02  0.11446224645E+02 -0.16144217621E+02  0.13011184575E+03  0.12500000000E+03 0.  0.
          2    1    1    2  502    0  0.40477424464E+02  0.16183727823E+02  0.22252332573E+02  0.48943858066E+02  0.00000000000E+00 0. -1.
         -1    1    1    2    0  501 -0.10270793032E+02 -0.27629952467E+02 -0.19357470815E+02  0.35264927892E+02  0.00000000000E+00 0.  1.
<mgrwt>
<rscale>  0 0.34627551E+02</rscale>
<asrwt>0</asrwt>
<pdfrwt beam="1">  1        2 0.15467021E-01 0.40677831E+02</pdfrwt>
<pdfrwt beam="2">  1       -1 0.17505384E-01 0.29477169E+02</pdfrwt>
<totfact> 0.88088390E+03</totfact>
</mgrwt>
</event>
<event>
 5    1  0.4149151E-003  0.9394924E+02  0.7546771E-02  0.1303620E+00
          2   -1    0    0  501    0  0.00000000000E+00  0.00000000000E+00  0.20144398962E+04  0.20144398962E+04  0.00000000000E+00 0.  1.
          3   -1    0    0  502    0 -0.00000000000E+00 -0.00000000000E+00 -0.80552692384E+03  0.80552692384E+03  0.00000000000E+00 0. -1.
         25    1    1    2    0    0 -0.11739423113E+03  0.42166220549E+02 -0.52842327047E+02  0.18432771681E+03  0.12500000000E+03 0.  0.
          2    1    1    2  501    0  0.42576357660E+02 -0.83778007852E+02  0.19448908834E+04  0.19471599958E+04  0.00000000000E+00 0.  1.
          3    1    1    2  502    0  0.74817873471E+02  0.41611787303E+02 -0.68313558408E+03  0.68847910736E+03  0.00000000000E+00 0. -1.
<mgrwt>
<rscale>  0 0.89683304E+02</rscale>
<asrwt>0</asrwt>
<pdfrwt beam="1">  1        2 0.30991383E+00 0.93949242E+02</pdfrwt>
<pdfrwt beam="2">  1        3 0.12392722E+00 0.85611068E+02</pdfrwt>
<totfact> 0.27752651E+00</totfact>
</mgrwt>
</event>
<event>
 5    1  0.4149151E-003  0.4952325E+02  0.7546771E-02  0.1483498E+00
          1   -1    0    0  502    0  0.00000000000E+00  0.00000000000E+00  0.36490600676E+03  0.36490600676E+03  0.00000000000E+00 0. -1.
         -2   -1    0    0    0  501 -0.00000000000E+00 -0.00000000000E+00 -0.78457889995E+02  0.78457889995E+02  0.00000000000E+00 0.  1.
         25    1    1    2    0    0 -0.29467725811E+02  0.42153389689E+02  0.31619808564E+03  0.34387713574E+03  0.12500000000E+03 0.  0.
          1    1    1    2  502    0 -0.70175463398E+01 -0.53885734852E+02 -0.27978794544E+02  0.61120629261E+02  0.00000000000E+00 0. -1.
         -2    1    1    2    0  501  0.36485272151E+02  0.11732345163E+02 -0.17711743291E+01  0.38366131750E+02  0.00000000000E+00 0.  1.
<mgrwt>
<rscale>  0 0.43565925E+02</rscale>
<asrwt>0</asrwt>
<pdfrwt beam="1">  1        1 0.56139385E-01 0.49523251E+02</pdfrwt>
<pdfrwt beam="2">  1       -2 0.12070445E-01 0.38325227E+02</pdfrwt>
<totfact> 0.26403389E+03</totfact>
</mgrwt>
</event>
<event>
 5    1  0.4149151E-003  0.1038085E+03  0.7546771E-02  0.1329896E+00
          1   -1    0    0  502    0  0.00000000000E+00  0.00000000000E+00  0.14214238931E+04  0.14214238931E+04  0.00000000000E+00 0. -1.
         -2   -1    0    0    0  501 -0.00000000000E+00 -0.00000000000E+00 -0.25281835136E+03  0.25281835136E+03  0.00000000000E+00 0.  1.
         25    1    1    2    0    0 -0.39604384516E+02  0.40014716296E+02 -0.14420382563E+03  0.19897092280E+03  0.12500000000E+03 0.  0.
          1    1    1    2  502    0  0.29089190860E+02 -0.10029967883E+03  0.13802556251E+04  0.13842007792E+04  0.00000000000E+00 0. -1.
         -2    1    1    2    0  501  0.10515193656E+02  0.60284962530E+02 -0.67446257772E+02  0.91070542396E+02  0.00000000000E+00 0.  1.
<mgrwt>
<rscale>  0 0.79703043E+02</rscale>
<asrwt>0</asrwt>
<pdfrwt beam="1">  1        1 0.21868059E+00 0.10380848E+03</pdfrwt>
<pdfrwt beam="2">  1       -2 0.38895132E-01 0.61195147E+02</pdfrwt>
<totfact> 0.48463202E+01</totfact>
</mgrwt>
</event>
<event>
 5    1  0.4149151E-003  0.1449363E+03  0.7546771E-02  0.1252632E+00
         -1   -1    0    0    0  501 -0.00000000000E+00  0.00000000000E+00  0.62018638177E+02  0.62018638177E+02  0.00000000000E+00 0.  1.
          2   -1    0    0  502    0  0.00000000000E+00 -0.00000000000E+00 -0.28308325065E+04  0.28308325065E+04  0.00000000000E+00 0. -1.
         25    1    1    2    0    0 -0.88452425073E+02 -0.38919550793E+02 -0.10859997485E+03  0.19172250121E+03  0.12500000000E+03 0.  0.
          2    1    1    2  502    0  0.14496337181E+03 -0.31508721985E+02 -0.25672394131E+04  0.25715219974E+04  0.00000000000E+00 0. -1.
         -1    1    1    2    0  501 -0.56510946734E+02  0.70428272778E+02 -0.92974480297E+02  0.12960664602E+03  0.00000000000E+00 0.  1.
<mgrwt>
<rscale>  0 0.11440007E+03</rscale>
<asrwt>0</asrwt>
<pdfrwt beam="2">  1        2 0.43551266E+00 0.14493628E+03</pdfrwt>
<pdfrwt beam="1">  1       -1 0.95413296E-02 0.90297446E+02</pdfrwt>
<totfact> 0.20008134E+02</totfact>
</mgrwt>
</event>
<event>
 5    1  0.4149151E-003  0.1633537E+03  0.7546771E-02  0.1333709E+00
          1   -1    0    0  502    0  0.00000000000E+00  0.00000000000E+00  0.28575692391E+04  0.28575692391E+04  0.00000000000E+00 0. -1.
         -3   -1    0    0    0  501 -0.00000000000E+00 -0.00000000000E+00 -0.12295131323E+03  0.12295131323E+03  0.00000000000E+00 0.  1.
         25    1    1    2    0    0 -0.23230796540E+02  0.12996638520E+03  0.57811680502E+03  0.60603215380E+03  0.12500000000E+03 0.  0.
          1    1    1    2  502    0  0.98613847588E+01  0.36293321072E+02  0.22014265372E+04  0.22017477718E+04  0.00000000000E+00 0. -1.
         -3    1    1    2    0  501  0.13369411782E+02 -0.16625970627E+03 -0.44925416301E+02  0.17274062675E+03  0.00000000000E+00 0.  1.
<mgrwt>
<rscale>  0 0.78381129E+02</rscale>
<asrwt>0</asrwt>
<pdfrwt beam="1">  1        1 0.43962599E+00 0.37609202E+02</pdfrwt>
<pdfrwt beam="2">  1       -3 0.18915589E-01 0.16335368E+03</pdfrwt>
<totfact> 0.16763479E+01</totfact>
</mgrwt>
</event>
<event>
 5    1  0.4149151E-003  0.3068593E+02  0.7546771E-02  0.1593166E+00
         -1   -1    0    0    0  501 -0.00000000000E+00  0.00000000000E+00  0.26991557598E+02  0.26991557598E+02  0.00000000000E+00 0.  1.
          2   -1    0    0  502    0  0.00000000000E+00 -0.00000000000E+00 -0.42429824992E+03  0.42429824992E+03  0.00000000000E+00 0. -1.
         25    1    1    2    0    0 -0.23131565507E+01  0.71680317382E+00 -0.31076492057E+03  0.33497119332E+03  0.12500000000E+03 0.  0.
          2    1    1    2  502    0 -0.29611214471E+02  0.60158697802E+01 -0.76390334174E+02  0.82149241426E+02  0.00000000000E+00 0. -1.
         -1    1    1    2    0  501  0.31924371022E+02 -0.67326729540E+01 -0.10151437573E+02  0.34169372763E+02  0.00000000000E+00 0.  1.
<mgrwt>
<rscale>  0 0.30450127E+02</rscale>
<asrwt>0</asrwt>
<pdfrwt beam="2">  1        2 0.65276656E-01 0.30216133E+02</pdfrwt>
<pdfrwt beam="1">  1       -1 0.41525472E-02 0.30685932E+02</pdfrwt>
<totfact> 0.15808232E+04</totfact>
</mgrwt>
</event>
<event>
 5    1  0.4149151E-003  0.7780231E+02  0.7546771E-02  0.1411142E+00
         -1   -1    0    0    0  501 -0.00000000000E+00  0.00000000000E+00  0.28147057364E+03  0.28147057364E+03  0.00000000000E+00 0.  1.
          2   -1    0    0  502    0  0.00000000000E+00 -0.00000000000E+00 -0.18952865724E+04  0.18952865724E+04  0.00000000000E+00 0. -1.
         25    1    1    2    0    0 -0.63650111268E+02  0.28020384179E+02 -0.93763136998E+02  0.17103509714E+03  0.12500000000E+03 0.  0.
          2    1    1    2  502    0  0.19262804699E+02  0.36952281755E+02 -0.17562594242E+04  0.17567537368E+04  0.00000000000E+00 0. -1.
         -1    1    1    2    0  501  0.44387306569E+02 -0.64972665935E+02  0.23620656241E+03  0.24896831210E+03  0.00000000000E+00 0.  1.
<mgrwt>
<rscale>  0 0.56939887E+02</rscale>
<asrwt>0</asrwt>
<pdfrwt beam="2">  1        2 0.29158255E+00 0.41671654E+02</pdfrwt>
<pdfrwt beam="1">  1       -1 0.43303165E-01 0.77802306E+02</pdfrwt>
<totfact> 0.63244340E+01</totfact>
</mgrwt>
</event>
<event>
 5    1  0.4149151E-003  0.1046876E+03  0.7546771E-02  0.1302706E+00
          2   -1    0    0  501    0  0.00000000000E+00  0.00000000000E+00  0.69140432404E+03  0.69140432404E+03  0.00000000000E+00 0. -1.
          3   -1    0    0  502    0 -0.00000000000E+00 -0.00000000000E+00 -0.64260488580E+03  0.64260488580E+03  0.00000000000E+00 0. -1.
         25    1    1    2    0    0 -0.10012571082E+03 -0.28596107646E+02  0.19712451633E+03  0.25558945651E+03  0.12500000000E+03 0.  0.
          2    1    1    2  501    0  0.67488157426E+01  0.77182171407E+02  0.45724855412E+03  0.46376596936E+03  0.00000000000E+00 0. -1.
          3    1    1    2  502    0  0.93376895078E+02 -0.48586063762E+02 -0.60557363221E+03  0.61465378397E+03  0.00000000000E+00 0. -1.
<mgrwt>
<rscale>  0 0.90060217E+02</rscale>
<asrwt>0</asrwt>
<pdfrwt beam="1">  1        2 0.10636990E+00 0.77476668E+02</pdfrwt>
<pdfrwt beam="2">  1        3 0.98862290E-01 0.10468755E+03</pdfrwt>
<totfact> 0.25211052E+01</totfact>
</mgrwt>
</event>
<event>
 5    1  0.4149151E-003  0.6787657E+02  0.7546771E-02  0.1430320E+00
         -1   -1    0    0    0  501 -0.00000000000E+00  0.00000000000E+00  0.14602713824E+03  0.14602713824E+03  0.00000000000E+00 0.  1.
          2   -1    0    0  502    0  0.00000000000E+00 -0.00000000000E+00 -0.37575538986E+04  0.37575538986E+04  0.00000000000E+00 0. -1.
         25    1    1    2    0    0 -0.13747797137E+02  0.97749685207E+02 -0.18365414707E+04  0.18434352651E+04  0.12500000000E+03 0.  0.
          2    1    1    2  502    0  0.25543278979E+02 -0.58252071115E+02 -0.19140467999E+04  0.19151033693E+04  0.00000000000E+00 0. -1.
         -1    1    1    2    0  501 -0.11795481842E+02 -0.39497614092E+02  0.13906151019E+03  0.14504240252E+03  0.00000000000E+00 0.  1.
<mgrwt>
<rscale>  0 0.52895746E+02</rscale>
<asrwt>0</asrwt>
<pdfrwt beam="2">  1        2 0.57808525E+00 0.67876571E+02</pdfrwt>
<pdfrwt beam="1">  1       -1 0.22465712E-01 0.41221292E+02</pdfrwt>
<totfact> 0.15963568E+01</totfact>
</mgrwt>
</event>
<event>
 5    1  0.4149151E-003  0.1147822E+03  0.7546771E-02  0.1291514E+00
         -1   -1    0    0    0  501 -0.00000000000E+00  0.00000000000E+00  0.84273027966E+02  0.84273027966E+02  0.00000000000E+00 0.  1.
          2   -1    0    0  502    0  0.00000000000E+00 -0.00000000000E+00 -0.16188332534E+04  0.16188332534E+04  0.00000000000E+00 0. -1.
         25    1    1    2    0    0  0.14693398932E+03 -0.69352884682E+02 -0.12361163279E+03  0.23938307290E+03  0.12500000000E+03 0.  0.
          2    1    1    2  502    0 -0.70947292868E+02  0.88572004558E+02 -0.13711132585E+04  0.13758016158E+04  0.00000000000E+00 0. -1.
         -1    1    1    2    0  501 -0.75986696451E+02 -0.19219119876E+02 -0.39835334069E+02  0.87921592608E+02  0.00000000000E+00 0.  1.
<mgrwt>
<rscale>  0 0.94850299E+02</rscale>
<asrwt>0</asrwt>
<pdfrwt beam="2">  1        2 0.24905129E+00 0.11478224E+03</pdfrwt>
<pdfrwt beam="1">  1       -1 0.12965080E-01 0.78379542E+02</pdfrwt>
<totfact> 0.55207784E+02</totfact>
</mgrwt>
</event>
<event>
 5    1  0.4149151E-003  0.1790558E+03  0.7546771E-02  0.1347140E+00
         -1   -1    0    0    0  501 -0.00000000000E+00  0.00000000000E+00  0.16470771024E+04  0.16470771024E+04  0.00000000000E+00 0.  1.
          1   -1    0    0  502    0  0.00000000000E+00 -0.00000000000E+00 -0.15085710053E+04  0.15085710053E+04  0.00000000000E+00 0. -1.
         25    1    1    2    0    0  0.10136894370E+03  0.15794762837E+03  0.68180901232E+03  0.71813066035E+03  0.12500000000E+03 0.  0.
          1    1    1    2  502    0 -0.71455693957E+02 -0.16412768215E+03 -0.14847866081E+04  0.14955383926E+04  0.00000000000E+00 0. -1.
         -1    1    1    2    0  501 -0.29913249745E+02  0.61800537847E+01  0.94148369286E+03  0.94197905470E+03  0.00000000000E+00 0.  1.
<mgrwt>
<rscale>  0 0.73954417E+02</rscale>
<asrwt>0</asrwt>
<pdfrwt beam="2">  1        1 0.23208785E+00 0.17905582E+03</pdfrwt>
<pdfrwt beam="1">  1       -1 0.25339648E+00 0.30544976E+02</pdfrwt>
<totfact> 0.71702993E-01</totfact>
</mgrwt>
</event>
<event>
 5    1  0.4149151E-003  0.1453925E+03  0.7546771E-02  0.1265335E+00
          2   -1    0    0  502    0  0.00000000000E+00  0.00000000000E+00  0.71083199786E+03  0.71083199786E+03  0.00000000000E+00 0. -1.
          2   -1    0    0  501    0 -0.00000000000E+00 -0.00000000000E+00 -0.38883802651E+03  0.38883802651E+03  0.00000000000E+00 0. -1.
         25    1    1    2    0    0 -0.18432901862E+03 -0.47886990077E+02 -0.49873021693E+01  0.22786009766E+03  0.12500000000E+03 0.  0.
          2    1    1    2  501    0  0.13879531640E+03 -0.17200368430E+02 -0.25156933901E+03  0.28783176486E+03  0.00000000000E+00 0. -1.
          2    1    1    2  502    0  0.45533702214E+02  0.65087358507E+02  0.57855061253E+03  0.58397816186E+03  0.00000000000E+00 0. -1.
<mgrwt>
<rscale>  0 0.10746645E+03</rscale>
<asrwt>0</asrwt>
<pdfrwt beam="1">  1        2 0.10935877E+00 0.79433509E+02</pdfrwt>
<pdfrwt beam="2">  1        2 0.59821235E-01 0.14539251E+03</pdfrwt>
<totfact> 0.54853144E+02</totfact>
</mgrwt>
</event>
<event>
 5    1  0.4149151E-003  0.6368717E+02  0.7546771E-02  0.1463687E+00
          2   -1    0    0  501    0  0.00000000000E+00  0.00000000000E+00  0.89613954408E+03  0.89613954408E+03  0.00000000000E+00 0.  1.
          1   -1    0    0  502    0 -0.00000000000E+00 -0.00000000000E+00 -0.26620042927E+03  0.26620042927E+03  0.00000000000E+00 0. -1.
         25    1    1    2    0    0 -0.36054336183E+02  0.16277786405E+01  0.51446090194E+03  0.53065769046E+03  0.12500000000E+03 0.  0.
          2    1    1    2  501    0 -0.23396453009E+02 -0.25110942026E+02  0.36881364268E+03  0.37040714956E+03  0.00000000000E+00 0.  1.
          1    1    1    2  502    0  0.59450789192E+02  0.23483163386E+02 -0.25333542981E+03  0.26127513332E+03  0.00000000000E+00 0. -1.
<mgrwt>
<rscale>  0 0.46752841E+02</rscale>
<asrwt>0</asrwt>
<pdfrwt beam="1">  1        2 0.13786762E+00 0.34321326E+02</pdfrwt>
<pdfrwt beam="2">  1        1 0.40953913E-01 0.63687172E+02</pdfrwt>
<totfact> 0.46301156E+02</totfact>
</mgrwt>
</event>
<event>
 5    1  0.4149151E-003  0.8715618E+02  0.7546771E-02  0.1358073E+00
         -3   -1    0    0    0  501 -0.00000000000E+00  0.00000000000E+00  0.68670323330E+02  0.68670323330E+02  0.00000000000E+00 0.  1.
          2   -1    0    0  502    0  0.00000000000E+00 -0.00000000000E+00 -0.53383229854E+03  0.53383229854E+03  0.00000000000E+00 0. -1.
         25    1    1    2    0    0  0.51412638025E+02 -0.26134856000E+02 -0.19488005589E+03  0.23859909101E+03  0.12500000000E+03 0.  0.
          2    1    1    2  502    0 -0.28750199551E+01 -0.57112343772E+02 -0.26088931899E+03  0.26708298769E+03  0.00000000000E+00 0. -1.
         -3    1    1    2    0  501 -0.48537618070E+02  0.83247199773E+02 -0.93926003238E+01  0.96820543165E+02  0.00000000000E+00 0.  1.
<mgrwt>
<rscale>  0 0.70597427E+02</rscale>
<asrwt>0</asrwt>
<pdfrwt beam="2">  1        2 0.82128047E-01 0.57184662E+02</pdfrwt>
<pdfrwt beam="1">  1       -3 0.10564665E-01 0.87156180E+02</pdfrwt>
<totfact> 0.22517630E+03</totfact>
</mgrwt>
</event>
<event>
 5    1  0.4149151E-003  0.6150865E+02  0.7546771E-02  0.1481491E+00
         -1   -1    0    0    0  501 -0.00000000000E+00  0.00000000000E+00  0.94033735505E+02  0.94033735505E+02  0.00000000000E+00 0.  1.
          2   -1    0    0  502    0  0.00000000000E+00 -0.00000000000E+00 -0.29612650889E+04  0.29612650889E+04  0.00000000000E+00 0. -1.
         25    1    1    2    0    0  0.29393930853E+02  0.23493987251E+02 -0.18752276071E+02  0.13188107698E+03  0.12500000000E+03 0.  0.
          2    1    1    2  502    0 -0.28333699047E+02 -0.54772419678E+02 -0.28790250268E+04  0.28796853858E+04  0.00000000000E+00 0. -1.
         -1    1    1    2    0  501 -0.10602318061E+01  0.31278432427E+02  0.30545949436E+02  0.43732361627E+02  0.00000000000E+00 0.  1.
<mgrwt>
<rscale>  0 0.43874810E+02</rscale>
<asrwt>0</asrwt>
<pdfrwt beam="2">  1        2 0.45557919E+00 0.61508646E+02</pdfrwt>
<pdfrwt beam="1">  1       -1 0.14466730E-01 0.31296396E+02</pdfrwt>
<totfact> 0.96089718E+01</totfact>
</mgrwt>
</event>
<event>
 5    1  0.4149151E-003  0.2182908E+03  0.7546771E-02  0.1225617E+00
          1   -1    0    0  502    0 -0.00000000000E+00  0.00000000000E+00  0.67232961710E+03  0.67232961710E+03  0.00000000000E+00 0. -1.
          2   -1    0    0  501    0  0.00000000000E+00 -0.00000000000E+00 -0.47501424606E+03  0.47501424606E+03  0.00000000000E+00 0. -1.
         25    1    1    2    0    0 -0.17290132943E+03  0.12333250745E+03  0.75005355112E+02  0.25759771041E+03  0.12500000000E+03 0.  0.
          2    1    1    2  501    0  0.12300456196E+03 -0.18446682938E+03 -0.34812765515E+03  0.41273599029E+03  0.00000000000E+00 0. -1.
          1    1    1    2  502    0  0.49896767467E+02  0.61134321932E+02  0.47043767108E+03  0.47701016246E+03  0.00000000000E+00 0. -1.
<mgrwt>
<rscale>  0 0.13124690E+03</rscale>
<asrwt>0</asrwt>
<pdfrwt beam="2">  1        2 0.73079115E-01 0.21829081E+03</pdfrwt>
<pdfrwt beam="1">  1        1 0.10343533E+00 0.78911930E+02</pdfrwt>
<totfact> 0.28372394E+02</totfact>
</mgrwt>
</event>
<event>
 5    1  0.4149151E-003  0.9980914E+02  0.7546771E-02  0.1344050E+00
          2   -1    0    0  502    0  0.00000000000E+00  0.00000000000E+00  0.97885712333E+03  0.97885712333E+03  0.00000000000E+00 0. -1.
         -2   -1    0    0    0  501 -0.00000000000E+00 -0.00000000000E+00 -0.39090645792E+02  0.39090645792E+02  0.00000000000E+00 0.  1.
         25    1    1    2    0    0 -0.42959066084E+02  0.13253981853E+03  0.27578291426E+03  0.33330691660E+03  0.12500000000E+03 0.  0.
          2    1    1    2  502    0  0.11378987544E+01 -0.94891293829E+02  0.54275926025E+03  0.55099298276E+03  0.00000000000E+00 0. -1.
         -2    1    1    2    0  501  0.41821167330E+02 -0.37648524700E+02  0.12122430302E+03  0.13364786976E+03  0.00000000000E+00 0.  1.
<mgrwt>
<rscale>  0 0.74942356E+02</rscale>
<asrwt>0</asrwt>
<pdfrwt beam="1">  1        2 0.15059339E+00 0.99809144E+02</pdfrwt>
<pdfrwt beam="2">  1       -2 0.60139462E-02 0.56270965E+02</pdfrwt>
<totfact> 0.36655710E+03</totfact>
</mgrwt>
</event>
<event>
 5    1  0.4149151E-003  0.1055662E+03  0.7546771E-02  0.1339108E+00
          2   -1    0    0  501    0  0.00000000000E+00  0.00000000000E+00  0.10285212034E+04  0.10285212034E+04  0.00000000000E+00 0. -1.
          2   -1    0    0  502    0 -0.00000000000E+00 -0.00000000000E+00 -0.14045246093E+04  0.14045246093E+04  0.00000000000E+00 0. -1.
         25    1    1    2    0    0 -0.98919312401E+01 -0.73689192936E+02  0.45471396433E+03  0.47740730704E+03  0.12500000000E+03 0.  0.
          2    1    1    2  501    0 -0.54594096159E+02 -0.10115319669E+02  0.55907693015E+03  0.56182724111E+03  0.00000000000E+00 0. -1.
          2    1    1    2  502    0  0.64486027399E+02  0.83804512606E+02 -0.13897943003E+04  0.13938112646E+04  0.00000000000E+00 0. -1.
<mgrwt>
<rscale>  0 0.76559646E+02</rscale>
<asrwt>0</asrwt>
<pdfrwt beam="1">  1        2 0.15823403E+00 0.55523284E+02</pdfrwt>
<pdfrwt beam="2">  1        2 0.21608071E+00 0.10556615E+03</pdfrwt>
<totfact> 0.70630751E+01</totfact>
</mgrwt>
</event>
<event>
 5    1  0.4149151E-003  0.7846225E+02  0.7546771E-02  0.1346148E+00
          1   -1    0    0  502    0  0.00000000000E+00  0.00000000000E+00  0.92194868816E+03  0.92194868816E+03  0.00000000000E+00 0. -1.
         -3   -1    0    0    0  501 -0.00000000000E+00 -0.00000000000E+00 -0.53786391623E+03  0.53786391623E+03  0.00000000000E+00 0.  1.
         25    1    1    2    0    0 -0.10351264795E+03 -0.81979411576E+02  0.26858915434E+02  0.18379851345E+03  0.12500000000E+03 0.  0.
          1    1    1    2  502    0  0.28385465136E+02  0.64315693002E+02  0.81184887249E+03  0.81488700736E+03  0.00000000000E+00 0. -1.
         -3    1    1    2    0  501  0.75127182812E+02  0.17663718574E+02 -0.45462301599E+03  0.46112708359E+03  0.00000000000E+00 0.  1.
<mgrwt>
<rscale>  0 0.74269652E+02</rscale>
<asrwt>0</asrwt>
<pdfrwt beam="1">  1        1 0.14183826E+00 0.70301088E+02</pdfrwt>
<pdfrwt beam="2">  1       -3 0.82748295E-01 0.78462245E+02</pdfrwt>
<totfact> 0.14629327E+01</totfact>
</mgrwt>
</event>
<event>
 5    1  0.4149151E-003  0.4487718E+02  0.7546771E-02  0.1477413E+00
         -1   -1    0    0    0  501 -0.00000000000E+00  0.00000000000E+00  0.27248252431E+02  0.27248252431E+02  0.00000000000E+00 0.  1.
          2   -1    0    0  502    0  0.00000000000E+00 -0.00000000000E+00 -0.50219009422E+03  0.50219009422E+03  0.00000000000E+00 0. -1.
         25    1    1    2    0    0  0.25045422130E+02  0.47280612309E+02 -0.26075620495E+03  0.29407741819E+03  0.12500000000E+03 0.  0.
          2    1    1    2  502    0 -0.43933798995E+02 -0.43564806271E+01 -0.14656398623E+03  0.15306913365E+03  0.00000000000E+00 0. -1.
         -1    1    1    2    0  501  0.18888376865E+02 -0.42924131682E+02 -0.67621650602E+02  0.82291794800E+02  0.00000000000E+00 0.  1.
<mgrwt>
<rscale>  0 0.44511734E+02</rscale>
<asrwt>0</asrwt>
<pdfrwt beam="2">  1        2 0.77260012E-01 0.44149265E+02</pdfrwt>
<pdfrwt beam="1">  1       -1 0.41920390E-02 0.44877179E+02</pdfrwt>
<totfact> 0.13766651E+04</totfact>
</mgrwt>
</event>
<event>
 5    1  0.4149151E-003  0.6837619E+02  0.7546771E-02  0.1379540E+00
          1   -1    0    0  502    0 -0.00000000000E+00  0.00000000000E+00  0.16198709925E+04  0.16198709925E+04  0.00000000000E+00 0. -1.
          2   -1    0    0  501    0  0.00000000000E+00 -0.00000000000E+00 -0.14215601395E+04  0.14215601395E+04  0.00000000000E+00 0. -1.
         25    1    1    2    0    0 -0.49617677995E+02  0.44205737549E+02 -0.11326613069E+03  0.18130162041E+03  0.12500000000E+03 0.  0.
          2    1    1    2  501    0  0.56079610427E+02  0.24010592759E+02 -0.12728052183E+04  0.12742662810E+04  0.00000000000E+00 0. -1.
          1    1    1    2  502    0 -0.64619324316E+01 -0.68216330308E+02  0.15843822019E+04  0.15858632306E+04  0.00000000000E+00 0. -1.
<mgrwt>
<rscale>  0 0.64584747E+02</rscale>
<asrwt>0</asrwt>
<pdfrwt beam="2">  1        2 0.21870156E+00 0.61003535E+02</pdfrwt>
<pdfrwt beam="1">  1        1 0.24921092E+00 0.68376194E+02</pdfrwt>
<totfact> 0.15889656E+01</totfact>
</mgrwt>
</event>
<event>
 5    1  0.4149151E-003  0.4522878E+02  0.7546771E-02  0.1521617E+00
         -1   -1    0    0    0  501 -0.00000000000E+00  0.00000000000E+00  0.29759268621E+03  0.29759268621E+03  0.00000000000E+00 0.  1.
          2   -1    0    0  502    0  0.00000000000E+00 -0.00000000000E+00 -0.39214384349E+02  0.39214384349E+02  0.00000000000E+00 0. -1.
         25    1    1    2    0    0 -0.28794091801E+02 -0.98752206223E+01  0.12455410691E+03  0.17906799059E+03  0.12500000000E+03 0.  0.
          2    1    1    2  502    0  0.25586793931E+00 -0.32321675770E+02  0.57845784331E+02  0.66263798245E+02  0.00000000000E+00 0. -1.
         -1    1    1    2    0  501  0.28538223861E+02  0.42196896392E+02  0.75978410618E+02  0.91475281723E+02  0.00000000000E+00 0.  1.
<mgrwt>
<rscale>  0 0.38235008E+02</rscale>
<asrwt>0</asrwt>
<pdfrwt beam="2">  1        2 0.60329824E-02 0.32322689E+02</pdfrwt>
<pdfrwt beam="1">  1       -1 0.45783489E-01 0.45228782E+02</pdfrwt>
<totfact> 0.56294175E+03</totfact>
</mgrwt>
</event>
<event>
 5    1  0.4149151E-003  0.7057057E+02  0.7546771E-02  0.1375379E+00
         -1   -1    0    0    0  501 -0.00000000000E+00  0.00000000000E+00  0.28628681079E+03  0.28628681079E+03  0.00000000000E+00 0.  1.
          2   -1    0    0  502    0  0.00000000000E+00 -0.00000000000E+00 -0.88201946446E+03  0.88201946446E+03  0.00000000000E+00 0. -1.
         25    1    1    2    0    0 -0.46335960741E+02 -0.18827809077E+02  0.96294208843E+02  0.16552668156E+03  0.12500000000E+03 0.  0.
          2    1    1    2  502    0 -0.26636913476E+02  0.55049131671E+02 -0.83552937984E+03  0.83776445176E+03  0.00000000000E+00 0. -1.
         -1    1    1    2    0  501  0.72972874217E+02 -0.36221322593E+02  0.14350251733E+03  0.16501514192E+03  0.00000000000E+00 0.  1.
<mgrwt>
<rscale>  0 0.65694308E+02</rscale>
<asrwt>0</asrwt>
<pdfrwt beam="2">  1        2 0.13569530E+00 0.61154984E+02</pdfrwt>
<pdfrwt beam="1">  1       -1 0.44044125E-01 0.70570571E+02</pdfrwt>
<totfact> 0.19907288E+02</totfact>
</mgrwt>
</event>
<event>
 5    1  0.4149151E-003  0.5670702E+02  0.7546771E-02  0.1460806E+00
          1   -1    0    0  502    0  0.00000000000E+00  0.00000000000E+00  0.28126400540E+03  0.28126400540E+03  0.00000000000E+00 0. -1.
         -2   -1    0    0    0  501 -0.00000000000E+00 -0.00000000000E+00 -0.15885439785E+03  0.15885439785E+03  0.00000000000E+00 0.  1.
         25    1    1    2    0    0  0.62780490006E+02 -0.44592557011E+02 -0.97066203413E+01  0.14713634678E+03  0.12500000000E+03 0.  0.
          1    1    1    2  502    0 -0.81115033477E+01  0.38513431494E+02  0.20100777299E+03  0.20482481709E+03  0.00000000000E+00 0. -1.
         -2    1    1    2    0  501 -0.54668986659E+02  0.60791255167E+01 -0.68891545095E+02  0.88157239379E+02  0.00000000000E+00 0.  1.
<mgrwt>
<rscale>  0 0.47242944E+02</rscale>
<asrwt>0</asrwt>
<pdfrwt beam="1">  1        1 0.43271385E-01 0.39358365E+02</pdfrwt>
<pdfrwt beam="2">  1       -2 0.24439138E-01 0.56707025E+02</pdfrwt>
<totfact> 0.11766601E+03</totfact>
</mgrwt>
</event>
<event>
 5    1  0.4149151E-003  0.7304518E+02  0.7546771E-02  0.1468226E+00
         -1   -1    0    0    0  501 -0.00000000000E+00  0.00000000000E+00  0.43290624131E+01  0.43290624131E+01  0.00000000000E+00 0.  1.
          2   -1    0    0  502    0  0.00000000000E+00 -0.00000000000E+00 -0.40655731365E+04  0.40655731365E+04  0.00000000000E+00 0. -1.
         25    1    1    2    0    0  0.35912532166E+02 -0.55975682670E+02 -0.15493427867E+04  0.15557991702E+04  0.12500000000E+03 0.  0.
          2    1    1    2  502    0 -0.13695054554E+02  0.74554102996E+02 -0.17110150230E+04  0.17126932819E+04  0.00000000000E+00 0. -1.
         -1    1    1    2    0  501 -0.22217477612E+02 -0.18578420326E+02 -0.80088626432E+03  0.80140974688E+03  0.00000000000E+00 0.  1.
<mgrwt>
<rscale>  0 0.45994620E+02</rscale>
<asrwt>0</asrwt>
<pdfrwt beam="2">  1        2 0.62547367E+00 0.73045183E+02</pdfrwt>
<pdfrwt beam="1">  1       -1 0.66600867E-03 0.28961595E+02</pdfrwt>
<totfact> 0.13487631E+03</totfact>
</mgrwt>
</event>
<event>
 5    1  0.4149151E-003  0.1420763E+03  0.7546771E-02  0.1278546E+00
          2   -1    0    0  501    0  0.00000000000E+00  0.00000000000E+00  0.16798696546E+04  0.16798696546E+04  0.00000000000E+00 0. -1.
          2   -1    0    0  502    0 -0.00000000000E+00 -0.00000000000E+00 -0.39204655125E+03  0.39204655125E+03  0.00000000000E+00 0.  1.
         25    1    1    2    0    0  0.66384388977E+02 -0.18801512300E+03  0.58691339828E+03  0.63233607414E+03  0.12500000000E+03 0.  0.
          2    1    1    2  501    0 -0.62079547842E+02  0.11657723619E+03  0.10626509497E+04  0.10708273265E+04  0.00000000000E+00 0. -1.
          2    1    1    2  502    0 -0.43048411352E+01  0.71437886813E+02 -0.36174124461E+03  0.36875280525E+03  0.00000000000E+00 0.  1.
<mgrwt>
<rscale>  0 0.10083671E+03</rscale>
<asrwt>0</asrwt>
<pdfrwt beam="1">  1        2 0.25844148E+00 0.14207631E+03</pdfrwt>
<pdfrwt beam="2">  1        2 0.60314855E-01 0.71567474E+02</pdfrwt>
<totfact> 0.14817733E+02</totfact>
</mgrwt>
</event>
<event>
 5    1  0.4149151E-003  0.1218116E+03  0.7546771E-02  0.1262855E+00
          2   -1    0    0  502    0  0.00000000000E+00  0.00000000000E+00  0.96840966733E+03  0.96840966733E+03  0.00000000000E+00 0. -1.
         -1   -1    0    0    0  501 -0.00000000000E+00 -0.00000000000E+00 -0.72471095532E+02  0.72471095532E+02  0.00000000000E+00 0.  1.
         25    1    1    2    0    0 -0.21853902783E+02 -0.33471109512E+02  0.98288870793E+02  0.16396222236E+03  0.12500000000E+03 0.  0.
          2    1    1    2  502    0  0.78389202107E+02  0.11245731473E+03  0.76076530341E+03  0.77301705124E+03  0.00000000000E+00 0. -1.
         -1    1    1    2    0  501 -0.56535299323E+02 -0.78986205218E+02  0.36884397597E+02  0.10390148926E+03  0.00000000000E+00 0.  1.
<mgrwt>
<rscale>  0 0.10877535E+03</rscale>
<asrwt>0</asrwt>
<pdfrwt beam="1">  1        2 0.14898609E+00 0.12181158E+03</pdfrwt>
<pdfrwt beam="2">  1       -1 0.11149400E-01 0.97134241E+02</pdfrwt>
<totfact> 0.15815466E+03</totfact>
</mgrwt>
</event>
<event>
 5    1  0.4149151E-003  0.2595046E+03  0.7546771E-02  0.1328528E+00
         -1   -1    0    0    0  501  0.00000000000E+00  0.00000000000E+00  0.14283960203E+04  0.14283960203E+04  0.00000000000E+00 0.  1.
         -1   -1    0    0    0  502 -0.00000000000E+00 -0.00000000000E+00 -0.14221641624E+03  0.14221641624E+03  0.00000000000E+00 0.  1.
         25    1    1    2    0    0  0.24235896080E+02 -0.27635982468E+03  0.87217158037E+02  0.31653430147E+03  0.12500000000E+03 0.  0.
         -1    1    1    2    0  502  0.12244992324E+02  0.21539154642E+02 -0.29107503967E+01  0.24946893345E+02  0.00000000000E+00 0.  1.
         -1    1    1    2    0  501 -0.36480888404E+02  0.25482067003E+03  0.12018731964E+04  0.12291312417E+04  0.00000000000E+00 0.  1.
<mgrwt>
<rscale>  0 0.80184889E+02</rscale>
<asrwt>0</asrwt>
<pdfrwt beam="1">  1       -1 0.21975322E+00 0.25950461E+03</pdfrwt>
<pdfrwt beam="2">  1       -1 0.21879450E-01 0.24776501E+02</pdfrwt>
<totfact> 0.16812817E+01</totfact>
</mgrwt>
</event>
<event>
 5    1  0.4149151E-003  0.1510339E+03  0.7546771E-02  0.1347513E+00
          1   -1    0    0  502    0  0.00000000000E+00  0.00000000000E+00  0.21495476124E+03  0.21495476124E+03  0.00000000000E+00 0. -1.
          1   -1    0    0  501    0 -0.00000000000E+00 -0.00000000000E+00 -0.30909616578E+03  0.30909616578E+03  0.00000000000E+00 0. -1.
         25    1    1    2    0    0 -0.93624185765E+02  0.12153443367E+03  0.90068332942E+02  0.21742449569E+03  0.12500000000E+03 0.  0.
          1    1    1    2  501    0 -0.23317116526E+02 -0.27554913901E+02 -0.14793956984E+03  0.15227960312E+03  0.00000000000E+00 0. -1.
          1    1    1    2  502    0  0.11694130229E+03 -0.93979519768E+02 -0.36270167642E+02  0.15434682821E+03  0.00000000000E+00 0. -1.
<mgrwt>
<rscale>  0 0.73836332E+02</rscale>
<asrwt>0</asrwt>
<pdfrwt beam="1">  1        1 0.33069963E-01 0.15103392E+03</pdfrwt>
<pdfrwt beam="2">  1        1 0.47553257E-01 0.36096554E+02</pdfrwt>
<totfact> 0.13374970E+03</totfact>
</mgrwt>
</event>
<event>
 5    1  0.4149151E-003  0.8332095E+02  0.7546771E-02  0.1359021E+00
          1   -1    0    0  501    0  0.00000000000E+00  0.00000000000E+00  0.10101433811E+04  0.10101433811E+04  0.00000000000E+00 0. -1.
          1   -1    0    0  502    0 -0.00000000000E+00 -0.00000000000E+00 -0.39355470669E+03  0.39355470669E+03  0.00000000000E+00 0. -1.
         25    1    1    2    0    0 -0.37837029081E+02  0.73139208545E+02 -0.10570815642E+03  0.18324900799E+03  0.12500000000E+03 0.  0.
          1    1    1    2  501    0  0.58249922293E+02  0.11329710772E+02  0.96285190763E+03  0.96467881278E+03  0.00000000000E+00 0. -1.
          1    1    1    2  502    0 -0.20412893212E+02 -0.84468919317E+02 -0.24055507679E+03  0.25577026705E+03  0.00000000000E+00 0. -1.
<mgrwt>
<rscale>  0 0.70316370E+02</rscale>
<asrwt>0</asrwt>
<pdfrwt beam="1">  1        1 0.15540667E+00 0.59341518E+02</pdfrwt>
<pdfrwt beam="2">  1        1 0.60546878E-01 0.83320954E+02</pdfrwt>
<totfact> 0.13100341E+02</totfact>
</mgrwt>
</event>
<event>
 5    1  0.4149151E-003  0.6270455E+02  0.7546771E-02  0.1511845E+00
          1   -1    0    0  502    0  0.00000000000E+00  0.00000000000E+00  0.10209331113E+04  0.10209331113E+04  0.00000000000E+00 0. -1.
         -1   -1    0    0    0  501 -0.00000000000E+00 -0.00000000000E+00 -0.14791399071E+02  0.14791399071E+02  0.00000000000E+00 0.  1.
         25    1    1    2    0    0 -0.31938453581E+02  0.27112803164E+02  0.72322884390E+03  0.73514633207E+03  0.12500000000E+03 0.  0.
          1    1    1    2  502    0 -0.18896893820E+02  0.16208240458E+02  0.14753594425E+03  0.14962170464E+03  0.00000000000E+00 0. -1.
         -1    1    1    2    0  501  0.50835347401E+02 -0.43321043621E+02  0.13537692412E+03  0.15095647369E+03  0.00000000000E+00 0.  1.
<mgrwt>
<rscale>  0 0.39510486E+02</rscale>
<asrwt>0</asrwt>
<pdfrwt beam="1">  1        1 0.15706658E+00 0.24895776E+02</pdfrwt>
<pdfrwt beam="2">  1       -1 0.22756007E-02 0.62704553E+02</pdfrwt>
<totfact> 0.86164602E+03</totfact>
</mgrwt>
</event>
<event>
 5    1  0.4149151E-003  0.1397034E+03  0.7546771E-02  0.1338575E+00
          1   -1    0    0  501    0  0.00000000000E+00  0.00000000000E+00  0.62049349240E+03  0.62049349240E+03  0.00000000000E+00 0. -1.
          1   -1    0    0  502    0 -0.00000000000E+00 -0.00000000000E+00 -0.41606326916E+03  0.41606326916E+03  0.00000000000E+00 0. -1.
         25    1    1    2    0    0  0.28091835323E+02 -0.16994733471E+03  0.13611432542E+03  0.25263285093E+03  0.12500000000E+03 0.  0.
          1    1    1    2  501    0  0.15189967817E+02  0.39318171210E+02  0.41177253763E+03  0.41392424000E+03  0.00000000000E+00 0. -1.
          1    1    1    2  502    0 -0.43281803140E+02  0.13062916350E+03 -0.34345663981E+03  0.36999967063E+03  0.00000000000E+00 0. -1.
<mgrwt>
<rscale>  0 0.76736899E+02</rscale>
<asrwt>0</asrwt>
<pdfrwt beam="1">  1        1 0.95460538E-01 0.42150370E+02</pdfrwt>
<pdfrwt beam="2">  1        1 0.64009733E-01 0.13970344E+03</pdfrwt>
<totfact> 0.25007463E+02</totfact>
</mgrwt>
</event>
<event>
 5    1  0.4149151E-003  0.6169168E+02  0.7546771E-02  0.1502723E+00
          2   -1    0    0  502    0  0.00000000000E+00  0.00000000000E+00  0.11237444388E+04  0.11237444388E+04  0.00000000000E+00 0. -1.
         -1   -1    0    0    0  501 -0.00000000000E+00 -0.00000000000E+00 -0.16135148669E+02  0.16135148669E+02  0.00000000000E+00 0.  1.
         25    1    1    2    0    0 -0.55292259162E+02 -0.61535310297E+01  0.35247689616E+03  0.37810059798E+03  0.12500000000E+03 0.  0.
          2    1    1    2  502    0 -0.93437057029E+01 -0.25251248303E+02  0.27235259677E+03  0.27368022827E+03  0.00000000000E+00 0. -1.
         -1    1    1    2    0  501  0.64635964865E+02  0.31404779333E+02  0.48277979719E+03  0.48809876121E+03  0.00000000000E+00 0.  1.
<mgrwt>
<rscale>  0 0.40755608E+02</rscale>
<asrwt>0</asrwt>
<pdfrwt beam="1">  1        2 0.17288370E+00 0.26924531E+02</pdfrwt>
<pdfrwt beam="2">  1       -1 0.24823315E-02 0.61691681E+02</pdfrwt>
<totfact> 0.12120635E+04</totfact>
</mgrwt>
</event>
<event>
 5    1  0.4149151E-003  0.5002699E+02  0.7546771E-02  0.1536110E+00
         -1   -1    0    0    0  501 -0.00000000000E+00  0.00000000000E+00  0.72777544293E+02  0.72777544293E+02  0.00000000000E+00 0.  1.
          1   -1    0    0  502    0  0.00000000000E+00 -0.00000000000E+00 -0.11605728043E+04  0.11605728043E+04  0.00000000000E+00 0. -1.
         25    1    1    2    0    0  0.15955923108E+02 -0.72425445969E+02 -0.41988137318E+03  0.44432578617E+03  0.12500000000E+03 0.  0.
          1    1    1    2  502    0  0.23413585976E+01  0.26450580801E+02 -0.71807425360E+03  0.71856506238E+03  0.00000000000E+00 0. -1.
         -1    1    1    2    0  501 -0.18297281705E+02  0.45974865168E+02  0.50160366806E+02  0.70459500020E+02  0.00000000000E+00 0.  1.
<mgrwt>
<rscale>  0 0.36447456E+02</rscale>
<asrwt>0</asrwt>
<pdfrwt beam="2">  1        1 0.17854966E+00 0.26554005E+02</pdfrwt>
<pdfrwt beam="1">  1       -1 0.11196546E-01 0.50026995E+02</pdfrwt>
<totfact> 0.67642196E+02</totfact>
</mgrwt>
</event>
<event>
 5    1  0.4149151E-003  0.2353063E+03  0.7546771E-02  0.1216867E+00
          2   -1    0    0  501    0  0.00000000000E+00  0.00000000000E+00  0.93435743052E+02  0.93435743052E+02  0.00000000000E+00 0. -1.
          1   -1    0    0  502    0 -0.00000000000E+00 -0.00000000000E+00 -0.32883333928E+04  0.32883333928E+04  0.00000000000E+00 0. -1.
         25    1    1    2    0    0 -0.12084533463E+03 -0.25927460932E+03 -0.45581682546E+03  0.55246800479E+03  0.12500000000E+03 0.  0.
          2    1    1    2  501    0  0.10989623153E+03  0.17979123519E+03 -0.20511377562E+03  0.29406416120E+03  0.00000000000E+00 0. -1.
          1    1    1    2  502    0  0.10949103103E+02  0.79483374128E+02 -0.25339670486E+04  0.25352369698E+04  0.00000000000E+00 0. -1.
<mgrwt>
<rscale>  0 0.13740290E+03</rscale>
<asrwt>0</asrwt>
<pdfrwt beam="1">  1        2 0.14374729E-01 0.23530627E+03</pdfrwt>
<pdfrwt beam="2">  1        1 0.50589746E+00 0.80233968E+02</pdfrwt>
<totfact> 0.30954820E+01</totfact>
</mgrwt>
</event>
<event>
 5    1  0.4149151E-003  0.1098341E+03  0.7546771E-02  0.1355897E+00
          2   -1    0    0  502    0  0.00000000000E+00  0.00000000000E+00  0.11206133795E+04  0.11206133795E+04  0.00000000000E+00 0.  1.
         -1   -1    0    0    0  501 -0.00000000000E+00 -0.00000000000E+00 -0.12138321111E+04  0.12138321111E+04  0.00000000000E+00 0.  1.
         25    1    1    2    0    0  0.14161545977E+03 -0.20944029418E+01  0.21034162996E+03  0.28271527419E+03  0.12500000000E+03 0.  0.
          2    1    1    2  502    0 -0.10351474807E+03  0.28257339596E+02  0.87033536357E+03  0.87692498276E+03  0.00000000000E+00 0.  1.
         -1    1    1    2    0  501 -0.38100711694E+02 -0.26162936654E+02 -0.11738957251E+04  0.11748052336E+04  0.00000000000E+00 0.  1.
<mgrwt>
<rscale>  0 0.71248747E+02</rscale>
<asrwt>0</asrwt>
<pdfrwt beam="1">  1        2 0.17240206E+00 0.10983411E+03</pdfrwt>
<pdfrwt beam="2">  1       -1 0.18674340E+00 0.46218649E+02</pdfrwt>
<totfact> 0.64217366E+00</totfact>
</mgrwt>
</event>
<event>
 5    1  0.4149151E-003  0.1139615E+03  0.7546771E-02  0.1253605E+00
          2   -1    0    0  501    0  0.00000000000E+00  0.00000000000E+00  0.29002472156E+04  0.29002472156E+04  0.00000000000E+00 0. -1.
          1   -1    0    0  502    0 -0.00000000000E+00 -0.00000000000E+00 -0.19626966977E+03  0.19626966977E+03  0.00000000000E+00 0. -1.
         25    1    1    2    0    0 -0.20193131339E+02  0.52644618949E+02  0.10121774910E+04  0.10214242467E+04  0.12500000000E+03 0.  0.
          2    1    1    2  501    0 -0.19955541182E+02 -0.15929970842E+03  0.18627410228E+04  0.18696466882E+04  0.00000000000E+00 0. -1.
          1    1    1    2  502    0  0.40148672520E+02  0.10665508947E+03 -0.17094096799E+03  0.20544595044E+03  0.00000000000E+00 0. -1.
<mgrwt>
<rscale>  0 0.11384848E+03</rscale>
<asrwt>0</asrwt>
<pdfrwt beam="1">  1        2 0.44619185E+00 0.11373556E+03</pdfrwt>
<pdfrwt beam="2">  1        1 0.30195336E-01 0.11396150E+03</pdfrwt>
<totfact> 0.54873378E+01</totfact>
</mgrwt>
</event>
<event>
 5    1  0.4149151E-003  0.7056668E+02  0.7546771E-02  0.1518941E+00
         -2   -1    0    0    0  501 -0.00000000000E+00  0.00000000000E+00  0.81010155182E+01  0.81010155182E+01  0.00000000000E+00 0.  1.
          2   -1    0    0  502    0  0.00000000000E+00 -0.00000000000E+00 -0.18964813170E+04  0.18964813170E+04  0.00000000000E+00 0. -1.
         25    1    1    2    0    0 -0.36102053319E+02  0.45605640892E+02 -0.12372714200E+04  0.12449292347E+04  0.12500000000E+03 0.  0.
          2    1    1    2  502    0  0.49442628814E+02 -0.61941052306E+02 -0.58274952869E+03  0.58811417318E+03  0.00000000000E+00 0. -1.
         -2    1    1    2    0  501 -0.13340575495E+02  0.16335411414E+02 -0.68359352846E+02  0.71538924665E+02  0.00000000000E+00 0.  1.
<mgrwt>
<rscale>  0 0.38578479E+02</rscale>
<asrwt>0</asrwt>
<pdfrwt beam="2">  1        2 0.29176640E+00 0.70566683E+02</pdfrwt>
<pdfrwt beam="1">  1       -2 0.12463099E-02 0.21090676E+02</pdfrwt>
<totfact> 0.97967993E+03</totfact>
</mgrwt>
</event>
<event>
 5    1  0.4149151E-003  0.9142253E+02  0.7546771E-02  0.1351535E+00
          2   -1    0    0  501    0  0.00000000000E+00  0.00000000000E+00  0.37377290295E+03  0.37377290295E+03  0.00000000000E+00 0. -1.
          2   -1    0    0  502    0 -0.00000000000E+00 -0.00000000000E+00 -0.18378651150E+04  0.18378651150E+04  0.00000000000E+00 0. -1.
         25    1    1    2    0    0  0.30527108258E+02 -0.13201789707E+03 -0.24778092921E+03  0.30883817504E+03  0.12500000000E+03 0.  0.
          2    1    1    2  501    0 -0.47740993702E+02  0.77029346022E+02  0.33671900090E+03  0.34870102982E+03  0.00000000000E+00 0. -1.
          2    1    1    2  502    0  0.17213885444E+02  0.54988551047E+02 -0.15530302837E+04  0.15540988130E+04  0.00000000000E+00 0. -1.
<mgrwt>
<rscale>  0 0.72579347E+02</rscale>
<asrwt>0</asrwt>
<pdfrwt beam="1">  1        2 0.57503523E-01 0.91422530E+02</pdfrwt>
<pdfrwt beam="2">  1        2 0.28274848E+00 0.57619950E+02</pdfrwt>
<totfact> 0.14154791E+02</totfact>
</mgrwt>
</event>
<event>
 5    1  0.4149151E-003  0.1132037E+03  0.7546771E-02  0.1387782E+00
          1   -1    0    0  502    0 -0.00000000000E+00  0.00000000000E+00  0.73014664360E+03  0.73014664360E+03  0.00000000000E+00 0. -1.
          2   -1    0    0  501    0  0.00000000000E+00 -0.00000000000E+00 -0.75483853653E+03  0.75483853653E+03  0.00000000000E+00 0. -1.
         25    1    1    2    0    0  0.77943840325E+02  0.34804920577E+02 -0.26952669979E+03  0.30912176669E+03  0.12500000000E+03 0.  0.
          2    1    1    2  501    0  0.14575250368E+02  0.31230430535E+02 -0.46031877480E+03  0.46160714049E+03  0.00000000000E+00 0. -1.
          1    1    1    2  502    0 -0.92519090693E+02 -0.66035351112E+02  0.70515358166E+03  0.71425627296E+03  0.00000000000E+00 0. -1.
<mgrwt>
<rscale>  0 0.62461754E+02</rscale>
<asrwt>0</asrwt>
<pdfrwt beam="2">  1        2 0.11612901E+00 0.34464151E+02</pdfrwt>
<pdfrwt beam="1">  1        1 0.11233025E+00 0.11320374E+03</pdfrwt>
<totfact> 0.15457899E+02</totfact>
</mgrwt>
</event>
<event>
 5    1  0.4149151E-003  0.5527922E+02  0.7546771E-02  0.1509992E+00
         -2   -1    0    0    0  501 -0.00000000000E+00  0.00000000000E+00  0.37088573044E+02  0.37088573044E+02  0.00000000000E+00 0.  1.
          1   -1    0    0  502    0  0.00000000000E+00 -0.00000000000E+00 -0.34114983921E+03  0.34114983921E+03  0.00000000000E+00 0. -1.
         25    1    1    2    0    0  0.34589045847E+02 -0.26945463223E+02 -0.19539141743E+03  0.23606199627E+03  0.12500000000E+03 0.  0.
          1    1    1    2  502    0 -0.60937486136E+02  0.15832188304E+02 -0.78072495718E+02  0.10029631095E+03  0.00000000000E+00 0. -1.
         -2    1    1    2    0  501  0.26348440289E+02  0.11113274919E+02 -0.30597353018E+02  0.41880105024E+02  0.00000000000E+00 0.  1.
<mgrwt>
<rscale>  0 0.39759000E+02</rscale>
<asrwt>0</asrwt>
<pdfrwt beam="2">  1        1 0.52484591E-01 0.55279220E+02</pdfrwt>
<pdfrwt beam="1">  1       -2 0.57059343E-02 0.28596244E+02</pdfrwt>
<totfact> 0.84693033E+03</totfact>
</mgrwt>
</event>
<event>
 5    1  0.4149151E-003  0.8869527E+02  0.7546771E-02  0.1398995E+00
         -3   -1    0    0    0  502 -0.00000000000E+00  0.00000000000E+00  0.13136969726E+04  0.13136969726E+04  0.00000000000E+00 0.  1.
         -1   -1    0    0    0  501  0.00000000000E+00 -0.00000000000E+00 -0.25754121120E+03  0.25754121120E+03  0.00000000000E+00 0.  1.
         25    1    1    2    0    0 -0.10189180769E+03  0.74977614176E+02  0.11793994628E+03  0.21339731496E+03  0.12500000000E+03 0.  0.
         -1    1    1    2    0  501  0.27179792176E+02 -0.29639999628E+02 -0.20620408929E+03  0.21008902190E+03  0.00000000000E+00 0.  1.
         -3    1    1    2    0  502  0.74712015509E+02 -0.45337614548E+02  0.11444199044E+04  0.11477518469E+04  0.00000000000E+00 0.  1.
<mgrwt>
<rscale>  0 0.59723590E+02</rscale>
<asrwt>0</asrwt>
<pdfrwt beam="2">  1       -1 0.39621725E-01 0.40215304E+02</pdfrwt>
<pdfrwt beam="1">  1       -3 0.20210722E+00 0.88695268E+02</pdfrwt>
<totfact> 0.45348955E+00</totfact>
</mgrwt>
</event>
<event>
 5    1  0.4149151E-003  0.2495245E+02  0.7546771E-02  0.1694028E+00
         -1   -1    0    0    0  501 -0.00000000000E+00  0.00000000000E+00  0.97050624798E+01  0.97050624798E+01  0.00000000000E+00 0.  1.
          1   -1    0    0  502    0  0.00000000000E+00 -0.00000000000E+00 -0.14039094012E+04  0.14039094012E+04  0.00000000000E+00 0. -1.
         25    1    1    2    0    0 -0.38139993341E+02 -0.16959542209E+02 -0.85101566331E+03  0.86115907030E+03  0.12500000000E+03 0.  0.
          1    1    1    2  502    0  0.24119341635E+02  0.14380772544E+01 -0.52242330284E+03  0.52298175690E+03  0.00000000000E+00 0. -1.
         -1    1    1    2    0  501  0.14020651706E+02  0.15521464955E+02 -0.20765372556E+02  0.29473636457E+02  0.00000000000E+00 0.  1.
<mgrwt>
<rscale>  0 0.22845453E+02</rscale>
<asrwt>0</asrwt>
<pdfrwt beam="2">  1        1 0.21598613E+00 0.24952452E+02</pdfrwt>
<pdfrwt beam="1">  1       -1 0.14930861E-02 0.20916370E+02</pdfrwt>
<totfact> 0.72862294E+03</totfact>
</mgrwt>
</event>
<event>
 5    1  0.4149151E-003  0.5291383E+02  0.7546771E-02  0.1453200E+00
          3   -1    0    0  502    0  0.00000000000E+00  0.00000000000E+00  0.16500575479E+03  0.16500575479E+03  0.00000000000E+00 0. -1.
         -3   -1    0    0    0  501 -0.00000000000E+00 -0.00000000000E+00 -0.90939234524E+02  0.90939234524E+02  0.00000000000E+00 0.  1.
         25    1    1    2    0    0  0.28579259222E+02 -0.40699240278E+02  0.29448978275E+02  0.13771508464E+03  0.12500000000E+03 0.  0.
          3    1    1    2  502    0  0.29979971124E+02  0.33002249521E+02  0.38395557379E+02  0.58840173083E+02  0.00000000000E+00 0. -1.
         -3    1    1    2    0  501 -0.58559230346E+02  0.76969907569E+01  0.62219846114E+01  0.59389731587E+02  0.00000000000E+00 0.  1.
<mgrwt>
<rscale>  0 0.48571979E+02</rscale>
<asrwt>0</asrwt>
<pdfrwt beam="1">  1        3 0.25385501E-01 0.44586401E+02</pdfrwt>
<pdfrwt beam="2">  1       -3 0.13990651E-01 0.52913828E+02</pdfrwt>
<totfact> 0.11447130E+03</totfact>
</mgrwt>
</event>
<event>
 5    1  0.4149151E-003  0.1306668E+03  0.7546771E-02  0.1368580E+00
          1   -1    0    0  502    0 -0.00000000000E+00  0.00000000000E+00  0.95349859279E+03  0.95349859279E+03  0.00000000000E+00 0. -1.
          2   -1    0    0  501    0  0.00000000000E+00 -0.00000000000E+00 -0.44109076049E+02  0.44109076049E+02  0.00000000000E+00 0. -1.
         25    1    1    2    0    0  0.95632308588E+02 -0.48003816460E+02  0.41473511901E+03  0.44618395733E+03  0.12500000000E+03 0.  0.
          2    1    1    2  501    0 -0.13016280125E+03  0.53303717371E+02  0.15238498021E+03  0.20737604324E+03  0.00000000000E+00 0. -1.
          1    1    1    2  502    0  0.34530492658E+02 -0.52999009108E+01  0.34226941752E+03  0.34404766827E+03  0.00000000000E+00 0. -1.
<mgrwt>
<rscale>  0 0.67563503E+02</rscale>
<asrwt>0</asrwt>
<pdfrwt beam="2">  1        2 0.67860124E-02 0.13066685E+03</pdfrwt>
<pdfrwt beam="1">  1        1 0.14669208E+00 0.34934852E+02</pdfrwt>
<totfact> 0.26667316E+03</totfact>
</mgrwt>
</event>
<event>
 5    1  0.4149151E-003  0.6317843E+02  0.7546771E-02  0.1445261E+00
         -2   -1    0    0    0  501 -0.00000000000E+00  0.00000000000E+00  0.11149145317E+02  0.11149145317E+02  0.00000000000E+00 0.  1.
          1   -1    0    0  502    0  0.00000000000E+00 -0.00000000000E+00 -0.14033221290E+04  0.14033221290E+04  0.00000000000E+00 0. -1.
         25    1    1    2    0    0  0.37519626693E+02  0.58917547282E+02 -0.71586445901E+03  0.73004515165E+03  0.12500000000E+03 0.  0.
          1    1    1    2  502    0  0.21026949103E+02 -0.33549442537E+02 -0.32114746875E+03  0.32357903882E+03  0.00000000000E+00 0. -1.
         -2    1    1    2    0  501 -0.58546575796E+02 -0.25368104746E+02 -0.35516105590E+03  0.36084708382E+03  0.00000000000E+00 0.  1.
<mgrwt>
<rscale>  0 0.50014967E+02</rscale>
<asrwt>0</asrwt>
<pdfrwt beam="2">  1        1 0.21589576E+00 0.39594162E+02</pdfrwt>
<pdfrwt beam="1">  1       -2 0.17152528E-02 0.63178428E+02</pdfrwt>
<totfact> 0.69630864E+03</totfact>
</mgrwt>
</event>
<event>
 5    1  0.4149151E-003  0.8237624E+02  0.7546771E-02  0.1377665E+00
          2   -1    0    0  501    0  0.00000000000E+00  0.00000000000E+00  0.12677463421E+04  0.12677463421E+04  0.00000000000E+00 0. -1.
          1   -1    0    0  502    0 -0.00000000000E+00 -0.00000000000E+00 -0.64846864379E+02  0.64846864379E+02  0.00000000000E+00 0. -1.
         25    1    1    2    0    0  0.90457443149E+02 -0.16154878671E+02  0.17026165712E+03  0.23034226927E+03  0.12500000000E+03 0.  0.
          2    1    1    2  501    0 -0.30532270079E+02 -0.41370934207E+02  0.10162900001E+04  0.10175898673E+04  0.00000000000E+00 0. -1.
          1    1    1    2  502    0 -0.59925173071E+02  0.57525812877E+02  0.16347820428E+02  0.84661069846E+02  0.00000000000E+00 0. -1.
<mgrwt>
<rscale>  0 0.65081424E+02</rscale>
<asrwt>0</asrwt>
<pdfrwt beam="1">  1        2 0.19503788E+00 0.51417640E+02</pdfrwt>
<pdfrwt beam="2">  1        1 0.99764416E-02 0.82376238E+02</pdfrwt>
<totfact> 0.16669448E+03</totfact>
</mgrwt>
</event>
<event>
 5    1  0.4149151E-003  0.8180147E+02  0.7546771E-02  0.1378411E+00
          2   -1    0    0  502    0  0.00000000000E+00  0.00000000000E+00  0.22319640378E+03  0.22319640378E+03  0.00000000000E+00 0.  1.
          2   -1    0    0  501    0 -0.00000000000E+00 -0.00000000000E+00 -0.41592601548E+03  0.41592601548E+03  0.00000000000E+00 0.  1.
         25    1    1    2    0    0 -0.62912006880E+00  0.63553905909E+02 -0.96842172694E+02  0.17041977925E+03  0.12500000000E+03 0.  0.
          2    1    1    2  501    0 -0.50262519501E+02 -0.71208226273E+02 -0.27179125633E+03  0.28542498029E+03  0.00000000000E+00 0.  1.
          2    1    1    2  502    0  0.50891639570E+02  0.76543203640E+01  0.17590381733E+03  0.18327765971E+03  0.00000000000E+00 0.  1.
<mgrwt>
<rscale>  0 0.64883235E+02</rscale>
<asrwt>0</asrwt>
<pdfrwt beam="1">  1        2 0.34337908E-01 0.51464042E+02</pdfrwt>
<pdfrwt beam="2">  1        2 0.63988618E-01 0.81801468E+02</pdfrwt>
<totfact> 0.17485825E+03</totfact>
</mgrwt>
</event>
<event>
 5    1  0.4149151E-003  0.9537602E+02  0.7546771E-02  0.1469764E+00
          1   -1    0    0  502    0 -0.00000000000E+00  0.00000000000E+00  0.36210792995E+03  0.36210792995E+03  0.00000000000E+00 0. -1.
          2   -1    0    0  501    0  0.00000000000E+00 -0.00000000000E+00 -0.40843569286E+03  0.40843569286E+03  0.00000000000E+00 0. -1.
         25    1    1    2    0    0 -0.32734279988E+02 -0.88689793412E+02 -0.13509171154E+03  0.20691105110E+03  0.12500000000E+03 0.  0.
          2    1    1    2  501    0  0.52973516524E+02  0.80226797556E+02 -0.22730683811E+03  0.24680140022E+03  0.00000000000E+00 0. -1.
          1    1    1    2  502    0 -0.20239236535E+02  0.84629958559E+01  0.31607078674E+03  0.31683117149E+03  0.00000000000E+00 0. -1.
<mgrwt>
<rscale>  0 0.45741674E+02</rscale>
<asrwt>0</asrwt>
<pdfrwt beam="2">  1        2 0.62836260E-01 0.95376020E+02</pdfrwt>
<pdfrwt beam="1">  1        1 0.55708913E-01 0.21937388E+02</pdfrwt>
<totfact> 0.74827353E+02</totfact>
</mgrwt>
</event>
<event>
 5    1  0.4149151E-003  0.4882401E+02  0.7546771E-02  0.1523469E+00
          1   -1    0    0  501    0  0.00000000000E+00  0.00000000000E+00  0.17557743190E+04  0.17557743190E+04  0.00000000000E+00 0. -1.
          3   -1    0    0  502    0 -0.00000000000E+00 -0.00000000000E+00 -0.66149023187E+03  0.66149023187E+03  0.00000000000E+00 0. -1.
         25    1    1    2    0    0 -0.55343148316E+02 -0.32095509508E+02 -0.14150077858E+03  0.19935008436E+03  0.12500000000E+03 0.  0.
          1    1    1    2  501    0  0.28418601831E+02 -0.81900079061E+01  0.17255273512E+04  0.17257807893E+04  0.00000000000E+00 0. -1.
          3    1    1    2  502    0  0.26924546486E+02  0.40285517414E+02 -0.48974248548E+03  0.49213367716E+03  0.00000000000E+00 0. -1.
<mgrwt>
<rscale>  0 0.37999741E+02</rscale>
<asrwt>0</asrwt>
<pdfrwt beam="1">  1        1 0.27011912E+00 0.29575212E+02</pdfrwt>
<pdfrwt beam="2">  1        3 0.10176773E+00 0.48824006E+02</pdfrwt>
<totfact> 0.28911187E+00</totfact>
</mgrwt>
</event>
<event>
 5    1  0.4149151E-003  0.2138885E+03  0.7546771E-02  0.1199259E+00
         -3   -1    0    0    0  501 -0.00000000000E+00  0.00000000000E+00  0.23215282605E+03  0.23215282605E+03  0.00000000000E+00 0.  1.
          2   -1    0    0  502    0  0.00000000000E+00 -0.00000000000E+00 -0.25128730379E+04  0.25128730379E+04  0.00000000000E+00 0. -1.
         25    1    1    2    0    0  0.64246492223E+02  0.21358317476E+03 -0.84757999212E+03  0.88530346625E+03  0.12500000000E+03 0.  0.
          2    1    1    2  502    0  0.42345074038E+02 -0.21348013752E+03 -0.16253922057E+04  0.16398983800E+04  0.00000000000E+00 0. -1.
         -3    1    1    2    0  501 -0.10659156626E+03 -0.10303724212E+00  0.19225198601E+03  0.21982401766E+03  0.00000000000E+00 0.  1.
<mgrwt>
<rscale>  0 0.15099247E+03</rscale>
<asrwt>0</asrwt>
<pdfrwt beam="2">  1        2 0.38659588E+00 0.21388854E+03</pdfrwt>
<pdfrwt beam="1">  1       -3 0.35715817E-01 0.10659162E+03</pdfrwt>
<totfact> 0.18782249E+01</totfact>
</mgrwt>
</event>
<event>
 5    1  0.5636826E-003  0.3949834E+03  0.7546771E-02  0.1045531E+00
          2   -1    0    0  502    0  0.00000000000E+00  0.00000000000E+00  0.59926079410E+03  0.59926079410E+03  0.00000000000E+00 0. -1.
         -1   -1    0    0    0  501 -0.00000000000E+00 -0.00000000000E+00 -0.65085127005E+02  0.65085127005E+02  0.00000000000E+00 0.  1.
         25    1    1    2    0    0 -0.16572970661E+03 -0.27401002493E+02  0.28451716532E+03  0.35325934942E+03  0.12500000000E+03 0.  0.
          2    1    1    2  502    0  0.96309422589E+02  0.68309769036E+01  0.20343957861E+03  0.22518843059E+03  0.00000000000E+00 0. -1.
         -1    1    1    2    0  501  0.69420284021E+02  0.20570025589E+02  0.46218923177E+02  0.85898141109E+02  0.00000000000E+00 0.  1.
<mgrwt>
<rscale>  0 0.39498337E+03</rscale>
<asrwt>0</asrwt>
<pdfrwt beam="1">  1        2 0.92193964E-01 0.39498337E+03</pdfrwt>
<pdfrwt beam="2">  1       -1 0.10013097E-01 0.39498337E+03</pdfrwt>
<totfact> 0.35166870E+03</totfact>
</mgrwt>
</event>
<event>
 5    1  0.4149151E-003  0.9083072E+02  0.7546771E-02  0.1301155E+00
          2   -1    0    0  501    0  0.00000000000E+00  0.00000000000E+00  0.84831051780E+03  0.84831051780E+03  0.00000000000E+00 0. -1.
          1   -1    0    0  502    0 -0.00000000000E+00 -0.00000000000E+00 -0.17771237155E+03  0.17771237155E+03  0.00000000000E+00 0. -1.
         25    1    1    2    0    0 -0.90282056567E+02 -0.28998793591E+02  0.19546747989E+03  0.25064779166E+03  0.12500000000E+03 0.  0.
          2    1    1    2  501    0  0.18973613886E+02  0.88826922309E+02  0.60711343056E+03  0.61387045679E+03  0.00000000000E+00 0. -1.
          1    1    1    2  502    0  0.71308442682E+02 -0.59828128718E+02 -0.13198276421E+03  0.16150464090E+03  0.00000000000E+00 0. -1.
<mgrwt>
<rscale>  0 0.90704161E+02</rscale>
<asrwt>0</asrwt>
<pdfrwt beam="1">  1        2 0.13050931E+00 0.90830723E+02</pdfrwt>
<pdfrwt beam="2">  1        1 0.27340365E-01 0.90577775E+02</pdfrwt>
<totfact> 0.78084640E+02</totfact>
</mgrwt>
</event>
<event>
 5    1  0.4149151E-003  0.3978609E+02  0.7546771E-02  0.1516950E+00
         -1   -1    0    0    0  501 -0.00000000000E+00  0.00000000000E+00  0.20924135468E+02  0.20924135468E+02  0.00000000000E+00 0.  1.
          2   -1    0    0  502    0  0.00000000000E+00 -0.00000000000E+00 -0.59204315545E+03  0.59204315545E+03  0.00000000000E+00 0. -1.
         25    1    1    2    0    0  0.31641983265E+02  0.22926096408E+02 -0.38940877864E+03  0.41084184047E+03  0.12500000000E+03 0.  0.
          2    1    1    2  502    0 -0.42154711614E+02  0.13497211833E+02 -0.13439420868E+03  0.14149557508E+03  0.00000000000E+00 0. -1.
         -1    1    1    2    0  501  0.10512728348E+02 -0.36423308241E+02 -0.47316032656E+02  0.60629875366E+02  0.00000000000E+00 0.  1.
<mgrwt>
<rscale>  0 0.38836764E+02</rscale>
<asrwt>0</asrwt>
<pdfrwt beam="2">  1        2 0.91083569E-01 0.39786092E+02</pdfrwt>
<pdfrwt beam="1">  1       -1 0.32190975E-02 0.37910089E+02</pdfrwt>
<totfact> 0.16446519E+04</totfact>
</mgrwt>
</event>
<event>
 5    1  0.4149151E-003  0.5018034E+02  0.7546771E-02  0.1508716E+00
          2   -1    0    0  502    0  0.00000000000E+00  0.00000000000E+00  0.17359826347E+04  0.17359826347E+04  0.00000000000E+00 0. -1.
         -1   -1    0    0    0  501 -0.00000000000E+00 -0.00000000000E+00 -0.92536001372E+01  0.92536001372E+01  0.00000000000E+00 0.  1.
         25    1    1    2    0    0 -0.55636117465E+02 -0.10703564375E+01  0.13339091105E+04  0.13409082885E+04  0.12500000000E+03 0.  0.
          2    1    1    2  502    0  0.42279678941E+02 -0.27762070366E+02  0.33077143315E+03  0.33461626498E+03  0.00000000000E+00 0. -1.
         -1    1    1    2    0  501  0.13356438524E+02  0.28832426804E+02  0.62048490894E+02  0.69711681286E+02  0.00000000000E+00 0.  1.
<mgrwt>
<rscale>  0 0.39931465E+02</rscale>
<asrwt>0</asrwt>
<pdfrwt beam="1">  1        2 0.26707399E+00 0.50180341E+02</pdfrwt>
<pdfrwt beam="2">  1       -1 0.14236322E-02 0.31775829E+02</pdfrwt>
<totfact> 0.11135728E+04</totfact>
</mgrwt>
</event>
<event>
 5    1  0.4149151E-003  0.2705808E+03  0.7546771E-02  0.1159203E+00
          2   -1    0    0  502    0  0.00000000000E+00  0.00000000000E+00  0.30954180579E+03  0.30954180579E+03  0.00000000000E+00 0.  1.
          2   -1    0    0  501    0 -0.00000000000E+00 -0.00000000000E+00 -0.16982944162E+04  0.16982944162E+04  0.00000000000E+00 0. -1.
         25    1    1    2    0    0  0.44894716639E+02  0.22364506927E+03 -0.87208835709E+03  0.91005261120E+03  0.12500000000E+03 0.  0.
          2    1    1    2  501    0 -0.12612637439E+03  0.39835316735E+02 -0.73455126511E+03  0.74636470700E+03  0.00000000000E+00 0. -1.
          2    1    1    2  502    0  0.81231657752E+02 -0.26348038601E+03  0.21788701179E+03  0.35141890379E+03  0.00000000000E+00 0.  1.
<mgrwt>
<rscale>  0 0.18917999E+03</rscale>
<asrwt>0</asrwt>
<pdfrwt beam="1">  1        2 0.47621816E-01 0.27058078E+03</pdfrwt>
<pdfrwt beam="2">  1        2 0.26127606E+00 0.13226759E+03</pdfrwt>
<totfact> 0.18733662E+02</totfact>
</mgrwt>
</event>
<event>
 5    1  0.4149151E-003  0.1003291E+03  0.7546771E-02  0.1449917E+00
         -1   -1    0    0    0  501 -0.00000000000E+00  0.00000000000E+00  0.76303050201E+03  0.76303050201E+03  0.00000000000E+00 0.  1.
          2   -1    0    0  502    0  0.00000000000E+00 -0.00000000000E+00 -0.28523084185E+02  0.28523084185E+02  0.00000000000E+00 0. -1.
         25    1    1    2    0    0 -0.96201175252E+02 -0.21613065158E+02  0.50811690420E+03  0.53247495626E+03  0.12500000000E+03 0.  0.
          2    1    1    2  502    0  0.91204486333E+02  0.45178523191E+02  0.18705677858E+03  0.21295444512E+03  0.00000000000E+00 0. -1.
         -1    1    1    2    0  501  0.49966889198E+01 -0.23565458032E+02  0.39333735046E+02  0.46124184818E+02  0.00000000000E+00 0.  1.
<mgrwt>
<rscale>  0 0.49161627E+02</rscale>
<asrwt>0</asrwt>
<pdfrwt beam="2">  1        2 0.43881674E-02 0.10032913E+03</pdfrwt>
<pdfrwt beam="1">  1       -1 0.11738929E+00 0.24089369E+02</pdfrwt>
<totfact> 0.15439014E+03</totfact>
</mgrwt>
</event>
<event>
 5    1  0.4149151E-003  0.2987081E+02  0.7546771E-02  0.1601595E+00
          1   -1    0    0  502    0  0.00000000000E+00  0.00000000000E+00  0.18636403969E+03  0.18636403969E+03  0.00000000000E+00 0. -1.
         -2   -1    0    0    0  501 -0.00000000000E+00 -0.00000000000E+00 -0.57726380782E+02  0.57726380782E+02  0.00000000000E+00 0.  1.
         25    1    1    2    0    0  0.40181065531E+01 -0.13134899842E+02  0.69747969174E+02  0.14380003469E+03  0.12500000000E+03 0.  0.
          1    1    1    2  502    0  0.15381858060E+02  0.35359558878E+02  0.50385804405E+01  0.38888137706E+02  0.00000000000E+00 0. -1.
         -2    1    1    2    0  501 -0.19399964613E+02 -0.22224659036E+02  0.53851109294E+02  0.61402248073E+02  0.00000000000E+00 0.  1.
<mgrwt>
<rscale>  0 0.29685204E+02</rscale>
<asrwt>0</asrwt>
<pdfrwt beam="1">  1        1 0.28671390E-01 0.29870814E+02</pdfrwt>
<pdfrwt beam="2">  1       -2 0.88809817E-02 0.29500747E+02</pdfrwt>
<totfact> 0.90274733E+03</totfact>
</mgrwt>
</event>
<event>
 5    1  0.4149151E-003  0.1358811E+03  0.7546771E-02  0.1305686E+00
          1   -1    0    0  501    0  0.00000000000E+00  0.00000000000E+00  0.67111420061E+03  0.67111420061E+03  0.00000000000E+00 0. -1.
          1   -1    0    0  502    0 -0.00000000000E+00 -0.00000000000E+00 -0.43530128212E+03  0.43530128212E+03  0.00000000000E+00 0. -1.
         25    1    1    2    0    0 -0.18509592122E+02 -0.16616545344E+03  0.20079723378E+03  0.28965167359E+03  0.12500000000E+03 0.  0.
          1    1    1    2  501    0 -0.25054827859E+02  0.12774852854E+03  0.41367503975E+03  0.43367553476E+03  0.00000000000E+00 0. -1.
          1    1    1    2  502    0  0.43564419982E+02  0.38416924896E+02 -0.37865935504E+03  0.38308827438E+03  0.00000000000E+00 0. -1.
<mgrwt>
<rscale>  0 0.88839624E+02</rscale>
<asrwt>0</asrwt>
<pdfrwt beam="1">  1        1 0.10324834E+00 0.13588108E+03</pdfrwt>
<pdfrwt beam="2">  1        1 0.66969428E-01 0.58083722E+02</pdfrwt>
<totfact> 0.20621743E+02</totfact>
</mgrwt>
</event>
<event>
 5    1  0.4149151E-003  0.4556109E+02  0.7546771E-02  0.1505714E+00
          2   -1    0    0  501    0  0.00000000000E+00  0.00000000000E+00  0.77252368265E+03  0.77252368265E+03  0.00000000000E+00 0. -1.
          1   -1    0    0  502    0 -0.00000000000E+00 -0.00000000000E+00 -0.32957158655E+03  0.32957158655E+03  0.00000000000E+00 0. -1.
         25    1    1    2    0    0 -0.37351956282E+02  0.16475186836E+02  0.72736573361E+02  0.15027378189E+03  0.12500000000E+03 0.  0.
          2    1    1    2  501    0 -0.43958191647E+01 -0.35448080511E+02  0.65872382568E+03  0.65969157047E+03  0.00000000000E+00 0. -1.
          1    1    1    2  502    0  0.41747775447E+02  0.18972893674E+02 -0.28850830294E+03  0.29212991684E+03  0.00000000000E+00 0. -1.
<mgrwt>
<rscale>  0 0.40341342E+02</rscale>
<asrwt>0</asrwt>
<pdfrwt beam="1">  1        2 0.11884980E+00 0.35719597E+02</pdfrwt>
<pdfrwt beam="2">  1        1 0.50703321E-01 0.45561091E+02</pdfrwt>
<totfact> 0.42588185E+02</totfact>
</mgrwt>
</event>
<event>
 5    1  0.4149151E-003  0.5122655E+02  0.7546771E-02  0.1566198E+00
          2   -1    0    0  502    0  0.00000000000E+00  0.00000000000E+00  0.87388802569E+03  0.87388802569E+03  0.00000000000E+00 0. -1.
         -1   -1    0    0    0  501 -0.00000000000E+00 -0.00000000000E+00 -0.16786156690E+02  0.16786156690E+02  0.00000000000E+00 0.  1.
         25    1    1    2    0    0 -0.28828442984E+02  0.30815889795E+02  0.66947239294E+03  0.68234813922E+03  0.12500000000E+03 0.  0.
          2    1    1    2  502    0  0.27264975382E+02 -0.52139798348E+02  0.17215649518E+03  0.18193349413E+03  0.00000000000E+00 0. -1.
         -1    1    1    2    0  501  0.15634676023E+01  0.21323908553E+02  0.15472980882E+02  0.26392549030E+02  0.00000000000E+00 0.  1.
<mgrwt>
<rscale>  0 0.33095052E+02</rscale>
<asrwt>0</asrwt>
<pdfrwt beam="1">  1        2 0.13444428E+00 0.51226549E+02</pdfrwt>
<pdfrwt beam="2">  1       -1 0.25824863E-02 0.21381148E+02</pdfrwt>
<totfact> 0.12930307E+04</totfact>
</mgrwt>
</event>
<event>
 5    1  0.4149151E-003  0.9395314E+02  0.7546771E-02  0.1300251E+00
          2   -1    0    0  501    0  0.00000000000E+00  0.00000000000E+00  0.19517321136E+04  0.19517321136E+04  0.00000000000E+00 0. -1.
          3   -1    0    0  502    0 -0.00000000000E+00 -0.00000000000E+00 -0.85997140732E+02  0.85997140732E+02  0.00000000000E+00 0. -1.
         25    1    1    2    0    0  0.10762654391E+03 -0.87722347458E+02  0.42154181924E+03  0.46108696421E+03  0.12500000000E+03 0.  0.
          2    1    1    2  501    0 -0.14960514563E+02  0.87023428422E+02  0.14760212686E+04  0.14786600960E+04  0.00000000000E+00 0. -1.
          3    1    1    2  502    0 -0.92666029344E+02  0.69891903583E+00 -0.31828114908E+02  0.97982194203E+02  0.00000000000E+00 0. -1.
<mgrwt>
<rscale>  0 0.91082736E+02</rscale>
<asrwt>0</asrwt>
<pdfrwt beam="1">  1        2 0.30026645E+00 0.88300023E+02</pdfrwt>
<pdfrwt beam="2">  1        3 0.13230331E-01 0.93953143E+02</pdfrwt>
<totfact> 0.23388439E+02</totfact>
</mgrwt>
</event>
<event>
 5    1  0.4149151E-003  0.1333878E+03  0.7546771E-02  0.1257146E+00
          1   -1    0    0  502    0  0.00000000000E+00  0.00000000000E+00  0.54749180303E+03  0.54749180303E+03  0.00000000000E+00 0. -1.
          1   -1    0    0  501    0 -0.00000000000E+00 -0.00000000000E+00 -0.43410308438E+03  0.43410308438E+03  0.00000000000E+00 0. -1.
         25    1    1    2    0    0  0.14553664338E+03  0.15043043409E+03  0.95624675838E+02  0.26187651421E+03  0.12500000000E+03 0.  0.
          1    1    1    2  501    0 -0.83564150693E+02 -0.42659664306E+02 -0.33384509386E+03  0.34677854740E+03  0.00000000000E+00 0. -1.
          1    1    1    2  502    0 -0.61972492687E+02 -0.10777076979E+03  0.35160913668E+03  0.37293982580E+03  0.00000000000E+00 0. -1.
<mgrwt>
<rscale>  0 0.11186997E+03</rscale>
<asrwt>0</asrwt>
<pdfrwt beam="1">  1        1 0.84229508E-01 0.13338785E+03</pdfrwt>
<pdfrwt beam="2">  1        1 0.66785090E-01 0.93823314E+02</pdfrwt>
<totfact> 0.27139869E+02</totfact>
</mgrwt>
</event>
<event>
 5    1  0.4149151E-003  0.7098205E+02  0.7546771E-02  0.1362463E+00
          1   -1    0    0  501    0  0.00000000000E+00  0.00000000000E+00  0.43949638533E+03  0.43949638533E+03  0.00000000000E+00 0. -1.
          1   -1    0    0  502    0 -0.00000000000E+00 -0.00000000000E+00 -0.27198720985E+03  0.27198720985E+03  0.00000000000E+00 0. -1.
         25    1    1    2    0    0  0.82450856743E+01 -0.15176127581E+01  0.18022759539E+02  0.12657055127E+03  0.12500000000E+03 0.  0.
          1    1    1    2  501    0  0.29621699933E+01 -0.70920218288E+02  0.35743967776E+03  0.36441950421E+03  0.00000000000E+00 0. -1.
          1    1    1    2  502    0 -0.11207255668E+02  0.72437831046E+02 -0.20795326182E+03  0.22049353970E+03  0.00000000000E+00 0. -1.
<mgrwt>
<rscale>  0 0.69307848E+02</rscale>
<asrwt>0</asrwt>
<pdfrwt beam="1">  1        1 0.67614828E-01 0.70982053E+02</pdfrwt>
<pdfrwt beam="2">  1        1 0.41844186E-01 0.67673131E+02</pdfrwt>
<totfact> 0.64823680E+02</totfact>
</mgrwt>
</event>
<event>
 5    1  0.4149151E-003  0.8423644E+02  0.7546771E-02  0.1493591E+00
         -1   -1    0    0    0  501 -0.00000000000E+00  0.00000000000E+00  0.15717943164E+02  0.15717943164E+02  0.00000000000E+00 0.  1.
          2   -1    0    0  502    0  0.00000000000E+00 -0.00000000000E+00 -0.11084774578E+04  0.11084774578E+04  0.00000000000E+00 0. -1.
         25    1    1    2    0    0 -0.35577479847E+02  0.73654420551E+02 -0.53740095269E+03  0.55777729848E+03  0.12500000000E+03 0.  0.
          2    1    1    2  502    0 -0.20106712916E+02 -0.60557160550E+01 -0.65243681758E+02  0.68539693686E+02  0.00000000000E+00 0. -1.
         -1    1    1    2    0  501  0.55684192763E+02 -0.67598704496E+02 -0.49011488022E+03  0.49787840883E+03  0.00000000000E+00 0.  1.
<mgrwt>
<rscale>  0 0.42057914E+02</rscale>
<asrwt>0</asrwt>
<pdfrwt beam="2">  1        2 0.17053502E+00 0.20998848E+02</pdfrwt>
<pdfrwt beam="1">  1       -1 0.24181447E-02 0.84236438E+02</pdfrwt>
<totfact> 0.13570633E+04</totfact>
</mgrwt>
</event>
<event>
 5    1  0.4149151E-003  0.9101234E+02  0.7546771E-02  0.1349006E+00
         -1   -1    0    0    0  501  0.00000000000E+00  0.00000000000E+00  0.13118128785E+04  0.13118128785E+04  0.00000000000E+00 0.  1.
         -3   -1    0    0    0  502 -0.00000000000E+00 -0.00000000000E+00 -0.25918907364E+03  0.25918907364E+03  0.00000000000E+00 0.  1.
         25    1    1    2    0    0  0.27328430012E+02 -0.12459349326E+03  0.35980282309E+03  0.40168825369E+03  0.12500000000E+03 0.  0.
         -1    1    1    2    0  501  0.27261453406E+02  0.52483675553E+02  0.92150168013E+03  0.92339756851E+03  0.00000000000E+00 0.  1.
         -3    1    1    2    0  502 -0.54589883418E+02  0.72109817709E+02 -0.22868069834E+03  0.24591612996E+03  0.00000000000E+00 0.  1.
<mgrwt>
<rscale>  0 0.73366279E+02</rscale>
<asrwt>0</asrwt>
<pdfrwt beam="1">  1       -1 0.20181736E+00 0.59141551E+02</pdfrwt>
<pdfrwt beam="2">  1       -3 0.39875243E-01 0.91012339E+02</pdfrwt>
<totfact> 0.50806704E+00</totfact>
</mgrwt>
</event>
<event>
 5    1  0.4149151E-003  0.9038463E+02  0.7546771E-02  0.1331005E+00
          3   -1    0    0  502    0 -0.00000000000E+00  0.00000000000E+00  0.38893132777E+02  0.38893132777E+02  0.00000000000E+00 0. -1.
          2   -1    0    0  501    0  0.00000000000E+00 -0.00000000000E+00 -0.27478384875E+04  0.27478384875E+04  0.00000000000E+00 0. -1.
         25    1    1    2    0    0  0.75680556449E+02  0.48285219269E+02 -0.51570808081E+03  0.53818104169E+03  0.12500000000E+03 0.  0.
          2    1    1    2  501    0 -0.20217199200E+02 -0.90336490225E+02 -0.21745009107E+04  0.21764704517E+04  0.00000000000E+00 0. -1.
          3    1    1    2  502    0 -0.55463357249E+02  0.42051270956E+02 -0.18736363260E+02  0.72080126904E+02  0.00000000000E+00 0. -1.
<mgrwt>
<rscale>  0 0.79315741E+02</rscale>
<asrwt>0</asrwt>
<pdfrwt beam="2">  1        2 0.42274449E+00 0.90384630E+02</pdfrwt>
<pdfrwt beam="1">  1        3 0.59835573E-02 0.69602395E+02</pdfrwt>
<totfact> 0.31373544E+02</totfact>
</mgrwt>
</event>
<event>
 5    1  0.4149151E-003  0.9682421E+02  0.7546771E-02  0.1429024E+00
          1   -1    0    0  502    0 -0.00000000000E+00  0.00000000000E+00  0.97306148156E+02  0.97306148156E+02  0.00000000000E+00 0.  1.
          2   -1    0    0  501    0  0.00000000000E+00 -0.00000000000E+00 -0.49565757737E+03  0.49565757737E+03  0.00000000000E+00 0. -1.
         25    1    1    2    0    0  0.18491127856E+01 -0.81812625047E+02 -0.40208549838E+02  0.15472056203E+03  0.12500000000E+03 0.  0.
          2    1    1    2  501    0  0.13839208471E+02 -0.25692629967E+02 -0.32262305584E+03  0.32394022764E+03  0.00000000000E+00 0. -1.
          1    1    1    2  502    0 -0.15688321256E+02  0.10750525501E+03 -0.35519823531E+02  0.11430293585E+03  0.00000000000E+00 0.  1.
<mgrwt>
<rscale>  0 0.53156375E+02</rscale>
<asrwt>0</asrwt>
<pdfrwt beam="2">  1        2 0.76255012E-01 0.29182785E+02</pdfrwt>
<pdfrwt beam="1">  1        1 0.14970177E-01 0.96824213E+02</pdfrwt>
<totfact> 0.31323851E+03</totfact>
</mgrwt>
</event>
<event>
 5    1  0.4149151E-003  0.5433163E+02  0.7546771E-02  0.1444401E+00
          2   -1    0    0  502    0  0.00000000000E+00  0.00000000000E+00  0.13505086481E+04  0.13505086481E+04  0.00000000000E+00 0.  1.
          2   -1    0    0  501    0 -0.00000000000E+00 -0.00000000000E+00 -0.27554841396E+03  0.27554841396E+03  0.00000000000E+00 0. -1.
         25    1    1    2    0    0 -0.14421053706E+02  0.15019311373E+02  0.17841606842E+03  0.21883975867E+03  0.12500000000E+03 0.  0.
          2    1    1    2  501    0  0.54287934145E+02  0.85952439560E+01 -0.25190604712E+03  0.25783272599E+03  0.00000000000E+00 0. -1.
          2    1    1    2  502    0 -0.39866880439E+02 -0.23614555329E+02  0.11484502129E+04  0.11493845774E+04  0.00000000000E+00 0.  1.
<mgrwt>
<rscale>  0 0.50174741E+02</rscale>
<asrwt>0</asrwt>
<pdfrwt beam="1">  1        2 0.20777056E+00 0.46335897E+02</pdfrwt>
<pdfrwt beam="2">  1        2 0.42392064E-01 0.54331626E+02</pdfrwt>
<totfact> 0.34343193E+02</totfact>
</mgrwt>
</event>
<event>
 5    1  0.4149151E-003  0.7364753E+02  0.7546771E-02  0.1463888E+00
          2   -1    0    0  501    0  0.00000000000E+00  0.00000000000E+00  0.12205332686E+04  0.12205332686E+04  0.00000000000E+00 0. -1.
          1   -1    0    0  502    0 -0.00000000000E+00 -0.00000000000E+00 -0.61412454223E+02  0.61412454223E+02  0.00000000000E+00 0. -1.
         25    1    1    2    0    0 -0.44129950847E+02  0.38282749854E+02  0.49795723875E+03  0.51671987878E+03  0.12500000000E+03 0.  0.
          2    1    1    2  501    0  0.38706651457E+02 -0.67418830804E+02  0.70666263554E+03  0.71092586398E+03  0.00000000000E+00 0. -1.
          1    1    1    2  502    0  0.54232993906E+01  0.29136080950E+02 -0.45499059876E+02  0.54299980101E+02  0.00000000000E+00 0. -1.
<mgrwt>
<rscale>  0 0.46718911E+02</rscale>
<asrwt>0</asrwt>
<pdfrwt beam="1">  1        2 0.18777433E+00 0.73647534E+02</pdfrwt>
<pdfrwt beam="2">  1        1 0.94480708E-02 0.29636521E+02</pdfrwt>
<totfact> 0.17055678E+03</totfact>
</mgrwt>
</event>
<event>
 5    1  0.4149151E-003  0.9413315E+02  0.7546771E-02  0.1468596E+00
          2   -1    0    0  502    0  0.00000000000E+00  0.00000000000E+00  0.20815014300E+03  0.20815014300E+03  0.00000000000E+00 0. -1.
         -1   -1    0    0    0  501 -0.00000000000E+00 -0.00000000000E+00 -0.96279662241E+02  0.96279662241E+02  0.00000000000E+00 0.  1.
         25    1    1    2    0    0  0.92891342414E+02  0.17381651560E+02  0.81447341687E+02  0.17660575521E+03  0.12500000000E+03 0.  0.
          2    1    1    2  502    0 -0.64804308712E+01  0.21456690868E+02  0.24045069186E+02  0.32871734355E+02  0.00000000000E+00 0. -1.
         -1    1    1    2    0  501 -0.86410911543E+02 -0.38838342428E+02  0.63780698846E+01  0.94952315673E+02  0.00000000000E+00 0.  1.
<mgrwt>
<rscale>  0 0.45933610E+02</rscale>
<asrwt>0</asrwt>
<pdfrwt beam="1">  1        2 0.32023099E-01 0.22413959E+02</pdfrwt>
<pdfrwt beam="2">  1       -1 0.14812256E-01 0.94133147E+02</pdfrwt>
<totfact> 0.54555767E+03</totfact>
</mgrwt>
</event>
<event>
 5    1  0.4149151E-003  0.1662911E+03  0.7546771E-02  0.1300204E+00
          2   -1    0    0  502    0  0.00000000000E+00  0.00000000000E+00  0.77537287425E+03  0.77537287425E+03  0.00000000000E+00 0. -1.
          2   -1    0    0  501    0 -0.00000000000E+00 -0.00000000000E+00 -0.44364675738E+03  0.44364675738E+03  0.00000000000E+00 0. -1.
         25    1    1    2    0    0 -0.66279740495E+02  0.16037898541E+03  0.30902105998E+03  0.37581037568E+03  0.12500000000E+03 0.  0.
          2    1    1    2  501    0 -0.38046650549E+02 -0.32302754634E+02 -0.39285911604E+03  0.39601679337E+03  0.00000000000E+00 0. -1.
          2    1    1    2  502    0  0.10432639104E+03 -0.12807623077E+03  0.41556417293E+03  0.44719246258E+03  0.00000000000E+00 0. -1.
<mgrwt>
<rscale>  0 0.91102145E+02</rscale>
<asrwt>0</asrwt>
<pdfrwt beam="1">  1        2 0.11928814E+00 0.16629109E+03</pdfrwt>
<pdfrwt beam="2">  1        2 0.68253347E-01 0.49910075E+02</pdfrwt>
<totfact> 0.42214383E+02</totfact>
</mgrwt>
</event>
<event>
 5    1  0.4149151E-003  0.9551543E+02  0.7546771E-02  0.1357422E+00
          1   -1    0    0  501    0  0.00000000000E+00  0.00000000000E+00  0.13367751300E+04  0.13367751300E+04  0.00000000000E+00 0. -1.
          1   -1    0    0  502    0 -0.00000000000E+00 -0.00000000000E+00 -0.57570611741E+03  0.57570611741E+03  0.00000000000E+00 0. -1.
         25    1    1    2    0    0  0.12304554274E+03  0.68328029015E+02  0.58220789889E+02  0.19703701559E+03  0.12500000000E+03 0.  0.
          1    1    1    2  501    0 -0.70926932333E+02 -0.62288619618E+02  0.12059375733E+04  0.12096263608E+04  0.00000000000E+00 0. -1.
          1    1    1    2  502    0 -0.52118610411E+02 -0.60394093975E+01 -0.50308935060E+03  0.50581787108E+03  0.00000000000E+00 0. -1.
<mgrwt>
<rscale>  0 0.70791544E+02</rscale>
<asrwt>0</asrwt>
<pdfrwt beam="1">  1        1 0.20565771E+00 0.95515432E+02</pdfrwt>
<pdfrwt beam="2">  1        1 0.88570172E-01 0.52467361E+02</pdfrwt>
<totfact> 0.47525443E+01</totfact>
</mgrwt>
</event>
<event>
 5    1  0.4149151E-003  0.1726713E+03  0.7546771E-02  0.1395610E+00
          2   -1    0    0  502    0  0.00000000000E+00  0.00000000000E+00  0.20016275086E+04  0.20016275086E+04  0.00000000000E+00 0. -1.
         -1   -1    0    0    0  501 -0.00000000000E+00 -0.00000000000E+00 -0.29486334125E+02  0.29486334125E+02  0.00000000000E+00 0.  1.
         25    1    1    2    0    0  0.68043265792E+02  0.16593648555E+03  0.49645359582E+03  0.54245366260E+03  0.12500000000E+03 0.  0.
          2    1    1    2  502    0 -0.14475405868E+02 -0.15517055380E+02  0.46082312425E+03  0.46131146553E+03  0.00000000000E+00 0. -1.
         -1    1    1    2    0  501 -0.53567859924E+02 -0.15041943017E+03  0.10148644544E+04  0.10273487146E+04  0.00000000000E+00 0.  1.
<mgrwt>
<rscale>  0 0.60532627E+02</rscale>
<asrwt>0</asrwt>
<pdfrwt beam="1">  1        2 0.30794259E+00 0.21220659E+02</pdfrwt>
<pdfrwt beam="2">  1       -1 0.45363607E-02 0.17267131E+03</pdfrwt>
<totfact> 0.22109258E+03</totfact>
</mgrwt>
</event>
<event>
 5    1  0.4149151E-003  0.4317204E+02  0.7546771E-02  0.1539967E+00
         -1   -1    0    0    0  501 -0.00000000000E+00  0.00000000000E+00  0.21259966493E+03  0.21259966493E+03  0.00000000000E+00 0.  1.
          2   -1    0    0  502    0  0.00000000000E+00 -0.00000000000E+00 -0.11590005983E+04  0.11590005983E+04  0.00000000000E+00 0. -1.
         25    1    1    2    0    0  0.25830700895E+02 -0.21387625644E+02  0.15230507398E+03  0.19986618324E+03  0.12500000000E+03 0.  0.
          2    1    1    2  502    0 -0.43101680259E+02 -0.31489228326E+01 -0.11285715859E+04  0.11293987316E+04  0.00000000000E+00 0. -1.
         -1    1    1    2    0  501  0.17270979364E+02  0.24536548476E+02  0.29865578537E+02  0.42335348359E+02  0.00000000000E+00 0.  1.
<mgrwt>
<rscale>  0 0.35991635E+02</rscale>
<asrwt>0</asrwt>
<pdfrwt beam="2">  1        2 0.17830779E+00 0.43172037E+02</pdfrwt>
<pdfrwt beam="1">  1       -1 0.32707641E-01 0.30005482E+02</pdfrwt>
<totfact> 0.23046704E+02</totfact>
</mgrwt>
</event>
<event>
 5    1  0.4149151E-003  0.2038961E+03  0.7546771E-02  0.1288592E+00
          1   -1    0    0  502    0 -0.00000000000E+00  0.00000000000E+00  0.69005524545E+02  0.69005524545E+02  0.00000000000E+00 0. -1.
          2   -1    0    0  501    0  0.00000000000E+00 -0.00000000000E+00 -0.34821092978E+04  0.34821092978E+04  0.00000000000E+00 0. -1.
         25    1    1    2    0    0  0.23618718530E+02 -0.18594347482E+03 -0.31842190742E+03  0.39006452135E+03  0.12500000000E+03 0.  0.
          2    1    1    2  501    0  0.17492120963E+02  0.20508129018E+03 -0.31071979927E+04  0.31140076550E+04  0.00000000000E+00 0. -1.
          1    1    1    2  502    0 -0.41110839493E+02 -0.19137815355E+02  0.12516126905E+02  0.47042645898E+02  0.00000000000E+00 0. -1.
<mgrwt>
<rscale>  0 0.96156597E+02</rscale>
<asrwt>0</asrwt>
<pdfrwt beam="2">  1        2 0.53570922E+00 0.20389609E+03</pdfrwt>
<pdfrwt beam="1">  1        1 0.10616233E-01 0.45347074E+02</pdfrwt>
<totfact> 0.79084751E+01</totfact>
</mgrwt>
</event>
<event>
 5    1  0.4149151E-003  0.9901989E+02  0.7546771E-02  0.1322717E+00
          2   -1    0    0  501    0  0.00000000000E+00  0.00000000000E+00  0.65785929858E+02  0.65785929858E+02  0.00000000000E+00 0. -1.
          2   -1    0    0  502    0 -0.00000000000E+00 -0.00000000000E+00 -0.13213735794E+04  0.13213735794E+04  0.00000000000E+00 0. -1.
         25    1    1    2    0    0  0.11514705953E+03 -0.53779457569E+02 -0.42353168626E+03  0.45951622892E+03  0.12500000000E+03 0.  0.
          2    1    1    2  501    0 -0.96984136106E+02 -0.12125063490E+02 -0.51059123944E+01  0.97872417781E+02  0.00000000000E+00 0. -1.
          2    1    1    2  502    0 -0.18162923427E+02  0.65904521059E+02 -0.82695005085E+03  0.82977086252E+03  0.00000000000E+00 0. -1.
<mgrwt>
<rscale>  0 0.82274846E+02</rscale>
<asrwt>0</asrwt>
<pdfrwt beam="1">  1        2 0.10120913E-01 0.99019888E+02</pdfrwt>
<pdfrwt beam="2">  1        2 0.20328822E+00 0.68361522E+02</pdfrwt>
<totfact> 0.17306416E+03</totfact>
</mgrwt>
</event>
<event>
 5    1  0.4149151E-003  0.1197466E+03  0.7546771E-02  0.1273789E+00
          2   -1    0    0  501    0  0.00000000000E+00  0.00000000000E+00  0.12107020115E+04  0.12107020115E+04  0.00000000000E+00 0. -1.
          1   -1    0    0  502    0 -0.00000000000E+00 -0.00000000000E+00 -0.49258335317E+03  0.49258335317E+03  0.00000000000E+00 0. -1.
         25    1    1    2    0    0 -0.87649743055E+02 -0.17465579784E+03  0.35750746453E+03  0.42617333606E+03  0.12500000000E+03 0.  0.
          2    1    1    2  501    0  0.29062088668E+02  0.10783254788E+03  0.81068843085E+03  0.81834478998E+03  0.00000000000E+00 0. -1.
          1    1    1    2  502    0  0.58587654387E+02  0.66823249957E+02 -0.45007723702E+03  0.45876723866E+03  0.00000000000E+00 0. -1.
<mgrwt>
<rscale>  0 0.10315945E+03</rscale>
<asrwt>0</asrwt>
<pdfrwt beam="1">  1        2 0.18626185E+00 0.11974664E+03</pdfrwt>
<pdfrwt beam="2">  1        1 0.75782055E-01 0.88869905E+02</pdfrwt>
<totfact> 0.13437710E+02</totfact>
</mgrwt>
</event>
<event>
 5    1  0.4149151E-003  0.7292728E+02  0.7546771E-02  0.1436028E+00
         -3   -1    0    0    0  501 -0.00000000000E+00  0.00000000000E+00  0.82473580660E+02  0.82473580660E+02  0.00000000000E+00 0.  1.
          1   -1    0    0  502    0  0.00000000000E+00 -0.00000000000E+00 -0.10341849718E+04  0.10341849718E+04  0.00000000000E+00 0. -1.
         25    1    1    2    0    0  0.81171833119E+02  0.67212766212E+02 -0.85207840216E+02  0.18436864828E+03  0.12500000000E+03 0.  0.
          1    1    1    2  502    0 -0.46519068880E+02 -0.54978476534E+02 -0.88719692021E+03  0.89011517900E+03  0.00000000000E+00 0. -1.
         -3    1    1    2    0  501 -0.34652764239E+02 -0.12234289678E+02  0.20693369276E+02  0.42174725195E+02  0.00000000000E+00 0.  1.
<mgrwt>
<rscale>  0 0.51768788E+02</rscale>
<asrwt>0</asrwt>
<pdfrwt beam="2">  1        1 0.15910539E+00 0.72927277E+02</pdfrwt>
<pdfrwt beam="1">  1       -3 0.12688242E-01 0.36749040E+02</pdfrwt>
<totfact> 0.36178184E+02</totfact>
</mgrwt>
</event>
<event>
 5    1  0.4149151E-003  0.1239740E+03  0.7546771E-02  0.1424278E+00
          2   -1    0    0  502    0  0.00000000000E+00  0.00000000000E+00  0.19206171944E+03  0.19206171944E+03  0.00000000000E+00 0. -1.
         -1   -1    0    0    0  501 -0.00000000000E+00 -0.00000000000E+00 -0.20953661182E+03  0.20953661182E+03  0.00000000000E+00 0.  1.
         25    1    1    2    0    0 -0.65629762640E+02 -0.11033825709E+03 -0.12272347467E+03  0.21718160133E+03  0.12500000000E+03 0.  0.
          2    1    1    2  502    0  0.81505120113E+02  0.92834180805E+02  0.10269692402E+03  0.16064846073E+03  0.00000000000E+00 0. -1.
         -1    1    1    2    0  501 -0.15875357473E+02  0.17504076281E+02  0.25516582702E+01  0.23768269211E+02  0.00000000000E+00 0.  1.
<mgrwt>
<rscale>  0 0.54125950E+02</rscale>
<asrwt>0</asrwt>
<pdfrwt beam="1">  1        2 0.29547957E-01 0.12397403E+03</pdfrwt>
<pdfrwt beam="2">  1       -1 0.32236402E-01 0.23630905E+02</pdfrwt>
<totfact> 0.17266811E+03</totfact>
</mgrwt>
</event>
<event>
 5    1  0.4149151E-003  0.3398214E+02  0.7546771E-02  0.1618941E+00
          2   -1    0    0  502    0  0.00000000000E+00  0.00000000000E+00  0.12257865384E+04  0.12257865384E+04  0.00000000000E+00 0. -1.
         -1   -1    0    0    0  501 -0.00000000000E+00 -0.00000000000E+00 -0.19715803459E+02  0.19715803459E+02  0.00000000000E+00 0.  1.
         25    1    1    2    0    0 -0.45407327239E+02 -0.54021222938E+01  0.10850094768E+04  0.10931429793E+04  0.12500000000E+03 0.  0.
          2    1    1    2  502    0  0.28265128815E+02 -0.10516628627E+02  0.12504377751E+03  0.12862916963E+03  0.00000000000E+00 0. -1.
         -1    1    1    2    0  501  0.17142198425E+02  0.15918750921E+02 -0.39825194012E+01  0.23730192972E+02  0.00000000000E+00 0.  1.
<mgrwt>
<rscale>  0 0.28195131E+02</rscale>
<asrwt>0</asrwt>
<pdfrwt beam="1">  1        2 0.18858248E+00 0.33982141E+02</pdfrwt>
<pdfrwt beam="2">  1       -1 0.30332015E-02 0.23393623E+02</pdfrwt>
<totfact> 0.68896914E+03</totfact>
</mgrwt>
</event>
<event>
 5    1  0.4149151E-003  0.6958337E+02  0.7546771E-02  0.1438884E+00
          2   -1    0    0  501    0  0.00000000000E+00  0.00000000000E+00  0.15278264466E+04  0.15278264466E+04  0.00000000000E+00 0. -1.
          1   -1    0    0  502    0 -0.00000000000E+00 -0.00000000000E+00 -0.32661386446E+04  0.32661386446E+04  0.00000000000E+00 0. -1.
         25    1    1    2    0    0  0.91467110220E+02 -0.22822611567E+02  0.45577060167E+03  0.48191176080E+03  0.12500000000E+03 0.  0.
          2    1    1    2  501    0 -0.22311244644E+02  0.30387572754E+02  0.10582776618E+04  0.10589489155E+04  0.00000000000E+00 0. -1.
          1    1    1    2  502    0 -0.69155865576E+02 -0.75649611869E+01 -0.32523604615E+04  0.32531044149E+04  0.00000000000E+00 0. -1.
<mgrwt>
<rscale>  0 0.51217248E+02</rscale>
<asrwt>0</asrwt>
<pdfrwt beam="1">  1        2 0.23505022E+00 0.37698756E+02</pdfrwt>
<pdfrwt beam="2">  1        1 0.50248287E+00 0.69583369E+02</pdfrwt>
<totfact> 0.12764640E+00</totfact>
</mgrwt>
</event>
<event>
 5    1  0.4149151E-003  0.2774682E+02  0.7546771E-02  0.1645650E+00
          2   -1    0    0  501    0  0.00000000000E+00  0.00000000000E+00  0.68308508280E+03  0.68308508280E+03  0.00000000000E+00 0. -1.
          3   -1    0    0  502    0 -0.00000000000E+00 -0.00000000000E+00 -0.14239251055E+03  0.14239251055E+03  0.00000000000E+00 0. -1.
         25    1    1    2    0    0  0.58058175374E+01  0.40106813472E+02  0.35669631606E+03  0.38013093256E+03  0.12500000000E+03 0.  0.
          2    1    1    2  501    0 -0.19272808737E+02 -0.19572944340E+02  0.31291081565E+03  0.31411418283E+03  0.00000000000E+00 0. -1.
          3    1    1    2  502    0  0.13466991199E+02 -0.20533869132E+02 -0.12891455945E+03  0.13123247796E+03  0.00000000000E+00 0. -1.
<mgrwt>
<rscale>  0 0.26102728E+02</rscale>
<asrwt>0</asrwt>
<pdfrwt beam="1">  1        2 0.10509001E+00 0.27746823E+02</pdfrwt>
<pdfrwt beam="2">  1        3 0.21906541E-01 0.24556051E+02</pdfrwt>
<totfact> 0.43677862E+02</totfact>
</mgrwt>
</event>
<event>
 5    1  0.4149151E-003  0.5725849E+02  0.7546771E-02  0.1438863E+00
          2   -1    0    0  502    0  0.00000000000E+00  0.00000000000E+00  0.29150896515E+03  0.29150896515E+03  0.00000000000E+00 0. -1.
          2   -1    0    0  501    0 -0.00000000000E+00 -0.00000000000E+00 -0.41818999831E+03  0.41818999831E+03  0.00000000000E+00 0. -1.
         25    1    1    2    0    0 -0.57891815054E+01 -0.23599622499E+02  0.54961562106E+02  0.13869473715E+03  0.12500000000E+03 0.  0.
          2    1    1    2  501    0 -0.33029690532E+02  0.47943706463E+02 -0.37132729661E+03  0.37586369957E+03  0.00000000000E+00 0. -1.
          2    1    1    2  502    0  0.38818872037E+02 -0.24344083964E+02  0.18968470135E+03  0.19514052674E+03  0.00000000000E+00 0. -1.
<mgrwt>
<rscale>  0 0.51221343E+02</rscale>
<asrwt>0</asrwt>
<pdfrwt beam="1">  1        2 0.44847533E-01 0.45820729E+02</pdfrwt>
<pdfrwt beam="2">  1        2 0.64336923E-01 0.57258494E+02</pdfrwt>
<totfact> 0.13213928E+03</totfact>
</mgrwt>
</event>
<event>
 5    1  0.4149151E-003  0.2241546E+03  0.7546771E-02  0.1208448E+00
         -1   -1    0    0    0  502 -0.00000000000E+00  0.00000000000E+00  0.11597103982E+04  0.11597103982E+04  0.00000000000E+00 0.  1.
         -2   -1    0    0    0  501  0.00000000000E+00 -0.00000000000E+00 -0.96338438957E+02  0.96338438957E+02  0.00000000000E+00 0.  1.
         25    1    1    2    0    0  0.70311729455E+02  0.17589985289E+03  0.52698806158E+03  0.57378211422E+03  0.12500000000E+03 0.  0.
         -2    1    1    2    0  501 -0.16238320990E+03 -0.17857928460E+03  0.14804631797E+03  0.28315469272E+03  0.00000000000E+00 0.  1.
         -1    1    1    2    0  502  0.92071480444E+02  0.26794317159E+01  0.38833757967E+03  0.39911203020E+03  0.00000000000E+00 0.  1.
<mgrwt>
<rscale>  0 0.14369059E+03</rscale>
<asrwt>0</asrwt>
<pdfrwt beam="2">  1       -2 0.14821299E-01 0.22415462E+03</pdfrwt>
<pdfrwt beam="1">  1       -1 0.17841697E+00 0.92110460E+02</pdfrwt>
<totfact> 0.65530326E+01</totfact>
</mgrwt>
</event>
<event>
 5    1  0.4149151E-003  0.6511906E+02  0.7546771E-02  0.1381559E+00
          1   -1    0    0  502    0 -0.00000000000E+00  0.00000000000E+00  0.20823741437E+04  0.20823741437E+04  0.00000000000E+00 0. -1.
          2   -1    0    0  501    0  0.00000000000E+00 -0.00000000000E+00 -0.40200820041E+03  0.40200820041E+03  0.00000000000E+00 0. -1.
         25    1    1    2    0    0  0.75320690110E+02  0.55455745181E+02  0.25856917318E+03  0.30204563124E+03  0.12500000000E+03 0.  0.
          2    1    1    2  501    0 -0.64733454577E+02  0.66583081793E+01 -0.37693023886E+03  0.38250641587E+03  0.00000000000E+00 0. -1.
          1    1    1    2  502    0 -0.10587235533E+02 -0.62114053360E+02  0.17987270089E+04  0.17998302970E+04  0.00000000000E+00 0. -1.
<mgrwt>
<rscale>  0 0.64055788E+02</rscale>
<asrwt>0</asrwt>
<pdfrwt beam="2">  1        2 0.61847417E-01 0.65119056E+02</pdfrwt>
<pdfrwt beam="1">  1        1 0.32036525E+00 0.63009882E+02</pdfrwt>
<totfact> 0.39177753E+01</totfact>
</mgrwt>
</event>
<event>
 5    1  0.4149151E-003  0.9503024E+02  0.7546771E-02  0.1442435E+00
          1   -1    0    0  501    0  0.00000000000E+00  0.00000000000E+00  0.11658547820E+04  0.11658547820E+04  0.00000000000E+00 0. -1.
          3   -1    0    0  502    0 -0.00000000000E+00 -0.00000000000E+00 -0.22733903117E+02  0.22733903117E+02  0.00000000000E+00 0. -1.
         25    1    1    2    0    0  0.76408635775E+02 -0.19962164244E+02  0.42749688885E+03  0.45234429099E+03  0.12500000000E+03 0.  0.
          1    1    1    2  501    0 -0.90261263578E+02  0.43000005224E+02  0.69553820665E+03  0.70268733663E+03  0.00000000000E+00 0. -1.
          3    1    1    2  502    0  0.13852627803E+02 -0.23037840980E+02  0.20085783419E+02  0.33557057524E+02  0.00000000000E+00 0. -1.
<mgrwt>
<rscale>  0 0.50543001E+02</rscale>
<asrwt>0</asrwt>
<pdfrwt beam="1">  1        1 0.17936223E+00 0.95030240E+02</pdfrwt>
<pdfrwt beam="2">  1        3 0.34975245E-02 0.26881916E+02</pdfrwt>
<totfact> 0.19911652E+03</totfact>
</mgrwt>
</event>
<event>
 5    1  0.4149151E-003  0.5783804E+02  0.7546771E-02  0.1491101E+00
          2   -1    0    0  501    0  0.00000000000E+00  0.00000000000E+00  0.58488003901E+03  0.58488003901E+03  0.00000000000E+00 0. -1.
          1   -1    0    0  502    0 -0.00000000000E+00 -0.00000000000E+00 -0.21753011247E+04  0.21753011247E+04  0.00000000000E+00 0. -1.
         25    1    1    2    0    0  0.19563900916E+02 -0.60817264526E+02 -0.14365969649E+03  0.20085963826E+03  0.12500000000E+03 0.  0.
          2    1    1    2  501    0 -0.42251894259E+02  0.39521755393E+02  0.55465452897E+03  0.55766373221E+03  0.00000000000E+00 0. -1.
          1    1    1    2  502    0  0.22687993343E+02  0.21295509134E+02 -0.20014159181E+04  0.20016577932E+04  0.00000000000E+00 0. -1.
<mgrwt>
<rscale>  0 0.42423154E+02</rscale>
<asrwt>0</asrwt>
<pdfrwt beam="1">  1        2 0.89981545E-01 0.57838037E+02</pdfrwt>
<pdfrwt beam="2">  1        1 0.33466171E+00 0.31116615E+02</pdfrwt>
<totfact> 0.25627611E+01</totfact>
</mgrwt>
</event>
<event>
 5    1  0.4149151E-003  0.4924307E+02  0.7546771E-02  0.1497729E+00
          2   -1    0    0  502    0  0.00000000000E+00  0.00000000000E+00  0.59855674591E+03  0.59855674591E+03  0.00000000000E+00 0.  1.
          2   -1    0    0  501    0 -0.00000000000E+00 -0.00000000000E+00 -0.17950126006E+03  0.17950126006E+03  0.00000000000E+00 0.  1.
         25    1    1    2    0    0  0.37659310187E+02  0.14377596426E+02  0.27412829697E+03  0.30396753465E+03  0.12500000000E+03 0.  0.
          2    1    1    2  501    0 -0.45437798701E+02  0.19653010583E+02 -0.15983979366E+03  0.16733079218E+03  0.00000000000E+00 0.  1.
          2    1    1    2  502    0  0.77784885143E+01 -0.34030607009E+02  0.30476698254E+03  0.30675967913E+03  0.00000000000E+00 0.  1.
<mgrwt>
<rscale>  0 0.41460708E+02</rscale>
<asrwt>0</asrwt>
<pdfrwt beam="1">  1        2 0.92085652E-01 0.34908267E+02</pdfrwt>
<pdfrwt beam="2">  1        2 0.27615579E-01 0.49243072E+02</pdfrwt>
<totfact> 0.15080294E+03</totfact>
</mgrwt>
</event>
<event>
 5    1  0.4149151E-003  0.8935526E+02  0.7546771E-02  0.1377692E+00
          1   -1    0    0  502    0 -0.00000000000E+00  0.00000000000E+00  0.24814236466E+03  0.24814236466E+03  0.00000000000E+00 0. -1.
          2   -1    0    0  501    0  0.00000000000E+00 -0.00000000000E+00 -0.35669823511E+04  0.35669823511E+04  0.00000000000E+00 0. -1.
         25    1    1    2    0    0 -0.22687235544E+02 -0.42103834846E+02 -0.17555947356E+03  0.22075681716E+03  0.12500000000E+03 0.  0.
          2    1    1    2  501    0  0.65428013215E+02  0.62577185241E+02 -0.33657192748E+04  0.33669367332E+04  0.00000000000E+00 0. -1.
          1    1    1    2  502    0 -0.42740777671E+02 -0.20473350394E+02  0.22243876193E+03  0.22743116533E+03  0.00000000000E+00 0. -1.
<mgrwt>
<rscale>  0 0.65074259E+02</rscale>
<asrwt>0</asrwt>
<pdfrwt beam="2">  1        2 0.54876653E+00 0.89355264E+02</pdfrwt>
<pdfrwt beam="1">  1        1 0.38175747E-01 0.47391267E+02</pdfrwt>
<totfact> 0.16843412E+01</totfact>
</mgrwt>
</event>
<event>
 5    1  0.4149151E-003  0.5024510E+02  0.7546771E-02  0.1474367E+00
          1   -1    0    0  502    0  0.00000000000E+00  0.00000000000E+00  0.48784978023E+03  0.48784978023E+03  0.00000000000E+00 0. -1.
         -1   -1    0    0    0  501 -0.00000000000E+00 -0.00000000000E+00 -0.13373776323E+03  0.13373776323E+03  0.00000000000E+00 0.  1.
         25    1    1    2    0    0 -0.75890493618E+02 -0.43545984887E+02  0.46668223173E+02  0.15955733413E+03  0.12500000000E+03 0.  0.
          1    1    1    2  502    0  0.36798836890E+02  0.16417659525E+02  0.37623469925E+03  0.37838636717E+03  0.00000000000E+00 0. -1.
         -1    1    1    2    0  501  0.39091656729E+02  0.27128325362E+02 -0.68790905425E+02  0.83643842164E+02  0.00000000000E+00 0.  1.
<mgrwt>
<rscale>  0 0.44995895E+02</rscale>
<asrwt>0</asrwt>
<pdfrwt beam="1">  1        1 0.75053811E-01 0.40295086E+02</pdfrwt>
<pdfrwt beam="2">  1       -1 0.20575041E-01 0.50245098E+02</pdfrwt>
<totfact> 0.88776831E+02</totfact>
</mgrwt>
</event>
<event>
 5    1  0.4149151E-003  0.4762888E+02  0.7546771E-02  0.1462902E+00
          2   -1    0    0  502    0  0.00000000000E+00  0.00000000000E+00  0.26193632429E+03  0.26193632429E+03  0.00000000000E+00 0. -1.
         -1   -1    0    0    0  501 -0.00000000000E+00 -0.00000000000E+00 -0.74291199526E+02  0.74291199526E+02  0.00000000000E+00 0.  1.
         25    1    1    2    0    0  0.35875725415E+02 -0.44036965711E+02  0.15600734791E+02  0.13818359146E+03  0.12500000000E+03 0.  0.
          2    1    1    2  502    0  0.10155488771E+02  0.47402880110E+02  0.11404837513E+03  0.12392416578E+03  0.00000000000E+00 0. -1.
         -1    1    1    2    0  501 -0.46031214186E+02 -0.33659143990E+01  0.57996014843E+02  0.74119766573E+02  0.00000000000E+00 0.  1.
<mgrwt>
<rscale>  0 0.46885696E+02</rscale>
<asrwt>0</asrwt>
<pdfrwt beam="1">  1        2 0.40297896E-01 0.47628875E+02</pdfrwt>
<pdfrwt beam="2">  1       -1 0.11429415E-01 0.46154112E+02</pdfrwt>
<totfact> 0.62601242E+03</totfact>
</mgrwt>
</event>
<event>
 5    1  0.4149151E-003  0.1106998E+03  0.7546771E-02  0.1408780E+00
         -1   -1    0    0    0  501 -0.00000000000E+00  0.00000000000E+00  0.11776256610E+03  0.11776256610E+03  0.00000000000E+00 0.  1.
          3   -1    0    0  502    0  0.00000000000E+00 -0.00000000000E+00 -0.43463523237E+03  0.43463523237E+03  0.00000000000E+00 0. -1.
         25    1    1    2    0    0  0.10430741863E+03 -0.68716254420E+02 -0.92083113172E+02  0.19926429920E+03  0.12500000000E+03 0.  0.
          3    1    1    2  502    0 -0.48900933469E+01  0.29428910659E+02 -0.24288842064E+03  0.24471362585E+03  0.00000000000E+00 0. -1.
         -1    1    1    2    0  501 -0.99417325282E+02  0.39287343761E+02  0.18098867541E+02  0.10841987342E+03  0.00000000000E+00 0.  1.
<mgrwt>
<rscale>  0 0.57466904E+02</rscale>
<asrwt>0</asrwt>
<pdfrwt beam="2">  1        3 0.66866959E-01 0.29832429E+02</pdfrwt>
<pdfrwt beam="1">  1       -1 0.18117318E-01 0.11069984E+03</pdfrwt>
<totfact> 0.20909958E+02</totfact>
</mgrwt>
</event>
<event>
 5    1  0.4149151E-003  0.6902901E+02  0.7546771E-02  0.1473417E+00
         -1   -1    0    0    0  502 -0.00000000000E+00  0.00000000000E+00  0.33407695373E+03  0.33407695373E+03  0.00000000000E+00 0.  1.
         -2   -1    0    0    0  501  0.00000000000E+00 -0.00000000000E+00 -0.49497242889E+03  0.49497242889E+03  0.00000000000E+00 0. -1.
         25    1    1    2    0    0  0.37406288982E+02 -0.63067056062E+02  0.32278250236E+02  0.14847076970E+03  0.12500000000E+03 0.  0.
         -2    1    1    2    0  501  0.18791092998E+02  0.22779016339E+02 -0.43145649695E+03  0.43246583393E+03  0.00000000000E+00 0. -1.
         -1    1    1    2    0  502 -0.56197381980E+02  0.40288039723E+02  0.23828277155E+03  0.24811277900E+03  0.00000000000E+00 0.  1.
<mgrwt>
<rscale>  0 0.45148522E+02</rscale>
<asrwt>0</asrwt>
<pdfrwt beam="2">  1       -2 0.76149605E-01 0.29529456E+02</pdfrwt>
<pdfrwt beam="1">  1       -1 0.51396454E-01 0.69029007E+02</pdfrwt>
<totfact> 0.48451893E+01</totfact>
</mgrwt>
</event>
<event>
 5    1  0.4149151E-003  0.1290060E+03  0.7546771E-02  0.1301745E+00
          1   -1    0    0  501    0  0.00000000000E+00  0.00000000000E+00  0.40816807418E+03  0.40816807418E+03  0.00000000000E+00 0. -1.
          1   -1    0    0  502    0 -0.00000000000E+00 -0.00000000000E+00 -0.19918020930E+04  0.19918020930E+04  0.00000000000E+00 0. -1.
         25    1    1    2    0    0 -0.14595465015E+02  0.18616295809E+03 -0.31322140176E+03  0.38548971593E+03  0.12500000000E+03 0.  0.
          1    1    1    2  501    0  0.27947270593E+02 -0.12415511246E+03  0.36051626745E+03  0.38231861187E+03  0.00000000000E+00 0. -1.
          1    1    1    2  502    0 -0.13351805578E+02 -0.62007845636E+02 -0.16309288845E+04  0.16321618394E+04  0.00000000000E+00 0. -1.
<mgrwt>
<rscale>  0 0.90458436E+02</rscale>
<asrwt>0</asrwt>
<pdfrwt beam="1">  1        1 0.62795088E-01 0.12900602E+03</pdfrwt>
<pdfrwt beam="2">  1        1 0.30643109E+00 0.63429044E+02</pdfrwt>
<totfact> 0.29219805E+01</totfact>
</mgrwt>
</event>
<event>
 5    1  0.4149151E-003  0.8872591E+02  0.7546771E-02  0.1346452E+00
          2   -1    0    0  502    0  0.00000000000E+00  0.00000000000E+00  0.25549167016E+03  0.25549167016E+03  0.00000000000E+00 0. -1.
         -1   -1    0    0    0  501 -0.00000000000E+00 -0.00000000000E+00 -0.40614168681E+03  0.40614168681E+03  0.00000000000E+00 0.  1.
         25    1    1    2    0    0  0.40109691935E+02  0.55824955819E+02 -0.83868608840E+02  0.16548159000E+03  0.12500000000E+03 0.  0.
          2    1    1    2  502    0  0.52732764685E+02 -0.32620747269E+02  0.20175728696E+03  0.21107074754E+03  0.00000000000E+00 0. -1.
         -1    1    1    2    0  501 -0.92842456620E+02 -0.23204208550E+02 -0.26853869478E+03  0.28508101943E+03  0.00000000000E+00 0.  1.
<mgrwt>
<rscale>  0 0.74172907E+02</rscale>
<asrwt>0</asrwt>
<pdfrwt beam="1">  1        2 0.39306411E-01 0.62006916E+02</pdfrwt>
<pdfrwt beam="2">  1       -1 0.62483336E-01 0.88725910E+02</pdfrwt>
<totfact> 0.40224371E+02</totfact>
</mgrwt>
</event>
<event>
 5    1  0.4149151E-003  0.1110767E+03  0.7546771E-02  0.1307507E+00
          3   -1    0    0  502    0 -0.00000000000E+00  0.00000000000E+00  0.22373047199E+02  0.22373047199E+02  0.00000000000E+00 0. -1.
          2   -1    0    0  501    0  0.00000000000E+00 -0.00000000000E+00 -0.18889492348E+04  0.18889492348E+04  0.00000000000E+00 0.  1.
         25    1    1    2    0    0  0.15318475960E+03 -0.40348748887E+02 -0.95696762068E+03  0.97801105267E+03  0.12500000000E+03 0.  0.
          2    1    1    2  501    0 -0.98403389011E+02 -0.30422118283E+01 -0.77886572280E+03  0.78506324342E+03  0.00000000000E+00 0.  1.
          3    1    1    2  502    0 -0.54781370590E+02  0.43390960715E+02 -0.13074284409E+03  0.14824798588E+03  0.00000000000E+00 0. -1.
<mgrwt>
<rscale>  0 0.88104970E+02</rscale>
<asrwt>0</asrwt>
<pdfrwt beam="2">  1        2 0.29060759E+00 0.11107672E+03</pdfrwt>
<pdfrwt beam="1">  1        3 0.34420071E-02 0.69884004E+02</pdfrwt>
<totfact> 0.20129728E+03</totfact>
</mgrwt>
</event>
<event>
 5    1  0.4149151E-003  0.6544888E+02  0.7546771E-02  0.1489290E+00
          1   -1    0    0  502    0  0.00000000000E+00  0.00000000000E+00  0.20349870276E+04  0.20349870276E+04  0.00000000000E+00 0. -1.
         -2   -1    0    0    0  501 -0.00000000000E+00 -0.00000000000E+00 -0.83511243781E+01  0.83511243781E+01  0.00000000000E+00 0.  1.
         25    1    1    2    0    0  0.29352964971E+02 -0.80842889247E+02  0.12909957500E+04  0.12998816083E+04  0.12500000000E+03 0.  0.
          1    1    1    2  502    0 -0.13678279697E+02  0.57826145468E+02  0.66306466852E+03  0.66572194877E+03  0.00000000000E+00 0. -1.
         -2    1    1    2    0  501 -0.15674685274E+02  0.23016743780E+02  0.72575484689E+02  0.77734594811E+02  0.00000000000E+00 0.  1.
<mgrwt>
<rscale>  0 0.42691542E+02</rscale>
<asrwt>0</asrwt>
<pdfrwt beam="1">  1        1 0.31307453E+00 0.65448883E+02</pdfrwt>
<pdfrwt beam="2">  1       -2 0.12847900E-02 0.27847195E+02</pdfrwt>
<totfact> 0.34626062E+03</totfact>
</mgrwt>
</event>
<event>
 5    1  0.4149151E-003  0.1716177E+03  0.7546771E-02  0.1179798E+00
          1   -1    0    0  501    0  0.00000000000E+00  0.00000000000E+00  0.57455764585E+03  0.57455764585E+03  0.00000000000E+00 0. -1.
          1   -1    0    0  502    0 -0.00000000000E+00 -0.00000000000E+00 -0.23460594078E+03  0.23460594078E+03  0.00000000000E+00 0. -1.
         25    1    1    2    0    0  0.14338848728E+01  0.80577169888E+02  0.20265611334E+02  0.15010140351E+03  0.12500000000E+03 0.  0.
          1    1    1    2  501    0 -0.16812286337E+03 -0.12141107656E+03  0.41414594365E+03  0.46316607102E+03  0.00000000000E+00 0. -1.
          1    1    1    2  502    0  0.16668897850E+03  0.40833906668E+02 -0.94459849918E+02  0.19589611209E+03  0.00000000000E+00 0. -1.
<mgrwt>
<rscale>  0 0.16814365E+03</rscale>
<asrwt>0</asrwt>
<pdfrwt beam="1">  1        1 0.88393484E-01 0.16473995E+03</pdfrwt>
<pdfrwt beam="2">  1        1 0.36093222E-01 0.17161767E+03</pdfrwt>
<totfact> 0.54167023E+02</totfact>
</mgrwt>
</event>
<event>
 5    1  0.4149151E-003  0.8621444E+02  0.7546771E-02  0.1374701E+00
          2   -1    0    0  501    0  0.00000000000E+00  0.00000000000E+00  0.21652836346E+03  0.21652836346E+03  0.00000000000E+00 0. -1.
          2   -1    0    0  502    0 -0.00000000000E+00 -0.00000000000E+00 -0.48647505327E+03  0.48647505327E+03  0.00000000000E+00 0. -1.
         25    1    1    2    0    0 -0.36607946258E+02  0.26082999581E+02 -0.10112053292E+03  0.16694558028E+03  0.12500000000E+03 0.  0.
          2    1    1    2  501    0 -0.30964386628E+02  0.39687493443E+02  0.17366994592E+03  0.18081797612E+03  0.00000000000E+00 0. -1.
          2    1    1    2  502    0  0.67572332886E+02 -0.65770493024E+02 -0.34249610281E+03  0.35523986033E+03  0.00000000000E+00 0. -1.
<mgrwt>
<rscale>  0 0.65877476E+02</rscale>
<asrwt>0</asrwt>
<pdfrwt beam="1">  1        2 0.33312056E-01 0.50337763E+02</pdfrwt>
<pdfrwt beam="2">  1        2 0.74842315E-01 0.86214435E+02</pdfrwt>
<totfact> 0.15262876E+03</totfact>
</mgrwt>
</event>
<event>
 5    1  0.4149151E-003  0.4574922E+02  0.7546771E-02  0.1499780E+00
          1   -1    0    0  502    0  0.00000000000E+00  0.00000000000E+00  0.29629327653E+04  0.29629327653E+04  0.00000000000E+00 0. -1.
         -2   -1    0    0    0  501 -0.00000000000E+00 -0.00000000000E+00 -0.41021364877E+01  0.41021364877E+01  0.00000000000E+00 0.  1.
         25    1    1    2    0    0  0.78683987243E+01 -0.40990760968E+02  0.17482741832E+04  0.17532340899E+04  0.12500000000E+03 0.  0.
          1    1    1    2  502    0  0.34588598796E+02  0.13271959343E+02  0.59994156166E+03  0.60108434806E+03  0.00000000000E+00 0. -1.
         -2    1    1    2    0  501 -0.42456997520E+02  0.27718801625E+02  0.61061488394E+03  0.61271646386E+03  0.00000000000E+00 0.  1.
<mgrwt>
<rscale>  0 0.41169083E+02</rscale>
<asrwt>0</asrwt>
<pdfrwt beam="1">  1        1 0.45583410E+00 0.37047484E+02</pdfrwt>
<pdfrwt beam="2">  1       -2 0.63110029E-03 0.45749218E+02</pdfrwt>
<totfact> 0.28979494E+03</totfact>
</mgrwt>
</event>
<event>
 5    1  0.4149151E-003  0.3071935E+03  0.7546771E-02  0.1195781E+00
          2   -1    0    0  502    0  0.00000000000E+00  0.00000000000E+00  0.30792454219E+03  0.30792454219E+03  0.00000000000E+00 0. -1.
         -2   -1    0    0    0  501 -0.00000000000E+00 -0.00000000000E+00 -0.82799035402E+03  0.82799035402E+03  0.00000000000E+00 0.  1.
         25    1    1    2    0    0 -0.34650375331E+02 -0.26214002119E+03 -0.20366411232E+03  0.35640161316E+03  0.12500000000E+03 0.  0.
          2    1    1    2  502    0  0.19305521692E+02 -0.74628432546E+02  0.17060370337E+03  0.18721038891E+03  0.00000000000E+00 0. -1.
         -2    1    1    2    0  501  0.15344853638E+02  0.33676845374E+03 -0.48700540289E+03  0.59230289414E+03  0.00000000000E+00 0.  1.
<mgrwt>
<rscale>  0 0.15388318E+03</rscale>
<asrwt>0</asrwt>
<pdfrwt beam="1">  1        2 0.47373008E-01 0.77085058E+02</pdfrwt>
<pdfrwt beam="2">  1       -2 0.12738313E+00 0.30719355E+03</pdfrwt>
<totfact> 0.50964947E+01</totfact>
</mgrwt>
</event>
<event>
 5    1  0.4149151E-003  0.1319813E+03  0.7546771E-02  0.1315816E+00
          1   -1    0    0  502    0  0.00000000000E+00  0.00000000000E+00  0.93994948282E+03  0.93994948282E+03  0.00000000000E+00 0. -1.
          1   -1    0    0  501    0 -0.00000000000E+00 -0.00000000000E+00 -0.30013658560E+03  0.30013658560E+03  0.00000000000E+00 0. -1.
         25    1    1    2    0    0  0.63027860237E+02 -0.65195268354E+02  0.19421101119E+03  0.24812466836E+03  0.12500000000E+03 0.  0.
          1    1    1    2  501    0  0.49139526298E+02 -0.23694721926E+02 -0.26323091055E+03  0.26882456205E+03  0.00000000000E+00 0. -1.
          1    1    1    2  502    0 -0.11216738654E+03  0.88889990280E+02  0.70883279658E+03  0.72313683801E+03  0.00000000000E+00 0. -1.
<mgrwt>
<rscale>  0 0.84853393E+02</rscale>
<asrwt>0</asrwt>
<pdfrwt beam="1">  1        1 0.14460761E+00 0.13198126E+03</pdfrwt>
<pdfrwt beam="2">  1        1 0.46174860E-01 0.54553945E+02</pdfrwt>
<totfact> 0.19511071E+02</totfact>
</mgrwt>
</event>
<event>
 5    1  0.4149151E-003  0.1020084E+03  0.7546771E-02  0.1277850E+00
          2   -1    0    0  501    0  0.00000000000E+00  0.00000000000E+00  0.14906408428E+03  0.14906408428E+03  0.00000000000E+00 0. -1.
          1   -1    0    0  502    0 -0.00000000000E+00 -0.00000000000E+00 -0.81498573811E+03  0.81498573811E+03  0.00000000000E+00 0. -1.
         25    1    1    2    0    0  0.86954317855E+01 -0.10295750231E+02  0.35130120489E+02  0.13054017915E+03  0.12500000000E+03 0.  0.
          2    1    1    2  501    0 -0.44084342303E+02 -0.90140649383E+02  0.21943173272E+02  0.10271450122E+03  0.00000000000E+00 0. -1.
          1    1    1    2  502    0  0.35388910518E+02  0.10043639961E+03 -0.72299494759E+03  0.73079514202E+03  0.00000000000E+00 0. -1.
<mgrwt>
<rscale>  0 0.10117241E+03</rscale>
<asrwt>0</asrwt>
<pdfrwt beam="1">  1        2 0.22932936E-01 0.10034324E+03</pdfrwt>
<pdfrwt beam="2">  1        1 0.12538242E+00 0.10200843E+03</pdfrwt>
<totfact> 0.73756544E+02</totfact>
</mgrwt>
</event>
<event>
 5    1  0.4149151E-003  0.8080009E+02  0.7546771E-02  0.1474881E+00
         -1   -1    0    0    0  501 -0.00000000000E+00  0.00000000000E+00  0.22148209561E+02  0.22148209561E+02  0.00000000000E+00 0.  1.
          2   -1    0    0  502    0  0.00000000000E+00 -0.00000000000E+00 -0.83442025035E+03  0.83442025035E+03  0.00000000000E+00 0. -1.
         25    1    1    2    0    0  0.13266539772E+02 -0.87577447589E+02 -0.45277996326E+03  0.47799634469E+03  0.12500000000E+03 0.  0.
          2    1    1    2  502    0  0.19262015640E+02  0.15882900268E+02 -0.19064201984E+03  0.19226978831E+03  0.00000000000E+00 0. -1.
         -1    1    1    2    0  501 -0.32528555413E+02  0.71694547321E+02 -0.16885005768E+03  0.18630232690E+03  0.00000000000E+00 0.  1.
<mgrwt>
<rscale>  0 0.44913692E+02</rscale>
<asrwt>0</asrwt>
<pdfrwt beam="2">  1        2 0.12837234E+00 0.24965812E+02</pdfrwt>
<pdfrwt beam="1">  1       -1 0.34074171E-02 0.80800086E+02</pdfrwt>
<totfact> 0.11590936E+04</totfact>
</mgrwt>
</event>
<event>
 5    1  0.4149151E-003  0.1109525E+03  0.7546771E-02  0.1349758E+00
         -1   -1    0    0    0  501  0.00000000000E+00  0.00000000000E+00  0.30318850761E+03  0.30318850761E+03  0.00000000000E+00 0.  1.
         -1   -1    0    0    0  502 -0.00000000000E+00 -0.00000000000E+00 -0.11857155658E+03  0.11857155658E+03  0.00000000000E+00 0.  1.
         25    1    1    2    0    0  0.62880564605E+02  0.71973144205E+02  0.15039378341E+02  0.15806733310E+03  0.12500000000E+03 0.  0.
         -1    1    1    2    0  501  0.48192789596E+02 -0.95349273414E+00  0.10782657858E+03  0.11811022464E+03  0.00000000000E+00 0.  1.
         -1    1    1    2    0  502 -0.11107335420E+03 -0.71019651471E+02  0.61750994109E+02  0.14558250644E+03  0.00000000000E+00 0.  1.
<mgrwt>
<rscale>  0 0.73131087E+02</rscale>
<asrwt>0</asrwt>
<pdfrwt beam="1">  1       -1 0.46644385E-01 0.48202221E+02</pdfrwt>
<pdfrwt beam="2">  1       -1 0.18241778E-01 0.11095248E+03</pdfrwt>
<totfact> 0.89971499E+02</totfact>
</mgrwt>
</event>
<event>
 5    1  0.4149151E-003  0.1221495E+03  0.7546771E-02  0.1364993E+00
          3   -1    0    0  502    0  0.00000000000E+00  0.00000000000E+00  0.12633594471E+03  0.12633594471E+03  0.00000000000E+00 0. -1.
         -1   -1    0    0    0  501 -0.00000000000E+00 -0.00000000000E+00 -0.31237830003E+03  0.31237830003E+03  0.00000000000E+00 0.  1.
         25    1    1    2    0    0 -0.11533203892E+03  0.28037722170E+02 -0.40612134379E+02  0.17709302224E+03  0.12500000000E+03 0.  0.
          3    1    1    2  502    0  0.93796659065E+01  0.37342739165E+02  0.28372361409E+02  0.47827285024E+02  0.00000000000E+00 0. -1.
         -1    1    1    2    0  501  0.10595237301E+03 -0.65380461335E+02 -0.17380258235E+03  0.21379393748E+03  0.00000000000E+00 0.  1.
<mgrwt>
<rscale>  0 0.68579055E+02</rscale>
<asrwt>0</asrwt>
<pdfrwt beam="1">  1        3 0.19436299E-01 0.38502705E+02</pdfrwt>
<pdfrwt beam="2">  1       -1 0.48058200E-01 0.12214952E+03</pdfrwt>
<totfact> 0.40652952E+02</totfact>
</mgrwt>
</event>
<event>
 5    1  0.4149151E-003  0.2315429E+03  0.7546771E-02  0.1234292E+00
          2   -1    0    0  502    0  0.00000000000E+00  0.00000000000E+00  0.11959305756E+04  0.11959305756E+04  0.00000000000E+00 0. -1.
          2   -1    0    0  501    0 -0.00000000000E+00 -0.00000000000E+00 -0.10744676508E+04  0.10744676508E+04  0.00000000000E+00 0.  1.
         25    1    1    2    0    0  0.12392541709E+03 -0.25394337042E+03  0.14554190711E+03  0.34154383482E+03  0.12500000000E+03 0.  0.
          2    1    1    2  501    0 -0.55203771445E+02  0.39742244958E+02 -0.96196529120E+03  0.96436721424E+03  0.00000000000E+00 0.  1.
          2    1    1    2  502    0 -0.68721645650E+02  0.21420112546E+03  0.93788630895E+03  0.96448717734E+03  0.00000000000E+00 0. -1.
<mgrwt>
<rscale>  0 0.12549843E+03</rscale>
<asrwt>0</asrwt>
<pdfrwt beam="1">  1        2 0.18398932E+00 0.23154287E+03</pdfrwt>
<pdfrwt beam="2">  1        2 0.16530272E+00 0.68021338E+02</pdfrwt>
<totfact> 0.81057702E+01</totfact>
</mgrwt>
</event>
<event>
 5    1  0.4149151E-003  0.1006042E+03  0.7546771E-02  0.1371437E+00
          2   -1    0    0  501    0  0.00000000000E+00  0.00000000000E+00  0.20015238258E+04  0.20015238258E+04  0.00000000000E+00 0. -1.
          2   -1    0    0  502    0 -0.00000000000E+00 -0.00000000000E+00 -0.18401756970E+04  0.18401756970E+04  0.00000000000E+00 0. -1.
         25    1    1    2    0    0  0.11532580501E+03 -0.42611431169E+02 -0.66492681642E+03  0.68765430745E+03  0.12500000000E+03 0.  0.
          2    1    1    2  501    0 -0.10057247485E+03  0.82585728696E+00  0.19884668623E+04  0.19910087813E+04  0.00000000000E+00 0. -1.
          2    1    1    2  502    0 -0.14753330153E+02  0.41785573882E+02 -0.11621919171E+04  0.11630364341E+04  0.00000000000E+00 0. -1.
<mgrwt>
<rscale>  0 0.66769264E+02</rscale>
<asrwt>0</asrwt>
<pdfrwt beam="1">  1        2 0.30792674E+00 0.10060421E+03</pdfrwt>
<pdfrwt beam="2">  1        2 0.28310395E+00 0.44313598E+02</pdfrwt>
<totfact> 0.13931110E+01</totfact>
</mgrwt>
</event>
<event>
 5    1  0.4149151E-003  0.5121961E+02  0.7546771E-02  0.1487467E+00
         -1   -1    0    0    0  501 -0.00000000000E+00  0.00000000000E+00  0.98475034039E+01  0.98475034039E+01  0.00000000000E+00 0.  1.
          2   -1    0    0  502    0  0.00000000000E+00 -0.00000000000E+00 -0.13003303206E+04  0.13003303206E+04  0.00000000000E+00 0. -1.
         25    1    1    2    0    0  0.20947775997E+02 -0.42146840573E+02 -0.77623778739E+03  0.78764539488E+03  0.12500000000E+03 0.  0.
          2    1    1    2  502    0  0.12636948583E+02  0.55219324872E+02 -0.31093231289E+03  0.31605026422E+03  0.00000000000E+00 0. -1.
         -1    1    1    2    0  501 -0.33584724579E+02 -0.13072484299E+02 -0.20331271689E+03  0.20648216489E+03  0.00000000000E+00 0.  1.
<mgrwt>
<rscale>  0 0.42964095E+02</rscale>
<asrwt>0</asrwt>
<pdfrwt beam="2">  1        2 0.20005068E+00 0.51219608E+02</pdfrwt>
<pdfrwt beam="1">  1       -1 0.15150016E-02 0.36039195E+02</pdfrwt>
<totfact> 0.17192206E+04</totfact>
</mgrwt>
</event>
<event>
 5    1  0.4149151E-003  0.8336813E+02  0.7546771E-02  0.1483135E+00
          2   -1    0    0  501    0  0.00000000000E+00  0.00000000000E+00  0.16096340491E+04  0.16096340491E+04  0.00000000000E+00 0. -1.
          1   -1    0    0  502    0 -0.00000000000E+00 -0.00000000000E+00 -0.11143820962E+03  0.11143820962E+03  0.00000000000E+00 0. -1.
         25    1    1    2    0    0  0.43289813920E+02  0.47733792023E+02  0.88324850659E+03  0.89437433287E+03  0.12500000000E+03 0.  0.
          2    1    1    2  501    0  0.19326751595E+01  0.22742616568E+02  0.70405150973E+03  0.70442138681E+03  0.00000000000E+00 0. -1.
          1    1    1    2  502    0 -0.45222489079E+02 -0.70476408591E+02 -0.89104176798E+02  0.12227653908E+03  0.00000000000E+00 0. -1.
<mgrwt>
<rscale>  0 0.43621592E+02</rscale>
<asrwt>0</asrwt>
<pdfrwt beam="1">  1        2 0.24763599E+00 0.22824589E+02</pdfrwt>
<pdfrwt beam="2">  1        1 0.17144341E-01 0.83368133E+02</pdfrwt>
<totfact> 0.60710200E+02</totfact>
</mgrwt>
</event>
<event>
 5    1  0.4149151E-003  0.2764654E+02  0.7546771E-02  0.1674048E+00
          2   -1    0    0  501    0  0.00000000000E+00  0.00000000000E+00  0.33666730999E+03  0.33666730999E+03  0.00000000000E+00 0. -1.
          1   -1    0    0  502    0 -0.00000000000E+00 -0.00000000000E+00 -0.18377349999E+04  0.18377349999E+04  0.00000000000E+00 0. -1.
         25    1    1    2    0    0 -0.65534089563E+01  0.48720990312E+01  0.74964143311E+02  0.14598392823E+03  0.12500000000E+03 0.  0.
          2    1    1    2  501    0 -0.20950541944E+02 -0.18788987960E+01  0.22559781400E+03  0.22657632080E+03  0.00000000000E+00 0. -1.
          1    1    1    2  502    0  0.27503950900E+02 -0.29932002352E+01 -0.18016296472E+04  0.18018420609E+04  0.00000000000E+00 0. -1.
<mgrwt>
<rscale>  0 0.24115027E+02</rscale>
<asrwt>0</asrwt>
<pdfrwt beam="1">  1        2 0.51794971E-01 0.21034625E+02</pdfrwt>
<pdfrwt beam="2">  1        1 0.28272846E+00 0.27646535E+02</pdfrwt>
<totfact> 0.73332888E+01</totfact>
</mgrwt>
</event>
<event>
 5    1  0.4149151E-003  0.7592393E+02  0.7546771E-02  0.1490213E+00
         -2   -1    0    0    0  501 -0.00000000000E+00  0.00000000000E+00  0.57880677232E+02  0.57880677232E+02  0.00000000000E+00 0.  1.
          2   -1    0    0  502    0  0.00000000000E+00 -0.00000000000E+00 -0.42945184009E+03  0.42945184009E+03  0.00000000000E+00 0.  1.
         25    1    1    2    0    0 -0.56482786459E+02  0.14323580723E+02 -0.19189281630E+03  0.23631191904E+03  0.12500000000E+03 0.  0.
          2    1    1    2  502    0 -0.17076702670E+02  0.16651386984E+02 -0.16878929863E+03  0.17046615440E+03  0.00000000000E+00 0.  1.
         -2    1    1    2    0  501  0.73559489130E+02 -0.30974967707E+02 -0.10889047928E+02  0.80554443889E+02  0.00000000000E+00 0.  1.
<mgrwt>
<rscale>  0 0.42554450E+02</rscale>
<asrwt>0</asrwt>
<pdfrwt beam="2">  1        2 0.66069513E-01 0.23851257E+02</pdfrwt>
<pdfrwt beam="1">  1       -2 0.89047196E-02 0.75923932E+02</pdfrwt>
<totfact> 0.54736385E+03</totfact>
</mgrwt>
</event>
<event>
 5    1  0.4149151E-003  0.9263361E+02  0.7546771E-02  0.1383468E+00
         -1   -1    0    0    0  501 -0.00000000000E+00  0.00000000000E+00  0.39107383893E+02  0.39107383893E+02  0.00000000000E+00 0.  1.
          2   -1    0    0  502    0  0.00000000000E+00 -0.00000000000E+00 -0.99103965102E+03  0.99103965102E+03  0.00000000000E+00 0. -1.
         25    1    1    2    0    0  0.38834536067E+02  0.10745035683E+03 -0.82547190328E+03  0.84266396830E+03  0.12500000000E+03 0.  0.
          2    1    1    2  502    0  0.20584765631E+02 -0.38448845781E+02 -0.62471043759E+02  0.76188434990E+02  0.00000000000E+00 0. -1.
         -1    1    1    2    0  501 -0.59419301699E+02 -0.69001511049E+02 -0.63989320087E+02  0.11129463162E+03  0.00000000000E+00 0.  1.
<mgrwt>
<rscale>  0 0.63560832E+02</rscale>
<asrwt>0</asrwt>
<pdfrwt beam="2">  1        2 0.15246764E+00 0.43612456E+02</pdfrwt>
<pdfrwt beam="1">  1       -1 0.60165207E-02 0.92633612E+02</pdfrwt>
<totfact> 0.40530258E+03</totfact>
</mgrwt>
</event>
<event>
 5    1  0.4149151E-003  0.7484262E+02  0.7546771E-02  0.1394696E+00
          2   -1    0    0  502    0  0.00000000000E+00  0.00000000000E+00  0.45767217882E+03  0.45767217882E+03  0.00000000000E+00 0. -1.
         -2   -1    0    0    0  501 -0.00000000000E+00 -0.00000000000E+00 -0.42021710933E+02  0.42021710933E+02  0.00000000000E+00 0.  1.
         25    1    1    2    0    0 -0.71833476578E+02  0.40189179990E+02  0.23996339432E+03  0.28281203857E+03  0.12500000000E+03 0.  0.
          2    1    1    2  502    0  0.75788682828E+02  0.89688652194E+01  0.12267895729E+03  0.14448007319E+03  0.00000000000E+00 0. -1.
         -2    1    1    2    0  501 -0.39552062501E+01 -0.49158045209E+02  0.53008116279E+02  0.72401777995E+02  0.00000000000E+00 0.  1.
<mgrwt>
<rscale>  0 0.60753654E+02</rscale>
<asrwt>0</asrwt>
<pdfrwt beam="1">  1        2 0.70411101E-01 0.74842622E+02</pdfrwt>
<pdfrwt beam="2">  1       -2 0.64648789E-02 0.49316904E+02</pdfrwt>
<totfact> 0.79463579E+03</totfact>
</mgrwt>
</event>
<event>
 5    1  0.4149151E-003  0.3792202E+02  0.7546771E-02  0.1557940E+00
          2   -1    0    0  501    0  0.00000000000E+00  0.00000000000E+00  0.23323111674E+04  0.23323111674E+04  0.00000000000E+00 0.  1.
          1   -1    0    0  502    0 -0.00000000000E+00 -0.00000000000E+00 -0.22383257058E+03  0.22383257058E+03  0.00000000000E+00 0. -1.
         25    1    1    2    0    0 -0.28547964640E+02 -0.61683054633E+02  0.37061768594E+03  0.39699150450E+03  0.12500000000E+03 0.  0.
          2    1    1    2  501    0  0.10082809921E+02  0.28711359818E+02  0.19466918002E+04  0.19469296265E+04  0.00000000000E+00 0.  1.
          1    1    1    2  502    0  0.18465154720E+02  0.32971694815E+02 -0.20883088935E+03  0.21222260705E+03  0.00000000000E+00 0. -1.
<mgrwt>
<rscale>  0 0.33970277E+02</rscale>
<asrwt>0</asrwt>
<pdfrwt beam="1">  1        2 0.35881709E+00 0.30430334E+02</pdfrwt>
<pdfrwt beam="2">  1        1 0.34435781E-01 0.37922019E+02</pdfrwt>
<totfact> 0.11100727E+02</totfact>
</mgrwt>
</event>
<event>
 5    1  0.4149151E-003  0.3957058E+02  0.7546771E-02  0.1539829E+00
         -1   -1    0    0    0  501 -0.00000000000E+00  0.00000000000E+00  0.68932175798E+03  0.68932175798E+03  0.00000000000E+00 0.  1.
          2   -1    0    0  502    0  0.00000000000E+00 -0.00000000000E+00 -0.15485119056E+02  0.15485119056E+02  0.00000000000E+00 0. -1.
         25    1    1    2    0    0  0.15492424818E+02  0.20954258480E+01  0.44208747318E+03  0.45968547941E+03  0.12500000000E+03 0.  0.
          2    1    1    2  502    0 -0.45924057915E+02  0.10050055460E+02  0.13118407772E+03  0.13935309454E+03  0.00000000000E+00 0. -1.
         -1    1    1    2    0  501  0.30431633096E+02 -0.12145481308E+02  0.10056508803E+03  0.10576830309E+03  0.00000000000E+00 0.  1.
<mgrwt>
<rscale>  0 0.36007795E+02</rscale>
<asrwt>0</asrwt>
<pdfrwt beam="2">  1        2 0.23823265E-02 0.39570579E+02</pdfrwt>
<pdfrwt beam="1">  1       -1 0.10604948E+00 0.32765790E+02</pdfrwt>
<totfact> 0.37705773E+03</totfact>
</mgrwt>
</event>
<event>
 5    1  0.4149151E-003  0.5848125E+02  0.7546771E-02  0.1450579E+00
          2   -1    0    0  502    0  0.00000000000E+00  0.00000000000E+00  0.25533392883E+04  0.25533392883E+04  0.00000000000E+00 0. -1.
         -1   -1    0    0    0  501 -0.00000000000E+00 -0.00000000000E+00 -0.47385413858E+02  0.47385413858E+02  0.00000000000E+00 0.  1.
         25    1    1    2    0    0 -0.55367518927E+02  0.79361805023E+02  0.51656796367E+03  0.54021414212E+03  0.12500000000E+03 0.  0.
          2    1    1    2  502    0  0.25301903225E+02 -0.51300855902E+02  0.20125143286E+04  0.20133270690E+04  0.00000000000E+00 0. -1.
         -1    1    1    2    0  501  0.30065615702E+02 -0.28060949120E+02 -0.23128417820E+02  0.47183491010E+02  0.00000000000E+00 0.  1.
<mgrwt>
<rscale>  0 0.49041890E+02</rscale>
<asrwt>0</asrwt>
<pdfrwt beam="1">  1        2 0.39282132E+00 0.58481246E+02</pdfrwt>
<pdfrwt beam="2">  1       -1 0.72900656E-02 0.41126124E+02</pdfrwt>
<totfact> 0.44948737E+02</totfact>
</mgrwt>
</event>
<event>
 5    1  0.4149151E-003  0.8371534E+02  0.7546771E-02  0.1323269E+00
          1   -1    0    0  501    0  0.00000000000E+00  0.00000000000E+00  0.73504744724E+02  0.73504744724E+02  0.00000000000E+00 0. -1.
          3   -1    0    0  502    0 -0.00000000000E+00 -0.00000000000E+00 -0.39269164519E+03  0.39269164519E+03  0.00000000000E+00 0. -1.
         25    1    1    2    0    0  0.20442932643E+02 -0.16100361630E+02 -0.16754584699E+03  0.21065076782E+03  0.12500000000E+03 0.  0.
          1    1    1    2  501    0 -0.61930578738E+02  0.85042781294E+02 -0.29460503070E+02  0.10925013718E+03  0.00000000000E+00 0. -1.
          3    1    1    2  502    0  0.41487646096E+02 -0.68942419664E+02 -0.12218055041E+03  0.14629548491E+03  0.00000000000E+00 0. -1.
<mgrwt>
<rscale>  0 0.82073023E+02</rscale>
<asrwt>0</asrwt>
<pdfrwt beam="1">  1        1 0.11308422E-01 0.83715341E+02</pdfrwt>
<pdfrwt beam="2">  1        3 0.60414098E-01 0.80462923E+02</pdfrwt>
<totfact> 0.71912501E+02</totfact>
</mgrwt>
</event>
<event>
 5    1  0.4149151E-003  0.7678553E+02  0.7546771E-02  0.1465563E+00
          1   -1    0    0  502    0  0.00000000000E+00  0.00000000000E+00  0.89183776743E+03  0.89183776743E+03  0.00000000000E+00 0. -1.
         -1   -1    0    0    0  501 -0.00000000000E+00 -0.00000000000E+00 -0.94857320524E+02  0.94857320524E+02  0.00000000000E+00 0.  1.
         25    1    1    2    0    0  0.74575067423E+02  0.56206556983E+02  0.15170068407E+03  0.21762057641E+03  0.12500000000E+03 0.  0.
          1    1    1    2  502    0 -0.27961448008E+02  0.26187191657E+01  0.68403024680E+03  0.68460651385E+03  0.00000000000E+00 0. -1.
         -1    1    1    2    0  501 -0.46613619415E+02 -0.58825276149E+02 -0.38750483959E+02  0.84467997703E+02  0.00000000000E+00 0.  1.
<mgrwt>
<rscale>  0 0.46437377E+02</rscale>
<asrwt>0</asrwt>
<pdfrwt beam="1">  1        1 0.13720580E+00 0.28083808E+02</pdfrwt>
<pdfrwt beam="2">  1       -1 0.14593435E-01 0.76785525E+02</pdfrwt>
<totfact> 0.70309366E+02</totfact>
</mgrwt>
</event>
<event>
 5    1  0.4149151E-003  0.1444402E+03  0.7546771E-02  0.1415525E+00
         -2   -1    0    0    0  501 -0.00000000000E+00  0.00000000000E+00  0.16723000401E+04  0.16723000401E+04  0.00000000000E+00 0. -1.
          1   -1    0    0  502    0  0.00000000000E+00 -0.00000000000E+00 -0.30683994125E+03  0.30683994125E+03  0.00000000000E+00 0. -1.
         25    1    1    2    0    0  0.12523247637E+03 -0.14250030606E+02  0.73453334831E+02  0.19211098071E+03  0.12500000000E+03 0.  0.
          1    1    1    2  502    0 -0.14690112761E+03  0.13177651895E+02 -0.22545435457E+03  0.26941280185E+03  0.00000000000E+00 0. -1.
         -2    1    1    2    0  501  0.21668651244E+02  0.10723787103E+01  0.15174611185E+04  0.15176161988E+04  0.00000000000E+00 0. -1.
<mgrwt>
<rscale>  0 0.55979047E+02</rscale>
<asrwt>0</asrwt>
<pdfrwt beam="2">  1        1 0.47206146E-01 0.14444015E+03</pdfrwt>
<pdfrwt beam="1">  1       -2 0.25727692E+00 0.21695171E+02</pdfrwt>
<totfact> 0.62420831E+00</totfact>
</mgrwt>
</event>
<event>
 5    1  0.1223514E-002  0.1145435E+03  0.7546771E-02  0.1313294E+00
          2   -1    0    0  502    0  0.00000000000E+00  0.00000000000E+00  0.25124049361E+03  0.25124049361E+03  0.00000000000E+00 0. -1.
         -1   -1    0    0    0  501 -0.00000000000E+00 -0.00000000000E+00 -0.14402256697E+03  0.14402256697E+03  0.00000000000E+00 0.  1.
         25    1    1    2    0    0 -0.88418652550E+02  0.13131553563E+03  0.71113395601E+02  0.21387786947E+03  0.12500000000E+03 0.  0.
          2    1    1    2  502    0  0.53145907590E+02 -0.36201152763E+02  0.46579183809E+02  0.79401708541E+02  0.00000000000E+00 0. -1.
         -1    1    1    2    0  501  0.35272744960E+02 -0.95114382867E+02 -0.10474652779E+02  0.10198348257E+03  0.00000000000E+00 0.  1.
<mgrwt>
<rscale>  0 0.85823125E+02</rscale>
<asrwt>0</asrwt>
<pdfrwt beam="1">  1        2 0.38652384E-01 0.64304051E+02</pdfrwt>
<pdfrwt beam="2">  1       -1 0.22157318E-01 0.11454346E+03</pdfrwt>
<totfact> 0.24686169E+03</totfact>
</mgrwt>
</event>
<event>
 5    1  0.4149151E-003  0.3022747E+03  0.7546771E-02  0.1273876E+00
         -3   -1    0    0    0  501 -0.00000000000E+00  0.00000000000E+00  0.29744740705E+03  0.29744740705E+03  0.00000000000E+00 0.  1.
          1   -1    0    0  502    0  0.00000000000E+00 -0.00000000000E+00 -0.13991112490E+04  0.13991112490E+04  0.00000000000E+00 0. -1.
         25    1    1    2    0    0  0.22782622678E+03 -0.16962066244E+03 -0.90092959184E+02  0.32313727737E+03  0.12500000000E+03 0.  0.
          1    1    1    2  502    0  0.35033316326E+02 -0.31695222036E+01 -0.10552512948E+04  0.10558374280E+04  0.00000000000E+00 0. -1.
         -3    1    1    2    0  501 -0.26285954310E+03  0.17279018464E+03  0.43680412097E+02  0.31758395065E+03  0.00000000000E+00 0.  1.
<mgrwt>
<rscale>  0 0.10311612E+03</rscale>
<asrwt>0</asrwt>
<pdfrwt beam="2">  1        1 0.21524789E+00 0.35176400E+02</pdfrwt>
<pdfrwt beam="1">  1       -3 0.45761139E-01 0.30227467E+03</pdfrwt>
<totfact> 0.26486638E+01</totfact>
</mgrwt>
</event>
<event>
 5    1  0.4149151E-003  0.5367803E+02  0.7546771E-02  0.1494097E+00
         -3   -1    0    0    0  501 -0.00000000000E+00  0.00000000000E+00  0.65548267197E+02  0.65548267197E+02  0.00000000000E+00 0.  1.
          2   -1    0    0  502    0  0.00000000000E+00 -0.00000000000E+00 -0.57525473661E+03  0.57525473661E+03  0.00000000000E+00 0. -1.
         25    1    1    2    0    0 -0.43858763887E+02  0.60458567734E+01 -0.16203133633E+03  0.20937835969E+03  0.12500000000E+03 0.  0.
          2    1    1    2  502    0 -0.48636334552E+01 -0.32475959207E+02 -0.37015605921E+03  0.37160981019E+03  0.00000000000E+00 0. -1.
         -3    1    1    2    0  501  0.48722397342E+02  0.26430102433E+02  0.22480926134E+02  0.59814833923E+02  0.00000000000E+00 0.  1.
<mgrwt>
<rscale>  0 0.41984357E+02</rscale>
<asrwt>0</asrwt>
<pdfrwt beam="2">  1        2 0.88500731E-01 0.32838131E+02</pdfrwt>
<pdfrwt beam="1">  1       -3 0.10084349E-01 0.53678032E+02</pdfrwt>
<totfact> 0.21220632E+03</totfact>
</mgrwt>
</event>
<event>
 5    1  0.4149151E-003  0.5180010E+02  0.7546771E-02  0.1474782E+00
         -1   -1    0    0    0  501 -0.00000000000E+00  0.00000000000E+00  0.24758331055E+03  0.24758331055E+03  0.00000000000E+00 0.  1.
          1   -1    0    0  502    0  0.00000000000E+00 -0.00000000000E+00 -0.14314168901E+04  0.14314168901E+04  0.00000000000E+00 0. -1.
         25    1    1    2    0    0  0.25077691463E+02 -0.33460083728E+02  0.30823103980E+02  0.13536443976E+03  0.12500000000E+03 0.  0.
          1    1    1    2  502    0 -0.51697897041E+02  0.49988321514E+01 -0.13763413284E+04  0.13773209913E+04  0.00000000000E+00 0. -1.
         -1    1    1    2    0  501  0.26620205578E+02  0.28461251576E+02  0.16168464487E+03  0.16631476956E+03  0.00000000000E+00 0.  1.
<mgrwt>
<rscale>  0 0.44929516E+02</rscale>
<asrwt>0</asrwt>
<pdfrwt beam="2">  1        1 0.22021798E+00 0.51800100E+02</pdfrwt>
<pdfrwt beam="1">  1       -1 0.38089740E-01 0.38970222E+02</pdfrwt>
<totfact> 0.62141064E+01</totfact>
</mgrwt>
</event>
<event>
 5    1  0.4149151E-003  0.4181514E+02  0.7546771E-02  0.1607490E+00
          2   -1    0    0  502    0  0.00000000000E+00  0.00000000000E+00  0.73647740642E+03  0.73647740642E+03  0.00000000000E+00 0. -1.
         -1   -1    0    0    0  501 -0.00000000000E+00 -0.00000000000E+00 -0.15759268447E+02  0.15759268447E+02  0.00000000000E+00 0.  1.
         25    1    1    2    0    0  0.97276255501E+01 -0.27886466735E+02  0.47391345059E+03  0.49101042797E+03  0.12500000000E+03 0.  0.
          2    1    1    2  502    0 -0.12547785903E+02 -0.16013268432E+02  0.18058087140E+03  0.18172320384E+03  0.00000000000E+00 0. -1.
         -1    1    1    2    0  501  0.28201603527E+01  0.43899735167E+02  0.66223815973E+02  0.79503043050E+02  0.00000000000E+00 0.  1.
<mgrwt>
<rscale>  0 0.29166424E+02</rscale>
<asrwt>0</asrwt>
<pdfrwt beam="1">  1        2 0.11330419E+00 0.20343837E+02</pdfrwt>
<pdfrwt beam="2">  1       -1 0.24245034E-02 0.41815135E+02</pdfrwt>
<totfact> 0.19944105E+04</totfact>
</mgrwt>
</event>
<event>
 5    1  0.4149151E-003  0.3954005E+02  0.7546771E-02  0.1527991E+00
          2   -1    0    0  502    0  0.00000000000E+00  0.00000000000E+00  0.11823646179E+03  0.11823646179E+03  0.00000000000E+00 0. -1.
         -1   -1    0    0    0  501 -0.00000000000E+00 -0.00000000000E+00 -0.10077068529E+03  0.10077068529E+03  0.00000000000E+00 0.  1.
         25    1    1    2    0    0  0.35518756265E+02  0.11614459574E+02  0.23102617513E+01  0.13048683852E+03  0.12500000000E+03 0.  0.
          2    1    1    2  502    0 -0.34833555067E+02  0.23818896371E+02  0.28202237467E+02  0.50755123693E+02  0.00000000000E+00 0. -1.
         -1    1    1    2    0  501 -0.68520119790E+00 -0.35433355945E+02 -0.13046722722E+02  0.37765184867E+02  0.00000000000E+00 0.  1.
<mgrwt>
<rscale>  0 0.37433924E+02</rscale>
<asrwt>0</asrwt>
<pdfrwt beam="1">  1        2 0.18190225E-01 0.39540051E+02</pdfrwt>
<pdfrwt beam="2">  1       -1 0.15503182E-01 0.35439980E+02</pdfrwt>
<totfact> 0.89366899E+03</totfact>
</mgrwt>
</event>
<event>
 5    1  0.4149151E-003  0.6525199E+02  0.7546771E-02  0.1442642E+00
         -3   -1    0    0    0  501 -0.00000000000E+00  0.00000000000E+00  0.14405175694E+03  0.14405175694E+03  0.00000000000E+00 0.  1.
          2   -1    0    0  502    0  0.00000000000E+00 -0.00000000000E+00 -0.19102176175E+04  0.19102176175E+04  0.00000000000E+00 0. -1.
         25    1    1    2    0    0 -0.83485068560E+02 -0.54972124199E+02  0.69329937166E+02  0.17442285200E+03  0.12500000000E+03 0.  0.
          2    1    1    2  502    0  0.60866118727E+02  0.23091838681E+02 -0.18394101543E+04  0.18405617711E+04  0.00000000000E+00 0. -1.
         -3    1    1    2    0  501  0.22618949833E+02  0.31880285517E+02  0.39143566518E+01  0.39284751294E+02  0.00000000000E+00 0.  1.
<mgrwt>
<rscale>  0 0.50503974E+02</rscale>
<asrwt>0</asrwt>
<pdfrwt beam="2">  1        2 0.29387965E+00 0.65251990E+02</pdfrwt>
<pdfrwt beam="1">  1       -3 0.22161807E-01 0.39089250E+02</pdfrwt>
<totfact> 0.95200754E+01</totfact>
</mgrwt>
</event>
<event>
 5    1  0.4149151E-003  0.1025181E+03  0.7546771E-02  0.1302718E+00
         -1   -1    0    0    0  501 -0.00000000000E+00  0.00000000000E+00  0.27262850263E+03  0.27262850263E+03  0.00000000000E+00 0.  1.
          2   -1    0    0  502    0  0.00000000000E+00 -0.00000000000E+00 -0.39937058236E+03  0.39937058236E+03  0.00000000000E+00 0. -1.
         25    1    1    2    0    0 -0.22373390612E+02  0.27300737405E+02 -0.15284395458E+03  0.20057959349E+03  0.12500000000E+03 0.  0.
          2    1    1    2  502    0  0.62012824043E+01  0.78864273584E+02 -0.20328737990E+03  0.21813708620E+03  0.00000000000E+00 0. -1.
         -1    1    1    2    0  501  0.16172108208E+02 -0.10616501099E+03  0.22938925475E+03  0.25328240531E+03  0.00000000000E+00 0.  1.
<mgrwt>
<rscale>  0 0.90055398E+02</rscale>
<asrwt>0</asrwt>
<pdfrwt beam="2">  1        2 0.61441628E-01 0.79107709E+02</pdfrwt>
<pdfrwt beam="1">  1       -1 0.41942847E-01 0.10251813E+03</pdfrwt>
<totfact> 0.52321279E+02</totfact>
</mgrwt>
</event>
<event>
 5    1  0.4149151E-003  0.1024022E+03  0.7546771E-02  0.1420452E+00
         -1   -1    0    0    0  501 -0.00000000000E+00  0.00000000000E+00  0.17208005831E+03  0.17208005831E+03  0.00000000000E+00 0.  1.
          2   -1    0    0  502    0  0.00000000000E+00 -0.00000000000E+00 -0.75003383928E+03  0.75003383928E+03  0.00000000000E+00 0. -1.
         25    1    1    2    0    0  0.12502519948E+03  0.22724578660E+02 -0.22104930221E+03  0.28396390790E+03  0.12500000000E+03 0.  0.
          2    1    1    2  502    0 -0.97974472722E+02 -0.11055681264E+02 -0.49102803850E+03  0.50082907262E+03  0.00000000000E+00 0. -1.
         -1    1    1    2    0  501 -0.27050726761E+02 -0.11668897396E+02  0.13412355974E+03  0.13732091706E+03  0.00000000000E+00 0.  1.
<mgrwt>
<rscale>  0 0.54925331E+02</rscale>
<asrwt>0</asrwt>
<pdfrwt beam="2">  1        2 0.11538982E+00 0.10240220E+03</pdfrwt>
<pdfrwt beam="1">  1       -1 0.26473856E-01 0.29460227E+02</pdfrwt>
<totfact> 0.54361905E+02</totfact>
</mgrwt>
</event>
<event>
 5    1  0.4149151E-003  0.5867035E+02  0.7546771E-02  0.1453477E+00
          2   -1    0    0  501    0  0.00000000000E+00  0.00000000000E+00  0.92829648894E+03  0.92829648894E+03  0.00000000000E+00 0. -1.
          1   -1    0    0  502    0 -0.00000000000E+00 -0.00000000000E+00 -0.31344749045E+03  0.31344749045E+03  0.00000000000E+00 0. -1.
         25    1    1    2    0    0  0.35422114074E+02  0.45218623948E+02  0.30015859810E+02  0.14080270579E+03  0.12500000000E+03 0.  0.
          2    1    1    2  501    0  0.23041786490E+01 -0.58898439035E+02  0.84028838594E+03  0.84235319605E+03  0.00000000000E+00 0. -1.
          1    1    1    2  502    0 -0.37726292723E+02  0.13679815087E+02 -0.25545524725E+03  0.25858807755E+03  0.00000000000E+00 0. -1.
<mgrwt>
<rscale>  0 0.48522534E+02</rscale>
<asrwt>0</asrwt>
<pdfrwt beam="1">  1        2 0.14281484E+00 0.58670346E+02</pdfrwt>
<pdfrwt beam="2">  1        1 0.48222691E-01 0.40129920E+02</pdfrwt>
<totfact> 0.35456377E+02</totfact>
</mgrwt>
</event>
<event>
 5    1  0.4149151E-003  0.8665949E+02  0.7546771E-02  0.1439485E+00
         -1   -1    0    0    0  501 -0.00000000000E+00  0.00000000000E+00  0.40253310011E+02  0.40253310011E+02  0.00000000000E+00 0.  1.
          2   -1    0    0  502    0  0.00000000000E+00 -0.00000000000E+00 -0.53589910761E+03  0.53589910761E+03  0.00000000000E+00 0. -1.
         25    1    1    2    0    0 -0.68141457675E+02 -0.70811779061E+02 -0.21686277432E+03  0.26890896079E+03  0.12500000000E+03 0.  0.
          2    1    1    2  502    0  0.73750620551E+02  0.41203924677E+02 -0.25567013470E+03  0.26926591915E+03  0.00000000000E+00 0. -1.
         -1    1    1    2    0  501 -0.56091628758E+01  0.29607854384E+02 -0.23112888576E+02  0.37977537673E+02  0.00000000000E+00 0.  1.
<mgrwt>
<rscale>  0 0.51102250E+02</rscale>
<asrwt>0</asrwt>
<pdfrwt beam="2">  1        2 0.82446020E-01 0.86659491E+02</pdfrwt>
<pdfrwt beam="1">  1       -1 0.61928167E-02 0.30134494E+02</pdfrwt>
<totfact> 0.69518943E+03</totfact>
</mgrwt>
</event>
<event>
 5    1  0.4149151E-003  0.3547279E+02  0.7546771E-02  0.1548874E+00
         -2   -1    0    0    0  501 -0.00000000000E+00  0.00000000000E+00  0.15795272582E+03  0.15795272582E+03  0.00000000000E+00 0.  1.
          1   -1    0    0  502    0  0.00000000000E+00 -0.00000000000E+00 -0.68799677695E+02  0.68799677695E+02  0.00000000000E+00 0. -1.
         25    1    1    2    0    0 -0.21141245184E+02 -0.92406221274E+01  0.40668829816E+02  0.13345896397E+03  0.12500000000E+03 0.  0.
          1    1    1    2  502    0 -0.10220006992E+02  0.32923117168E+02  0.52548103473E+01  0.34871094316E+02  0.00000000000E+00 0. -1.
         -2    1    1    2    0  501  0.31361252176E+02 -0.23682495041E+02  0.43229407960E+02  0.58422345228E+02  0.00000000000E+00 0.  1.
<mgrwt>
<rscale>  0 0.34969269E+02</rscale>
<asrwt>0</asrwt>
<pdfrwt beam="2">  1        1 0.10584566E-01 0.34472891E+02</pdfrwt>
<pdfrwt beam="1">  1       -2 0.24300419E-01 0.35472795E+02</pdfrwt>
<totfact> 0.63924783E+03</totfact>
</mgrwt>
</event>
<event>
 5    1  0.4149151E-003  0.2387925E+03  0.7546771E-02  0.1229814E+00
          3   -1    0    0  502    0 -0.00000000000E+00  0.00000000000E+00  0.19942741357E+03  0.19942741357E+03  0.00000000000E+00 0.  1.
          2   -1    0    0  501    0  0.00000000000E+00 -0.00000000000E+00 -0.97397282908E+03  0.97397282908E+03  0.00000000000E+00 0.  1.
         25    1    1    2    0    0 -0.14551834607E+03 -0.15876390283E+03 -0.67585569455E+02  0.25802010597E+03  0.12500000000E+03 0.  0.
          2    1    1    2  501    0 -0.69050493166E+02  0.14776008640E+01 -0.63640354236E+03  0.64014031481E+03  0.00000000000E+00 0.  1.
          3    1    1    2  502    0  0.21456883923E+03  0.15728630197E+03 -0.70556303690E+02  0.27523982188E+03  0.00000000000E+00 0.  1.
<mgrwt>
<rscale>  0 0.12842319E+03</rscale>
<asrwt>0</asrwt>
<pdfrwt beam="2">  1        2 0.14984198E+00 0.69066301E+02</pdfrwt>
<pdfrwt beam="1">  1        3 0.30681140E-01 0.23879252E+03</pdfrwt>
<totfact> 0.18695029E+02</totfact>
</mgrwt>
</event>
<event>
 5    1  0.4149151E-003  0.3115521E+02  0.7546771E-02  0.1645156E+00
         -1   -1    0    0    0  501 -0.00000000000E+00  0.00000000000E+00  0.11245251750E+03  0.11245251750E+03  0.00000000000E+00 0.  1.
          2   -1    0    0  502    0  0.00000000000E+00 -0.00000000000E+00 -0.24039104906E+03  0.24039104906E+03  0.00000000000E+00 0. -1.
         25    1    1    2    0    0  0.24876988936E+01 -0.35341930119E+02 -0.20255422017E+03  0.24064175194E+03  0.12500000000E+03 0.  0.
          2    1    1    2  502    0  0.17272259419E+02  0.25828024359E+02 -0.33117433580E+01  0.31247166781E+02  0.00000000000E+00 0. -1.
         -1    1    1    2    0  501 -0.19759958313E+02  0.95139057592E+01  0.77927431964E+02  0.80954647845E+02  0.00000000000E+00 0.  1.
<mgrwt>
<rscale>  0 0.26139358E+02</rscale>
<asrwt>0</asrwt>
<pdfrwt beam="2">  1        2 0.36983238E-01 0.31155211E+02</pdfrwt>
<pdfrwt beam="1">  1       -1 0.17300387E-01 0.21931036E+02</pdfrwt>
<totfact> 0.34467780E+03</totfact>
</mgrwt>
</event>
<event>
 5    1  0.4149151E-003  0.7888598E+02  0.7546771E-02  0.1366817E+00
          2   -1    0    0  502    0  0.00000000000E+00  0.00000000000E+00  0.11648020468E+04  0.11648020468E+04  0.00000000000E+00 0. -1.
         -2   -1    0    0    0  501 -0.00000000000E+00 -0.00000000000E+00 -0.24758878250E+02  0.24758878250E+02  0.00000000000E+00 0.  1.
         25    1    1    2    0    0 -0.61585025698E+02 -0.62640727978E+02  0.45558870552E+03  0.48052330307E+03  0.12500000000E+03 0.  0.
          2    1    1    2  502    0 -0.19246043976E+02  0.55476127379E+02  0.54136012364E+03  0.54453539315E+03  0.00000000000E+00 0. -1.
         -2    1    1    2    0  501  0.80831069674E+02  0.71646005999E+01  0.14309433935E+03  0.16450222880E+03  0.00000000000E+00 0.  1.
<mgrwt>
<rscale>  0 0.68060021E+02</rscale>
<asrwt>0</asrwt>
<pdfrwt beam="1">  1        2 0.17920027E+00 0.58719766E+02</pdfrwt>
<pdfrwt beam="2">  1       -2 0.38090591E-02 0.78885982E+02</pdfrwt>
<totfact> 0.60191695E+03</totfact>
</mgrwt>
</event>
<event>
 5    1  0.4149151E-003  0.8371456E+02  0.7546771E-02  0.1354038E+00
         -3   -1    0    0    0  501 -0.00000000000E+00  0.00000000000E+00  0.62918048027E+02  0.62918048027E+02  0.00000000000E+00 0.  1.
          1   -1    0    0  502    0  0.00000000000E+00 -0.00000000000E+00 -0.56597709684E+03  0.56597709684E+03  0.00000000000E+00 0.  1.
         25    1    1    2    0    0 -0.70062339796E+02 -0.48476889465E+02 -0.13990007106E+03  0.20604798022E+03  0.12500000000E+03 0.  0.
          1    1    1    2  502    0  0.19898758354E+02  0.84231353985E+02 -0.34909022700E+03  0.35965937798E+03  0.00000000000E+00 0.  1.
         -3    1    1    2    0  501  0.50163581442E+02 -0.35754464520E+02 -0.14068750746E+02  0.63187786666E+02  0.00000000000E+00 0.  1.
<mgrwt>
<rscale>  0 0.71811958E+02</rscale>
<asrwt>0</asrwt>
<pdfrwt beam="2">  1        1 0.87073400E-01 0.83714559E+02</pdfrwt>
<pdfrwt beam="1">  1       -3 0.96796996E-02 0.61601677E+02</pdfrwt>
<totfact> 0.14539104E+03</totfact>
</mgrwt>
</event>
<event>
 5    1  0.4149151E-003  0.8731029E+02  0.7546771E-02  0.1405344E+00
          2   -1    0    0  502    0  0.00000000000E+00  0.00000000000E+00  0.31801381079E+02  0.31801381079E+02  0.00000000000E+00 0. -1.
         -1   -1    0    0    0  501 -0.00000000000E+00 -0.00000000000E+00 -0.65314235018E+03  0.65314235018E+03  0.00000000000E+00 0.  1.
         25    1    1    2    0    0  0.27716566121E+02  0.92415348790E+02 -0.27004766643E+03  0.31282510589E+03  0.12500000000E+03 0.  0.
          2    1    1    2  502    0  0.96617434232E+01 -0.81799541244E+02 -0.26440351918E+03  0.27693633779E+03  0.00000000000E+00 0. -1.
         -1    1    1    2    0  501 -0.37378309544E+02 -0.10615807546E+02 -0.86889783492E+02  0.95182287583E+02  0.00000000000E+00 0.  1.
<mgrwt>
<rscale>  0 0.58245850E+02</rscale>
<asrwt>0</asrwt>
<pdfrwt beam="1">  1        2 0.48925204E-02 0.87310295E+02</pdfrwt>
<pdfrwt beam="2">  1       -1 0.10048343E+00 0.38856575E+02</pdfrwt>
<totfact> 0.18151029E+03</totfact>
</mgrwt>
</event>
<event>
 5    1  0.4149151E-003  0.9341257E+02  0.7546771E-02  0.1419750E+00
          1   -1    0    0  502    0 -0.00000000000E+00  0.00000000000E+00  0.33802273312E+03  0.33802273312E+03  0.00000000000E+00 0. -1.
          2   -1    0    0  501    0  0.00000000000E+00 -0.00000000000E+00 -0.98017012454E+03  0.98017012454E+03  0.00000000000E+00 0. -1.
         25    1    1    2    0    0  0.10357051269E+02  0.70354461750E+02 -0.49717707524E+03  0.51755875313E+03  0.12500000000E+03 0.  0.
          2    1    1    2  501    0  0.28917913586E+02  0.14767211901E+02 -0.46552334241E+03  0.46665436739E+03  0.00000000000E+00 0. -1.
          1    1    1    2  502    0 -0.39274964855E+02 -0.85121673650E+02  0.32055302623E+03  0.33397973713E+03  0.00000000000E+00 0. -1.
<mgrwt>
<rscale>  0 0.55073844E+02</rscale>
<asrwt>0</asrwt>
<pdfrwt beam="2">  1        2 0.15079540E+00 0.32470237E+02</pdfrwt>
<pdfrwt beam="1">  1        1 0.52003498E-01 0.93412570E+02</pdfrwt>
<totfact> 0.31104661E+02</totfact>
</mgrwt>
</event>
<event>
 5    1  0.4149151E-003  0.1598161E+03  0.7546771E-02  0.1208288E+00
          1   -1    0    0  502    0  0.00000000000E+00  0.00000000000E+00  0.41605552391E+03  0.41605552391E+03  0.00000000000E+00 0. -1.
          1   -1    0    0  501    0 -0.00000000000E+00 -0.00000000000E+00 -0.30098313692E+03  0.30098313692E+03  0.00000000000E+00 0. -1.
         25    1    1    2    0    0  0.34896335759E+02  0.27798595066E+02 -0.14527975915E+02  0.13351620958E+03  0.12500000000E+03 0.  0.
          1    1    1    2  501    0 -0.10611614088E+03 -0.17086823138E+03 -0.15714556105E+03  0.25524755671E+03  0.00000000000E+00 0. -1.
          1    1    1    2  502    0  0.71219805120E+02  0.14306963631E+03  0.28674592396E+03  0.32827489453E+03  0.00000000000E+00 0. -1.
<mgrwt>
<rscale>  0 0.14381345E+03</rscale>
<asrwt>0</asrwt>
<pdfrwt beam="1">  1        1 0.64008542E-01 0.15981609E+03</pdfrwt>
<pdfrwt beam="2">  1        1 0.46305098E-01 0.12941318E+03</pdfrwt>
<totfact> 0.60685816E+02</totfact>
</mgrwt>
</event>
<event>
 5    1  0.4149151E-003  0.4348243E+02  0.7546771E-02  0.1511348E+00
         -1   -1    0    0    0  501 -0.00000000000E+00  0.00000000000E+00  0.99600954427E+01  0.99600954427E+01  0.00000000000E+00 0.  1.
          2   -1    0    0  502    0  0.00000000000E+00 -0.00000000000E+00 -0.19402935778E+04  0.19402935778E+04  0.00000000000E+00 0. -1.
         25    1    1    2    0    0  0.66078183517E+02 -0.24002018976E+02 -0.65843898821E+03  0.67387634210E+03  0.12500000000E+03 0.  0.
          2    1    1    2  502    0 -0.29328915410E+02  0.20914651587E+02 -0.10991504917E+04  0.10997406109E+04  0.00000000000E+00 0. -1.
         -1    1    1    2    0  501 -0.36749268107E+02  0.30873673893E+01 -0.17274400245E+03  0.17663672021E+03  0.00000000000E+00 0.  1.
<mgrwt>
<rscale>  0 0.39576990E+02</rscale>
<asrwt>0</asrwt>
<pdfrwt beam="2">  1        2 0.29850635E+00 0.36022325E+02</pdfrwt>
<pdfrwt beam="1">  1       -1 0.15323242E-02 0.43482426E+02</pdfrwt>
<totfact> 0.88133696E+03</totfact>
</mgrwt>
</event>
<event>
 5    1  0.4149151E-003  0.2813513E+02  0.7546771E-02  0.1621095E+00
          1   -1    0    0  501    0  0.00000000000E+00  0.00000000000E+00  0.21178301653E+04  0.21178301653E+04  0.00000000000E+00 0. -1.
          3   -1    0    0  502    0 -0.00000000000E+00 -0.00000000000E+00 -0.16696170921E+03  0.16696170921E+03  0.00000000000E+00 0. -1.
         25    1    1    2    0    0 -0.34368226374E+01  0.27971063900E+02  0.78752971127E+03  0.79788610610E+03  0.12500000000E+03 0.  0.
          1    1    1    2  501    0  0.25997658366E+02 -0.11160517669E+02  0.13237467438E+04  0.13240490463E+04  0.00000000000E+00 0. -1.
          3    1    1    2  502    0 -0.22560835728E+02 -0.16810546232E+02 -0.16040799901E+03  0.16285672206E+03  0.00000000000E+00 0. -1.
<mgrwt>
<rscale>  0 0.28017627E+02</rscale>
<asrwt>0</asrwt>
<pdfrwt beam="1">  1        1 0.32582001E+00 0.27900611E+02</pdfrwt>
<pdfrwt beam="2">  1        3 0.25686418E-01 0.28135134E+02</pdfrwt>
<totfact> 0.24808688E+01</totfact>
</mgrwt>
</event>
<event>
 5    1  0.4149151E-003  0.1148124E+03  0.7546771E-02  0.1316089E+00
          2   -1    0    0  502    0  0.00000000000E+00  0.00000000000E+00  0.40823251491E+03  0.40823251491E+03  0.00000000000E+00 0. -1.
          2   -1    0    0  501    0 -0.00000000000E+00 -0.00000000000E+00 -0.24785340073E+03  0.24785340073E+03  0.00000000000E+00 0.  1.
         25    1    1    2    0    0  0.39628135354E+02  0.14938900169E+03  0.61646504655E+02  0.20811716526E+03  0.12500000000E+03 0.  0.
          2    1    1    2  501    0 -0.48164344643E+02 -0.39921411899E+02 -0.15735524264E+03  0.16933456708E+03  0.00000000000E+00 0.  1.
          2    1    1    2  502    0  0.85362092890E+01 -0.10946758980E+03  0.25608785216E+03  0.27863418331E+03  0.00000000000E+00 0. -1.
<mgrwt>
<rscale>  0 0.84749347E+02</rscale>
<asrwt>0</asrwt>
<pdfrwt beam="1">  1        2 0.62805002E-01 0.11481239E+03</pdfrwt>
<pdfrwt beam="2">  1        2 0.38131293E-01 0.62558159E+02</pdfrwt>
<totfact> 0.16030962E+03</totfact>
</mgrwt>
</event>
<event>
 5    1  0.4149151E-003  0.7782328E+02  0.7546771E-02  0.1431635E+00
          2   -1    0    0  501    0  0.00000000000E+00  0.00000000000E+00  0.21124307429E+04  0.21124307429E+04  0.00000000000E+00 0. -1.
          1   -1    0    0  502    0 -0.00000000000E+00 -0.00000000000E+00 -0.20000500521E+03  0.20000500521E+03  0.00000000000E+00 0. -1.
         25    1    1    2    0    0 -0.24497370669E+02 -0.37980391528E+02  0.12088110234E+03  0.17966600183E+03  0.12500000000E+03 0.  0.
          2    1    1    2  501    0 -0.27343486512E+02 -0.22791685253E+02  0.19526363512E+04  0.19529607900E+04  0.00000000000E+00 0. -1.
          1    1    1    2  502    0  0.51840857181E+02  0.60772076781E+02 -0.16109171593E+03  0.17980895621E+03  0.00000000000E+00 0. -1.
<mgrwt>
<rscale>  0 0.52633205E+02</rscale>
<asrwt>0</asrwt>
<pdfrwt beam="1">  1        2 0.32498933E+00 0.35596730E+02</pdfrwt>
<pdfrwt beam="2">  1        1 0.30770002E-01 0.77823279E+02</pdfrwt>
<totfact> 0.16117198E+02</totfact>
</mgrwt>
</event>
<event>
 5    1  0.4149151E-003  0.8790432E+02  0.7546771E-02  0.1358050E+00
          2   -1    0    0  502    0  0.00000000000E+00  0.00000000000E+00  0.46159311835E+03  0.46159311835E+03  0.00000000000E+00 0. -1.
         -1   -1    0    0    0  501 -0.00000000000E+00 -0.00000000000E+00 -0.83885572420E+02  0.83885572420E+02  0.00000000000E+00 0.  1.
         25    1    1    2    0    0  0.87562459798E+02  0.73131497208E+02  0.28881010045E+02  0.17168142879E+03  0.12500000000E+03 0.  0.
          2    1    1    2  502    0 -0.52427131721E+02 -0.21617076601E+02  0.25437119470E+03  0.26061582230E+03  0.00000000000E+00 0. -1.
         -1    1    1    2    0  501 -0.35135328077E+02 -0.51514420607E+02  0.94455341188E+02  0.11318143968E+03  0.00000000000E+00 0.  1.
<mgrwt>
<rscale>  0 0.70604245E+02</rscale>
<asrwt>0</asrwt>
<pdfrwt beam="1">  1        2 0.71014324E-01 0.56708925E+02</pdfrwt>
<pdfrwt beam="2">  1       -1 0.12905473E-01 0.87904319E+02</pdfrwt>
<totfact> 0.30408952E+03</totfact>
</mgrwt>
</event>
<event>
 5    1  0.4149151E-003  0.1579628E+03  0.7546771E-02  0.1323831E+00
          1   -1    0    0  502    0  0.00000000000E+00  0.00000000000E+00  0.49933098595E+03  0.49933098595E+03  0.00000000000E+00 0. -1.
         -2   -1    0    0    0  501 -0.00000000000E+00 -0.00000000000E+00 -0.34334379560E+03  0.34334379560E+03  0.00000000000E+00 0.  1.
         25    1    1    2    0    0  0.12687736632E+03 -0.69104993669E+02  0.86431333705E+01  0.19124086903E+03  0.12500000000E+03 0.  0.
          1    1    1    2  502    0  0.30663475759E+02  0.29327319112E+02  0.37186944267E+03  0.37428227688E+03  0.00000000000E+00 0. -1.
         -2    1    1    2    0  501 -0.15754084208E+03  0.39777674557E+02 -0.22452538569E+03  0.27715163564E+03  0.00000000000E+00 0.  1.
<mgrwt>
<rscale>  0 0.81868367E+02</rscale>
<asrwt>0</asrwt>
<pdfrwt beam="1">  1        1 0.76820152E-01 0.42430418E+02</pdfrwt>
<pdfrwt beam="2">  1       -2 0.52822122E-01 0.15796284E+03</pdfrwt>
<totfact> 0.14459522E+02</totfact>
</mgrwt>
</event>
<event>
 5    1  0.4149151E-003  0.7988411E+02  0.7546771E-02  0.1366075E+00
         -2   -1    0    0    0  501 -0.00000000000E+00  0.00000000000E+00  0.31877012766E+03  0.31877012766E+03  0.00000000000E+00 0.  1.
          2   -1    0    0  502    0  0.00000000000E+00 -0.00000000000E+00 -0.30706844856E+03  0.30706844856E+03  0.00000000000E+00 0. -1.
         25    1    1    2    0    0 -0.66815021746E+02 -0.14833004866E+02  0.20289552281E+03  0.24794325629E+03  0.12500000000E+03 0.  0.
          2    1    1    2  502    0  0.43184454059E+02  0.68178987232E+02 -0.26888476421E+03  0.28073526284E+03  0.00000000000E+00 0. -1.
         -2    1    1    2    0  501  0.23630567687E+02 -0.53345982366E+02  0.77690920515E+02  0.97160057093E+02  0.00000000000E+00 0.  1.
<mgrwt>
<rscale>  0 0.68270625E+02</rscale>
<asrwt>0</asrwt>
<pdfrwt beam="2">  1        2 0.47241300E-01 0.79884107E+02</pdfrwt>
<pdfrwt beam="1">  1       -2 0.49041558E-01 0.58345502E+02</pdfrwt>
<totfact> 0.42571881E+02</totfact>
</mgrwt>
</event>
<event>
 5    1  0.4149151E-003  0.2613958E+02  0.7546771E-02  0.1669560E+00
         -2   -1    0    0    0  501 -0.00000000000E+00  0.00000000000E+00  0.26395399290E+02  0.26395399290E+02  0.00000000000E+00 0.  1.
          1   -1    0    0  502    0  0.00000000000E+00 -0.00000000000E+00 -0.48219854212E+03  0.48219854212E+03  0.00000000000E+00 0. -1.
         25    1    1    2    0    0  0.48435269829E+00 -0.47510886426E+02 -0.26675641125E+03  0.29839822699E+03  0.12500000000E+03 0.  0.
          1    1    1    2  502    0 -0.29580450752E+01  0.24842611324E+02 -0.18542727187E+03  0.18710739836E+03  0.00000000000E+00 0. -1.
         -2    1    1    2    0  501  0.24736923769E+01  0.22668275102E+02 -0.36194597126E+01  0.23088316064E+02  0.00000000000E+00 0.  1.
<mgrwt>
<rscale>  0 0.24414274E+02</rscale>
<asrwt>0</asrwt>
<pdfrwt beam="2">  1        1 0.74184391E-01 0.26139577E+02</pdfrwt>
<pdfrwt beam="1">  1       -2 0.40608306E-02 0.22802847E+02</pdfrwt>
<totfact> 0.88435520E+03</totfact>
</mgrwt>
</event>
<event>
 5    1  0.4149151E-003  0.4625852E+02  0.7546771E-02  0.1471787E+00
          1   -1    0    0  502    0  0.00000000000E+00  0.00000000000E+00  0.94564984365E+03  0.94564984365E+03  0.00000000000E+00 0. -1.
         -2   -1    0    0    0  501 -0.00000000000E+00 -0.00000000000E+00 -0.15381671857E+02  0.15381671857E+02  0.00000000000E+00 0.  1.
         25    1    1    2    0    0 -0.21165987791E+02  0.40144830173E+02  0.69506845464E+03  0.70767560582E+03  0.12500000000E+03 0.  0.
          1    1    1    2  502    0 -0.26541784845E+02 -0.37886460750E+02  0.12316665900E+03  0.13156700248E+03  0.00000000000E+00 0. -1.
         -2    1    1    2    0  501  0.47707772636E+02 -0.22583694231E+01  0.11203305815E+03  0.12178890722E+03  0.00000000000E+00 0.  1.
<mgrwt>
<rscale>  0 0.45411833E+02</rscale>
<asrwt>0</asrwt>
<pdfrwt beam="1">  1        1 0.14548455E+00 0.46258515E+02</pdfrwt>
<pdfrwt beam="2">  1       -2 0.23664118E-02 0.44580648E+02</pdfrwt>
<totfact> 0.82816355E+03</totfact>
</mgrwt>
</event>
<event>
 5    1  0.4149151E-003  0.1403459E+03  0.7546771E-02  0.1403976E+00
         -1   -1    0    0    0  501 -0.00000000000E+00  0.00000000000E+00  0.16313847726E+03  0.16313847726E+03  0.00000000000E+00 0.  1.
          2   -1    0    0  502    0  0.00000000000E+00 -0.00000000000E+00 -0.19216966653E+03  0.19216966653E+03  0.00000000000E+00 0. -1.
         25    1    1    2    0    0 -0.14113892202E+03  0.22811365613E+02 -0.18128317146E+02  0.19077261227E+03  0.12500000000E+03 0.  0.
          2    1    1    2  502    0  0.13929273352E+03  0.15533300603E+01 -0.13545915846E+02  0.13995845913E+03  0.00000000000E+00 0. -1.
         -1    1    1    2    0  501  0.18461884952E+01 -0.24364695674E+02  0.26430437158E+01  0.24577072391E+02  0.00000000000E+00 0.  1.
<mgrwt>
<rscale>  0 0.58560118E+02</rscale>
<asrwt>0</asrwt>
<pdfrwt beam="2">  1        2 0.29564564E-01 0.14034589E+03</pdfrwt>
<pdfrwt beam="1">  1       -1 0.25098227E-01 0.24434541E+02</pdfrwt>
<totfact> 0.25738103E+03</totfact>
</mgrwt>
</event>
<event>
 5    1  0.4149151E-003  0.1395877E+03  0.7546771E-02  0.1399013E+00
          1   -1    0    0  502    0  0.00000000000E+00  0.00000000000E+00  0.77113001869E+03  0.77113001869E+03  0.00000000000E+00 0. -1.
         -2   -1    0    0    0  501 -0.00000000000E+00 -0.00000000000E+00 -0.41662698235E+02  0.41662698235E+02  0.00000000000E+00 0.  1.
         25    1    1    2    0    0 -0.97247240659E+02 -0.10423201571E+03  0.45371716881E+03  0.49173733658E+03  0.12500000000E+03 0.  0.
          1    1    1    2  502    0 -0.14059732129E+02  0.21333304383E+02  0.38960123718E+02  0.46590526757E+02  0.00000000000E+00 0. -1.
         -2    1    1    2    0  501  0.11130697279E+03  0.82898711323E+02  0.23679002793E+03  0.27446485359E+03  0.00000000000E+00 0.  1.
<mgrwt>
<rscale>  0 0.59719518E+02</rscale>
<asrwt>0</asrwt>
<pdfrwt beam="1">  1        1 0.11863538E+00 0.25549676E+02</pdfrwt>
<pdfrwt beam="2">  1       -2 0.64096465E-02 0.13958771E+03</pdfrwt>
<totfact> 0.30509780E+03</totfact>
</mgrwt>
</event>
<event>
 5    1  0.4149151E-003  0.7649590E+02  0.7546771E-02  0.1391917E+00
         -3   -1    0    0    0  501 -0.00000000000E+00  0.00000000000E+00  0.55926014106E+03  0.55926014106E+03  0.00000000000E+00 0.  1.
          1   -1    0    0  502    0  0.00000000000E+00 -0.00000000000E+00 -0.94514922910E+03  0.94514922910E+03  0.00000000000E+00 0. -1.
         25    1    1    2    0    0  0.43019468590E+02 -0.57834511926E+02  0.18924635709E+03  0.23798043852E+03  0.12500000000E+03 0.  0.
          1    1    1    2  502    0 -0.74115283756E+02  0.19532764405E+02 -0.91741548916E+03  0.92061163577E+03  0.00000000000E+00 0. -1.
         -3    1    1    2    0  501  0.31095815166E+02  0.38301747521E+02  0.34228004403E+03  0.34581729587E+03  0.00000000000E+00 0.  1.
<mgrwt>
<rscale>  0 0.61432478E+02</rscale>
<asrwt>0</asrwt>
<pdfrwt beam="2">  1        1 0.14540757E+00 0.76495895E+02</pdfrwt>
<pdfrwt beam="1">  1       -3 0.86040021E-01 0.49335318E+02</pdfrwt>
<totfact> 0.12646970E+01</totfact>
</mgrwt>
</event>
<event>
 5    1  0.4149151E-003  0.9641139E+02  0.7546771E-02  0.1359383E+00
          2   -1    0    0  501    0  0.00000000000E+00  0.00000000000E+00  0.29241134326E+03  0.29241134326E+03  0.00000000000E+00 0. -1.
          1   -1    0    0  502    0 -0.00000000000E+00 -0.00000000000E+00 -0.22617349566E+04  0.22617349566E+04  0.00000000000E+00 0. -1.
         25    1    1    2    0    0  0.43139312821E+02  0.67069307600E+02 -0.18161190905E+04  0.18221615854E+04  0.12500000000E+03 0.  0.
          2    1    1    2  501    0 -0.87276521920E+02 -0.41262644424E+02  0.27979272394E+03  0.29597933285E+03  0.00000000000E+00 0. -1.
          1    1    1    2  502    0  0.44137209099E+02 -0.25806663176E+02 -0.43299724676E+03  0.43600538161E+03  0.00000000000E+00 0. -1.
<mgrwt>
<rscale>  0 0.70209161E+02</rscale>
<asrwt>0</asrwt>
<pdfrwt beam="1">  1        2 0.44986361E-01 0.96411395E+02</pdfrwt>
<pdfrwt beam="2">  1        1 0.34795922E+00 0.51128046E+02</pdfrwt>
<totfact> 0.43581628E+01</totfact>
</mgrwt>
</event>
<event>
 5    1  0.4149151E-003  0.1152259E+03  0.7546771E-02  0.1305886E+00
          2   -1    0    0  502    0  0.00000000000E+00  0.00000000000E+00  0.21946809904E+04  0.21946809904E+04  0.00000000000E+00 0. -1.
          2   -1    0    0  501    0 -0.00000000000E+00 -0.00000000000E+00 -0.22380427995E+03  0.22380427995E+03  0.00000000000E+00 0. -1.
         25    1    1    2    0    0  0.49741383315E+02  0.25409946471E+02 -0.13810645928E+03  0.19446918699E+03  0.12500000000E+03 0.  0.
          2    1    1    2  501    0  0.65869257353E+02 -0.18324746257E+02 -0.35067284074E+02  0.76839246495E+02  0.00000000000E+00 0. -1.
          2    1    1    2  502    0 -0.11561064067E+03 -0.70852002139E+01  0.21440504538E+04  0.21471768369E+04  0.00000000000E+00 0. -1.
<mgrwt>
<rscale>  0 0.88758530E+02</rscale>
<asrwt>0</asrwt>
<pdfrwt beam="1">  1        2 0.33764321E+00 0.11522588E+03</pdfrwt>
<pdfrwt beam="2">  1        2 0.34431429E-01 0.68370720E+02</pdfrwt>
<totfact> 0.14776859E+02</totfact>
</mgrwt>
</event>
<event>
 5    1  0.4149151E-003  0.9082886E+02  0.7546771E-02  0.1387139E+00
          2   -1    0    0  502    0  0.00000000000E+00  0.00000000000E+00  0.21219306746E+04  0.21219306746E+04  0.00000000000E+00 0. -1.
         -2   -1    0    0    0  501 -0.00000000000E+00 -0.00000000000E+00 -0.43761835720E+02  0.43761835720E+02  0.00000000000E+00 0.  1.
         25    1    1    2    0    0  0.74004134303E+02 -0.93367173536E+02  0.76977954563E+03  0.78891038139E+03  0.12500000000E+03 0.  0.
          2    1    1    2  502    0 -0.71241569803E+02  0.50278204197E+02  0.13269302540E+04  0.13297921485E+04  0.00000000000E+00 0. -1.
         -2    1    1    2    0  501 -0.27625644999E+01  0.43088969338E+02 -0.18540960747E+02  0.46989980492E+02  0.00000000000E+00 0.  1.
<mgrwt>
<rscale>  0 0.62623937E+02</rscale>
<asrwt>0</asrwt>
<pdfrwt beam="1">  1        2 0.32645079E+00 0.90828863E+02</pdfrwt>
<pdfrwt beam="2">  1       -2 0.67325918E-02 0.43177437E+02</pdfrwt>
<totfact> 0.76951958E+02</totfact>
</mgrwt>
</event>
<event>
 5    1  0.4149151E-003  0.5691526E+02  0.7546771E-02  0.1447448E+00
          2   -1    0    0  501    0  0.00000000000E+00  0.00000000000E+00  0.34096625046E+03  0.34096625046E+03  0.00000000000E+00 0.  1.
          2   -1    0    0  502    0 -0.00000000000E+00 -0.00000000000E+00 -0.37531348930E+03  0.37531348930E+03  0.00000000000E+00 0. -1.
         25    1    1    2    0    0  0.27557976572E+00  0.45793014520E+02 -0.22287166022E+03  0.25960326087E+03  0.12500000000E+03 0.  0.
          2    1    1    2  501    0  0.42341375399E+02 -0.38449362050E+02  0.31648217936E+03  0.32160863696E+03  0.00000000000E+00 0.  1.
          2    1    1    2  502    0 -0.42616955165E+02 -0.73436524700E+01 -0.12795775798E+03  0.13506784194E+03  0.00000000000E+00 0. -1.
<mgrwt>
<rscale>  0 0.49611521E+02</rscale>
<asrwt>0</asrwt>
<pdfrwt beam="1">  1        2 0.52456346E-01 0.56915258E+02</pdfrwt>
<pdfrwt beam="2">  1        2 0.57740537E-01 0.43245047E+02</pdfrwt>
<totfact> 0.12608386E+03</totfact>
</mgrwt>
</event>
<event>
 5    1  0.4149151E-003  0.1623220E+03  0.7546771E-02  0.1360494E+00
          2   -1    0    0  502    0  0.00000000000E+00  0.00000000000E+00  0.13413283190E+04  0.13413283190E+04  0.00000000000E+00 0. -1.
          2   -1    0    0  501    0 -0.00000000000E+00 -0.00000000000E+00 -0.13253829614E+04  0.13253829614E+04  0.00000000000E+00 0. -1.
         25    1    1    2    0    0 -0.15622826180E+03 -0.59840998228E+02 -0.27012674985E+03  0.34144058903E+03  0.12500000000E+03 0.  0.
          2    1    1    2  501    0 -0.32710929492E+01  0.29907135294E+02 -0.10143327610E+04  0.10147788364E+04  0.00000000000E+00 0. -1.
          2    1    1    2  502    0  0.15949935475E+03  0.29933862934E+02  0.13004048684E+04  0.13104918550E+04  0.00000000000E+00 0. -1.
<mgrwt>
<rscale>  0 0.69882314E+02</rscale>
<asrwt>0</asrwt>
<pdfrwt beam="1">  1        2 0.20635820E+00 0.16232202E+03</pdfrwt>
<pdfrwt beam="2">  1        2 0.20390507E+00 0.30085491E+02</pdfrwt>
<totfact> 0.53810402E+01</totfact>
</mgrwt>
</event>
<event>
 5    1  0.4149151E-003  0.7189338E+02  0.7546771E-02  0.1389405E+00
          1   -1    0    0  502    0 -0.00000000000E+00  0.00000000000E+00  0.23168518521E+03  0.23168518521E+03  0.00000000000E+00 0. -1.
          2   -1    0    0  501    0  0.00000000000E+00 -0.00000000000E+00 -0.94260395330E+03  0.94260395330E+03  0.00000000000E+00 0.  1.
         25    1    1    2    0    0  0.33066375628E+02 -0.23478947716E+02 -0.11995812474E+03  0.17793144150E+03  0.12500000000E+03 0.  0.
          2    1    1    2  501    0 -0.20833660310E+02 -0.49345131848E+02 -0.78599182408E+03  0.78781478214E+03  0.00000000000E+00 0.  1.
          1    1    1    2  502    0 -0.12232715318E+02  0.72824079564E+02  0.19503118072E+03  0.20854291487E+03  0.00000000000E+00 0. -1.
<mgrwt>
<rscale>  0 0.62054953E+02</rscale>
<asrwt>0</asrwt>
<pdfrwt beam="2">  1        2 0.14501599E+00 0.53562892E+02</pdfrwt>
<pdfrwt beam="1">  1        1 0.35643875E-01 0.71893377E+02</pdfrwt>
<totfact> 0.50406077E+02</totfact>
</mgrwt>
</event>
<event>
 5    1  0.4149151E-003  0.6143914E+02  0.7546771E-02  0.1409411E+00
          2   -1    0    0  501    0  0.00000000000E+00  0.00000000000E+00  0.15439784481E+03  0.15439784481E+03  0.00000000000E+00 0. -1.
          1   -1    0    0  502    0 -0.00000000000E+00 -0.00000000000E+00 -0.16917904624E+03  0.16917904624E+03  0.00000000000E+00 0. -1.
         25    1    1    2    0    0 -0.48627175756E+02 -0.27274166182E+01 -0.11599250351E+02  0.13465356895E+03  0.12500000000E+03 0.  0.
          2    1    1    2  501    0  0.37420203890E+01  0.53356125334E+02  0.70757305893E+02  0.88698788969E+02  0.00000000000E+00 0. -1.
          1    1    1    2  502    0  0.44885155367E+02 -0.50628708716E+02 -0.73939256977E+02  0.10022453313E+03  0.00000000000E+00 0. -1.
<mgrwt>
<rscale>  0 0.57325443E+02</rscale>
<asrwt>0</asrwt>
<pdfrwt beam="1">  1        2 0.23753515E-01 0.53487184E+02</pdfrwt>
<pdfrwt beam="2">  1        1 0.26027545E-01 0.61439136E+02</pdfrwt>
<totfact> 0.51474321E+03</totfact>
</mgrwt>
</event>
<event>
 5    1  0.4149151E-003  0.4531609E+02  0.7546771E-02  0.1531616E+00
          2   -1    0    0  502    0  0.00000000000E+00  0.00000000000E+00  0.14557099283E+04  0.14557099283E+04  0.00000000000E+00 0. -1.
         -1   -1    0    0    0  501 -0.00000000000E+00 -0.00000000000E+00 -0.93240468528E+01  0.93240468528E+01  0.00000000000E+00 0.  1.
         25    1    1    2    0    0  0.51718359159E+02  0.56980304308E+01  0.83307428767E+03  0.84400534654E+03  0.12500000000E+03 0.  0.
          2    1    1    2  502    0 -0.17626481162E+02  0.24512404207E+02  0.46258726185E+03  0.46357148923E+03  0.00000000000E+00 0. -1.
         -1    1    1    2    0  501 -0.34091877997E+02 -0.30210434638E+02  0.15072433194E+03  0.15745713939E+03  0.00000000000E+00 0.  1.
<mgrwt>
<rscale>  0 0.36988902E+02</rscale>
<asrwt>0</asrwt>
<pdfrwt beam="1">  1        2 0.22395519E+00 0.30191900E+02</pdfrwt>
<pdfrwt beam="2">  1       -1 0.14344699E-02 0.45316091E+02</pdfrwt>
<totfact> 0.16878155E+04</totfact>
</mgrwt>
</event>
<event>
 5    1  0.4149151E-003  0.5744787E+02  0.7546771E-02  0.1512256E+00
          2   -1    0    0  502    0  0.00000000000E+00  0.00000000000E+00  0.24192043426E+04  0.24192043426E+04  0.00000000000E+00 0. -1.
         -3   -1    0    0    0  501 -0.00000000000E+00 -0.00000000000E+00 -0.16669792679E+02  0.16669792679E+02  0.00000000000E+00 0.  1.
         25    1    1    2    0    0  0.58675487997E+02  0.37941450614E+02  0.44265964591E+03  0.46524716945E+03  0.12500000000E+03 0.  0.
          2    1    1    2  502    0 -0.56100049715E+02 -0.10965600257E+02  0.19277578123E+04  0.19286051029E+04  0.00000000000E+00 0. -1.
         -3    1    1    2    0  501 -0.25754382825E+01 -0.26975850357E+02  0.32117091668E+02  0.42021862905E+02  0.00000000000E+00 0.  1.
<mgrwt>
<rscale>  0 0.39455693E+02</rscale>
<asrwt>0</asrwt>
<pdfrwt beam="1">  1        2 0.37218500E+00 0.57447866E+02</pdfrwt>
<pdfrwt beam="2">  1       -3 0.25645854E-02 0.27098513E+02</pdfrwt>
<totfact> 0.14913495E+03</totfact>
</mgrwt>
</event>
<event>
 5    1  0.4149151E-003  0.5296840E+02  0.7546771E-02  0.1471288E+00
          2   -1    0    0  501    0  0.00000000000E+00  0.00000000000E+00  0.43374392766E+03  0.43374392766E+03  0.00000000000E+00 0. -1.
          2   -1    0    0  502    0 -0.00000000000E+00 -0.00000000000E+00 -0.16308480827E+03  0.16308480827E+03  0.00000000000E+00 0. -1.
         25    1    1    2    0    0 -0.22868637549E+02 -0.87050890147E+01  0.31389108516E+03  0.33874971070E+03  0.12500000000E+03 0.  0.
          2    1    1    2  501    0 -0.12176516978E+01 -0.39053282264E+02  0.98834184234E+02  0.10627717302E+03  0.00000000000E+00 0. -1.
          2    1    1    2  502    0  0.24086289246E+02  0.47758371279E+02 -0.14206615000E+03  0.15180185221E+03  0.00000000000E+00 0. -1.
<mgrwt>
<rscale>  0 0.45492803E+02</rscale>
<asrwt>0</asrwt>
<pdfrwt beam="1">  1        2 0.66729835E-01 0.39072260E+02</pdfrwt>
<pdfrwt beam="2">  1        2 0.25089971E-01 0.52968400E+02</pdfrwt>
<totfact> 0.23379028E+03</totfact>
</mgrwt>
</event>
<event>
 5    1  0.4149151E-003  0.3422473E+02  0.7546771E-02  0.1578914E+00
         -1   -1    0    0    0  501 -0.00000000000E+00  0.00000000000E+00  0.39222835722E+02  0.39222835722E+02  0.00000000000E+00 0.  1.
          1   -1    0    0  502    0  0.00000000000E+00 -0.00000000000E+00 -0.68730683363E+03  0.68730683363E+03  0.00000000000E+00 0. -1.
         25    1    1    2    0    0 -0.20273362813E+02 -0.12970345081E+02 -0.79363456749E+02  0.15000932424E+03  0.12500000000E+03 0.  0.
          1    1    1    2  502    0 -0.24708797715E+02 -0.16231786142E+02 -0.35290600610E+03  0.35414212501E+03  0.00000000000E+00 0. -1.
         -1    1    1    2    0  501  0.44982160528E+02  0.29202131223E+02 -0.21581453507E+03  0.22237822011E+03  0.00000000000E+00 0.  1.
<mgrwt>
<rscale>  0 0.31808805E+02</rscale>
<asrwt>0</asrwt>
<pdfrwt beam="2">  1        1 0.10573952E+00 0.29563416E+02</pdfrwt>
<pdfrwt beam="1">  1       -1 0.60342822E-02 0.34224734E+02</pdfrwt>
<totfact> 0.34827306E+03</totfact>
</mgrwt>
</event>
<event>
 5    1  0.4149151E-003  0.7531978E+02  0.7546771E-02  0.1482325E+00
          1   -1    0    0  502    0  0.00000000000E+00  0.00000000000E+00  0.12303702550E+03  0.12303702550E+03  0.00000000000E+00 0. -1.
         -1   -1    0    0    0  501 -0.00000000000E+00 -0.00000000000E+00 -0.51444526444E+03  0.51444526444E+03  0.00000000000E+00 0.  1.
         25    1    1    2    0    0 -0.41583823223E+02 -0.89619628425E+02 -0.24343680423E+03  0.29094221042E+03  0.12500000000E+03 0.  0.
          1    1    1    2  502    0  0.26404597153E+02  0.69244411937E+02  0.84666675735E+02  0.11251860875E+03  0.00000000000E+00 0. -1.
         -1    1    1    2    0  501  0.15179226071E+02  0.20375216488E+02 -0.23263811045E+03  0.23402147077E+03  0.00000000000E+00 0.  1.
<mgrwt>
<rscale>  0 0.43746006E+02</rscale>
<asrwt>0</asrwt>
<pdfrwt beam="1">  1        1 0.18928773E-01 0.75319782E+02</pdfrwt>
<pdfrwt beam="2">  1       -1 0.79145424E-01 0.25407840E+02</pdfrwt>
<totfact> 0.47085965E+02</totfact>
</mgrwt>
</event>
<event>
 5    1  0.4149151E-003  0.5113190E+02  0.7546771E-02  0.1527537E+00
         -2   -1    0    0    0  501 -0.00000000000E+00  0.00000000000E+00  0.94832049716E+03  0.94832049716E+03  0.00000000000E+00 0. -1.
          2   -1    0    0  502    0  0.00000000000E+00 -0.00000000000E+00 -0.12394715632E+04  0.12394715632E+04  0.00000000000E+00 0. -1.
         25    1    1    2    0    0  0.18355191851E+02  0.23932709030E+02  0.37130873156E+02  0.13384091068E+03  0.12500000000E+03 0.  0.
          2    1    1    2  502    0 -0.45828302107E+02 -0.23023864487E+02 -0.11903453010E+04  0.11914496495E+04  0.00000000000E+00 0. -1.
         -2    1    1    2    0  501  0.27473110256E+02 -0.90884454312E+00  0.86206336190E+03  0.86250150012E+03  0.00000000000E+00 0. -1.
<mgrwt>
<rscale>  0 0.37490274E+02</rscale>
<asrwt>0</asrwt>
<pdfrwt beam="2">  1        2 0.19068793E+00 0.51131895E+02</pdfrwt>
<pdfrwt beam="1">  1       -2 0.14589546E+00 0.27488139E+02</pdfrwt>
<totfact> 0.81235918E+00</totfact>
</mgrwt>
</event>
<event>
 5    1  0.4149151E-003  0.1016410E+03  0.7546771E-02  0.1356685E+00
          1   -1    0    0  502    0 -0.00000000000E+00  0.00000000000E+00  0.28356407793E+03  0.28356407793E+03  0.00000000000E+00 0. -1.
          2   -1    0    0  501    0  0.00000000000E+00 -0.00000000000E+00 -0.33405552003E+03  0.33405552003E+03  0.00000000000E+00 0. -1.
         25    1    1    2    0    0 -0.13206318938E+03  0.53885105567E+02 -0.75276720820E+02  0.20404870813E+03  0.12500000000E+03 0.  0.
          2    1    1    2  501    0  0.90413790184E+02 -0.26926434927E+02 -0.17980524359E+03  0.20305076207E+03  0.00000000000E+00 0. -1.
          1    1    1    2  502    0  0.41649399197E+02 -0.26958670640E+02  0.20459052231E+03  0.21052012776E+03  0.00000000000E+00 0. -1.
<mgrwt>
<rscale>  0 0.71012013E+02</rscale>
<asrwt>0</asrwt>
<pdfrwt beam="2">  1        2 0.51393157E-01 0.10164097E+03</pdfrwt>
<pdfrwt beam="1">  1        1 0.43625243E-01 0.49612925E+02</pdfrwt>
<totfact> 0.12369398E+03</totfact>
</mgrwt>
</event>
<event>
 5    1  0.4149151E-003  0.4268181E+02  0.7546771E-02  0.1591150E+00
          1   -1    0    0  501    0  0.00000000000E+00  0.00000000000E+00  0.14510047150E+04  0.14510047150E+04  0.00000000000E+00 0. -1.
          3   -1    0    0  502    0 -0.00000000000E+00 -0.00000000000E+00 -0.12414909983E+03  0.12414909983E+03  0.00000000000E+00 0. -1.
         25    1    1    2    0    0  0.94541285346E+01  0.60296139175E+02  0.24253118687E+03  0.27959145471E+03  0.12500000000E+03 0.  0.
          1    1    1    2  501    0 -0.12624767852E+02 -0.18006823103E+02  0.11855804032E+04  0.11857843493E+04  0.00000000000E+00 0. -1.
          3    1    1    2  502    0  0.31706393178E+01 -0.42289316072E+02 -0.10125597492E+03  0.10977801085E+03  0.00000000000E+00 0. -1.
<mgrwt>
<rscale>  0 0.30637254E+02</rscale>
<asrwt>0</asrwt>
<pdfrwt beam="1">  1        1 0.22323148E+00 0.21991599E+02</pdfrwt>
<pdfrwt beam="2">  1        3 0.19099863E-01 0.42681813E+02</pdfrwt>
<totfact> 0.11219804E+02</totfact>
</mgrwt>
</event>
<event>
 5    1  0.4149151E-003  0.1125604E+03  0.7546771E-02  0.1378234E+00
         -1   -1    0    0    0  501  0.00000000000E+00  0.00000000000E+00  0.20806399896E+03  0.20806399896E+03  0.00000000000E+00 0. -1.
         -1   -1    0    0    0  502 -0.00000000000E+00 -0.00000000000E+00 -0.66340662374E+03  0.66340662374E+03  0.00000000000E+00 0.  1.
         25    1    1    2    0    0  0.28252143261E+02  0.80108613015E+02 -0.29451722382E+03  0.33103016268E+03  0.12500000000E+03 0.  0.
         -1    1    1    2    0  501 -0.11539996405E+02 -0.11362829536E+03  0.17147838669E+03  0.20603251716E+03  0.00000000000E+00 0. -1.
         -1    1    1    2    0  502 -0.16712146857E+02  0.33519682345E+02 -0.33230378766E+03  0.33440794286E+03  0.00000000000E+00 0.  1.
<mgrwt>
<rscale>  0 0.64930203E+02</rscale>
<asrwt>0</asrwt>
<pdfrwt beam="1">  1       -1 0.32009846E-01 0.11256039E+03</pdfrwt>
<pdfrwt beam="2">  1       -1 0.10206256E+00 0.37454839E+02</pdfrwt>
<totfact> 0.80616497E+01</totfact>
</mgrwt>
</event>
<event>
 5    1  0.4149151E-003  0.4098137E+02  0.7546771E-02  0.1580136E+00
         -1   -1    0    0    0  501 -0.00000000000E+00  0.00000000000E+00  0.83142615342E+02  0.83142615342E+02  0.00000000000E+00 0.  1.
          2   -1    0    0  502    0  0.00000000000E+00 -0.00000000000E+00 -0.15088412215E+03  0.15088412215E+03  0.00000000000E+00 0. -1.
         25    1    1    2    0    0  0.90129010242E+01 -0.23784785141E+02 -0.74571970840E+02  0.14775969418E+03  0.12500000000E+03 0.  0.
          2    1    1    2  502    0 -0.27455273710E+02  0.39918888338E+02 -0.17712999150E+02  0.51585463452E+02  0.00000000000E+00 0. -1.
         -1    1    1    2    0  501  0.18442372686E+02 -0.16134103197E+02  0.24543463185E+02  0.34681579857E+02  0.00000000000E+00 0.  1.
<mgrwt>
<rscale>  0 0.31689026E+02</rscale>
<asrwt>0</asrwt>
<pdfrwt beam="2">  1        2 0.23212942E-01 0.40981367E+02</pdfrwt>
<pdfrwt beam="1">  1       -1 0.12791172E-01 0.24503681E+02</pdfrwt>
<totfact> 0.89001358E+03</totfact>
</mgrwt>
</event>
<event>
 5    1  0.4149151E-003  0.1214605E+03  0.7546771E-02  0.1278248E+00
          2   -1    0    0  502    0  0.00000000000E+00  0.00000000000E+00  0.65906194618E+03  0.65906194618E+03  0.00000000000E+00 0.  1.
         -1   -1    0    0    0  501 -0.00000000000E+00 -0.00000000000E+00 -0.18305133670E+03  0.18305133670E+03  0.00000000000E+00 0.  1.
         25    1    1    2    0    0 -0.54436316476E+01  0.59566771532E+02  0.24916244023E+03  0.28510481409E+03  0.12500000000E+03 0.  0.
          2    1    1    2  502    0  0.63727972882E+02  0.54652267075E+02  0.36146863296E+03  0.37108987784E+03  0.00000000000E+00 0.  1.
         -1    1    1    2    0  501 -0.58284341235E+02 -0.11421903861E+03 -0.13462046370E+03  0.18591859095E+03  0.00000000000E+00 0.  1.
<mgrwt>
<rscale>  0 0.10098012E+03</rscale>
<asrwt>0</asrwt>
<pdfrwt beam="1">  1        2 0.10139414E+00 0.83953111E+02</pdfrwt>
<pdfrwt beam="2">  1       -1 0.28161744E-01 0.12146047E+03</pdfrwt>
<totfact> 0.59971725E+02</totfact>
</mgrwt>
</event>
<event>
 5    1  0.4149151E-003  0.5398476E+02  0.7546771E-02  0.1460522E+00
          3   -1    0    0  502    0 -0.00000000000E+00  0.00000000000E+00  0.12333381457E+03  0.12333381457E+03  0.00000000000E+00 0. -1.
          2   -1    0    0  501    0  0.00000000000E+00 -0.00000000000E+00 -0.52940606306E+03  0.52940606306E+03  0.00000000000E+00 0. -1.
         25    1    1    2    0    0  0.48289474781E+02 -0.45823036380E+02 -0.27692049574E+03  0.31103309309E+03  0.12500000000E+03 0.  0.
          2    1    1    2  501    0 -0.53660219727E+02  0.47441339454E+01 -0.22813215982E+03  0.23440607572E+03  0.00000000000E+00 0. -1.
          3    1    1    2  502    0  0.53707449458E+01  0.41078902435E+02  0.98980407080E+02  0.10730070882E+03  0.00000000000E+00 0. -1.
<mgrwt>
<rscale>  0 0.47291731E+02</rscale>
<asrwt>0</asrwt>
<pdfrwt beam="2">  1        2 0.81447087E-01 0.53984757E+02</pdfrwt>
<pdfrwt beam="1">  1        3 0.18974433E-01 0.41428506E+02</pdfrwt>
<totfact> 0.77942069E+02</totfact>
</mgrwt>
</event>
<event>
 5    1  0.4149151E-003  0.2086692E+03  0.7546771E-02  0.1272303E+00
          1   -1    0    0  502    0 -0.00000000000E+00  0.00000000000E+00  0.27279492352E+04  0.27279492352E+04  0.00000000000E+00 0. -1.
          2   -1    0    0  501    0  0.00000000000E+00 -0.00000000000E+00 -0.47951772278E+03  0.47951772278E+03  0.00000000000E+00 0. -1.
         25    1    1    2    0    0  0.33815464473E+02  0.18391559873E+03  0.54947283999E+03  0.59372875539E+03  0.12500000000E+03 0.  0.
          2    1    1    2  501    0 -0.84940322020E+02 -0.19182610123E+03 -0.43300333220E+03  0.48114862269E+03  0.00000000000E+00 0. -1.
          1    1    1    2  502    0  0.51124857546E+02  0.79105025022E+01  0.21319620047E+04  0.21325895799E+04  0.00000000000E+00 0. -1.
<mgrwt>
<rscale>  0 0.10389963E+03</rscale>
<asrwt>0</asrwt>
<pdfrwt beam="2">  1        2 0.73771959E-01 0.20866923E+03</pdfrwt>
<pdfrwt beam="1">  1        1 0.41968449E+00 0.51733230E+02</pdfrwt>
<totfact> 0.12973689E+01</totfact>
</mgrwt>
</event>
<event>
 5    1  0.4149151E-003  0.1092390E+03  0.7546771E-02  0.1354600E+00
          2   -1    0    0  501    0  0.00000000000E+00  0.00000000000E+00  0.15612587551E+04  0.15612587551E+04  0.00000000000E+00 0. -1.
          1   -1    0    0  502    0 -0.00000000000E+00 -0.00000000000E+00 -0.53239228647E+03  0.53239228647E+03  0.00000000000E+00 0. -1.
         25    1    1    2    0    0  0.67237943214E+02  0.63888775546E+01  0.84658805005E+02  0.16539006025E+03  0.12500000000E+03 0.  0.
          2    1    1    2  501    0 -0.10704708709E+03 -0.31342571707E+02  0.14329404118E+04  0.14372750813E+04  0.00000000000E+00 0. -1.
          1    1    1    2  502    0  0.39809143875E+02  0.24953694152E+02 -0.48873274821E+03  0.49098589996E+03  0.00000000000E+00 0. -1.
<mgrwt>
<rscale>  0 0.71641032E+02</rscale>
<asrwt>0</asrwt>
<pdfrwt beam="1">  1        2 0.24019365E+00 0.10923901E+03</pdfrwt>
<pdfrwt beam="2">  1        1 0.81906507E-01 0.46983559E+02</pdfrwt>
<totfact> 0.81299514E+01</totfact>
</mgrwt>
</event>
<event>
 5    1  0.4149151E-003  0.2072979E+03  0.7546771E-02  0.1279913E+00
          2   -1    0    0  502    0  0.00000000000E+00  0.00000000000E+00  0.36551554756E+03  0.36551554756E+03  0.00000000000E+00 0. -1.
          2   -1    0    0  501    0 -0.00000000000E+00 -0.00000000000E+00 -0.21732521512E+04  0.21732521512E+04  0.00000000000E+00 0. -1.
         25    1    1    2    0    0  0.20662125325E+03  0.48353650564E+02 -0.19662114178E+03  0.31514328680E+03  0.12500000000E+03 0.  0.
          2    1    1    2  501    0 -0.18576294973E+03 -0.92045891552E+02 -0.19098109499E+04  0.19210305005E+04  0.00000000000E+00 0. -1.
          2    1    1    2  502    0 -0.20858303524E+02  0.43692240989E+02  0.29869548796E+03  0.30259391150E+03  0.00000000000E+00 0. -1.
<mgrwt>
<rscale>  0 0.10018221E+03</rscale>
<asrwt>0</asrwt>
<pdfrwt beam="1">  1        2 0.56233161E-01 0.48415708E+02</pdfrwt>
<pdfrwt beam="2">  1        2 0.33434649E+00 0.20729792E+03</pdfrwt>
<totfact> 0.85256325E+01</totfact>
</mgrwt>
</event>
<event>
 5    1  0.4149151E-003  0.6420334E+02  0.7546771E-02  0.1535458E+00
          2   -1    0    0  502    0  0.00000000000E+00  0.00000000000E+00  0.23595428141E+03  0.23595428141E+03  0.00000000000E+00 0. -1.
         -1   -1    0    0    0  501 -0.00000000000E+00 -0.00000000000E+00 -0.62533145694E+02  0.62533145694E+02  0.00000000000E+00 0.  1.
         25    1    1    2    0    0 -0.30371662000E+02 -0.55452266428E+02  0.11707264275E+03  0.18256066221E+03  0.12500000000E+03 0.  0.
          2    1    1    2  502    0  0.18887923702E+02 -0.86617610620E+01  0.45331748855E+02  0.49867296104E+02  0.00000000000E+00 0. -1.
         -1    1    1    2    0  501  0.11483738297E+02  0.64114027490E+02  0.11016744107E+02  0.66059468791E+02  0.00000000000E+00 0.  1.
<mgrwt>
<rscale>  0 0.36525351E+02</rscale>
<asrwt>0</asrwt>
<pdfrwt beam="1">  1        2 0.36300658E-01 0.20779311E+02</pdfrwt>
<pdfrwt beam="2">  1       -1 0.96204841E-02 0.64203345E+02</pdfrwt>
<totfact> 0.90308809E+03</totfact>
</mgrwt>
</event>
<event>
 5    1  0.4149151E-003  0.1066553E+03  0.7546771E-02  0.1350941E+00
          1   -1    0    0  502    0  0.00000000000E+00  0.00000000000E+00  0.15697136084E+03  0.15697136084E+03  0.00000000000E+00 0. -1.
         -2   -1    0    0    0  501 -0.00000000000E+00 -0.00000000000E+00 -0.19760506955E+03  0.19760506955E+03  0.00000000000E+00 0.  1.
         25    1    1    2    0    0  0.13681959057E+03 -0.53031867588E+01  0.17305614533E+02  0.18620474873E+03  0.12500000000E+03 0.  0.
          1    1    1    2  502    0 -0.89122777207E+02  0.19060636386E+02  0.12172225288E+01  0.91146359813E+02  0.00000000000E+00 0. -1.
         -2    1    1    2    0  501 -0.47696813368E+02 -0.13757449628E+02 -0.59156545777E+02  0.77225321844E+02  0.00000000000E+00 0.  1.
<mgrwt>
<rscale>  0 0.72763322E+02</rscale>
<asrwt>0</asrwt>
<pdfrwt beam="1">  1        1 0.24149440E-01 0.10665528E+03</pdfrwt>
<pdfrwt beam="2">  1       -2 0.30400780E-01 0.49641247E+02</pdfrwt>
<totfact> 0.16575599E+03</totfact>
</mgrwt>
</event>
<event>
 5    1  0.4149151E-003  0.1087520E+03  0.7546771E-02  0.1344391E+00
         -2   -1    0    0    0  501  0.00000000000E+00  0.00000000000E+00  0.27771378023E+03  0.27771378023E+03  0.00000000000E+00 0.  1.
         -2   -1    0    0    0  502 -0.00000000000E+00 -0.00000000000E+00 -0.12695552136E+03  0.12695552136E+03  0.00000000000E+00 0.  1.
         25    1    1    2    0    0 -0.91855655016E+02  0.20507445077E+02  0.33627150432E+02  0.16004312515E+03  0.12500000000E+03 0.  0.
         -2    1    1    2    0  501  0.11277171585E+03  0.26545427855E+02  0.14537821162E+03  0.18589498124E+03  0.00000000000E+00 0.  1.
         -2    1    1    2    0  502 -0.20916060829E+02 -0.47052872932E+02 -0.28247103181E+02  0.58731195202E+02  0.00000000000E+00 0.  1.
<mgrwt>
<rscale>  0 0.74832412E+02</rscale>
<asrwt>0</asrwt>
<pdfrwt beam="1">  1       -2 0.42725197E-01 0.10875204E+03</pdfrwt>
<pdfrwt beam="2">  1       -2 0.19531619E-01 0.51492276E+02</pdfrwt>
<totfact> 0.69885980E+02</totfact>
</mgrwt>
</event>
<event>
 5    1  0.4149151E-003  0.7135987E+02  0.7546771E-02  0.1366357E+00
         -2   -1    0    0    0  501 -0.00000000000E+00  0.00000000000E+00  0.32756743855E+02  0.32756743855E+02  0.00000000000E+00 0.  1.
          1   -1    0    0  502    0  0.00000000000E+00 -0.00000000000E+00 -0.14699083500E+04  0.14699083500E+04  0.00000000000E+00 0. -1.
         25    1    1    2    0    0  0.86359824735E+02  0.97807550633E+02 -0.12525789945E+04  0.12655447340E+04  0.12500000000E+03 0.  0.
          1    1    1    2  502    0 -0.53069696431E+02 -0.37810872357E+02 -0.14235222388E+03  0.15655737093E+03  0.00000000000E+00 0. -1.
         -2    1    1    2    0  501 -0.33290128304E+02 -0.59996678276E+02 -0.42220387822E+02  0.80562988987E+02  0.00000000000E+00 0.  1.
<mgrwt>
<rscale>  0 0.68190428E+02</rscale>
<asrwt>0</asrwt>
<pdfrwt beam="2">  1        1 0.22613974E+00 0.65161758E+02</pdfrwt>
<pdfrwt beam="1">  1       -2 0.50394993E-02 0.71359867E+02</pdfrwt>
<totfact> 0.12920878E+03</totfact>
</mgrwt>
</event>
<event>
 5    1  0.4149151E-003  0.7575885E+02  0.7546771E-02  0.1400148E+00
          1   -1    0    0  502    0  0.00000000000E+00  0.00000000000E+00  0.24534953948E+03  0.24534953948E+03  0.00000000000E+00 0. -1.
          1   -1    0    0  501    0 -0.00000000000E+00 -0.00000000000E+00 -0.25198312082E+03  0.25198312082E+03  0.00000000000E+00 0. -1.
         25    1    1    2    0    0  0.40973285423E+02 -0.40279954925E+02 -0.49923983352E+01  0.13766338993E+03  0.12500000000E+03 0.  0.
          1    1    1    2  501    0 -0.13931133913E+02  0.78297876768E+02 -0.16854610852E+03  0.18636637222E+03  0.00000000000E+00 0. -1.
          1    1    1    2  502    0 -0.27042151510E+02 -0.38017921843E+02  0.16690492552E+03  0.17330289814E+03  0.00000000000E+00 0. -1.
<mgrwt>
<rscale>  0 0.59451574E+02</rscale>
<asrwt>0</asrwt>
<pdfrwt beam="1">  1        1 0.37746083E-01 0.46654478E+02</pdfrwt>
<pdfrwt beam="2">  1        1 0.38766634E-01 0.75758849E+02</pdfrwt>
<totfact> 0.14400011E+03</totfact>
</mgrwt>
</event>
<event>
 5    1  0.4149151E-003  0.8957723E+02  0.7546771E-02  0.1306464E+00
          2   -1    0    0  502    0  0.00000000000E+00  0.00000000000E+00  0.15639185193E+04  0.15639185193E+04  0.00000000000E+00 0. -1.
         -3   -1    0    0    0  501 -0.00000000000E+00 -0.00000000000E+00 -0.55610941762E+03  0.55610941762E+03  0.00000000000E+00 0.  1.
         25    1    1    2    0    0  0.11382013480E+03  0.29187876211E+01  0.97375316342E+01  0.16936163063E+03  0.12500000000E+03 0.  0.
          2    1    1    2  502    0 -0.56535253722E+02  0.66763496615E+02  0.14687846187E+04  0.14713877312E+04  0.00000000000E+00 0. -1.
         -3    1    1    2    0  501 -0.57284881077E+02 -0.69682284236E+02 -0.47071304867E+03  0.47927857507E+03  0.00000000000E+00 0.  1.
<mgrwt>
<rscale>  0 0.88524859E+02</rscale>
<asrwt>0</asrwt>
<pdfrwt beam="1">  1        2 0.24060285E+00 0.87484852E+02</pdfrwt>
<pdfrwt beam="2">  1       -3 0.85555296E-01 0.89577230E+02</pdfrwt>
<totfact> 0.10853624E+01</totfact>
</mgrwt>
</event>
<event>
 5    1  0.4149151E-003  0.3372357E+02  0.7546771E-02  0.1567189E+00
         -2   -1    0    0    0  501 -0.00000000000E+00  0.00000000000E+00  0.17710987183E+02  0.17710987183E+02  0.00000000000E+00 0.  1.
          2   -1    0    0  502    0  0.00000000000E+00 -0.00000000000E+00 -0.74209715865E+03  0.74209715865E+03  0.00000000000E+00 0. -1.
         25    1    1    2    0    0  0.81802451303E+01  0.31163364537E+02 -0.48005654648E+03  0.49710900165E+03  0.12500000000E+03 0.  0.
          2    1    1    2  502    0 -0.33498980294E+02 -0.88869083637E+01 -0.21568620593E+03  0.21845296576E+03  0.00000000000E+00 0. -1.
         -2    1    1    2    0  501  0.25318735164E+02 -0.22276456173E+02 -0.28643419054E+02  0.44246178423E+02  0.00000000000E+00 0.  1.
<mgrwt>
<rscale>  0 0.32992249E+02</rscale>
<asrwt>0</asrwt>
<pdfrwt beam="2">  1        2 0.11416884E+00 0.32276792E+02</pdfrwt>
<pdfrwt beam="1">  1       -2 0.27247662E-02 0.33723565E+02</pdfrwt>
<totfact> 0.15792064E+04</totfact>
</mgrwt>
</event>
<event>
 5    1  0.4149151E-003  0.1054525E+03  0.7546771E-02  0.1363459E+00
          2   -1    0    0  502    0  0.00000000000E+00  0.00000000000E+00  0.22537830363E+04  0.22537830363E+04  0.00000000000E+00 0. -1.
         -1   -1    0    0    0  501 -0.00000000000E+00 -0.00000000000E+00 -0.28061811507E+03  0.28061811507E+03  0.00000000000E+00 0.  1.
         25    1    1    2    0    0 -0.57076487647E+02 -0.28013100799E+02 -0.26944663743E+02  0.14280572174E+03  0.12500000000E+03 0.  0.
          2    1    1    2  502    0  0.10224947005E+03  0.28331540929E+02  0.21919457306E+04  0.21945121819E+04  0.00000000000E+00 0. -1.
         -1    1    1    2    0  501 -0.45172982407E+02 -0.31844012957E+00 -0.19183614568E+03  0.19708324773E+03  0.00000000000E+00 0.  1.
<mgrwt>
<rscale>  0 0.69019721E+02</rscale>
<asrwt>0</asrwt>
<pdfrwt beam="1">  1        2 0.34673584E+00 0.10545249E+03</pdfrwt>
<pdfrwt beam="2">  1       -1 0.43172019E-01 0.45174105E+02</pdfrwt>
<totfact> 0.37684017E+01</totfact>
</mgrwt>
</event>
<event>
 5    1  0.4149151E-003  0.7486282E+02  0.7546771E-02  0.1500560E+00
          2   -1    0    0  502    0  0.00000000000E+00  0.00000000000E+00  0.36241943612E+03  0.36241943612E+03  0.00000000000E+00 0. -1.
         -1   -1    0    0    0  501 -0.00000000000E+00 -0.00000000000E+00 -0.55656678723E+02  0.55656678723E+02  0.00000000000E+00 0.  1.
         25    1    1    2    0    0 -0.55782382219E+02  0.46217663405E+02  0.75746160985E+02  0.16312641564E+03  0.12500000000E+03 0.  0.
          2    1    1    2  502    0 -0.17204719118E+02 -0.14529409731E+02  0.92539701024E+02  0.95240235052E+02  0.00000000000E+00 0. -1.
         -1    1    1    2    0  501  0.72987101337E+02 -0.31688253674E+02  0.13847689539E+03  0.15970946415E+03  0.00000000000E+00 0.  1.
<mgrwt>
<rscale>  0 0.41058946E+02</rscale>
<asrwt>0</asrwt>
<pdfrwt beam="1">  1        2 0.55756835E-01 0.22519017E+02</pdfrwt>
<pdfrwt beam="2">  1       -1 0.85625662E-02 0.74862818E+02</pdfrwt>
<totfact> 0.71381248E+03</totfact>
</mgrwt>
</event>
<event>
 5    1  0.4149151E-003  0.5307037E+02  0.7546771E-02  0.1446602E+00
          1   -1    0    0  502    0  0.00000000000E+00  0.00000000000E+00  0.25220622953E+04  0.25220622953E+04  0.00000000000E+00 0.  1.
         -1   -1    0    0    0  501 -0.00000000000E+00 -0.00000000000E+00 -0.17315248643E+02  0.17315248643E+02  0.00000000000E+00 0.  1.
         25    1    1    2    0    0  0.19660245288E+02 -0.13638796053E+02  0.12058449983E+04  0.12125426599E+04  0.12500000000E+03 0.  0.
          1    1    1    2  502    0 -0.40113874713E+02 -0.35331732725E+02  0.12597541509E+04  0.12608877725E+04  0.00000000000E+00 0.  1.
         -1    1    1    2    0  501  0.20453629425E+02  0.48970528778E+02  0.39147897453E+02  0.65947111540E+02  0.00000000000E+00 0.  1.
<mgrwt>
<rscale>  0 0.49766996E+02</rscale>
<asrwt>0</asrwt>
<pdfrwt beam="1">  1        1 0.38800929E+00 0.46669246E+02</pdfrwt>
<pdfrwt beam="2">  1       -1 0.26638864E-02 0.53070365E+02</pdfrwt>
<totfact> 0.74058371E+02</totfact>
</mgrwt>
</event>
<event>
 5    1  0.4149151E-003  0.7957465E+02  0.7546771E-02  0.1499105E+00
          1   -1    0    0  502    0 -0.00000000000E+00  0.00000000000E+00  0.11434472666E+03  0.11434472666E+03  0.00000000000E+00 0. -1.
          2   -1    0    0  501    0  0.00000000000E+00 -0.00000000000E+00 -0.57317729811E+03  0.57317729811E+03  0.00000000000E+00 0. -1.
         25    1    1    2    0    0  0.52597885019E+02  0.29647392203E+02  0.37435580819E+02  0.14377735595E+03  0.12500000000E+03 0.  0.
          2    1    1    2  501    0 -0.64971107013E+02 -0.47105907984E+02 -0.51132208921E+03  0.51758138513E+03  0.00000000000E+00 0. -1.
          1    1    1    2  502    0  0.12373221994E+02  0.17458515780E+02  0.15053936942E+02  0.26163283686E+02  0.00000000000E+00 0. -1.
<mgrwt>
<rscale>  0 0.41264745E+02</rscale>
<asrwt>0</asrwt>
<pdfrwt beam="2">  1        2 0.88181122E-01 0.79574646E+02</pdfrwt>
<pdfrwt beam="1">  1        1 0.17591497E-01 0.21398514E+02</pdfrwt>
<totfact> 0.19917500E+03</totfact>
</mgrwt>
</event>
<event>
 5    1  0.4149151E-003  0.6214195E+02  0.7546771E-02  0.1424947E+00
          2   -1    0    0  502    0  0.00000000000E+00  0.00000000000E+00  0.13661737200E+04  0.13661737200E+04  0.00000000000E+00 0. -1.
         -1   -1    0    0    0  501 -0.00000000000E+00 -0.00000000000E+00 -0.24357982112E+03  0.24357982112E+03  0.00000000000E+00 0.  1.
         25    1    1    2    0    0  0.32431048453E+00 -0.28388191464E+02 -0.27001961190E+02  0.13099656675E+03  0.12500000000E+03 0.  0.
          2    1    1    2  502    0 -0.38231962277E+02 -0.27171447133E+02  0.13068662857E+04  0.13077077117E+04  0.00000000000E+00 0. -1.
         -1    1    1    2    0  501  0.37907651792E+02  0.55559638598E+02 -0.15727042561E+03  0.17104926272E+03  0.00000000000E+00 0.  1.
<mgrwt>
<rscale>  0 0.53987926E+02</rscale>
<asrwt>0</asrwt>
<pdfrwt beam="1">  1        2 0.21018057E+00 0.46903843E+02</pdfrwt>
<pdfrwt beam="2">  1       -1 0.37473819E-01 0.62141949E+02</pdfrwt>
<totfact> 0.14513054E+02</totfact>
</mgrwt>
</event>
<event>
 5    1  0.4149151E-003  0.4924732E+02  0.7546771E-02  0.1561144E+00
          2   -1    0    0  501    0  0.00000000000E+00  0.00000000000E+00  0.17575575225E+03  0.17575575225E+03  0.00000000000E+00 0. -1.
          1   -1    0    0  502    0 -0.00000000000E+00 -0.00000000000E+00 -0.73821893920E+03  0.73821893920E+03  0.00000000000E+00 0. -1.
         25    1    1    2    0    0  0.45197932614E+02  0.33425469036E+02 -0.57151573291E+03  0.58772046762E+03  0.12500000000E+03 0.  0.
          2    1    1    2  501    0 -0.24257446330E+02 -0.42843356059E+02  0.16316988896E+03  0.17043588097E+03  0.00000000000E+00 0. -1.
          1    1    1    2  502    0 -0.20940486284E+02  0.94178870229E+01 -0.15411734300E+03  0.15581834287E+03  0.00000000000E+00 0. -1.
<mgrwt>
<rscale>  0 0.33626780E+02</rscale>
<asrwt>0</asrwt>
<pdfrwt beam="1">  1        2 0.27039347E-01 0.49247322E+02</pdfrwt>
<pdfrwt beam="2">  1        1 0.11357214E+00 0.22960848E+02</pdfrwt>
<totfact> 0.74716811E+02</totfact>
</mgrwt>
</event>
<event>
 5    1  0.4149151E-003  0.4725951E+02  0.7546771E-02  0.1466607E+00
          2   -1    0    0  502    0  0.00000000000E+00  0.00000000000E+00  0.21644103513E+04  0.21644103513E+04  0.00000000000E+00 0. -1.
          2   -1    0    0  501    0 -0.00000000000E+00 -0.00000000000E+00 -0.40278525266E+04  0.40278525266E+04  0.00000000000E+00 0. -1.
         25    1    1    2    0    0 -0.81273522392E+01 -0.85052716922E+02 -0.16049502566E+04  0.16120764078E+04  0.12500000000E+03 0.  0.
          2    1    1    2  501    0  0.21653429439E+02  0.39775543031E+02 -0.24188688669E+04  0.24192927809E+04  0.00000000000E+00 0. -1.
          2    1    1    2  502    0 -0.13526077199E+02  0.45277173891E+02  0.21603769482E+04  0.21608936891E+04  0.00000000000E+00 0. -1.
<mgrwt>
<rscale>  0 0.46263041E+02</rscale>
<asrwt>0</asrwt>
<pdfrwt beam="1">  1        2 0.33298621E+00 0.47259514E+02</pdfrwt>
<pdfrwt beam="2">  1        2 0.61966961E+00 0.45287579E+02</pdfrwt>
<totfact> 0.73567203E-01</totfact>
</mgrwt>
</event>
<event>
 5    1  0.4149151E-003  0.1490106E+03  0.7546771E-02  0.1298077E+00
          2   -1    0    0  501    0  0.00000000000E+00  0.00000000000E+00  0.32634021204E+03  0.32634021204E+03  0.00000000000E+00 0. -1.
          1   -1    0    0  502    0 -0.00000000000E+00 -0.00000000000E+00 -0.13586928701E+04  0.13586928701E+04  0.00000000000E+00 0. -1.
         25    1    1    2    0    0  0.19258724867E+03  0.39016167899E+02 -0.40733094289E+03  0.46920742401E+03  0.12500000000E+03 0.  0.
          2    1    1    2  501    0 -0.53054898119E+02 -0.20290884814E+02  0.28722080714E+03  0.29278376710E+03  0.00000000000E+00 0. -1.
          1    1    1    2  502    0 -0.13953235055E+03 -0.18725283085E+02 -0.91224252235E+03  0.92304189107E+03  0.00000000000E+00 0. -1.
<mgrwt>
<rscale>  0 0.92001078E+02</rscale>
<asrwt>0</asrwt>
<pdfrwt beam="1">  1        2 0.50206187E-01 0.56802660E+02</pdfrwt>
<pdfrwt beam="2">  1        1 0.20902967E+00 0.14901060E+03</pdfrwt>
<totfact> 0.12713814E+02</totfact>
</mgrwt>
</event>
<event>
 5    1  0.4149151E-003  0.1043296E+03  0.7546771E-02  0.1396261E+00
          1   -1    0    0  502    0  0.00000000000E+00  0.00000000000E+00  0.58908413275E+03  0.58908413275E+03  0.00000000000E+00 0. -1.
         -1   -1    0    0    0  501 -0.00000000000E+00 -0.00000000000E+00 -0.13884525360E+04  0.13884525360E+04  0.00000000000E+00 0.  1.
         25    1    1    2    0    0  0.25217448915E+02  0.65287801461E+02 -0.26064584943E+03  0.29742171336E+03  0.12500000000E+03 0.  0.
          1    1    1    2  502    0 -0.38481563572E+02 -0.97612015149E+02  0.56559497562E+03  0.57524482847E+03  0.00000000000E+00 0. -1.
         -1    1    1    2    0  501  0.13264114656E+02  0.32324213689E+02 -0.11043175295E+04  0.11048701269E+04  0.00000000000E+00 0.  1.
<mgrwt>
<rscale>  0 0.60375986E+02</rscale>
<asrwt>0</asrwt>
<pdfrwt beam="1">  1        1 0.90628331E-01 0.10432964E+03</pdfrwt>
<pdfrwt beam="2">  1       -1 0.21360808E+00 0.34939827E+02</pdfrwt>
<totfact> 0.62016124E+00</totfact>
</mgrwt>
</event>
<event>
 5    1  0.4149151E-003  0.6927424E+02  0.7546771E-02  0.1508435E+00
         -1   -1    0    0    0  501  0.00000000000E+00  0.00000000000E+00  0.21597726663E+03  0.21597726663E+03  0.00000000000E+00 0.  1.
         -1   -1    0    0    0  502 -0.00000000000E+00 -0.00000000000E+00 -0.42397713275E+03  0.42397713275E+03  0.00000000000E+00 0.  1.
         25    1    1    2    0    0 -0.82939403107E+01  0.58716838176E+02  0.58759220786E+02  0.15031334791E+03  0.12500000000E+03 0.  0.
         -1    1    1    2    0  501  0.30257990778E+02 -0.65746270585E+02  0.99288849436E+02  0.12286738267E+03  0.00000000000E+00 0.  1.
         -1    1    1    2    0  502 -0.21964050467E+02  0.70294324090E+01 -0.36604793634E+03  0.36677366880E+03  0.00000000000E+00 0.  1.
<mgrwt>
<rscale>  0 0.39969581E+02</rscale>
<asrwt>0</asrwt>
<pdfrwt beam="1">  1       -1 0.33227272E-01 0.69274241E+02</pdfrwt>
<pdfrwt beam="2">  1       -1 0.65227251E-01 0.23061492E+02</pdfrwt>
<totfact> 0.18441691E+02</totfact>
</mgrwt>
</event>
<event>
 5    1  0.4149151E-003  0.1024811E+03  0.7546771E-02  0.1409015E+00
         -1   -1    0    0    0  501 -0.00000000000E+00  0.00000000000E+00  0.90814859019E+02  0.90814859019E+02  0.00000000000E+00 0. -1.
          1   -1    0    0  502    0  0.00000000000E+00 -0.00000000000E+00 -0.13766752424E+04  0.13766752424E+04  0.00000000000E+00 0. -1.
         25    1    1    2    0    0  0.16206588617E+02  0.11444221777E+03 -0.90423945942E+03  0.92012698836E+03  0.12500000000E+03 0.  0.
          1    1    1    2  502    0  0.24565357261E+02 -0.20764911916E+02 -0.43217756932E+03  0.43337292229E+03  0.00000000000E+00 0. -1.
         -1    1    1    2    0  501 -0.40771945877E+02 -0.93677305853E+02  0.50556645367E+02  0.11399019078E+03  0.00000000000E+00 0. -1.
<mgrwt>
<rscale>  0 0.57414157E+02</rscale>
<asrwt>0</asrwt>
<pdfrwt beam="2">  1        1 0.21179618E+00 0.32165795E+02</pdfrwt>
<pdfrwt beam="1">  1       -1 0.13971517E-01 0.10248108E+03</pdfrwt>
<totfact> 0.36302486E+02</totfact>
</mgrwt>
</event>
<event>
 5    1  0.4149151E-003  0.1103546E+03  0.7546771E-02  0.1378401E+00
          2   -1    0    0  502    0  0.00000000000E+00  0.00000000000E+00  0.88533779290E+03  0.88533779290E+03  0.00000000000E+00 0. -1.
         -1   -1    0    0    0  501 -0.00000000000E+00 -0.00000000000E+00 -0.44677238873E+03  0.44677238873E+03  0.00000000000E+00 0.  1.
         25    1    1    2    0    0 -0.15109148967E+02  0.11644711912E+03 -0.16651190068E+03  0.23903855547E+03  0.12500000000E+03 0.  0.
          2    1    1    2  502    0 -0.33491085128E+02 -0.18272244682E+02  0.83632211974E+03  0.83719186312E+03  0.00000000000E+00 0. -1.
         -1    1    1    2    0  501  0.48600234095E+02 -0.98174874436E+02 -0.23124481489E+03  0.25587976305E+03  0.00000000000E+00 0.  1.
<mgrwt>
<rscale>  0 0.64885901E+02</rscale>
<asrwt>0</asrwt>
<pdfrwt beam="1">  1        2 0.13620581E+00 0.38151379E+02</pdfrwt>
<pdfrwt beam="2">  1       -1 0.68734214E-01 0.11035460E+03</pdfrwt>
<totfact> 0.88629292E+01</totfact>
</mgrwt>
</event>
<event>
 5    1  0.4149151E-003  0.6065642E+02  0.7546771E-02  0.1472752E+00
          2   -1    0    0  501    0  0.00000000000E+00  0.00000000000E+00  0.40313877590E+03  0.40313877590E+03  0.00000000000E+00 0. -1.
          1   -1    0    0  502    0 -0.00000000000E+00 -0.00000000000E+00 -0.10829441103E+04  0.10829441103E+04  0.00000000000E+00 0. -1.
         25    1    1    2    0    0 -0.64936290977E+02  0.65882709336E+02  0.60744943493E+02  0.16694969732E+03  0.12500000000E+03 0.  0.
          2    1    1    2  501    0  0.39657939921E+02 -0.43497609273E+02  0.28601680202E+03  0.29201096768E+03  0.00000000000E+00 0. -1.
          1    1    1    2  502    0  0.25278351055E+02 -0.22385100063E+02 -0.10265670799E+04  0.10271222212E+04  0.00000000000E+00 0. -1.
<mgrwt>
<rscale>  0 0.45255666E+02</rscale>
<asrwt>0</asrwt>
<pdfrwt beam="1">  1        2 0.62021351E-01 0.60656422E+02</pdfrwt>
<pdfrwt beam="2">  1        1 0.16660678E+00 0.33765185E+02</pdfrwt>
<totfact> 0.17573441E+02</totfact>
</mgrwt>
</event>
<event>
 5    1  0.4149151E-003  0.1417738E+03  0.7546771E-02  0.1256354E+00
          2   -1    0    0  501    0  0.00000000000E+00  0.00000000000E+00  0.78033976709E+03  0.78033976709E+03  0.00000000000E+00 0. -1.
          2   -1    0    0  502    0 -0.00000000000E+00 -0.00000000000E+00 -0.13938830543E+03  0.13938830543E+03  0.00000000000E+00 0. -1.
         25    1    1    2    0    0  0.27257159387E+02 -0.88041965543E+02  0.22972848288E+03  0.27729860490E+03  0.12500000000E+03 0.  0.
          2    1    1    2  501    0 -0.64047708368E+01  0.17453054659E+03  0.49211415377E+03  0.52218605221E+03  0.00000000000E+00 0. -1.
          2    1    1    2  502    0 -0.20852388550E+02 -0.86488581045E+02 -0.80891174983E+02  0.12024341541E+03  0.00000000000E+00 0. -1.
<mgrwt>
<rscale>  0 0.11230833E+03</rscale>
<asrwt>0</asrwt>
<pdfrwt beam="1">  1        2 0.12005227E+00 0.14177376E+03</pdfrwt>
<pdfrwt beam="2">  1        2 0.21444355E-01 0.88966830E+02</pdfrwt>
<totfact> 0.14338461E+03</totfact>
</mgrwt>
</event>
<event>
 5    1  0.4149151E-003  0.1163786E+03  0.7546771E-02  0.1283905E+00
          1   -1    0    0  501    0  0.00000000000E+00  0.00000000000E+00  0.73935015778E+03  0.73935015778E+03  0.00000000000E+00 0. -1.
          1   -1    0    0  502    0 -0.00000000000E+00 -0.00000000000E+00 -0.95849735608E+02  0.95849735608E+02  0.00000000000E+00 0. -1.
         25    1    1    2    0    0  0.94699590018E+02 -0.14576124459E+03  0.10658351145E+03  0.23916395566E+03  0.12500000000E+03 0.  0.
          1    1    1    2  501    0 -0.92783126965E+02  0.62747935076E+02  0.48576077221E+03  0.49850731171E+03  0.00000000000E+00 0. -1.
          1    1    1    2  502    0 -0.19164630533E+01  0.83013309509E+02  0.51156138501E+02  0.97528626016E+02  0.00000000000E+00 0. -1.
<mgrwt>
<rscale>  0 0.98303357E+02</rscale>
<asrwt>0</asrwt>
<pdfrwt beam="1">  1        1 0.11374617E+00 0.11637864E+03</pdfrwt>
<pdfrwt beam="2">  1        1 0.14746114E-01 0.83035429E+02</pdfrwt>
<totfact> 0.11656522E+03</totfact>
</mgrwt>
</event>
<event>
 5    1  0.4149151E-003  0.2380366E+03  0.7546771E-02  0.1176154E+00
          2   -1    0    0  501    0  0.00000000000E+00  0.00000000000E+00  0.94478235779E+03  0.94478235779E+03  0.00000000000E+00 0. -1.
          2   -1    0    0  502    0 -0.00000000000E+00 -0.00000000000E+00 -0.18421487848E+04  0.18421487848E+04  0.00000000000E+00 0. -1.
         25    1    1    2    0    0  0.31466645242E+03  0.16396758333E+03 -0.70054428703E+03  0.79516516696E+03  0.12500000000E+03 0.  0.
          2    1    1    2  501    0 -0.22014902214E+03 -0.84080391585E+02  0.87839129968E+03  0.90945389084E+03  0.00000000000E+00 0. -1.
          2    1    1    2  502    0 -0.94517430286E+02 -0.79887191741E+02 -0.10752134396E+04  0.10823120847E+04  0.00000000000E+00 0. -1.
<mgrwt>
<rscale>  0 0.17163457E+03</rscale>
<asrwt>0</asrwt>
<pdfrwt beam="1">  1        2 0.14535113E+00 0.23803665E+03</pdfrwt>
<pdfrwt beam="2">  1        2 0.28340750E+00 0.12375584E+03</pdfrwt>
<totfact> 0.43405324E+01</totfact>
</mgrwt>
</event>
<event>
 5    1  0.4149151E-003  0.1479039E+03  0.7546771E-02  0.1331139E+00
          2   -1    0    0  501    0  0.00000000000E+00  0.00000000000E+00  0.11318852328E+04  0.11318852328E+04  0.00000000000E+00 0. -1.
          1   -1    0    0  502    0 -0.00000000000E+00 -0.00000000000E+00 -0.44051596935E+03  0.44051596935E+03  0.00000000000E+00 0. -1.
         25    1    1    2    0    0 -0.33956782433E+02  0.16832243579E+03 -0.18797277766E+03  0.28362699203E+03  0.12500000000E+03 0.  0.
          2    1    1    2  501    0 -0.14336529274E+02 -0.39991859585E+02  0.10606252491E+04  0.10614757670E+04  0.00000000000E+00 0. -1.
          1    1    1    2  502    0  0.48293311707E+02 -0.12833057620E+03 -0.18128320799E+03  0.22729844312E+03  0.00000000000E+00 0. -1.
<mgrwt>
<rscale>  0 0.79268784E+02</rscale>
<asrwt>0</asrwt>
<pdfrwt beam="1">  1        2 0.17413619E+00 0.42483937E+02</pdfrwt>
<pdfrwt beam="2">  1        1 0.67771688E-01 0.14790390E+03</pdfrwt>
<totfact> 0.18073398E+02</totfact>
</mgrwt>
</event>
<event>
 5    1  0.4149151E-003  0.6612508E+02  0.7546771E-02  0.1502018E+00
          2   -1    0    0  502    0  0.00000000000E+00  0.00000000000E+00  0.48926519491E+03  0.48926519491E+03  0.00000000000E+00 0. -1.
          2   -1    0    0  501    0 -0.00000000000E+00 -0.00000000000E+00 -0.22464185924E+04  0.22464185924E+04  0.00000000000E+00 0. -1.
         25    1    1    2    0    0  0.89855005066E+01  0.89772394009E+02 -0.35826492492E+03  0.39002381770E+03  0.12500000000E+03 0.  0.
          2    1    1    2  501    0 -0.96957734537E+01 -0.64541392945E+02 -0.18713684770E+04  0.18725062286E+04  0.00000000000E+00 0. -1.
          2    1    1    2  502    0  0.71027294712E+00 -0.25231001064E+02  0.47248000450E+03  0.47315374093E+03  0.00000000000E+00 0. -1.
<mgrwt>
<rscale>  0 0.40854168E+02</rscale>
<asrwt>0</asrwt>
<pdfrwt beam="1">  1        2 0.75271570E-01 0.25240996E+02</pdfrwt>
<pdfrwt beam="2">  1        2 0.34560285E+00 0.66125084E+02</pdfrwt>
<totfact> 0.66586062E+01</totfact>
</mgrwt>
</event>
<event>
 5    1  0.4149151E-003  0.7747758E+02  0.7546771E-02  0.1338636E+00
         -3   -1    0    0    0  501 -0.00000000000E+00  0.00000000000E+00  0.34958478091E+03  0.34958478091E+03  0.00000000000E+00 0.  1.
          2   -1    0    0  502    0  0.00000000000E+00 -0.00000000000E+00 -0.44472052349E+03  0.44472052349E+03  0.00000000000E+00 0. -1.
         25    1    1    2    0    0  0.52058139634E+01 -0.38471372930E+00 -0.15704199212E+03  0.20078455068E+03  0.12500000000E+03 0.  0.
          2    1    1    2  502    0 -0.13058816520E+01 -0.77466577940E+02 -0.25534151412E+03  0.26683715045E+03  0.00000000000E+00 0. -1.
         -3    1    1    2    0  501 -0.38999323115E+01  0.77851291669E+02  0.31724776367E+03  0.32668360326E+03  0.00000000000E+00 0.  1.
<mgrwt>
<rscale>  0 0.76716505E+02</rscale>
<asrwt>0</asrwt>
<pdfrwt beam="2">  1        2 0.68418542E-01 0.77477584E+02</pdfrwt>
<pdfrwt beam="1">  1       -3 0.53782274E-01 0.75962901E+02</pdfrwt>
<totfact> 0.14636586E+02</totfact>
</mgrwt>
</event>
<event>
 5    1  0.4149151E-003  0.4766242E+02  0.7546771E-02  0.1470771E+00
          2   -1    0    0  502    0  0.00000000000E+00  0.00000000000E+00  0.43800915280E+03  0.43800915280E+03  0.00000000000E+00 0. -1.
         -2   -1    0    0    0  501 -0.00000000000E+00 -0.00000000000E+00 -0.30346620959E+02  0.30346620959E+02  0.00000000000E+00 0.  1.
         25    1    1    2    0    0 -0.30695069203E+02 -0.19529593402E+02  0.20157256039E+03  0.23995851599E+03  0.12500000000E+03 0.  0.
          2    1    1    2  502    0 -0.57448345097E+01  0.50251567290E+02  0.11350430358E+03  0.12426363133E+03  0.00000000000E+00 0. -1.
         -2    1    1    2    0  501  0.36439903713E+02 -0.30721973888E+02  0.92585667865E+02  0.10413362644E+03  0.00000000000E+00 0.  1.
<mgrwt>
<rscale>  0 0.45577025E+02</rscale>
<asrwt>0</asrwt>
<pdfrwt beam="1">  1        2 0.67386019E-01 0.43582874E+02</pdfrwt>
<pdfrwt beam="2">  1       -2 0.46687112E-02 0.47662420E+02</pdfrwt>
<totfact> 0.13404442E+04</totfact>
</mgrwt>
</event>
<event>
 5    1  0.4149151E-003  0.1215727E+03  0.7546771E-02  0.1411670E+00
         -2   -1    0    0    0  501  0.00000000000E+00  0.00000000000E+00  0.44337884436E+03  0.44337884436E+03  0.00000000000E+00 0.  1.
         -3   -1    0    0    0  502 -0.00000000000E+00 -0.00000000000E+00 -0.32377083599E+03  0.32377083599E+03  0.00000000000E+00 0.  1.
         25    1    1    2    0    0 -0.68919166205E+02  0.10628233625E+03  0.12482006169E+03  0.21737257018E+03  0.12500000000E+03 0.  0.
         -2    1    1    2    0  501  0.85320448534E+02 -0.85392920406E+02  0.25820282850E+03  0.28502671882E+03  0.00000000000E+00 0.  1.
         -3    1    1    2    0  502 -0.16401282330E+02 -0.20889415842E+02 -0.26341488182E+03  0.26475039135E+03  0.00000000000E+00 0.  1.
<mgrwt>
<rscale>  0 0.56822741E+02</rscale>
<asrwt>0</asrwt>
<pdfrwt beam="1">  1       -2 0.68212130E-01 0.12157267E+03</pdfrwt>
<pdfrwt beam="2">  1       -3 0.49810898E-01 0.26558798E+02</pdfrwt>
<totfact> 0.29026145E+01</totfact>
</mgrwt>
</event>
<event>
 5    1  0.4149151E-003  0.5537822E+02  0.7546771E-02  0.1541288E+00
         -2   -1    0    0    0  501 -0.00000000000E+00  0.00000000000E+00  0.27104198726E+02  0.27104198726E+02  0.00000000000E+00 0.  1.
          2   -1    0    0  502    0  0.00000000000E+00 -0.00000000000E+00 -0.63210004638E+03  0.63210004638E+03  0.00000000000E+00 0. -1.
         25    1    1    2    0    0  0.42483065048E+02  0.26125456587E+02 -0.25213929733E+03  0.28580863451E+03  0.12500000000E+03 0.  0.
          2    1    1    2  502    0 -0.56184717548E+02 -0.74139805537E+01 -0.34389405362E+03  0.34853236537E+03  0.00000000000E+00 0. -1.
         -2    1    1    2    0  501  0.13701652500E+02 -0.18711476033E+02 -0.89624967066E+01  0.24863245239E+02  0.00000000000E+00 0.  1.
<mgrwt>
<rscale>  0 0.35837337E+02</rscale>
<asrwt>0</asrwt>
<pdfrwt beam="2">  1        2 0.97246164E-01 0.55378224E+02</pdfrwt>
<pdfrwt beam="1">  1       -2 0.41698766E-02 0.23191693E+02</pdfrwt>
<totfact> 0.96464852E+03</totfact>
</mgrwt>
</event>
<event>
 5    1  0.4149151E-003  0.8114199E+02  0.7546771E-02  0.1444782E+00
          1   -1    0    0  502    0 -0.00000000000E+00  0.00000000000E+00  0.13912669611E+04  0.13912669611E+04  0.00000000000E+00 0. -1.
          2   -1    0    0  501    0  0.00000000000E+00 -0.00000000000E+00 -0.12918087631E+04  0.12918087631E+04  0.00000000000E+00 0. -1.
         25    1    1    2    0    0 -0.45806367273E+02  0.22347642105E+02  0.11278773813E+04  0.11359269465E+04  0.12500000000E+03 0.  0.
          2    1    1    2  501    0  0.68874366302E+02 -0.42964326619E+02 -0.12855766086E+04  0.12881369602E+04  0.00000000000E+00 0. -1.
          1    1    1    2  502    0 -0.23067999028E+02  0.20616684514E+02  0.25715742521E+03  0.25901181749E+03  0.00000000000E+00 0. -1.
<mgrwt>
<rscale>  0 0.50103867E+02</rscale>
<asrwt>0</asrwt>
<pdfrwt beam="2">  1        2 0.19873981E+00 0.81141985E+02</pdfrwt>
<pdfrwt beam="1">  1        1 0.21404107E+00 0.30938330E+02</pdfrwt>
<totfact> 0.27325586E+01</totfact>
</mgrwt>
</event>
<event>
 5    1  0.4149151E-003  0.1467733E+03  0.7546771E-02  0.1369896E+00
         -2   -1    0    0    0  501 -0.00000000000E+00  0.00000000000E+00  0.28920176602E+03  0.28920176602E+03  0.00000000000E+00 0.  1.
          1   -1    0    0  502    0  0.00000000000E+00 -0.00000000000E+00 -0.12912143472E+04  0.12912143472E+04  0.00000000000E+00 0. -1.
         25    1    1    2    0    0  0.11980375181E+03  0.75701394018E+01 -0.14278576812E+03  0.22455071039E+03  0.12500000000E+03 0.  0.
          1    1    1    2  502    0  0.30274760346E+02 -0.54633187532E+01 -0.10846275974E+04  0.10850637926E+04  0.00000000000E+00 0. -1.
         -2    1    1    2    0  501 -0.15007851216E+03 -0.21068206486E+01  0.22540078436E+03  0.27080161022E+03  0.00000000000E+00 0.  1.
<mgrwt>
<rscale>  0 0.67195969E+02</rscale>
<asrwt>0</asrwt>
<pdfrwt beam="2">  1        1 0.19864837E+00 0.30763761E+02</pdfrwt>
<pdfrwt beam="1">  1       -2 0.44492578E-01 0.14677329E+03</pdfrwt>
<totfact> 0.51322168E+01</totfact>
</mgrwt>
</event>
<event>
 5    1  0.4149151E-003  0.2741211E+02  0.7546771E-02  0.1641985E+00
         -1   -1    0    0    0  501 -0.00000000000E+00  0.00000000000E+00  0.12833721018E+02  0.12833721018E+02  0.00000000000E+00 0.  1.
          2   -1    0    0  502    0  0.00000000000E+00 -0.00000000000E+00 -0.10502846470E+04  0.10502846470E+04  0.00000000000E+00 0. -1.
         25    1    1    2    0    0  0.68974816523E+01 -0.19581813768E+01 -0.85367212665E+03  0.86280502406E+03  0.12500000000E+03 0.  0.
          2    1    1    2  502    0  0.13241064131E+02  0.21652004007E+02 -0.16386170965E+03  0.16581554495E+03  0.00000000000E+00 0. -1.
         -1    1    1    2    0  501 -0.20138545783E+02 -0.19693822630E+02 -0.19917089715E+02  0.34497799042E+02  0.00000000000E+00 0.  1.
<mgrwt>
<rscale>  0 0.26376395E+02</rscale>
<asrwt>0</asrwt>
<pdfrwt beam="2">  1        2 0.16158223E+00 0.25379816E+02</pdfrwt>
<pdfrwt beam="1">  1       -1 0.19744189E-02 0.27412107E+02</pdfrwt>
<totfact> 0.16072449E+04</totfact>
</mgrwt>
</event>
<event>
 5    1  0.4149151E-003  0.1037240E+03  0.7546771E-02  0.1369228E+00
         -2   -1    0    0    0  501 -0.00000000000E+00  0.00000000000E+00  0.70877644903E+03  0.70877644903E+03  0.00000000000E+00 0.  1.
          2   -1    0    0  502    0  0.00000000000E+00 -0.00000000000E+00 -0.13236994863E+03  0.13236994863E+03  0.00000000000E+00 0.  1.
         25    1    1    2    0    0 -0.86657523631E+02 -0.29832959385E+02  0.83077527949E+02  0.17585905583E+03  0.12500000000E+03 0.  0.
          2    1    1    2  502    0  0.80281782340E+02  0.73139625217E+02 -0.50450405346E+02  0.11974895721E+03  0.00000000000E+00 0.  1.
         -2    1    1    2    0  501  0.63757412906E+01 -0.43306665832E+02  0.54377937779E+03  0.54553838462E+03  0.00000000000E+00 0.  1.
<mgrwt>
<rscale>  0 0.67382185E+02</rscale>
<asrwt>0</asrwt>
<pdfrwt beam="2">  1        2 0.20364608E-01 0.10372397E+03</pdfrwt>
<pdfrwt beam="1">  1       -2 0.10904253E+00 0.43773478E+02</pdfrwt>
<totfact> 0.19614581E+02</totfact>
</mgrwt>
</event>
<event>
 5    1  0.4149151E-003  0.6310624E+02  0.7546771E-02  0.1409831E+00
          1   -1    0    0  502    0  0.00000000000E+00  0.00000000000E+00  0.23369189704E+03  0.23369189704E+03  0.00000000000E+00 0. -1.
         -2   -1    0    0    0  501 -0.00000000000E+00 -0.00000000000E+00 -0.14610701055E+04  0.14610701055E+04  0.00000000000E+00 0.  1.
         25    1    1    2    0    0 -0.11845395406E+02 -0.54731623064E+02 -0.44948244083E+02  0.14415688885E+03  0.12500000000E+03 0.  0.
          1    1    1    2  502    0 -0.39918315492E+02  0.50923104899E+02  0.17789167052E+03  0.18929363688E+03  0.00000000000E+00 0. -1.
         -2    1    1    2    0  501  0.51763710898E+02  0.38085181653E+01 -0.13603216349E+04  0.13613114768E+04  0.00000000000E+00 0.  1.
<mgrwt>
<rscale>  0 0.57231486E+02</rscale>
<asrwt>0</asrwt>
<pdfrwt beam="1">  1        1 0.35952599E-01 0.63106244E+02</pdfrwt>
<pdfrwt beam="2">  1       -2 0.22478002E+00 0.51903628E+02</pdfrwt>
<totfact> 0.12141947E+01</totfact>
</mgrwt>
</event>
<event>
 5    1  0.4149151E-003  0.6220511E+02  0.7546771E-02  0.1417287E+00
          2   -1    0    0  502    0  0.00000000000E+00  0.00000000000E+00  0.85962816042E+03  0.85962816042E+03  0.00000000000E+00 0. -1.
         -1   -1    0    0    0  501 -0.00000000000E+00 -0.00000000000E+00 -0.21579158815E+02  0.21579158815E+02  0.00000000000E+00 0.  1.
         25    1    1    2    0    0  0.13296890977E+02  0.82166158797E+02  0.39026609016E+03  0.41816349206E+03  0.12500000000E+03 0.  0.
          2    1    1    2  502    0  0.28001450742E+02 -0.41054558913E+02  0.30173219712E+03  0.30579711710E+03  0.00000000000E+00 0. -1.
         -1    1    1    2    0  501 -0.41298341719E+02 -0.41111599884E+02  0.14605071433E+03  0.15724671007E+03  0.00000000000E+00 0.  1.
<mgrwt>
<rscale>  0 0.55599108E+02</rscale>
<asrwt>0</asrwt>
<pdfrwt beam="1">  1        2 0.13225046E+00 0.49694648E+02</pdfrwt>
<pdfrwt beam="2">  1       -1 0.33198713E-02 0.62205105E+02</pdfrwt>
<totfact> 0.10934983E+04</totfact>
</mgrwt>
</event>
<event>
 5    1  0.4149151E-003  0.3736164E+02  0.7546771E-02  0.1588993E+00
          2   -1    0    0  501    0  0.00000000000E+00  0.00000000000E+00  0.87028770321E+01  0.87028770321E+01  0.00000000000E+00 0. -1.
          2   -1    0    0  502    0 -0.00000000000E+00 -0.00000000000E+00 -0.27973081554E+04  0.27973081554E+04  0.00000000000E+00 0. -1.
         25    1    1    2    0    0 -0.95747594024E+01  0.15719398555E+02 -0.13932513162E+04  0.13989685506E+04  0.12500000000E+03 0.  0.
          2    1    1    2  501    0  0.91107131418E+01  0.23769211865E+02 -0.23575219528E+02  0.34695410394E+02  0.00000000000E+00 0. -1.
          2    1    1    2  502    0  0.46404626058E+00 -0.39488610420E+02 -0.13717787427E+04  0.13723470715E+04  0.00000000000E+00 0. -1.
<mgrwt>
<rscale>  0 0.30839227E+02</rscale>
<asrwt>0</asrwt>
<pdfrwt beam="1">  1        2 0.13389049E-02 0.25455462E+02</pdfrwt>
<pdfrwt beam="2">  1        2 0.43035486E+00 0.37361645E+02</pdfrwt>
<totfact> 0.38097786E+03</totfact>
</mgrwt>
</event>
<event>
 5    1  0.4149151E-003  0.1356284E+03  0.7546771E-02  0.1281266E+00
          3   -1    0    0  502    0 -0.00000000000E+00  0.00000000000E+00  0.63767356890E+02  0.63767356890E+02  0.00000000000E+00 0. -1.
          2   -1    0    0  501    0  0.00000000000E+00 -0.00000000000E+00 -0.16477480541E+04  0.16477480541E+04  0.00000000000E+00 0. -1.
         25    1    1    2    0    0 -0.50039789876E+02  0.14951303966E+03 -0.49913102577E+03  0.53815881530E+03  0.12500000000E+03 0.  0.
          2    1    1    2  501    0  0.71036106066E+02 -0.17051892030E+02 -0.10231070483E+04  0.10257119126E+04  0.00000000000E+00 0. -1.
          3    1    1    2  502    0 -0.20996316189E+02 -0.13246114763E+03 -0.61742623114E+02  0.14764468305E+03  0.00000000000E+00 0. -1.
<mgrwt>
<rscale>  0 0.99539975E+02</rscale>
<asrwt>0</asrwt>
<pdfrwt beam="2">  1        2 0.25349972E+00 0.73054058E+02</pdfrwt>
<pdfrwt beam="1">  1        3 0.98103619E-02 0.13562842E+03</pdfrwt>
<totfact> 0.57831465E+02</totfact>
</mgrwt>
</event>
<event>
 5    1  0.4149151E-003  0.2728501E+02  0.7546771E-02  0.1654473E+00
          2   -1    0    0  501    0  0.00000000000E+00  0.00000000000E+00  0.16915578339E+03  0.16915578339E+03  0.00000000000E+00 0. -1.
          1   -1    0    0  502    0 -0.00000000000E+00 -0.00000000000E+00 -0.23276951791E+04  0.23276951791E+04  0.00000000000E+00 0. -1.
         25    1    1    2    0    0 -0.94507458883E+01 -0.28246570339E+02 -0.85477401306E+03  0.86437885140E+03  0.12500000000E+03 0.  0.
          2    1    1    2  501    0  0.23324081292E+02  0.45208431314E+01  0.16336539216E+03  0.16508392456E+03  0.00000000000E+00 0. -1.
          1    1    1    2  502    0 -0.13873335404E+02  0.23725727208E+02 -0.14671307748E+04  0.14673881866E+04  0.00000000000E+00 0. -1.
<mgrwt>
<rscale>  0 0.25460597E+02</rscale>
<asrwt>0</asrwt>
<pdfrwt beam="1">  1        2 0.26023969E-01 0.23758173E+02</pdfrwt>
<pdfrwt beam="2">  1        1 0.35810693E+00 0.27285010E+02</pdfrwt>
<totfact> 0.74599016E+01</totfact>
</mgrwt>
</event>
<event>
 5    1  0.4482928E-003  0.5272836E+03  0.7546771E-02  0.1006893E+00
         -1   -1    0    0    0  501 -0.00000000000E+00  0.00000000000E+00  0.26369928169E+02  0.26369928169E+02  0.00000000000E+00 0.  1.
          2   -1    0    0  502    0  0.00000000000E+00 -0.00000000000E+00 -0.26358433288E+04  0.26358433288E+04  0.00000000000E+00 0. -1.
         25    1    1    2    0    0  0.18322723357E+03 -0.15824241603E+03 -0.13185507143E+04  0.13464077642E+04  0.12500000000E+03 0.  0.
          2    1    1    2  502    0 -0.10119135744E+03  0.11422303229E+03 -0.95932901905E+03  0.97139011665E+03  0.00000000000E+00 0. -1.
         -1    1    1    2    0  501 -0.82035876139E+02  0.44019383733E+02 -0.33159366723E+03  0.34441537605E+03  0.00000000000E+00 0.  1.
<mgrwt>
<rscale>  0 0.52728360E+03</rscale>
<asrwt>0</asrwt>
<pdfrwt beam="2">  1        2 0.40551460E+00 0.52728360E+03</pdfrwt>
<pdfrwt beam="1">  1       -1 0.40569097E-02 0.52728360E+03</pdfrwt>
<totfact> 0.89443139E+02</totfact>
</mgrwt>
</event>
<event>
 5    1  0.4149151E-003  0.1170331E+03  0.7546771E-02  0.1331999E+00
          3   -1    0    0  502    0  0.00000000000E+00  0.00000000000E+00  0.35963243713E+03  0.35963243713E+03  0.00000000000E+00 0. -1.
         -1   -1    0    0    0  501 -0.00000000000E+00 -0.00000000000E+00 -0.24548792912E+03  0.24548792912E+03  0.00000000000E+00 0.  1.
         25    1    1    2    0    0 -0.68655332981E+02  0.12128377354E+03  0.22545057369E+03  0.29304653154E+03  0.12500000000E+03 0.  0.
          3    1    1    2  502    0 -0.21958704805E+02 -0.48551881887E+02  0.75301448180E+02  0.92248458250E+02  0.00000000000E+00 0. -1.
         -1    1    1    2    0  501  0.90614037785E+02 -0.72731891649E+02 -0.18660751387E+03  0.21982537646E+03  0.00000000000E+00 0.  1.
<mgrwt>
<rscale>  0 0.78970281E+02</rscale>
<asrwt>0</asrwt>
<pdfrwt beam="1">  1        3 0.55328067E-01 0.53286677E+02</pdfrwt>
<pdfrwt beam="2">  1       -1 0.37767374E-01 0.11703311E+03</pdfrwt>
<totfact> 0.94994382E+01</totfact>
</mgrwt>
</event>
<event>
 5    1  0.4149151E-003  0.9918640E+02  0.7546771E-02  0.1282615E+00
          2   -1    0    0  501    0  0.00000000000E+00  0.00000000000E+00  0.24475504368E+03  0.24475504368E+03  0.00000000000E+00 0. -1.
          1   -1    0    0  502    0 -0.00000000000E+00 -0.00000000000E+00 -0.15491053833E+04  0.15491053833E+04  0.00000000000E+00 0. -1.
         25    1    1    2    0    0  0.10542769123E+03 -0.39439258285E+02  0.43031887794E+02  0.17362948062E+03  0.12500000000E+03 0.  0.
          2    1    1    2  501    0 -0.80419987226E+02 -0.57091267728E+02  0.11667950686E+03  0.15277727095E+03  0.00000000000E+00 0. -1.
          1    1    1    2  502    0 -0.25007704004E+02  0.96530526014E+02 -0.14640617342E+04  0.14674536754E+04  0.00000000000E+00 0. -1.
<mgrwt>
<rscale>  0 0.98905038E+02</rscale>
<asrwt>0</asrwt>
<pdfrwt beam="1">  1        2 0.37654622E-01 0.98624476E+02</pdfrwt>
<pdfrwt beam="2">  1        1 0.23832390E+00 0.99186398E+02</pdfrwt>
<totfact> 0.13459319E+02</totfact>
</mgrwt>
</event>
<event>
 5    1  0.4149151E-003  0.8046142E+02  0.7546771E-02  0.1457569E+00
          2   -1    0    0  502    0  0.00000000000E+00  0.00000000000E+00  0.47950278959E+02  0.47950278959E+02  0.00000000000E+00 0. -1.
         -1   -1    0    0    0  501 -0.00000000000E+00 -0.00000000000E+00 -0.35448164838E+03  0.35448164838E+03  0.00000000000E+00 0.  1.
         25    1    1    2    0    0  0.94900135869E+01  0.78068843377E+02 -0.16903352844E+03  0.22445965874E+03  0.12500000000E+03 0.  0.
          2    1    1    2  502    0 -0.37669545857E+02 -0.74542099936E+02 -0.11267253200E+03  0.14025198329E+03  0.00000000000E+00 0. -1.
         -1    1    1    2    0  501  0.28179532270E+02 -0.35267434405E+01 -0.24825308975E+02  0.37720285311E+02  0.00000000000E+00 0.  1.
<mgrwt>
<rscale>  0 0.47802229E+02</rscale>
<asrwt>0</asrwt>
<pdfrwt beam="1">  1        2 0.73769664E-02 0.80461415E+02</pdfrwt>
<pdfrwt beam="2">  1       -1 0.54535635E-01 0.28399365E+02</pdfrwt>
<totfact> 0.35127512E+03</totfact>
</mgrwt>
</event>
<event>
 5    1  0.4149151E-003  0.7612905E+02  0.7546771E-02  0.1385407E+00
          1   -1    0    0  502    0 -0.00000000000E+00  0.00000000000E+00  0.30345936480E+02  0.30345936480E+02  0.00000000000E+00 0. -1.
          2   -1    0    0  501    0  0.00000000000E+00 -0.00000000000E+00 -0.99982703888E+03  0.99982703888E+03  0.00000000000E+00 0.  1.
         25    1    1    2    0    0  0.40897520584E+02  0.41601472208E+02 -0.28667001799E+03  0.31813203060E+03  0.12500000000E+03 0.  0.
          2    1    1    2  501    0 -0.80670535586E+02 -0.77316523667E+01 -0.63825745423E+03  0.64338176197E+03  0.00000000000E+00 0.  1.
          1    1    1    2  502    0  0.39773015003E+02 -0.33869819841E+02 -0.44553630181E+02  0.68659182786E+02  0.00000000000E+00 0. -1.
<mgrwt>
<rscale>  0 0.63063544E+02</rscale>
<asrwt>0</asrwt>
<pdfrwt beam="2">  1        2 0.15381956E+00 0.76129050E+02</pdfrwt>
<pdfrwt beam="1">  1        1 0.46686050E-02 0.52240381E+02</pdfrwt>
<totfact> 0.59645059E+03</totfact>
</mgrwt>
</event>
<event>
 5    1  0.4149151E-003  0.1133749E+03  0.7546771E-02  0.1333480E+00
          1   -1    0    0  502    0  0.00000000000E+00  0.00000000000E+00  0.81995625042E+03  0.81995625042E+03  0.00000000000E+00 0. -1.
         -1   -1    0    0    0  501 -0.00000000000E+00 -0.00000000000E+00 -0.11196153846E+03  0.11196153846E+03  0.00000000000E+00 0.  1.
         25    1    1    2    0    0  0.38123403245E+02  0.10115826140E+03  0.11101858439E+03  0.19908921067E+03  0.12500000000E+03 0.  0.
          1    1    1    2  502    0  0.14539341213E+02 -0.11437985953E+03  0.64808477751E+03  0.65826136417E+03  0.00000000000E+00 0. -1.
         -1    1    1    2    0  501 -0.52662744458E+02  0.13221598135E+02 -0.51108649947E+02  0.74567214045E+02  0.00000000000E+00 0.  1.
<mgrwt>
<rscale>  0 0.78459723E+02</rscale>
<asrwt>0</asrwt>
<pdfrwt beam="1">  1        1 0.12614711E+00 0.11337489E+03</pdfrwt>
<pdfrwt beam="2">  1       -1 0.17224853E-01 0.54297102E+02</pdfrwt>
<totfact> 0.56063838E+02</totfact>
</mgrwt>
</event>
<event>
 5    1  0.4149151E-003  0.8567022E+02  0.7546771E-02  0.1410471E+00
          1   -1    0    0  502    0  0.00000000000E+00  0.00000000000E+00  0.60455056181E+03  0.60455056181E+03  0.00000000000E+00 0. -1.
         -1   -1    0    0    0  501 -0.00000000000E+00 -0.00000000000E+00 -0.75949597494E+03  0.75949597494E+03  0.00000000000E+00 0.  1.
         25    1    1    2    0    0 -0.66044952757E+02  0.39527709073E+02  0.10985255019E+03  0.18334927966E+03  0.12500000000E+03 0.  0.
          1    1    1    2  502    0  0.87101176534E+02 -0.78433808882E+01  0.45326632386E+03  0.46162592423E+03  0.00000000000E+00 0. -1.
         -1    1    1    2    0  501 -0.21056223778E+02 -0.31684328185E+02 -0.71806428719E+03  0.71907133286E+03  0.00000000000E+00 0.  1.
<mgrwt>
<rscale>  0 0.57088900E+02</rscale>
<asrwt>0</asrwt>
<pdfrwt beam="1">  1        1 0.93007779E-01 0.85670220E+02</pdfrwt>
<pdfrwt beam="2">  1       -1 0.11684553E+00 0.38042886E+02</pdfrwt>
<totfact> 0.28576625E+01</totfact>
</mgrwt>
</event>
<event>
 5    1  0.4149151E-003  0.5777539E+02  0.7546771E-02  0.1419790E+00
          3   -1    0    0  502    0  0.00000000000E+00  0.00000000000E+00  0.94490011275E+02  0.94490011275E+02  0.00000000000E+00 0. -1.
         -1   -1    0    0    0  501 -0.00000000000E+00 -0.00000000000E+00 -0.65518316855E+03  0.65518316855E+03  0.00000000000E+00 0.  1.
         25    1    1    2    0    0  0.37506808864E+02  0.99146941799E+01 -0.63803888243E+02  0.14560562498E+03  0.12500000000E+03 0.  0.
          3    1    1    2  502    0 -0.55448669743E+01 -0.58043999246E+02  0.35689812643E+02  0.68363836381E+02  0.00000000000E+00 0. -1.
         -1    1    1    2    0  501 -0.31961941889E+02  0.48129305066E+02 -0.53257908167E+03  0.53570371846E+03  0.00000000000E+00 0.  1.
<mgrwt>
<rscale>  0 0.55065275E+02</rscale>
<asrwt>0</asrwt>
<pdfrwt beam="1">  1        3 0.14536925E-01 0.52482284E+02</pdfrwt>
<pdfrwt beam="2">  1       -1 0.10079741E+00 0.57775390E+02</pdfrwt>
<totfact> 0.16473638E+02</totfact>
</mgrwt>
</event>
<event>
 5    1  0.4149151E-003  0.6518710E+02  0.7546771E-02  0.1385854E+00
          1   -1    0    0  502    0 -0.00000000000E+00  0.00000000000E+00  0.23911480130E+03  0.23911480130E+03  0.00000000000E+00 0. -1.
          2   -1    0    0  501    0  0.00000000000E+00 -0.00000000000E+00 -0.27452135207E+04  0.27452135207E+04  0.00000000000E+00 0. -1.
         25    1    1    2    0    0  0.98440572081E+02 -0.22311110312E+02 -0.18780258060E+03  0.24715003774E+03  0.12500000000E+03 0.  0.
          2    1    1    2  501    0 -0.38555444611E+02  0.46998139441E+02 -0.25223540485E+04  0.25230864618E+04  0.00000000000E+00 0. -1.
          1    1    1    2  502    0 -0.59885127470E+02 -0.24687029130E+02  0.20405790977E+03  0.21409182245E+03  0.00000000000E+00 0. -1.
<mgrwt>
<rscale>  0 0.62949844E+02</rscale>
<asrwt>0</asrwt>
<pdfrwt beam="2">  1        2 0.42234056E+00 0.60789369E+02</pdfrwt>
<pdfrwt beam="1">  1        1 0.36786891E-01 0.65187102E+02</pdfrwt>
<totfact> 0.57349261E+01</totfact>
</mgrwt>
</event>
<event>
 5    1  0.4149151E-003  0.6538393E+02  0.7546771E-02  0.1486514E+00
          1   -1    0    0  502    0  0.00000000000E+00  0.00000000000E+00  0.12112743485E+04  0.12112743485E+04  0.00000000000E+00 0. -1.
         -1   -1    0    0    0  501 -0.00000000000E+00 -0.00000000000E+00 -0.17139866177E+02  0.17139866177E+02  0.00000000000E+00 0.  1.
         25    1    1    2    0    0  0.46109001500E+02  0.20937061639E+02  0.46122491527E+03  0.48053909626E+03  0.12500000000E+03 0.  0.
          1    1    1    2  502    0 -0.68387962819E+02 -0.32910811125E+01  0.70404792473E+03  0.70736922819E+03  0.00000000000E+00 0. -1.
         -1    1    1    2    0  501  0.22278961319E+02 -0.17645980527E+02  0.28861642358E+02  0.40505890261E+02  0.00000000000E+00 0.  1.
<mgrwt>
<rscale>  0 0.43107460E+02</rscale>
<asrwt>0</asrwt>
<pdfrwt beam="1">  1        1 0.18634983E+00 0.65383929E+02</pdfrwt>
<pdfrwt beam="2">  1       -1 0.26369034E-02 0.28420639E+02</pdfrwt>
<totfact> 0.43019895E+03</totfact>
</mgrwt>
</event>
<event>
 5    1  0.4149151E-003  0.1263442E+03  0.7546771E-02  0.1416124E+00
          2   -1    0    0  502    0  0.00000000000E+00  0.00000000000E+00  0.83143791268E+03  0.83143791268E+03  0.00000000000E+00 0. -1.
          2   -1    0    0  501    0 -0.00000000000E+00 -0.00000000000E+00 -0.32809719078E+02  0.32809719078E+02  0.00000000000E+00 0. -1.
         25    1    1    2    0    0 -0.80126691515E+02  0.78530347192E+02  0.44305556794E+03  0.47382543031E+03  0.12500000000E+03 0.  0.
          2    1    1    2  501    0 -0.22402664817E+02  0.10373591197E+02  0.70476881992E+02  0.74675844023E+02  0.00000000000E+00 0. -1.
          2    1    1    2  502    0  0.10252935633E+03 -0.88903938389E+02  0.28509574367E+03  0.31574635743E+03  0.00000000000E+00 0. -1.
<mgrwt>
<rscale>  0 0.55849518E+02</rscale>
<asrwt>0</asrwt>
<pdfrwt beam="1">  1        2 0.12791351E+00 0.24687867E+02</pdfrwt>
<pdfrwt beam="2">  1        2 0.50476497E-02 0.12634419E+03</pdfrwt>
<totfact> 0.83456601E+03</totfact>
</mgrwt>
</event>
<event>
 5    1  0.4149151E-003  0.4533474E+02  0.7546771E-02  0.1481316E+00
          2   -1    0    0  502    0  0.00000000000E+00  0.00000000000E+00  0.20615514355E+04  0.20615514355E+04  0.00000000000E+00 0. -1.
         -3   -1    0    0    0  501 -0.00000000000E+00 -0.00000000000E+00 -0.24601708514E+02  0.24601708514E+02  0.00000000000E+00 0.  1.
         25    1    1    2    0    0 -0.63987196474E+02  0.30332116443E+02  0.44912969181E+03  0.47154732388E+03  0.12500000000E+03 0.  0.
          2    1    1    2  502    0  0.22364458169E+02 -0.38993384697E+02  0.15663187734E+04  0.15669636732E+04  0.00000000000E+00 0. -1.
         -3    1    1    2    0  501  0.41622738304E+02  0.86612682542E+01  0.21501261784E+02  0.47642146992E+02  0.00000000000E+00 0.  1.
<mgrwt>
<rscale>  0 0.43901900E+02</rscale>
<asrwt>0</asrwt>
<pdfrwt beam="1">  1        2 0.31716162E+00 0.45334736E+02</pdfrwt>
<pdfrwt beam="2">  1       -3 0.37848799E-02 0.42514349E+02</pdfrwt>
<totfact> 0.14382842E+03</totfact>
</mgrwt>
</event>
<event>
 5    1  0.4149151E-003  0.7063457E+02  0.7546771E-02  0.1400936E+00
         -2   -1    0    0    0  501 -0.00000000000E+00  0.00000000000E+00  0.57454045594E+03  0.57454045594E+03  0.00000000000E+00 0.  1.
          1   -1    0    0  502    0  0.00000000000E+00 -0.00000000000E+00 -0.23659836012E+04  0.23659836012E+04  0.00000000000E+00 0. -1.
         25    1    1    2    0    0 -0.10555997550E+03  0.49187654794E+02 -0.74742654006E+03  0.76670318024E+03  0.12500000000E+03 0.  0.
          1    1    1    2  502    0  0.63226423233E+02 -0.23096414615E+02 -0.16071184611E+04  0.16085275170E+04  0.00000000000E+00 0. -1.
         -2    1    1    2    0  501  0.42333552267E+02 -0.26091240179E+02  0.56310185597E+03  0.56529335982E+03  0.00000000000E+00 0.  1.
<mgrwt>
<rscale>  0 0.59266532E+02</rscale>
<asrwt>0</asrwt>
<pdfrwt beam="2">  1        1 0.36399747E+00 0.70634567E+02</pdfrwt>
<pdfrwt beam="1">  1       -2 0.88390841E-01 0.49728085E+02</pdfrwt>
<totfact> 0.24734371E+00</totfact>
</mgrwt>
</event>
<event>
 5    1  0.1066361E-002  0.1177318E+03  0.7546771E-02  0.1305213E+00
          2   -1    0    0  502    0  0.00000000000E+00  0.00000000000E+00  0.43534799271E+03  0.43534799271E+03  0.00000000000E+00 0. -1.
         -1   -1    0    0    0  501 -0.00000000000E+00 -0.00000000000E+00 -0.95766572184E+02  0.95766572184E+02  0.00000000000E+00 0.  1.
         25    1    1    2    0    0 -0.14880050229E+03 -0.24159789136E+02  0.62342451582E+02  0.20551609708E+03  0.12500000000E+03 0.  0.
          2    1    1    2  502    0  0.65858603193E+02 -0.13991608165E+02  0.18018391584E+03  0.19235218803E+03  0.00000000000E+00 0. -1.
         -1    1    1    2    0  501  0.82941899094E+02  0.38151397301E+02  0.97055053105E+02  0.13324627978E+03  0.00000000000E+00 0.  1.
<mgrwt>
<rscale>  0 0.89032035E+02</rscale>
<asrwt>0</asrwt>
<pdfrwt beam="1">  1        2 0.66976613E-01 0.67328454E+02</pdfrwt>
<pdfrwt beam="2">  1       -1 0.14733319E-01 0.11773185E+03</pdfrwt>
<totfact> 0.26710539E+03</totfact>
</mgrwt>
</event>
<event>
 5    1  0.4149151E-003  0.1278826E+03  0.7546771E-02  0.1255353E+00
          1   -1    0    0  502    0 -0.00000000000E+00  0.00000000000E+00  0.14243793039E+03  0.14243793039E+03  0.00000000000E+00 0. -1.
          2   -1    0    0  501    0  0.00000000000E+00 -0.00000000000E+00 -0.27021056499E+04  0.27021056499E+04  0.00000000000E+00 0. -1.
         25    1    1    2    0    0  0.15322249130E+03 -0.10445508448E+03 -0.58674727812E+03  0.62792146395E+03  0.12500000000E+03 0.  0.
          2    1    1    2  501    0 -0.27481495355E+02  0.95746503877E+02 -0.20606486844E+04  0.20630549256E+04  0.00000000000E+00 0. -1.
          1    1    1    2  502    0 -0.12574099594E+03  0.87085806057E+01  0.87728243022E+02  0.15356719070E+03  0.00000000000E+00 0. -1.
<mgrwt>
<rscale>  0 0.11286580E+03</rscale>
<asrwt>0</asrwt>
<pdfrwt beam="2">  1        2 0.41570852E+00 0.99612377E+02</pdfrwt>
<pdfrwt beam="1">  1        1 0.21913530E-01 0.12788259E+03</pdfrwt>
<totfact> 0.10777551E+02</totfact>
</mgrwt>
</event>
<event>
 5    1  0.4149151E-003  0.3154980E+02  0.7546771E-02  0.1608389E+00
         -1   -1    0    0    0  501 -0.00000000000E+00  0.00000000000E+00  0.10576237230E+03  0.10576237230E+03  0.00000000000E+00 0.  1.
          2   -1    0    0  502    0  0.00000000000E+00 -0.00000000000E+00 -0.40003551945E+03  0.40003551945E+03  0.00000000000E+00 0. -1.
         25    1    1    2    0    0 -0.52968594894E+02 -0.78046015479E+01 -0.15327490123E+03  0.20490187700E+03  0.12500000000E+03 0.  0.
          2    1    1    2  502    0  0.30117361359E+02 -0.62339565141E+01 -0.21758570673E+03  0.21974862330E+03  0.00000000000E+00 0. -1.
         -1    1    1    2    0  501  0.22851233535E+02  0.14038558062E+02  0.76587460808E+02  0.81147391453E+02  0.00000000000E+00 0.  1.
<mgrwt>
<rscale>  0 0.29088395E+02</rscale>
<asrwt>0</asrwt>
<pdfrwt beam="2">  1        2 0.61543926E-01 0.31549798E+02</pdfrwt>
<pdfrwt beam="1">  1       -1 0.16271134E-01 0.26819023E+02</pdfrwt>
<totfact> 0.23020074E+03</totfact>
</mgrwt>
</event>
<event>
 5    1  0.4149151E-003  0.3782491E+02  0.7546771E-02  0.1551713E+00
          2   -1    0    0  501    0  0.00000000000E+00  0.00000000000E+00  0.71890319393E+03  0.71890319393E+03  0.00000000000E+00 0. -1.
          1   -1    0    0  502    0 -0.00000000000E+00 -0.00000000000E+00 -0.33086637769E+03  0.33086637769E+03  0.00000000000E+00 0. -1.
         25    1    1    2    0    0 -0.52658248614E+02 -0.41217927192E+02  0.36648416598E+03  0.39294713714E+03  0.12500000000E+03 0.  0.
          2    1    1    2  501    0  0.29674596333E+02  0.11277188097E+02  0.33731833176E+03  0.33880881568E+03  0.00000000000E+00 0. -1.
          1    1    1    2  502    0  0.22983652281E+02  0.29940739095E+02 -0.31576568151E+03  0.31801361881E+03  0.00000000000E+00 0. -1.
<mgrwt>
<rscale>  0 0.34651964E+02</rscale>
<asrwt>0</asrwt>
<pdfrwt beam="1">  1        2 0.11060049E+00 0.31745183E+02</pdfrwt>
<pdfrwt beam="2">  1        1 0.50902520E-01 0.37824908E+02</pdfrwt>
<totfact> 0.46156000E+02</totfact>
</mgrwt>
</event>
<event>
 5    1  0.4149151E-003  0.1759878E+03  0.7546771E-02  0.1271250E+00
          2   -1    0    0  502    0  0.00000000000E+00  0.00000000000E+00  0.49001931193E+03  0.49001931193E+03  0.00000000000E+00 0. -1.
          2   -1    0    0  501    0 -0.00000000000E+00 -0.00000000000E+00 -0.18494004969E+03  0.18494004969E+03  0.00000000000E+00 0. -1.
         25    1    1    2    0    0  0.70389617590E+02  0.12777672446E+03  0.18451997792E+03  0.26637231806E+03  0.12500000000E+03 0.  0.
          2    1    1    2  501    0  0.18821008905E+02  0.59038672741E+02 -0.92613552942E+02  0.11143188701E+03  0.00000000000E+00 0. -1.
          2    1    1    2  502    0 -0.89210626495E+02 -0.18681539720E+03  0.21317283727E+03  0.29715515654E+03  0.00000000000E+00 0. -1.
<mgrwt>
<rscale>  0 0.10442832E+03</rscale>
<asrwt>0</asrwt>
<pdfrwt beam="1">  1        2 0.75387586E-01 0.17598779E+03</pdfrwt>
<pdfrwt beam="2">  1        2 0.28452316E-01 0.61966081E+02</pdfrwt>
<totfact> 0.17793924E+03</totfact>
</mgrwt>
</event>
<event>
 5    1  0.4149151E-003  0.7842300E+02  0.7546771E-02  0.1396987E+00
          1   -1    0    0  501    0  0.00000000000E+00  0.00000000000E+00  0.20506558006E+04  0.20506558006E+04  0.00000000000E+00 0. -1.
          1   -1    0    0  502    0 -0.00000000000E+00 -0.00000000000E+00 -0.50098442810E+03  0.50098442810E+03  0.00000000000E+00 0. -1.
         25    1    1    2    0    0 -0.85903958897E+02  0.20586569481E+02  0.10821617586E+04  0.10929329205E+04  0.12500000000E+03 0.  0.
          1    1    1    2  501    0  0.11306572309E+02 -0.44809662468E+02  0.95944571396E+03  0.96055807865E+03  0.00000000000E+00 0. -1.
          1    1    1    2  502    0  0.74597386588E+02  0.24223092987E+02 -0.49193610007E+03  0.49814922952E+03  0.00000000000E+00 0. -1.
<mgrwt>
<rscale>  0 0.60201741E+02</rscale>
<asrwt>0</asrwt>
<pdfrwt beam="1">  1        1 0.31548550E+00 0.46214115E+02</pdfrwt>
<pdfrwt beam="2">  1        1 0.77074528E-01 0.78423001E+02</pdfrwt>
<totfact> 0.21839296E+01</totfact>
</mgrwt>
</event>
<event>
 5    1  0.4149151E-003  0.1030602E+03  0.7546771E-02  0.1288751E+00
          2   -1    0    0  502    0  0.00000000000E+00  0.00000000000E+00  0.19384457823E+04  0.19384457823E+04  0.00000000000E+00 0.  1.
         -2   -1    0    0    0  501 -0.00000000000E+00 -0.00000000000E+00 -0.41045863734E+02  0.41045863734E+02  0.00000000000E+00 0. -1.
         25    1    1    2    0    0 -0.46152754180E+02 -0.27841918483E+02  0.10730226530E+04  0.10816227914E+04  0.12500000000E+03 0.  0.
          2    1    1    2  502    0 -0.53291065968E+02  0.72006206625E+02  0.77187298696E+03  0.77705388456E+03  0.00000000000E+00 0.  1.
         -2    1    1    2    0  501  0.99443820147E+02 -0.44164288141E+02  0.52504278627E+02  0.12081497004E+03  0.00000000000E+00 0. -1.
<mgrwt>
<rscale>  0 0.96084773E+02</rscale>
<asrwt>0</asrwt>
<pdfrwt beam="1">  1        2 0.29822236E+00 0.89581424E+02</pdfrwt>
<pdfrwt beam="2">  1       -2 0.63147498E-02 0.10306025E+03</pdfrwt>
<totfact> 0.11385622E+03</totfact>
</mgrwt>
</event>
<event>
 5    1  0.4149151E-003  0.8559335E+02  0.7546771E-02  0.1495447E+00
         -3   -1    0    0    0  501 -0.00000000000E+00  0.00000000000E+00  0.22910904109E+03  0.22910904109E+03  0.00000000000E+00 0.  1.
          2   -1    0    0  502    0  0.00000000000E+00 -0.00000000000E+00 -0.41109102055E+03  0.41109102055E+03  0.00000000000E+00 0. -1.
         25    1    1    2    0    0  0.27499332188E+02  0.62750908272E+02 -0.11096003520E+03  0.18064058008E+03  0.12500000000E+03 0.  0.
          2    1    1    2  502    0  0.16467238424E+02  0.12044845103E+02 -0.25517629322E+03  0.25599060306E+03  0.00000000000E+00 0. -1.
         -3    1    1    2    0  501 -0.43966570611E+02 -0.74795753375E+02  0.18415434896E+03  0.20356887850E+03  0.00000000000E+00 0.  1.
<mgrwt>
<rscale>  0 0.41788629E+02</rscale>
<asrwt>0</asrwt>
<pdfrwt beam="2">  1        2 0.63244772E-01 0.20402163E+02</pdfrwt>
<pdfrwt beam="1">  1       -3 0.35247545E-01 0.85593353E+02</pdfrwt>
<totfact> 0.36225281E+02</totfact>
</mgrwt>
</event>
<event>
 5    1  0.4149151E-003  0.8293649E+02  0.7546771E-02  0.1335481E+00
          2   -1    0    0  502    0  0.00000000000E+00  0.00000000000E+00  0.22655967301E+04  0.22655967301E+04  0.00000000000E+00 0. -1.
         -1   -1    0    0    0  501 -0.00000000000E+00 -0.00000000000E+00 -0.96953559160E+02  0.96953559160E+02  0.00000000000E+00 0.  1.
         25    1    1    2    0    0 -0.14285300983E+02 -0.18363817639E+01  0.19307850402E+03  0.23045986817E+03  0.12500000000E+03 0.  0.
          2    1    1    2  502    0  0.76878203269E+02  0.39281108195E+02  0.20357176917E+04  0.20375474925E+04  0.00000000000E+00 0. -1.
         -1    1    1    2    0  501 -0.62592902287E+02 -0.37444726431E+02 -0.60153024832E+02  0.94542928612E+02  0.00000000000E+00 0.  1.
<mgrwt>
<rscale>  0 0.77776843E+02</rscale>
<asrwt>0</asrwt>
<pdfrwt beam="1">  1        2 0.34855330E+00 0.82936493E+02</pdfrwt>
<pdfrwt beam="2">  1       -1 0.14915934E-01 0.72938186E+02</pdfrwt>
<totfact> 0.21617154E+02</totfact>
</mgrwt>
</event>
<event>
 5    1  0.4149151E-003  0.1413035E+03  0.7546771E-02  0.1259492E+00
          3   -1    0    0  502    0  0.00000000000E+00  0.00000000000E+00  0.73399234820E+03  0.73399234820E+03  0.00000000000E+00 0. -1.
         -3   -1    0    0    0  501 -0.00000000000E+00 -0.00000000000E+00 -0.51105303040E+03  0.51105303040E+03  0.00000000000E+00 0.  1.
         25    1    1    2    0    0 -0.10281543189E+03  0.45929282568E+02 -0.89402414080E+02  0.19052113708E+03  0.12500000000E+03 0.  0.
          3    1    1    2  502    0  0.14046052724E+03  0.31997533510E+02  0.67063192122E+03  0.68593015361E+03  0.00000000000E+00 0. -1.
         -3    1    1    2    0  501 -0.37645095358E+02 -0.77926816078E+02 -0.35829018934E+03  0.36859408791E+03  0.00000000000E+00 0.  1.
<mgrwt>
<rscale>  0 0.11058423E+03</rscale>
<asrwt>0</asrwt>
<pdfrwt beam="1">  1        3 0.11292190E+00 0.14130353E+03</pdfrwt>
<pdfrwt beam="2">  1       -3 0.78623543E-01 0.86543295E+02</pdfrwt>
<totfact> 0.25386429E+00</totfact>
</mgrwt>
</event>
<event>
 5    1  0.4149151E-003  0.5145463E+02  0.7546771E-02  0.1492012E+00
          2   -1    0    0  502    0  0.00000000000E+00  0.00000000000E+00  0.52696245729E+03  0.52696245729E+03  0.00000000000E+00 0. -1.
         -2   -1    0    0    0  501 -0.00000000000E+00 -0.00000000000E+00 -0.37752204179E+03  0.37752204179E+03  0.00000000000E+00 0.  1.
         25    1    1    2    0    0 -0.63175642602E+02 -0.34971549310E+02 -0.14596076050E+03  0.20528934382E+03  0.12500000000E+03 0.  0.
          2    1    1    2  502    0  0.51302072828E+02  0.23065670607E+01  0.49446265547E+03  0.49712225919E+03  0.00000000000E+00 0. -1.
         -2    1    1    2    0  501  0.11873569774E+02  0.32664982250E+02 -0.19906147946E+03  0.20207289608E+03  0.00000000000E+00 0.  1.
<mgrwt>
<rscale>  0 0.42288999E+02</rscale>
<asrwt>0</asrwt>
<pdfrwt beam="1">  1        2 0.81071147E-01 0.51454629E+02</pdfrwt>
<pdfrwt beam="2">  1       -2 0.58080314E-01 0.34756046E+02</pdfrwt>
<totfact> 0.17367950E+02</totfact>
</mgrwt>
</event>
<event>
 5    1  0.4149151E-003  0.9259916E+02  0.7546771E-02  0.1300105E+00
          2   -1    0    0  501    0  0.00000000000E+00  0.00000000000E+00  0.56824669577E+02  0.56824669577E+02  0.00000000000E+00 0. -1.
          2   -1    0    0  502    0 -0.00000000000E+00 -0.00000000000E+00 -0.26284687209E+04  0.26284687209E+04  0.00000000000E+00 0. -1.
         25    1    1    2    0    0  0.10281966084E+02  0.38870565484E+02 -0.17875544447E+03  0.22179979400E+03  0.12500000000E+03 0.  0.
          2    1    1    2  501    0 -0.82257270768E+02 -0.92421932018E+02 -0.76706131442E+02  0.14557438893E+03  0.00000000000E+00 0. -1.
          2    1    1    2  502    0  0.71975304684E+02  0.53551366533E+02 -0.23161824754E+04  0.23179192075E+04  0.00000000000E+00 0. -1.
<mgrwt>
<rscale>  0 0.91144009E+02</rscale>
<asrwt>0</asrwt>
<pdfrwt beam="1">  1        2 0.87422577E-02 0.92599162E+02</pdfrwt>
<pdfrwt beam="2">  1        2 0.40437976E+00 0.89711724E+02</pdfrwt>
<totfact> 0.43419577E+02</totfact>
</mgrwt>
</event>
<event>
 5    1  0.4149151E-003  0.3863128E+02  0.7546771E-02  0.1537157E+00
         -2   -1    0    0    0  501 -0.00000000000E+00  0.00000000000E+00  0.89429316660E+02  0.89429316660E+02  0.00000000000E+00 0.  1.
          1   -1    0    0  502    0  0.00000000000E+00 -0.00000000000E+00 -0.12275118437E+03  0.12275118437E+03  0.00000000000E+00 0. -1.
         25    1    1    2    0    0 -0.10196017378E+02  0.38425707215E+01 -0.33473289095E+02  0.12986217772E+03  0.12500000000E+03 0.  0.
          1    1    1    2  502    0 -0.34150407791E+02 -0.37484876474E+00 -0.12012290128E+02  0.36203397326E+02  0.00000000000E+00 0. -1.
         -2    1    1    2    0  501  0.44346425169E+02 -0.34677219568E+01  0.12163711509E+02  0.46114925984E+02  0.00000000000E+00 0.  1.
<mgrwt>
<rscale>  0 0.36322904E+02</rscale>
<asrwt>0</asrwt>
<pdfrwt beam="2">  1        1 0.18884798E-01 0.34152465E+02</pdfrwt>
<pdfrwt beam="1">  1       -2 0.13758356E-01 0.38631278E+02</pdfrwt>
<totfact> 0.78655914E+03</totfact>
</mgrwt>
</event>
<event>
 5    1  0.4149151E-003  0.8684818E+02  0.7546771E-02  0.1356628E+00
          3   -1    0    0  502    0 -0.00000000000E+00  0.00000000000E+00  0.42238338203E+03  0.42238338203E+03  0.00000000000E+00 0. -1.
          2   -1    0    0  501    0  0.00000000000E+00 -0.00000000000E+00 -0.38874370175E+04  0.38874370175E+04  0.00000000000E+00 0. -1.
         25    1    1    2    0    0  0.67240092603E+02  0.80618533941E+02 -0.32315949162E+03  0.36204645433E+03  0.12500000000E+03 0.  0.
          2    1    1    2  501    0  0.15988369002E+02 -0.55847688310E+02 -0.35399144959E+04  0.35403911126E+04  0.00000000000E+00 0. -1.
          3    1    1    2  502    0 -0.83228461606E+02 -0.24770845631E+02  0.39802035204E+03  0.40738283255E+03  0.00000000000E+00 0. -1.
<mgrwt>
<rscale>  0 0.71028996E+02</rscale>
<asrwt>0</asrwt>
<pdfrwt beam="2">  1        2 0.59806721E+00 0.58091241E+02</pdfrwt>
<pdfrwt beam="1">  1        3 0.64982061E-01 0.86848176E+02</pdfrwt>
<totfact> 0.10493735E+00</totfact>
</mgrwt>
</event>
<event>
 5    1  0.4149151E-003  0.8056490E+02  0.7546771E-02  0.1426372E+00
          2   -1    0    0  501    0  0.00000000000E+00  0.00000000000E+00  0.68174917632E+02  0.68174917632E+02  0.00000000000E+00 0. -1.
          1   -1    0    0  502    0 -0.00000000000E+00 -0.00000000000E+00 -0.73846199409E+03  0.73846199409E+03  0.00000000000E+00 0. -1.
         25    1    1    2    0    0 -0.35729172510E+01  0.60255074929E+02 -0.12287318088E+03  0.18538138626E+03  0.12500000000E+03 0.  0.
          2    1    1    2  501    0  0.30918766543E+02  0.18020545221E+02  0.24495138132E+02  0.43367291438E+02  0.00000000000E+00 0. -1.
          1    1    1    2  502    0 -0.27345849292E+02 -0.78275620149E+02 -0.57190903371E+03  0.57788823402E+03  0.00000000000E+00 0. -1.
<mgrwt>
<rscale>  0 0.53695224E+02</rscale>
<asrwt>0</asrwt>
<pdfrwt beam="1">  1        2 0.10488449E-01 0.35787011E+02</pdfrwt>
<pdfrwt beam="2">  1        1 0.11360954E+00 0.80564902E+02</pdfrwt>
<totfact> 0.19806191E+03</totfact>
</mgrwt>
</event>
<event>
 5    1  0.4149151E-003  0.2197017E+03  0.7546771E-02  0.1299027E+00
          2   -1    0    0  502    0  0.00000000000E+00  0.00000000000E+00  0.21542215788E+04  0.21542215788E+04  0.00000000000E+00 0.  1.
          2   -1    0    0  501    0 -0.00000000000E+00 -0.00000000000E+00 -0.29760483890E+04  0.29760483890E+04  0.00000000000E+00 0.  1.
         25    1    1    2    0    0  0.17496147138E+03 -0.57007247283E+02 -0.31100609270E+03  0.38237564306E+03  0.12500000000E+03 0.  0.
          2    1    1    2  501    0  0.30092277747E+02 -0.23513111163E+02 -0.26234912796E+04  0.26237692173E+04  0.00000000000E+00 0.  1.
          2    1    1    2  502    0 -0.20505374913E+03  0.80520358447E+02  0.21126705620E+04  0.21241251074E+04  0.00000000000E+00 0.  1.
<mgrwt>
<rscale>  0 0.91598166E+02</rscale>
<asrwt>0</asrwt>
<pdfrwt beam="1">  1        2 0.33141871E+00 0.21970175E+03</pdfrwt>
<pdfrwt beam="2">  1        2 0.45785360E+00 0.38189155E+02</pdfrwt>
<totfact> 0.29209401E+00</totfact>
</mgrwt>
</event>
<event>
 5    1  0.4149151E-003  0.5880339E+02  0.7546771E-02  0.1450200E+00
          2   -1    0    0  501    0  0.00000000000E+00  0.00000000000E+00  0.17574182198E+03  0.17574182198E+03  0.00000000000E+00 0.  1.
          2   -1    0    0  502    0 -0.00000000000E+00 -0.00000000000E+00 -0.24130979774E+03  0.24130979774E+03  0.00000000000E+00 0. -1.
         25    1    1    2    0    0  0.15321444549E+02 -0.48592949487E+02 -0.16453499354E+03  0.21282101753E+03  0.12500000000E+03 0.  0.
          2    1    1    2  501    0 -0.51643493544E+02  0.29542108653E+02  0.13633123165E+03  0.14874808009E+03  0.00000000000E+00 0.  1.
          2    1    1    2  502    0  0.36322048995E+02  0.19050840834E+02 -0.37364213874E+02  0.55482522095E+02  0.00000000000E+00 0. -1.
<mgrwt>
<rscale>  0 0.49110262E+02</rscale>
<asrwt>0</asrwt>
<pdfrwt beam="1">  1        2 0.27037203E-01 0.58803389E+02</pdfrwt>
<pdfrwt beam="2">  1        2 0.37124584E-01 0.41014946E+02</pdfrwt>
<totfact> 0.39284052E+03</totfact>
</mgrwt>
</event>
<event>
 5    1  0.4149151E-003  0.4640303E+03  0.7546771E-02  0.1023619E+00
          1   -1    0    0  502    0  0.00000000000E+00  0.00000000000E+00  0.31550120476E+04  0.31550120476E+04  0.00000000000E+00 0. -1.
         -1   -1    0    0    0  501 -0.00000000000E+00 -0.00000000000E+00 -0.17062069880E+02  0.17062069880E+02  0.00000000000E+00 0.  1.
         25    1    1    2    0    0  0.14333587447E+01  0.20113613779E+03  0.18812459973E+04  0.18960931683E+04  0.12500000000E+03 0.  0.
          1    1    1    2  502    0  0.19163630781E+02 -0.14936969113E+03  0.10865899414E+04  0.10969759570E+04  0.00000000000E+00 0. -1.
         -1    1    1    2    0  501 -0.20596989526E+02 -0.51766446660E+02  0.17011403893E+03  0.17900499216E+03  0.00000000000E+00 0.  1.
<mgrwt>
<rscale>  0 0.46403033E+03</rscale>
<asrwt>0</asrwt>
<pdfrwt beam="1">  1        1 0.48538600E+00 0.46403033E+03</pdfrwt>
<pdfrwt beam="2">  1       -1 0.26249363E-02 0.46403033E+03</pdfrwt>
<totfact> 0.24941754E+02</totfact>
</mgrwt>
</event>
<event>
 5    1  0.4149151E-003  0.6604750E+02  0.7546771E-02  0.1447722E+00
          1   -1    0    0  502    0  0.00000000000E+00  0.00000000000E+00  0.59668189443E+03  0.59668189443E+03  0.00000000000E+00 0. -1.
         -1   -1    0    0    0  501 -0.00000000000E+00 -0.00000000000E+00 -0.46325456526E+02  0.46325456526E+02  0.00000000000E+00 0.  1.
         25    1    1    2    0    0 -0.14293522340E+02  0.39722409777E+02  0.17640811822E+03  0.22028844453E+03  0.12500000000E+03 0.  0.
          1    1    1    2  502    0  0.15134672890E+02  0.33971387653E+02  0.33921160251E+03  0.34124423040E+03  0.00000000000E+00 0. -1.
         -1    1    1    2    0  501 -0.84115055071E+00 -0.73693797430E+02  0.34736717174E+02  0.81474676028E+02  0.00000000000E+00 0.  1.
<mgrwt>
<rscale>  0 0.49561295E+02</rscale>
<asrwt>0</asrwt>
<pdfrwt beam="1">  1        1 0.91797209E-01 0.37190234E+02</pdfrwt>
<pdfrwt beam="2">  1       -1 0.71269937E-02 0.66047501E+02</pdfrwt>
<totfact> 0.34889964E+03</totfact>
</mgrwt>
</event>
<event>
 5    1  0.4149151E-003  0.7507207E+02  0.7546771E-02  0.1403491E+00
         -1   -1    0    0    0  501 -0.00000000000E+00  0.00000000000E+00  0.62546702205E+02  0.62546702205E+02  0.00000000000E+00 0.  1.
          2   -1    0    0  502    0  0.00000000000E+00 -0.00000000000E+00 -0.31068354544E+03  0.31068354544E+03  0.00000000000E+00 0. -1.
         25    1    1    2    0    0  0.56425932794E+01  0.92073729567E+02 -0.16392164382E+03  0.22584223663E+03  0.12500000000E+03 0.  0.
          2    1    1    2  502    0 -0.37796278546E+02 -0.59381581061E+02 -0.70265962321E+02  0.99458716572E+02  0.00000000000E+00 0. -1.
         -1    1    1    2    0  501  0.32153685267E+02 -0.32692148506E+02 -0.13949237097E+02  0.47929294443E+02  0.00000000000E+00 0.  1.
<mgrwt>
<rscale>  0 0.58671908E+02</rscale>
<asrwt>0</asrwt>
<pdfrwt beam="2">  1        2 0.47797469E-01 0.75072068E+02</pdfrwt>
<pdfrwt beam="1">  1       -1 0.96225696E-02 0.45854510E+02</pdfrwt>
<totfact> 0.68130955E+03</totfact>
</mgrwt>
</event>
<event>
 5    1  0.4149151E-003  0.1537590E+03  0.7546771E-02  0.1297159E+00
          1   -1    0    0  502    0  0.00000000000E+00  0.00000000000E+00  0.14897865340E+04  0.14897865340E+04  0.00000000000E+00 0. -1.
         -2   -1    0    0    0  501 -0.00000000000E+00 -0.00000000000E+00 -0.81109153373E+02  0.81109153373E+02  0.00000000000E+00 0.  1.
         25    1    1    2    0    0  0.12706982339E+03  0.10757516340E+03  0.36520278955E+03  0.42037748904E+03  0.12500000000E+03 0.  0.
          1    1    1    2  502    0  0.15197353251E+02 -0.53397625786E+02  0.98636260981E+03  0.98792381488E+03  0.00000000000E+00 0. -1.
         -2    1    1    2    0  501 -0.14226717664E+03 -0.54177537618E+02  0.57111981306E+02  0.16259438349E+03  0.00000000000E+00 0.  1.
<mgrwt>
<rscale>  0 0.92392742E+02</rscale>
<asrwt>0</asrwt>
<pdfrwt beam="1">  1        1 0.22919791E+00 0.55518159E+02</pdfrwt>
<pdfrwt beam="2">  1       -2 0.12478332E-01 0.15375904E+03</pdfrwt>
<totfact> 0.33580807E+02</totfact>
</mgrwt>
</event>
<event>
 5    1  0.4149151E-003  0.8816068E+02  0.7546771E-02  0.1431426E+00
          2   -1    0    0  501    0  0.00000000000E+00  0.00000000000E+00  0.42933052695E+03  0.42933052695E+03  0.00000000000E+00 0.  1.
          1   -1    0    0  502    0 -0.00000000000E+00 -0.00000000000E+00 -0.28382220890E+04  0.28382220890E+04  0.00000000000E+00 0. -1.
         25    1    1    2    0    0  0.58421252982E+02  0.14523620581E+02 -0.55059789225E+03  0.56780896198E+03  0.12500000000E+03 0.  0.
          2    1    1    2  501    0 -0.88283108451E+02 -0.45842689177E+01  0.41597118772E+03  0.42526103956E+03  0.00000000000E+00 0.  1.
          1    1    1    2  502    0  0.29861855469E+02 -0.99393516630E+01 -0.22742648575E+04  0.22744826144E+04  0.00000000000E+00 0. -1.
<mgrwt>
<rscale>  0 0.52674861E+02</rscale>
<asrwt>0</asrwt>
<pdfrwt beam="1">  1        2 0.66050851E-01 0.88160681E+02</pdfrwt>
<pdfrwt beam="2">  1        1 0.43664955E+00 0.31472546E+02</pdfrwt>
<totfact> 0.13744730E+01</totfact>
</mgrwt>
</event>
<event>
 5    1  0.4149151E-003  0.4101234E+03  0.7546771E-02  0.1158278E+00
          2   -1    0    0  501    0  0.00000000000E+00  0.00000000000E+00  0.57957971508E+03  0.57957971508E+03  0.00000000000E+00 0. -1.
          2   -1    0    0  502    0 -0.00000000000E+00 -0.00000000000E+00 -0.96634201672E+03  0.96634201672E+03  0.00000000000E+00 0. -1.
         25    1    1    2    0    0 -0.35248408218E+03 -0.11865555142E+03 -0.15704171204E+03  0.42262426266E+03  0.12500000000E+03 0.  0.
          2    1    1    2  501    0  0.42050459023E+03  0.62492138379E+02  0.34150400976E+03  0.54530208733E+03  0.00000000000E+00 0. -1.
          2    1    1    2  502    0 -0.68020508052E+02  0.56163413046E+02 -0.57122459936E+03  0.57799538181E+03  0.00000000000E+00 0. -1.
<mgrwt>
<rscale>  0 0.19020318E+03</rscale>
<asrwt>0</asrwt>
<pdfrwt beam="1">  1        2 0.89166111E-01 0.41012339E+03</pdfrwt>
<pdfrwt beam="2">  1        2 0.14866800E+00 0.88210648E+02</pdfrwt>
<totfact> 0.23592489E+02</totfact>
</mgrwt>
</event>
<event>
 5    1  0.4149151E-003  0.6495071E+02  0.7546771E-02  0.1389767E+00
          2   -1    0    0  502    0  0.00000000000E+00  0.00000000000E+00  0.17231478593E+03  0.17231478593E+03  0.00000000000E+00 0. -1.
         -1   -1    0    0    0  501 -0.00000000000E+00 -0.00000000000E+00 -0.14603905611E+04  0.14603905611E+04  0.00000000000E+00 0.  1.
         25    1    1    2    0    0  0.42420732655E+02 -0.10351811139E+02  0.62642602721E+02  0.14647789672E+03  0.12500000000E+03 0.  0.
          2    1    1    2  502    0 -0.26359287007E+02 -0.52913738192E+02  0.53956191250E+02  0.80037155592E+02  0.00000000000E+00 0. -1.
         -1    1    1    2    0  501 -0.16061445648E+02  0.63265549331E+02 -0.14046745692E+04  0.14061902948E+04  0.00000000000E+00 0.  1.
<mgrwt>
<rscale>  0 0.61964605E+02</rscale>
<asrwt>0</asrwt>
<pdfrwt beam="1">  1        2 0.26509968E-01 0.59115782E+02</pdfrwt>
<pdfrwt beam="2">  1       -1 0.22467547E+00 0.64950714E+02</pdfrwt>
<totfact> 0.29276040E+01</totfact>
</mgrwt>
</event>
<event>
 5    1  0.4149151E-003  0.7027706E+02  0.7546771E-02  0.1433314E+00
          2   -1    0    0  502    0  0.00000000000E+00  0.00000000000E+00  0.75898442962E+03  0.75898442962E+03  0.00000000000E+00 0. -1.
         -3   -1    0    0    0  501 -0.00000000000E+00 -0.00000000000E+00 -0.38065501323E+03  0.38065501323E+03  0.00000000000E+00 0. -1.
         25    1    1    2    0    0 -0.91633685187E+02  0.14489440153E+02  0.30490336918E+03  0.34234155557E+03  0.12500000000E+03 0.  0.
          2    1    1    2  502    0  0.31924906478E+02  0.22265382066E+02  0.43108126391E+03  0.43283484493E+03  0.00000000000E+00 0. -1.
         -3    1    1    2    0  501  0.59708778709E+02 -0.36754822219E+02 -0.35765521669E+03  0.36446304235E+03  0.00000000000E+00 0. -1.
<mgrwt>
<rscale>  0 0.52300537E+02</rscale>
<asrwt>0</asrwt>
<pdfrwt beam="1">  1        2 0.11676684E+00 0.38922319E+02</pdfrwt>
<pdfrwt beam="2">  1       -3 0.58562310E-01 0.70277061E+02</pdfrwt>
<totfact> 0.69523600E+01</totfact>
</mgrwt>
</event>
<event>
 5    1  0.4149151E-003  0.7639115E+02  0.7546771E-02  0.1413817E+00
          2   -1    0    0  501    0  0.00000000000E+00  0.00000000000E+00  0.31410619620E+04  0.31410619620E+04  0.00000000000E+00 0. -1.
          1   -1    0    0  502    0 -0.00000000000E+00 -0.00000000000E+00 -0.13119848853E+03  0.13119848853E+03  0.00000000000E+00 0. -1.
         25    1    1    2    0    0  0.35242725193E+02 -0.11326496156E+02  0.13593242859E+03  0.18834267795E+03  0.12500000000E+03 0.  0.
          2    1    1    2  501    0 -0.76703771966E+02  0.83522803746E+01  0.29742901807E+04  0.29752907939E+04  0.00000000000E+00 0. -1.
          1    1    1    2  502    0  0.41461046773E+02  0.29742157818E+01 -0.10035913582E+03  0.10862697870E+03  0.00000000000E+00 0. -1.
<mgrwt>
<rscale>  0 0.56350652E+02</rscale>
<asrwt>0</asrwt>
<pdfrwt beam="1">  1        2 0.48324025E+00 0.76391153E+02</pdfrwt>
<pdfrwt beam="2">  1        1 0.20184385E-01 0.41567588E+02</pdfrwt>
<totfact> 0.67846414E+01</totfact>
</mgrwt>
</event>
<event>
 5    1  0.4149151E-003  0.5449442E+02  0.7546771E-02  0.1447915E+00
          3   -1    0    0  502    0 -0.00000000000E+00  0.00000000000E+00  0.56242386539E+02  0.56242386539E+02  0.00000000000E+00 0. -1.
          1   -1    0    0  501    0  0.00000000000E+00 -0.00000000000E+00 -0.68527926999E+03  0.68527926999E+03  0.00000000000E+00 0. -1.
         25    1    1    2    0    0  0.54165573203E+00  0.96748976448E+02 -0.29451228002E+03  0.33425011730E+03  0.12500000000E+03 0.  0.
          1    1    1    2  501    0  0.26140882726E+01 -0.44934518082E+02 -0.35017285962E+03  0.35305378625E+03  0.00000000000E+00 0. -1.
          3    1    1    2  502    0 -0.31557440046E+01 -0.51814458365E+02  0.15648256187E+02  0.54217752974E+02  0.00000000000E+00 0. -1.
<mgrwt>
<rscale>  0 0.49525958E+02</rscale>
<asrwt>0</asrwt>
<pdfrwt beam="2">  1        1 0.10542758E+00 0.45010492E+02</pdfrwt>
<pdfrwt beam="1">  1        3 0.86526745E-02 0.54494417E+02</pdfrwt>
<totfact> 0.13541988E+03</totfact>
</mgrwt>
</event>
<event>
 5    1  0.4149151E-003  0.5038707E+02  0.7546771E-02  0.1482597E+00
          2   -1    0    0  501    0  0.00000000000E+00  0.00000000000E+00  0.51970897841E+03  0.51970897841E+03  0.00000000000E+00 0.  1.
          1   -1    0    0  502    0 -0.00000000000E+00 -0.00000000000E+00 -0.35155425670E+04  0.35155425670E+04  0.00000000000E+00 0. -1.
         25    1    1    2    0    0 -0.36169409277E+02 -0.62256795193E+02 -0.10328020450E+03  0.17741458609E+03  0.12500000000E+03 0.  0.
          2    1    1    2  501    0  0.35980979510E+02  0.11931170547E+02  0.48170952746E+03  0.48319877127E+03  0.00000000000E+00 0.  1.
          1    1    1    2  502    0  0.18842976642E+00  0.50325624646E+02 -0.33742629115E+04  0.33746381880E+04  0.00000000000E+00 0. -1.
<mgrwt>
<rscale>  0 0.43704135E+02</rscale>
<asrwt>0</asrwt>
<pdfrwt beam="1">  1        2 0.79955228E-01 0.37907568E+02</pdfrwt>
<pdfrwt beam="2">  1        1 0.54085270E+00 0.50387073E+02</pdfrwt>
<totfact> 0.35648082E+00</totfact>
</mgrwt>
</event>
<event>
 5    1  0.4149151E-003  0.2113579E+03  0.7546771E-02  0.1208322E+00
          2   -1    0    0  502    0  0.00000000000E+00  0.00000000000E+00  0.22182207550E+04  0.22182207550E+04  0.00000000000E+00 0. -1.
          2   -1    0    0  501    0 -0.00000000000E+00 -0.00000000000E+00 -0.14704680441E+03  0.14704680441E+03  0.00000000000E+00 0. -1.
         25    1    1    2    0    0  0.15782316333E+03  0.16900436092E+02  0.20133539952E+03  0.28522748592E+03  0.12500000000E+03 0.  0.
          2    1    1    2  501    0 -0.24227687149E+03  0.32456500846E+02  0.40123751847E+02  0.24771237831E+03  0.00000000000E+00 0. -1.
          2    1    1    2  502    0  0.84453708160E+02 -0.49356936939E+02  0.18297147992E+04  0.18323276952E+04  0.00000000000E+00 0. -1.
<mgrwt>
<rscale>  0 0.14378732E+03</rscale>
<asrwt>0</asrwt>
<pdfrwt beam="1">  1        2 0.34126471E+00 0.97818894E+02</pdfrwt>
<pdfrwt beam="2">  1        2 0.22622587E-01 0.21135788E+03</pdfrwt>
<totfact> 0.23735916E+02</totfact>
</mgrwt>
</event>
<event>
 5    1  0.4149151E-003  0.1814450E+03  0.7546771E-02  0.1242725E+00
          1   -1    0    0  502    0  0.00000000000E+00  0.00000000000E+00  0.78107557582E+03  0.78107557582E+03  0.00000000000E+00 0.  1.
         -2   -1    0    0    0  501 -0.00000000000E+00 -0.00000000000E+00 -0.59036604790E+03  0.59036604790E+03  0.00000000000E+00 0. -1.
         25    1    1    2    0    0 -0.10093442341E+03 -0.76046853491E+02  0.23105282265E+02  0.17924769405E+03  0.12500000000E+03 0.  0.
          1    1    1    2  502    0 -0.79146128487E+02  0.90471782814E+01  0.65940117237E+03  0.66419565432E+03  0.00000000000E+00 0.  1.
         -2    1    1    2    0  501  0.18008055189E+03  0.66999675209E+02 -0.49179692672E+03  0.52799827536E+03  0.00000000000E+00 0. -1.
<mgrwt>
<rscale>  0 0.12022558E+03</rscale>
<asrwt>0</asrwt>
<pdfrwt beam="1">  1        1 0.12016547E+00 0.79661541E+02</pdfrwt>
<pdfrwt beam="2">  1       -2 0.90825546E-01 0.18144503E+03</pdfrwt>
<totfact> 0.24476784E+01</totfact>
</mgrwt>
</event>
<event>
 5    1  0.4149151E-003  0.4748841E+02  0.7546771E-02  0.1466818E+00
          2   -1    0    0  502    0  0.00000000000E+00  0.00000000000E+00  0.97187441417E+03  0.97187441417E+03  0.00000000000E+00 0. -1.
         -1   -1    0    0    0  501 -0.00000000000E+00 -0.00000000000E+00 -0.20069072404E+02  0.20069072404E+02  0.00000000000E+00 0.  1.
         25    1    1    2    0    0 -0.58682275823E+02 -0.69712454643E+01  0.78694290517E+03  0.79899708620E+03  0.12500000000E+03 0.  0.
          2    1    1    2  502    0  0.22776339412E+02  0.38811620581E+02  0.11616163882E+03  0.12457379284E+03  0.00000000000E+00 0. -1.
         -1    1    1    2    0  501  0.35905936411E+02 -0.31840375117E+02  0.48700797780E+02  0.68372607538E+02  0.00000000000E+00 0.  1.
<mgrwt>
<rscale>  0 0.46228057E+02</rscale>
<asrwt>0</asrwt>
<pdfrwt beam="1">  1        2 0.14951910E+00 0.45001150E+02</pdfrwt>
<pdfrwt beam="2">  1       -1 0.30875504E-02 0.47488414E+02</pdfrwt>
<totfact> 0.10083126E+04</totfact>
</mgrwt>
</event>
<event>
 5    1  0.4149151E-003  0.2796326E+03  0.7546771E-02  0.1141146E+00
          1   -1    0    0  502    0 -0.00000000000E+00  0.00000000000E+00  0.14905762662E+04  0.14905762662E+04  0.00000000000E+00 0. -1.
          2   -1    0    0  501    0  0.00000000000E+00 -0.00000000000E+00 -0.23427618645E+03  0.23427618645E+03  0.00000000000E+00 0. -1.
         25    1    1    2    0    0  0.30796189339E+03 -0.14181330326E+02  0.21871293884E+03  0.39812308087E+03  0.12500000000E+03 0.  0.
          2    1    1    2  501    0 -0.73293692257E+02 -0.14054197775E+03 -0.77729211884E+02  0.17653850349E+03  0.00000000000E+00 0. -1.
          1    1    1    2  502    0 -0.23466820113E+03  0.15472330808E+03  0.11153163528E+04  0.11501908683E+04  0.00000000000E+00 0. -1.
<mgrwt>
<rscale>  0 0.21053106E+03</rscale>
<asrwt>0</asrwt>
<pdfrwt beam="2">  1        2 0.36042491E-01 0.15850556E+03</pdfrwt>
<pdfrwt beam="1">  1        1 0.22931942E+00 0.27963263E+03</pdfrwt>
<totfact> 0.14088978E+02</totfact>
</mgrwt>
</event>
<event>
 5    1  0.4149151E-003  0.4231739E+02  0.7546771E-02  0.1538738E+00
          1   -1    0    0  502    0  0.00000000000E+00  0.00000000000E+00  0.32075073342E+03  0.32075073342E+03  0.00000000000E+00 0. -1.
         -2   -1    0    0    0  501 -0.00000000000E+00 -0.00000000000E+00 -0.41416865196E+02  0.41416865196E+02  0.00000000000E+00 0.  1.
         25    1    1    2    0    0 -0.96031525423E+01  0.39314876860E+02  0.21671185942E+03  0.25343028646E+03  0.12500000000E+03 0.  0.
          1    1    1    2  502    0 -0.20793180089E+02 -0.44630163828E+02  0.14066456785E+02  0.51206181932E+02  0.00000000000E+00 0. -1.
         -2    1    1    2    0  501  0.30396332632E+02  0.53152869678E+01  0.48555552018E+02  0.57531130223E+02  0.00000000000E+00 0.  1.
<mgrwt>
<rscale>  0 0.36136017E+02</rscale>
<asrwt>0</asrwt>
<pdfrwt beam="1">  1        1 0.49346265E-01 0.42317393E+02</pdfrwt>
<pdfrwt beam="2">  1       -2 0.63718256E-02 0.30857565E+02</pdfrwt>
<totfact> 0.78432507E+03</totfact>
</mgrwt>
</event>
<event>
 5    1  0.4149151E-003  0.4207499E+02  0.7546771E-02  0.1531131E+00
         -1   -1    0    0    0  501 -0.00000000000E+00  0.00000000000E+00  0.12735271413E+02  0.12735271413E+02  0.00000000000E+00 0.  1.
          2   -1    0    0  502    0  0.00000000000E+00 -0.00000000000E+00 -0.15590192597E+04  0.15590192597E+04  0.00000000000E+00 0. -1.
         25    1    1    2    0    0 -0.63342598900E+02  0.36422791197E+02 -0.51875635170E+03  0.53858337979E+03  0.12500000000E+03 0.  0.
          2    1    1    2  502    0  0.33741145064E+02 -0.22714257896E+02 -0.91770571627E+03  0.91860665361E+03  0.00000000000E+00 0. -1.
         -1    1    1    2    0  501  0.29601453835E+02 -0.13708533300E+02 -0.10982192030E+03  0.11456449770E+03  0.00000000000E+00 0.  1.
<mgrwt>
<rscale>  0 0.37048001E+02</rscale>
<asrwt>0</asrwt>
<pdfrwt beam="2">  1        2 0.23984915E+00 0.42074993E+02</pdfrwt>
<pdfrwt beam="1">  1       -1 0.19592722E-02 0.32621618E+02</pdfrwt>
<totfact> 0.89464406E+03</totfact>
</mgrwt>
</event>
<event>
 5    1  0.4149151E-003  0.7176820E+02  0.7546771E-02  0.1408760E+00
          3   -1    0    0  502    0 -0.00000000000E+00  0.00000000000E+00  0.79542561179E+02  0.79542561179E+02  0.00000000000E+00 0. -1.
          2   -1    0    0  501    0  0.00000000000E+00 -0.00000000000E+00 -0.79476886512E+03  0.79476886512E+03  0.00000000000E+00 0. -1.
         25    1    1    2    0    0  0.27510818292E+02  0.58689919782E+02 -0.41201871948E+03  0.43541448875E+03  0.12500000000E+03 0.  0.
          2    1    1    2  501    0 -0.44415852867E+02  0.12054360723E+02 -0.34960592539E+03  0.35262214715E+03  0.00000000000E+00 0. -1.
          3    1    1    2  502    0  0.16905034575E+02 -0.70744280504E+02  0.46398340925E+02  0.86274790400E+02  0.00000000000E+00 0. -1.
<mgrwt>
<rscale>  0 0.57471349E+02</rscale>
<asrwt>0</asrwt>
<pdfrwt beam="2">  1        2 0.12227213E+00 0.46022555E+02</pdfrwt>
<pdfrwt beam="1">  1        3 0.12237317E-01 0.71768199E+02</pdfrwt>
<totfact> 0.11130507E+03</totfact>
</mgrwt>
</event>
<event>
 5    1  0.4149151E-003  0.3298852E+02  0.7546771E-02  0.1647126E+00
         -1   -1    0    0    0  501 -0.00000000000E+00  0.00000000000E+00  0.19494195782E+04  0.19494195782E+04  0.00000000000E+00 0. -1.
          2   -1    0    0  502    0  0.00000000000E+00 -0.00000000000E+00 -0.17145244394E+03  0.17145244394E+03  0.00000000000E+00 0. -1.
         25    1    1    2    0    0 -0.13397230899E+02 -0.62693910058E+01  0.39397990435E+03  0.41359878637E+03  0.12500000000E+03 0.  0.
          2    1    1    2  502    0 -0.90769886009E+01 -0.18360914932E+02 -0.16081355478E+03  0.16211265935E+03  0.00000000000E+00 0. -1.
         -1    1    1    2    0  501  0.22474219500E+02  0.24630305938E+02  0.15448007847E+04  0.15451605764E+04  0.00000000000E+00 0. -1.
<mgrwt>
<rscale>  0 0.25993711E+02</rscale>
<asrwt>0</asrwt>
<pdfrwt beam="2">  1        2 0.26377301E-01 0.20482063E+02</pdfrwt>
<pdfrwt beam="1">  1       -1 0.29991069E+00 0.32988523E+02</pdfrwt>
<totfact> 0.10832086E+01</totfact>
</mgrwt>
</event>
<event>
 5    1  0.4149151E-003  0.5655580E+02  0.7546771E-02  0.1422454E+00
         -3   -1    0    0    0  502 -0.00000000000E+00  0.00000000000E+00  0.10886716756E+04  0.10886716756E+04  0.00000000000E+00 0.  1.
         -1   -1    0    0    0  501  0.00000000000E+00 -0.00000000000E+00 -0.29387426261E+03  0.29387426261E+03  0.00000000000E+00 0.  1.
         25    1    1    2    0    0 -0.79557497481E+01 -0.22821988879E+02  0.15046409209E+03  0.19710043160E+03  0.12500000000E+03 0.  0.
         -1    1    1    2    0  501  0.49133257767E+02 -0.18578796337E+02 -0.26706333565E+03  0.27218022327E+03  0.00000000000E+00 0.  1.
         -3    1    1    2    0  502 -0.41177508018E+02  0.41400785217E+02  0.91139665655E+03  0.91326528334E+03  0.00000000000E+00 0.  1.
<mgrwt>
<rscale>  0 0.54504994E+02</rscale>
<asrwt>0</asrwt>
<pdfrwt beam="2">  1       -1 0.45211425E-01 0.52528551E+02</pdfrwt>
<pdfrwt beam="1">  1       -3 0.16748795E+00 0.56555803E+02</pdfrwt>
<totfact> 0.59727846E+00</totfact>
</mgrwt>
</event>
<event>
 5    1  0.4149151E-003  0.3325660E+02  0.7546771E-02  0.1592144E+00
         -2   -1    0    0    0  501 -0.00000000000E+00  0.00000000000E+00  0.80744174158E+02  0.80744174158E+02  0.00000000000E+00 0.  1.
          1   -1    0    0  502    0  0.00000000000E+00 -0.00000000000E+00 -0.13632313769E+03  0.13632313769E+03  0.00000000000E+00 0. -1.
         25    1    1    2    0    0  0.15480286098E+02  0.97542134300E+01 -0.56449328997E+02  0.13837019434E+03  0.12500000000E+03 0.  0.
          1    1    1    2  502    0 -0.43448754899E+02 -0.11942905574E+02  0.14729403005E+02  0.47406567148E+02  0.00000000000E+00 0. -1.
         -2    1    1    2    0  501  0.27968468801E+02  0.21886921437E+01 -0.13859037540E+02  0.31290550362E+02  0.00000000000E+00 0.  1.
<mgrwt>
<rscale>  0 0.30544717E+02</rscale>
<asrwt>0</asrwt>
<pdfrwt beam="2">  1        1 0.20972790E-01 0.33256595E+02</pdfrwt>
<pdfrwt beam="1">  1       -2 0.12422181E-01 0.28053977E+02</pdfrwt>
<totfact> 0.78976292E+03</totfact>
</mgrwt>
</event>
<event>
 5    1  0.4149151E-003  0.3339886E+02  0.7546771E-02  0.1605699E+00
          2   -1    0    0  502    0  0.00000000000E+00  0.00000000000E+00  0.10384305692E+04  0.10384305692E+04  0.00000000000E+00 0. -1.
         -1   -1    0    0    0  501 -0.00000000000E+00 -0.00000000000E+00 -0.99017615432E+01  0.99017615432E+01  0.00000000000E+00 0.  1.
         25    1    1    2    0    0  0.93795162434E+01  0.15131266460E+02  0.64413741080E+03  0.65639541021E+03  0.12500000000E+03 0.  0.
          2    1    1    2  502    0  0.53094181085E+01 -0.36273179527E+02  0.32684643073E+03  0.32889591478E+03  0.00000000000E+00 0. -1.
         -1    1    1    2    0  501 -0.14688934352E+02  0.21141913067E+02  0.57544966086E+02  0.63041005722E+02  0.00000000000E+00 0.  1.
<mgrwt>
<rscale>  0 0.29322598E+02</rscale>
<asrwt>0</asrwt>
<pdfrwt beam="1">  1        2 0.15975846E+00 0.33398856E+02</pdfrwt>
<pdfrwt beam="2">  1       -1 0.15233487E-02 0.25743840E+02</pdfrwt>
<totfact> 0.22600872E+04</totfact>
</mgrwt>
</event>
<event>
 5    1  0.4149151E-003  0.1283749E+03  0.7546771E-02  0.1399691E+00
          1   -1    0    0  502    0 -0.00000000000E+00  0.00000000000E+00  0.46547041611E+03  0.46547041611E+03  0.00000000000E+00 0. -1.
          2   -1    0    0  501    0  0.00000000000E+00 -0.00000000000E+00 -0.24053209980E+04  0.24053209980E+04  0.00000000000E+00 0. -1.
         25    1    1    2    0    0 -0.20184013882E+02  0.14467994819E+03 -0.81206818569E+03  0.83451747737E+03  0.12500000000E+03 0.  0.
          2    1    1    2  501    0 -0.16806746056E+02 -0.21933510321E+02 -0.15728591801E+04  0.15731018867E+04  0.00000000000E+00 0. -1.
          1    1    1    2  502    0  0.36990759938E+02 -0.12274643787E+03  0.44507678391E+03  0.46317205001E+03  0.00000000000E+00 0. -1.
<mgrwt>
<rscale>  0 0.59559187E+02</rscale>
<asrwt>0</asrwt>
<pdfrwt beam="2">  1        2 0.37004938E+00 0.27632329E+02</pdfrwt>
<pdfrwt beam="1">  1        1 0.71610833E-01 0.12837488E+03</pdfrwt>
<totfact> 0.42471475E+01</totfact>
</mgrwt>
</event>
<event>
 5    1  0.4149151E-003  0.7563913E+02  0.7546771E-02  0.1392016E+00
          2   -1    0    0  502    0  0.00000000000E+00  0.00000000000E+00  0.22700049422E+04  0.22700049422E+04  0.00000000000E+00 0. -1.
         -1   -1    0    0    0  501 -0.00000000000E+00 -0.00000000000E+00 -0.18664353844E+03  0.18664353844E+03  0.00000000000E+00 0.  1.
         25    1    1    2    0    0 -0.73592836340E+02  0.79623713003E+02  0.54515103582E+02  0.17422037123E+03  0.12500000000E+03 0.  0.
          2    1    1    2  502    0  0.68259524354E+01 -0.49384792639E+02  0.21447306170E+04  0.21453099708E+04  0.00000000000E+00 0. -1.
         -1    1    1    2    0  501  0.66766883905E+02 -0.30238920364E+02 -0.11588431673E+03  0.13711813868E+03  0.00000000000E+00 0.  1.
<mgrwt>
<rscale>  0 0.61407945E+02</rscale>
<asrwt>0</asrwt>
<pdfrwt beam="1">  1        2 0.34923151E+00 0.49854301E+02</pdfrwt>
<pdfrwt beam="2">  1       -1 0.28714392E-01 0.75639126E+02</pdfrwt>
<totfact> 0.81377005E+01</totfact>
</mgrwt>
</event>
<event>
 5    1  0.4149151E-003  0.2001745E+03  0.7546771E-02  0.1215850E+00
         -2   -1    0    0    0  501  0.00000000000E+00  0.00000000000E+00  0.23277651136E+03  0.23277651136E+03  0.00000000000E+00 0.  1.
         -1   -1    0    0    0  502 -0.00000000000E+00 -0.00000000000E+00 -0.69202626907E+03  0.69202626907E+03  0.00000000000E+00 0.  1.
         25    1    1    2    0    0  0.82533744800E+02  0.20356386544E+03 -0.13548190190E+03  0.28675845600E+03  0.12500000000E+03 0.  0.
         -2    1    1    2    0  501 -0.95224727230E+02 -0.45708552721E+01  0.11898276810E+03  0.15246488284E+03  0.00000000000E+00 0.  1.
         -1    1    1    2    0  502  0.12690982430E+02 -0.19899301016E+03 -0.44275062391E+03  0.48557944159E+03  0.00000000000E+00 0.  1.
<mgrwt>
<rscale>  0 0.13814309E+03</rscale>
<asrwt>0</asrwt>
<pdfrwt beam="1">  1       -2 0.35811772E-01 0.95334366E+02</pdfrwt>
<pdfrwt beam="2">  1       -1 0.10646558E+00 0.20017454E+03</pdfrwt>
<totfact> 0.48232770E+01</totfact>
</mgrwt>
</event>
<event>
 5    1  0.4149151E-003  0.2168448E+03  0.7546771E-02  0.1374655E+00
          2   -1    0    0  502    0  0.00000000000E+00  0.00000000000E+00  0.30881681488E+04  0.30881681488E+04  0.00000000000E+00 0. -1.
         -1   -1    0    0    0  501 -0.00000000000E+00 -0.00000000000E+00 -0.37882700776E+02  0.37882700776E+02  0.00000000000E+00 0.  1.
         25    1    1    2    0    0  0.20043328125E+03 -0.76912859649E+02  0.77431454121E+03  0.81318945943E+03  0.12500000000E+03 0.  0.
          2    1    1    2  502    0 -0.20944933281E+03  0.59036736677E+02  0.22816867792E+04  0.22920403394E+04  0.00000000000E+00 0. -1.
         -1    1    1    2    0  501  0.90160515610E+01  0.17876122972E+02 -0.57158723164E+01  0.20821050756E+02  0.00000000000E+00 0.  1.
<mgrwt>
<rscale>  0 0.65889868E+02</rscale>
<asrwt>0</asrwt>
<pdfrwt beam="1">  1        2 0.47510259E+00 0.21684483E+03</pdfrwt>
<pdfrwt beam="2">  1       -1 0.58281103E-02 0.20021113E+02</pdfrwt>
<totfact> 0.23498706E+02</totfact>
</mgrwt>
</event>
<event>
 5    1  0.4149151E-003  0.1700317E+03  0.7546771E-02  0.1300508E+00
         -2   -1    0    0    0  501 -0.00000000000E+00  0.00000000000E+00  0.14736680472E+03  0.14736680472E+03  0.00000000000E+00 0. -1.
          2   -1    0    0  502    0  0.00000000000E+00 -0.00000000000E+00 -0.12445610043E+04  0.12445610043E+04  0.00000000000E+00 0. -1.
         25    1    1    2    0    0 -0.69326536225E+02  0.14541629554E+03 -0.45365707079E+03  0.49737491444E+03  0.12500000000E+03 0.  0.
          2    1    1    2  502    0 -0.45434650058E+02 -0.17464400050E+02 -0.70897210185E+03  0.71064108655E+03  0.00000000000E+00 0. -1.
         -2    1    1    2    0  501  0.11476118628E+03 -0.12795189549E+03  0.65434973057E+02  0.18391180804E+03  0.00000000000E+00 0. -1.
<mgrwt>
<rscale>  0 0.90974671E+02</rscale>
<asrwt>0</asrwt>
<pdfrwt beam="2">  1        2 0.19147091E+00 0.48675586E+02</pdfrwt>
<pdfrwt beam="1">  1       -2 0.22671817E-01 0.17003166E+03</pdfrwt>
<totfact> 0.35488843E+02</totfact>
</mgrwt>
</event>
<event>
 5    1  0.4149151E-003  0.8071820E+02  0.7546771E-02  0.1421357E+00
          1   -1    0    0  502    0  0.00000000000E+00  0.00000000000E+00  0.13823621150E+04  0.13823621150E+04  0.00000000000E+00 0. -1.
         -1   -1    0    0    0  501 -0.00000000000E+00 -0.00000000000E+00 -0.44188277774E+02  0.44188277774E+02  0.00000000000E+00 0.  1.
         25    1    1    2    0    0  0.91228358547E+02  0.28748857562E+02  0.40589629910E+03  0.43534574287E+03  0.12500000000E+03 0.  0.
          1    1    1    2  502    0 -0.29912008389E+02  0.21973450601E+02  0.90692909097E+03  0.90768823769E+03  0.00000000000E+00 0. -1.
         -1    1    1    2    0  501 -0.61316350158E+02 -0.50722308163E+02  0.25348447199E+02  0.83516412264E+02  0.00000000000E+00 0.  1.
<mgrwt>
<rscale>  0 0.54734787E+02</rscale>
<asrwt>0</asrwt>
<pdfrwt beam="1">  1        1 0.21267106E+00 0.37115506E+02</pdfrwt>
<pdfrwt beam="2">  1       -1 0.67981977E-02 0.80718201E+02</pdfrwt>
<totfact> 0.10356070E+03</totfact>
</mgrwt>
</event>
<event>
 5    1  0.4149151E-003  0.6934461E+02  0.7546771E-02  0.1438423E+00
         -2   -1    0    0    0  501 -0.00000000000E+00  0.00000000000E+00  0.11549541268E+04  0.11549541268E+04  0.00000000000E+00 0.  1.
          1   -1    0    0  502    0  0.00000000000E+00 -0.00000000000E+00 -0.14549166561E+02  0.14549166561E+02  0.00000000000E+00 0. -1.
         25    1    1    2    0    0  0.23476582030E+02 -0.67028923166E+02  0.72880626290E+03  0.74285099130E+03  0.12500000000E+03 0.  0.
          1    1    1    2  502    0 -0.37779359606E+02 -0.36926140151E+01  0.10419175738E+03  0.11089110747E+03  0.00000000000E+00 0. -1.
         -2    1    1    2    0  501  0.14302777577E+02  0.70721537181E+02  0.30740693997E+03  0.31576119459E+03  0.00000000000E+00 0.  1.
<mgrwt>
<rscale>  0 0.51305742E+02</rscale>
<asrwt>0</asrwt>
<pdfrwt beam="2">  1        1 0.22383342E-02 0.37959392E+02</pdfrwt>
<pdfrwt beam="1">  1       -2 0.17768518E+00 0.69344610E+02</pdfrwt>
<totfact> 0.77345381E+02</totfact>
</mgrwt>
</event>
<event>
 5    1  0.4149151E-003  0.1175553E+03  0.7546771E-02  0.1367715E+00
          2   -1    0    0  502    0  0.00000000000E+00  0.00000000000E+00  0.10287616877E+03  0.10287616877E+03  0.00000000000E+00 0. -1.
         -2   -1    0    0    0  501 -0.00000000000E+00 -0.00000000000E+00 -0.13118039656E+04  0.13118039656E+04  0.00000000000E+00 0.  1.
         25    1    1    2    0    0 -0.89175818365E+02  0.82562051154E+02 -0.29082756094E+02  0.17674734955E+03  0.12500000000E+03 0.  0.
          2    1    1    2  502    0  0.10630376843E+03 -0.47400809349E+02 -0.89342325240E+02  0.14672893031E+03  0.00000000000E+00 0. -1.
         -2    1    1    2    0  501 -0.17127950068E+02 -0.35161241806E+02 -0.10905027155E+04  0.10912038545E+04  0.00000000000E+00 0.  1.
<mgrwt>
<rscale>  0 0.67806474E+02</rscale>
<asrwt>0</asrwt>
<pdfrwt beam="1">  1        2 0.15827102E-01 0.11755526E+03</pdfrwt>
<pdfrwt beam="2">  1       -2 0.20181600E+00 0.39111119E+02</pdfrwt>
<totfact> 0.56926469E+01</totfact>
</mgrwt>
</event>
<event>
 5    1  0.4149151E-003  0.1008436E+03  0.7546771E-02  0.1439910E+00
          1   -1    0    0  502    0 -0.00000000000E+00  0.00000000000E+00  0.55246781337E+03  0.55246781337E+03  0.00000000000E+00 0. -1.
          2   -1    0    0  501    0  0.00000000000E+00 -0.00000000000E+00 -0.19442273831E+04  0.19442273831E+04  0.00000000000E+00 0. -1.
         25    1    1    2    0    0  0.65893037885E+02 -0.80462112799E+02  0.18898535619E+03  0.24931207129E+03  0.12500000000E+03 0.  0.
          2    1    1    2  501    0  0.15250492072E+02  0.20827420676E+02 -0.19063688978E+04  0.19065436615E+04  0.00000000000E+00 0. -1.
          1    1    1    2  502    0 -0.81143529957E+02  0.59634692123E+02  0.32562397183E+03  0.34083946366E+03  0.00000000000E+00 0. -1.
<mgrwt>
<rscale>  0 0.51021275E+02</rscale>
<asrwt>0</asrwt>
<pdfrwt beam="2">  1        2 0.29911191E+00 0.25813930E+02</pdfrwt>
<pdfrwt beam="1">  1        1 0.84995048E-01 0.10084363E+03</pdfrwt>
<totfact> 0.57247925E+01</totfact>
</mgrwt>
</event>
<event>
 5    1  0.4149151E-003  0.4185580E+02  0.7546771E-02  0.1554957E+00
         -1   -1    0    0    0  501 -0.00000000000E+00  0.00000000000E+00  0.43622448815E+02  0.43622448815E+02  0.00000000000E+00 0.  1.
          1   -1    0    0  502    0  0.00000000000E+00 -0.00000000000E+00 -0.63551277395E+03  0.63551277395E+03  0.00000000000E+00 0. -1.
         25    1    1    2    0    0 -0.18505198966E+02 -0.29451561889E+02 -0.90300246142E+02  0.15807900348E+03  0.12500000000E+03 0.  0.
          1    1    1    2  502    0  0.21392875216E+02 -0.18218221644E+02 -0.44953715885E+03  0.45041449344E+03  0.00000000000E+00 0. -1.
         -1    1    1    2    0  501 -0.28876762503E+01  0.47669783532E+02 -0.52052920142E+02  0.70641725853E+02  0.00000000000E+00 0.  1.
<mgrwt>
<rscale>  0 0.34294459E+02</rscale>
<asrwt>0</asrwt>
<pdfrwt beam="2">  1        1 0.97771200E-01 0.28099087E+02</pdfrwt>
<pdfrwt beam="1">  1       -1 0.67111457E-02 0.41855804E+02</pdfrwt>
<totfact> 0.33928304E+03</totfact>
</mgrwt>
</event>
<event>
 5    1  0.4149151E-003  0.5329914E+02  0.7546771E-02  0.1490379E+00
          2   -1    0    0  502    0  0.00000000000E+00  0.00000000000E+00  0.25523740312E+04  0.25523740312E+04  0.00000000000E+00 0.  1.
          2   -1    0    0  501    0 -0.00000000000E+00 -0.00000000000E+00 -0.13461154864E+03  0.13461154864E+03  0.00000000000E+00 0. -1.
         25    1    1    2    0    0  0.31039006543E+02 -0.72728028202E+02  0.42943508592E+03  0.45419409841E+03  0.12500000000E+03 0.  0.
          2    1    1    2  501    0 -0.34938792252E+01  0.52905111747E+02 -0.11633917452E+03  0.12785132603E+03  0.00000000000E+00 0. -1.
          2    1    1    2  502    0 -0.27545127318E+02  0.19822916455E+02  0.21046665712E+04  0.21049401554E+04  0.00000000000E+00 0.  1.
<mgrwt>
<rscale>  0 0.42529793E+02</rscale>
<asrwt>0</asrwt>
<pdfrwt beam="1">  1        2 0.39267289E+00 0.33936441E+02</pdfrwt>
<pdfrwt beam="2">  1        2 0.20709471E-01 0.53299145E+02</pdfrwt>
<totfact> 0.19621433E+02</totfact>
</mgrwt>
</event>
<event>
 5    1  0.4149151E-003  0.9319018E+02  0.7546771E-02  0.1398142E+00
          2   -1    0    0  502    0  0.00000000000E+00  0.00000000000E+00  0.10891209081E+03  0.10891209081E+03  0.00000000000E+00 0. -1.
         -1   -1    0    0    0  501 -0.00000000000E+00 -0.00000000000E+00 -0.22798259702E+03  0.22798259702E+03  0.00000000000E+00 0.  1.
         25    1    1    2    0    0  0.86879974059E+02 -0.60204208096E+02 -0.12147409967E+03  0.20384708351E+03  0.12500000000E+03 0.  0.
          2    1    1    2  502    0 -0.51556149862E+02  0.75606187503E+02  0.14511012803E+02  0.92654744455E+02  0.00000000000E+00 0. -1.
         -1    1    1    2    0  501 -0.35323824197E+02 -0.15401979407E+02 -0.12107419339E+02  0.40392859871E+02  0.00000000000E+00 0.  1.
<mgrwt>
<rscale>  0 0.59926128E+02</rscale>
<asrwt>0</asrwt>
<pdfrwt beam="1">  1        2 0.16755706E-01 0.93190182E+02</pdfrwt>
<pdfrwt beam="2">  1       -1 0.35074246E-01 0.38535614E+02</pdfrwt>
<totfact> 0.28374178E+03</totfact>
</mgrwt>
</event>
<event>
 5    1  0.4149151E-003  0.1834850E+03  0.7546771E-02  0.1191502E+00
         -2   -1    0    0    0  501 -0.00000000000E+00  0.00000000000E+00  0.62762206789E+02  0.62762206789E+02  0.00000000000E+00 0.  1.
          1   -1    0    0  502    0  0.00000000000E+00 -0.00000000000E+00 -0.20983284148E+04  0.20983284148E+04  0.00000000000E+00 0. -1.
         25    1    1    2    0    0 -0.65314467780E+02 -0.18322264372E+02 -0.10839058489E+03  0.17881611775E+03  0.12500000000E+03 0.  0.
          1    1    1    2  502    0  0.19844345671E+03  0.42265005509E+02 -0.17375093331E+04  0.17493155287E+04  0.00000000000E+00 0. -1.
         -2    1    1    2    0  501 -0.13312898893E+03 -0.23942741137E+02 -0.18966629000E+03  0.23295897516E+03  0.00000000000E+00 0.  1.
<mgrwt>
<rscale>  0 0.15754072E+03</rscale>
<asrwt>0</asrwt>
<pdfrwt beam="2">  1        1 0.32281971E+00 0.18348504E+03</pdfrwt>
<pdfrwt beam="1">  1       -2 0.96557255E-02 0.13526486E+03</pdfrwt>
<totfact> 0.18106437E+02</totfact>
</mgrwt>
</event>
<event>
 5    1  0.4149151E-003  0.7619042E+02  0.7546771E-02  0.1465144E+00
          3   -1    0    0  502    0 -0.00000000000E+00  0.00000000000E+00  0.25555758390E+02  0.25555758390E+02  0.00000000000E+00 0. -1.
          2   -1    0    0  501    0  0.00000000000E+00 -0.00000000000E+00 -0.20640881232E+04  0.20640881232E+04  0.00000000000E+00 0. -1.
         25    1    1    2    0    0 -0.31397542379E+02 -0.72967840348E+02 -0.61739785710E+03  0.63491355738E+03  0.12500000000E+03 0.  0.
          2    1    1    2  501    0 -0.21808527164E+02  0.18174274511E+02 -0.13501904853E+04  0.13504888977E+04  0.00000000000E+00 0. -1.
          3    1    1    2  502    0  0.53206069543E+02  0.54793565837E+02 -0.70944022411E+02  0.10424142655E+03  0.00000000000E+00 0. -1.
<mgrwt>
<rscale>  0 0.46507462E+02</rscale>
<asrwt>0</asrwt>
<pdfrwt beam="2">  1        2 0.31755206E+00 0.28388662E+02</pdfrwt>
<pdfrwt beam="1">  1        3 0.39316546E-02 0.76190417E+02</pdfrwt>
<totfact> 0.16005244E+03</totfact>
</mgrwt>
</event>
<event>
 5    1  0.4149151E-003  0.1499950E+03  0.7546771E-02  0.1346381E+00
          2   -1    0    0  501    0  0.00000000000E+00  0.00000000000E+00  0.10287413091E+04  0.10287413091E+04  0.00000000000E+00 0. -1.
          1   -1    0    0  502    0 -0.00000000000E+00 -0.00000000000E+00 -0.10097758787E+04  0.10097758787E+04  0.00000000000E+00 0. -1.
         25    1    1    2    0    0  0.11896480793E+03 -0.83963110425E+01  0.10683437590E+03  0.20312977979E+03  0.12500000000E+03 0.  0.
          2    1    1    2  501    0 -0.15269538287E+03  0.22860199834E+02  0.86658313589E+03  0.88022997001E+03  0.00000000000E+00 0. -1.
          1    1    1    2  502    0  0.33730574938E+02 -0.14463888791E+02 -0.95445208140E+03  0.95515743805E+03  0.00000000000E+00 0. -1.
<mgrwt>
<rscale>  0 0.74195357E+02</rscale>
<asrwt>0</asrwt>
<pdfrwt beam="1">  1        2 0.15826789E+00 0.14999500E+03</pdfrwt>
<pdfrwt beam="2">  1        1 0.15535014E+00 0.36700896E+02</pdfrwt>
<totfact> 0.64049726E+01</totfact>
</mgrwt>
</event>
<event>
 5    1  0.4149151E-003  0.3638697E+02  0.7546771E-02  0.1581066E+00
          2   -1    0    0  501    0  0.00000000000E+00  0.00000000000E+00  0.76866143618E+03  0.76866143618E+03  0.00000000000E+00 0. -1.
          1   -1    0    0  502    0 -0.00000000000E+00 -0.00000000000E+00 -0.13575924984E+03  0.13575924984E+03  0.00000000000E+00 0. -1.
         25    1    1    2    0    0 -0.13452956670E+02 -0.35505810461E+02  0.37983696093E+03  0.40167494508E+03  0.12500000000E+03 0.  0.
          2    1    1    2  501    0  0.27378968871E+02  0.18251727400E+01  0.37473306803E+03  0.37573635899E+03  0.00000000000E+00 0. -1.
          1    1    1    2  502    0 -0.13926012201E+02  0.33680637721E+02 -0.12166784263E+03  0.12700938195E+03  0.00000000000E+00 0. -1.
<mgrwt>
<rscale>  0 0.31598244E+02</rscale>
<asrwt>0</asrwt>
<pdfrwt beam="1">  1        2 0.11825560E+00 0.27439737E+02</pdfrwt>
<pdfrwt beam="2">  1        1 0.20886039E-01 0.36386974E+02</pdfrwt>
<totfact> 0.12391652E+03</totfact>
</mgrwt>
</event>
<event>
 5    1  0.4149151E-003  0.6966004E+02  0.7546771E-02  0.1523516E+00
          2   -1    0    0  502    0  0.00000000000E+00  0.00000000000E+00  0.98443308773E+03  0.98443308773E+03  0.00000000000E+00 0. -1.
         -1   -1    0    0    0  501 -0.00000000000E+00 -0.00000000000E+00 -0.16609458036E+02  0.16609458036E+02  0.00000000000E+00 0.  1.
         25    1    1    2    0    0 -0.56287803574E+02  0.47465215479E+02  0.49110777463E+03  0.51208701391E+03  0.12500000000E+03 0.  0.
          2    1    1    2  502    0  0.38274693460E+02 -0.57709680308E+02  0.44921564649E+03  0.45452178871E+03  0.00000000000E+00 0. -1.
         -1    1    1    2    0  501  0.18013110114E+02  0.10244464829E+02  0.27500208581E+02  0.34433743154E+02  0.00000000000E+00 0.  1.
<mgrwt>
<rscale>  0 0.37993801E+02</rscale>
<asrwt>0</asrwt>
<pdfrwt beam="1">  1        2 0.15145120E+00 0.69660044E+02</pdfrwt>
<pdfrwt beam="2">  1       -1 0.25553020E-02 0.20722480E+02</pdfrwt>
<totfact> 0.11045060E+04</totfact>
</mgrwt>
</event>
<event>
 5    1  0.4149151E-003  0.1080588E+03  0.7546771E-02  0.1423902E+00
          2   -1    0    0  502    0  0.00000000000E+00  0.00000000000E+00  0.91510156840E+03  0.91510156840E+03  0.00000000000E+00 0. -1.
         -1   -1    0    0    0  501 -0.00000000000E+00 -0.00000000000E+00 -0.31290572620E+03  0.31290572620E+03  0.00000000000E+00 0.  1.
         25    1    1    2    0    0 -0.61294354285E+02  0.11230797846E+03  0.31642910021E+03  0.36348652705E+03  0.12500000000E+03 0.  0.
          2    1    1    2  502    0  0.39115088602E+02 -0.96580785499E+02  0.56976953132E+03  0.57921943778E+03  0.00000000000E+00 0. -1.
         -1    1    1    2    0  501  0.22179265683E+02 -0.15727192958E+02 -0.28400278933E+03  0.28530132977E+03  0.00000000000E+00 0.  1.
<mgrwt>
<rscale>  0 0.54203847E+02</rscale>
<asrwt>0</asrwt>
<pdfrwt beam="1">  1        2 0.14078485E+00 0.10805884E+03</pdfrwt>
<pdfrwt beam="2">  1       -1 0.48139343E-01 0.27189418E+02</pdfrwt>
<totfact> 0.15788794E+02</totfact>
</mgrwt>
</event>
<event>
 5    1  0.4149151E-003  0.5063178E+02  0.7546771E-02  0.1445130E+00
         -3   -1    0    0    0  501 -0.00000000000E+00  0.00000000000E+00  0.42025146424E+03  0.42025146424E+03  0.00000000000E+00 0.  1.
          2   -1    0    0  502    0  0.00000000000E+00 -0.00000000000E+00 -0.18564589470E+03  0.18564589470E+03  0.00000000000E+00 0. -1.
         25    1    1    2    0    0  0.11620312538E+02 -0.37242678010E+01  0.86472957023E+02  0.15248434061E+03  0.12500000000E+03 0.  0.
          2    1    1    2  502    0  0.74199485106E+01  0.50639565397E+02 -0.14612626349E+03  0.15482992638E+03  0.00000000000E+00 0. -1.
         -3    1    1    2    0  501 -0.19040261048E+02 -0.46915297596E+02  0.29425887602E+03  0.29858309196E+03  0.00000000000E+00 0.  1.
<mgrwt>
<rscale>  0 0.50039288E+02</rscale>
<asrwt>0</asrwt>
<pdfrwt beam="2">  1        2 0.28560907E-01 0.49453734E+02</pdfrwt>
<pdfrwt beam="1">  1       -3 0.64654071E-01 0.50631775E+02</pdfrwt>
<totfact> 0.24325020E+02</totfact>
</mgrwt>
</event>
<event>
 5    1  0.4149151E-003  0.1224369E+03  0.7546771E-02  0.1283205E+00
          2   -1    0    0  502    0  0.00000000000E+00  0.00000000000E+00  0.49067881029E+03  0.49067881029E+03  0.00000000000E+00 0. -1.
          2   -1    0    0  501    0 -0.00000000000E+00 -0.00000000000E+00 -0.15532411857E+03  0.15532411857E+03  0.00000000000E+00 0. -1.
         25    1    1    2    0    0  0.41757253613E+02  0.78643114627E+02  0.18963774673E+03  0.24395877253E+03  0.12500000000E+03 0.  0.
          2    1    1    2  501    0 -0.25918690859E+02  0.75104215693E+02 -0.90076188809E+02  0.12010887370E+03  0.00000000000E+00 0. -1.
          2    1    1    2  502    0 -0.15838562754E+02 -0.15374733032E+03  0.23579313379E+03  0.28193528263E+03  0.00000000000E+00 0. -1.
<mgrwt>
<rscale>  0 0.98629134E+02</rscale>
<asrwt>0</asrwt>
<pdfrwt beam="1">  1        2 0.75489047E-01 0.12243693E+03</pdfrwt>
<pdfrwt beam="2">  1        2 0.23896019E-01 0.79450750E+02</pdfrwt>
<totfact> 0.21708781E+03</totfact>
</mgrwt>
</event>
<event>
 5    1  0.4149151E-003  0.3134898E+02  0.7546771E-02  0.1608678E+00
          1   -1    0    0  501    0  0.00000000000E+00  0.00000000000E+00  0.19106801449E+03  0.19106801449E+03  0.00000000000E+00 0. -1.
          1   -1    0    0  502    0 -0.00000000000E+00 -0.00000000000E+00 -0.12297114025E+03  0.12297114025E+03  0.00000000000E+00 0. -1.
         25    1    1    2    0    0  0.30914750259E+02 -0.27869506716E+02 -0.47051862800E+02  0.13989749455E+03  0.12500000000E+03 0.  0.
          1    1    1    2  501    0 -0.26798184856E+02 -0.28044839374E+01  0.13480946653E+03  0.13747581645E+03  0.00000000000E+00 0. -1.
          1    1    1    2  502    0 -0.41165654022E+01  0.30673990653E+02 -0.19660729492E+02  0.36665843744E+02  0.00000000000E+00 0. -1.
<mgrwt>
<rscale>  0 0.29063440E+02</rscale>
<asrwt>0</asrwt>
<pdfrwt beam="1">  1        1 0.29395079E-01 0.26944533E+02</pdfrwt>
<pdfrwt beam="2">  1        1 0.18918637E-01 0.31348978E+02</pdfrwt>
<totfact> 0.44228540E+03</totfact>
</mgrwt>
</event>
<event>
 5    1  0.4149151E-003  0.1184106E+03  0.7546771E-02  0.1305492E+00
          2   -1    0    0  501    0  0.00000000000E+00  0.00000000000E+00  0.15383341104E+04  0.15383341104E+04  0.00000000000E+00 0.  1.
          1   -1    0    0  502    0 -0.00000000000E+00 -0.00000000000E+00 -0.45964585149E+03  0.45964585149E+03  0.00000000000E+00 0. -1.
         25    1    1    2    0    0 -0.76597104555E+02  0.23104892811E+02 -0.35977681680E+03  0.38918544475E+03  0.12500000000E+03 0.  0.
          2    1    1    2  501    0  0.77586620725E+02 -0.89869251672E+02  0.15078398002E+04  0.15125068692E+04  0.00000000000E+00 0.  1.
          1    1    1    2  502    0 -0.98951617054E+00  0.66764358862E+02 -0.69374724507E+02  0.96287647997E+02  0.00000000000E+00 0. -1.
<mgrwt>
<rscale>  0 0.88918370E+02</rscale>
<asrwt>0</asrwt>
<pdfrwt beam="1">  1        2 0.23666678E+00 0.11841061E+03</pdfrwt>
<pdfrwt beam="2">  1        1 0.70714747E-01 0.66771691E+02</pdfrwt>
<totfact> 0.99055611E+01</totfact>
</mgrwt>
</event>
<event>
 5    1  0.4149151E-003  0.7618839E+02  0.7546771E-02  0.1365111E+00
          2   -1    0    0  501    0  0.00000000000E+00  0.00000000000E+00  0.81859677845E+03  0.81859677845E+03  0.00000000000E+00 0. -1.
          3   -1    0    0  502    0 -0.00000000000E+00 -0.00000000000E+00 -0.31128174896E+03  0.31128174896E+03  0.00000000000E+00 0. -1.
         25    1    1    2    0    0  0.59232870301E+02 -0.40957798262E+02 -0.46889398526E+02  0.15168945203E+03  0.12500000000E+03 0.  0.
          2    1    1    2  501    0 -0.74399347285E+02 -0.18816951092E+02  0.75973756385E+03  0.76360363177E+03  0.00000000000E+00 0. -1.
          3    1    1    2  502    0  0.15166476984E+02  0.59774749354E+02 -0.20553313584E+03  0.21458544361E+03  0.00000000000E+00 0. -1.
<mgrwt>
<rscale>  0 0.68545224E+02</rscale>
<asrwt>0</asrwt>
<pdfrwt beam="1">  1        2 0.12593797E+00 0.76188391E+02</pdfrwt>
<pdfrwt beam="2">  1        3 0.47889500E-01 0.61668815E+02</pdfrwt>
<totfact> 0.91702973E+01</totfact>
</mgrwt>
</event>
<event>
 5    1  0.4149151E-003  0.9521755E+02  0.7546771E-02  0.1332751E+00
          1   -1    0    0  502    0  0.00000000000E+00  0.00000000000E+00  0.52014821944E+03  0.52014821944E+03  0.00000000000E+00 0. -1.
          1   -1    0    0  501    0 -0.00000000000E+00 -0.00000000000E+00 -0.20040418088E+03  0.20040418088E+03  0.00000000000E+00 0. -1.
         25    1    1    2    0    0  0.67631223427E+02  0.11222310972E+03 -0.48120211043E+02  0.18737279271E+03  0.12500000000E+03 0.  0.
          1    1    1    2  501    0 -0.72042850312E+02 -0.47307497475E+02 -0.57020551835E+02  0.10334173857E+03  0.00000000000E+00 0. -1.
          1    1    1    2  502    0  0.44116268849E+01 -0.64915612247E+02  0.42488480144E+03  0.42983786904E+03  0.00000000000E+00 0. -1.
<mgrwt>
<rscale>  0 0.78710628E+02</rscale>
<asrwt>0</asrwt>
<pdfrwt beam="1">  1        1 0.80022803E-01 0.65065345E+02</pdfrwt>
<pdfrwt beam="2">  1        1 0.30831413E-01 0.95217552E+02</pdfrwt>
<totfact> 0.76471157E+02</totfact>
</mgrwt>
</event>
<event>
 5    1  0.4149151E-003  0.2212846E+03  0.7546771E-02  0.1326218E+00
          2   -1    0    0  501    0  0.00000000000E+00  0.00000000000E+00  0.16293370956E+04  0.16293370956E+04  0.00000000000E+00 0.  1.
          3   -1    0    0  502    0 -0.00000000000E+00 -0.00000000000E+00 -0.34486129840E+03  0.34486129840E+03  0.00000000000E+00 0. -1.
         25    1    1    2    0    0 -0.93171375897E+02 -0.17692646204E+03 -0.61982310636E+01  0.23589679168E+03  0.12500000000E+03 0.  0.
          2    1    1    2  501    0  0.12105509049E+03  0.18702064370E+03  0.15052699509E+04  0.15216664158E+04  0.00000000000E+00 0.  1.
          3    1    1    2  502    0 -0.27883714590E+02 -0.10094181656E+02 -0.21459592258E+03  0.21663518650E+03  0.00000000000E+00 0. -1.
<mgrwt>
<rscale>  0 0.81006802E+02</rscale>
<asrwt>0</asrwt>
<pdfrwt beam="1">  1        2 0.25066724E+00 0.22128461E+03</pdfrwt>
<pdfrwt beam="2">  1        3 0.53055585E-01 0.29654579E+02</pdfrwt>
<totfact> 0.23311355E+01</totfact>
</mgrwt>
</event>
<event>
 5    1  0.4149151E-003  0.4128041E+03  0.7546771E-02  0.1039434E+00
          2   -1    0    0  502    0  0.00000000000E+00  0.00000000000E+00  0.21831059921E+04  0.21831059921E+04  0.00000000000E+00 0. -1.
         -1   -1    0    0    0  501 -0.00000000000E+00 -0.00000000000E+00 -0.19514306712E+02  0.19514306712E+02  0.00000000000E+00 0.  1.
         25    1    1    2    0    0 -0.17318677145E+03  0.30458439510E+02  0.11603955618E+04  0.11802814216E+04  0.12500000000E+03 0.  0.
          2    1    1    2  502    0  0.76624856094E+02  0.15410773333E+02  0.60556512297E+03  0.61058822349E+03  0.00000000000E+00 0. -1.
         -1    1    1    2    0  501  0.96561915355E+02 -0.45869212842E+02  0.39763100062E+03  0.41175065372E+03  0.00000000000E+00 0.  1.
<mgrwt>
<rscale>  0 0.41280407E+03</rscale>
<asrwt>0</asrwt>
<pdfrwt beam="1">  1        2 0.33586227E+00 0.41280407E+03</pdfrwt>
<pdfrwt beam="2">  1       -1 0.30022028E-02 0.41280407E+03</pdfrwt>
<totfact> 0.25273450E+03</totfact>
</mgrwt>
</event>
<event>
 5    1  0.4149151E-003  0.9581130E+02  0.7546771E-02  0.1318853E+00
         -3   -1    0    0    0  501 -0.00000000000E+00  0.00000000000E+00  0.15329897558E+03  0.15329897558E+03  0.00000000000E+00 0.  1.
          1   -1    0    0  502    0  0.00000000000E+00 -0.00000000000E+00 -0.73261719388E+03  0.73261719388E+03  0.00000000000E+00 0. -1.
         25    1    1    2    0    0  0.22383283319E+02 -0.88561667617E+02  0.66540131488E+00  0.15482126179E+03  0.12500000000E+03 0.  0.
          1    1    1    2  502    0 -0.83966891496E+02  0.49123922225E+02 -0.63321463596E+03  0.64064371830E+03  0.00000000000E+00 0. -1.
         -3    1    1    2    0  501  0.61583608177E+02  0.39437745391E+02  0.53231016348E+02  0.90451189373E+02  0.00000000000E+00 0.  1.
<mgrwt>
<rscale>  0 0.83705446E+02</rscale>
<asrwt>0</asrwt>
<pdfrwt beam="2">  1        1 0.11271034E+00 0.95811302E+02</pdfrwt>
<pdfrwt beam="1">  1       -3 0.23584458E-01 0.73129177E+02</pdfrwt>
<totfact> 0.23106158E+02</totfact>
</mgrwt>
</event>
<event>
 5    1  0.4149151E-003  0.7266295E+02  0.7546771E-02  0.1379816E+00
         -2   -1    0    0    0  501 -0.00000000000E+00  0.00000000000E+00  0.17875648606E+03  0.17875648606E+03  0.00000000000E+00 0.  1.
          1   -1    0    0  502    0  0.00000000000E+00 -0.00000000000E+00 -0.60799195588E+03  0.60799195588E+03  0.00000000000E+00 0. -1.
         25    1    1    2    0    0 -0.21898685492E+02  0.82558365344E+02 -0.11441249815E+03  0.18976473816E+03  0.12500000000E+03 0.  0.
          1    1    1    2  502    0  0.60913380654E+02 -0.40625926364E+02 -0.44698631581E+03  0.45294334342E+03  0.00000000000E+00 0. -1.
         -2    1    1    2    0  501 -0.39014695162E+02 -0.41932438980E+02  0.13216334414E+03  0.14404036035E+03  0.00000000000E+00 0.  1.
<mgrwt>
<rscale>  0 0.64512035E+02</rscale>
<asrwt>0</asrwt>
<pdfrwt beam="2">  1        1 0.93537224E-01 0.72662955E+02</pdfrwt>
<pdfrwt beam="1">  1       -2 0.27500998E-01 0.57275439E+02</pdfrwt>
<totfact> 0.36866341E+02</totfact>
</mgrwt>
</event>
<event>
 5    1  0.4149151E-003  0.5088927E+02  0.7546771E-02  0.1481446E+00
          2   -1    0    0  502    0  0.00000000000E+00  0.00000000000E+00  0.32309849963E+04  0.32309849963E+04  0.00000000000E+00 0. -1.
         -2   -1    0    0    0  501 -0.00000000000E+00 -0.00000000000E+00 -0.65148453871E+02  0.65148453871E+02  0.00000000000E+00 0.  1.
         25    1    1    2    0    0 -0.24507496182E+02  0.74315597897E+02  0.67299136376E+03  0.68895994162E+03  0.12500000000E+03 0.  0.
          2    1    1    2  502    0 -0.45078591110E+01 -0.50027760522E+02  0.25434723434E+04  0.25439682897E+04  0.00000000000E+00 0. -1.
         -2    1    1    2    0  501  0.29015355293E+02 -0.24287837375E+02 -0.50627164678E+02  0.63205218855E+02  0.00000000000E+00 0.  1.
<mgrwt>
<rscale>  0 0.43881648E+02</rscale>
<asrwt>0</asrwt>
<pdfrwt beam="1">  1        2 0.49707449E+00 0.50889269E+02</pdfrwt>
<pdfrwt beam="2">  1       -2 0.10022842E-01 0.37839000E+02</pdfrwt>
<totfact> 0.11653470E+02</totfact>
</mgrwt>
</event>
<event>
 5    1  0.4149151E-003  0.1656463E+03  0.7546771E-02  0.1317610E+00
          1   -1    0    0  502    0  0.00000000000E+00  0.00000000000E+00  0.56034862320E+03  0.56034862320E+03  0.00000000000E+00 0. -1.
         -3   -1    0    0    0  501 -0.00000000000E+00 -0.00000000000E+00 -0.16029693511E+03  0.16029693511E+03  0.00000000000E+00 0.  1.
         25    1    1    2    0    0 -0.11850160802E+03 -0.50943077048E+02 -0.31469055083E+02  0.18235440667E+03  0.12500000000E+03 0.  0.
          1    1    1    2  502    0  0.15311671350E+03  0.76068202876E+02  0.45739300971E+03  0.48830263646E+03  0.00000000000E+00 0. -1.
         -3    1    1    2    0  501 -0.34615105477E+02 -0.25125125828E+02 -0.25872266532E+02  0.49988515187E+02  0.00000000000E+00 0.  1.
<mgrwt>
<rscale>  0 0.84172969E+02</rscale>
<asrwt>0</asrwt>
<pdfrwt beam="1">  1        1 0.86207479E-01 0.16564631E+03</pdfrwt>
<pdfrwt beam="2">  1       -3 0.24661067E-01 0.42772392E+02</pdfrwt>
<totfact> 0.28708692E+02</totfact>
</mgrwt>
</event>
<event>
 5    1  0.4149151E-003  0.1245383E+03  0.7546771E-02  0.1391966E+00
          2   -1    0    0  501    0  0.00000000000E+00  0.00000000000E+00  0.15690984395E+04  0.15690984395E+04  0.00000000000E+00 0. -1.
          1   -1    0    0  502    0 -0.00000000000E+00 -0.00000000000E+00 -0.44142260422E+02  0.44142260422E+02  0.00000000000E+00 0. -1.
         25    1    1    2    0    0  0.91436273505E+02  0.10539301530E+03  0.28108846791E+03  0.33779284566E+03  0.12500000000E+03 0.  0.
          2    1    1    2  501    0 -0.28876082662E+02 -0.91516084552E+01  0.10478916284E+04  0.10483293590E+04  0.00000000000E+00 0. -1.
          1    1    1    2  502    0 -0.62560190844E+02 -0.96241406847E+02  0.19597608278E+03  0.22711849527E+03  0.00000000000E+00 0. -1.
<mgrwt>
<rscale>  0 0.61420383E+02</rscale>
<asrwt>0</asrwt>
<pdfrwt beam="1">  1        2 0.24139972E+00 0.30291584E+02</pdfrwt>
<pdfrwt beam="2">  1        1 0.67911182E-02 0.12453833E+03</pdfrwt>
<totfact> 0.21192511E+03</totfact>
</mgrwt>
</event>
<event>
 5    1  0.4149151E-003  0.1231674E+03  0.7546771E-02  0.1308663E+00
         -1   -1    0    0    0  501 -0.00000000000E+00  0.00000000000E+00  0.48391687443E+02  0.48391687443E+02  0.00000000000E+00 0.  1.
          1   -1    0    0  502    0  0.00000000000E+00 -0.00000000000E+00 -0.16969898506E+04  0.16969898506E+04  0.00000000000E+00 0. -1.
         25    1    1    2    0    0 -0.16709405914E+01 -0.72394692794E+02 -0.56457603815E+03  0.58276486377E+03  0.12500000000E+03 0.  0.
          1    1    1    2  502    0 -0.17985880181E+02 -0.59714424638E+02 -0.10060061177E+04  0.10079373062E+04  0.00000000000E+00 0. -1.
         -1    1    1    2    0  501  0.19656820772E+02  0.13210911743E+03 -0.78016007316E+02  0.15467936808E+03  0.00000000000E+00 0.  1.
<mgrwt>
<rscale>  0 0.87642723E+02</rscale>
<asrwt>0</asrwt>
<pdfrwt beam="2">  1        1 0.26107535E+00 0.62364288E+02</pdfrwt>
<pdfrwt beam="1">  1       -1 0.74448753E-02 0.12316740E+03</pdfrwt>
<totfact> 0.56510076E+02</totfact>
</mgrwt>
</event>
<event>
 5    1  0.4149151E-003  0.3635070E+02  0.7546771E-02  0.1553045E+00
          1   -1    0    0  502    0  0.00000000000E+00  0.00000000000E+00  0.10436202484E+04  0.10436202484E+04  0.00000000000E+00 0. -1.
         -2   -1    0    0    0  501 -0.00000000000E+00 -0.00000000000E+00 -0.10072394447E+02  0.10072394447E+02  0.00000000000E+00 0.  1.
         25    1    1    2    0    0  0.43816503661E+02  0.15106057617E+02  0.75325594418E+03  0.76496248040E+03  0.12500000000E+03 0.  0.
          1    1    1    2  502    0 -0.27598034515E+02  0.17636502698E+02  0.13356967325E+03  0.13752656234E+03  0.00000000000E+00 0. -1.
         -2    1    1    2    0  501 -0.16218469146E+02 -0.32742560315E+02  0.14672223655E+03  0.15120360014E+03  0.00000000000E+00 0.  1.
<mgrwt>
<rscale>  0 0.34504497E+02</rscale>
<asrwt>0</asrwt>
<pdfrwt beam="1">  1        1 0.16055688E+00 0.32752065E+02</pdfrwt>
<pdfrwt beam="2">  1       -2 0.15496000E-02 0.36350696E+02</pdfrwt>
<totfact> 0.12674014E+04</totfact>
</mgrwt>
</event>
<event>
 5    1  0.4149151E-003  0.6295348E+02  0.7546771E-02  0.1401356E+00
         -1   -1    0    0    0  501 -0.00000000000E+00  0.00000000000E+00  0.52674133340E+03  0.52674133340E+03  0.00000000000E+00 0.  1.
          2   -1    0    0  502    0  0.00000000000E+00 -0.00000000000E+00 -0.39798803717E+03  0.39798803717E+03  0.00000000000E+00 0.  1.
         25    1    1    2    0    0  0.14062439450E+02 -0.34481976448E+02  0.18013523121E+03  0.22239707827E+03  0.12500000000E+03 0.  0.
          2    1    1    2  502    0 -0.63028379483E+02  0.81215262729E+01 -0.37176564392E+03  0.37715809657E+03  0.00000000000E+00 0.  1.
         -1    1    1    2    0  501  0.48965940034E+02  0.26360450175E+02  0.32038370894E+03  0.32517419573E+03  0.00000000000E+00 0.  1.
<mgrwt>
<rscale>  0 0.59168231E+02</rscale>
<asrwt>0</asrwt>
<pdfrwt beam="2">  1        2 0.61228929E-01 0.62953481E+02</pdfrwt>
<pdfrwt beam="1">  1       -1 0.81037128E-01 0.55610580E+02</pdfrwt>
<totfact> 0.15503247E+02</totfact>
</mgrwt>
</event>
<event>
 5    1  0.4149151E-003  0.1689028E+03  0.7546771E-02  0.1256746E+00
          2   -1    0    0  502    0  0.00000000000E+00  0.00000000000E+00  0.70421337972E+03  0.70421337972E+03  0.00000000000E+00 0. -1.
          2   -1    0    0  501    0 -0.00000000000E+00 -0.00000000000E+00 -0.17411471927E+04  0.17411471927E+04  0.00000000000E+00 0. -1.
         25    1    1    2    0    0  0.61941812744E+02  0.15796599810E+03 -0.18729439525E+03  0.28194722062E+03  0.12500000000E+03 0.  0.
          2    1    1    2  501    0 -0.12393361972E+03 -0.11684834279E+03 -0.14995834468E+04  0.15092261564E+04  0.00000000000E+00 0. -1.
          2    1    1    2  502    0  0.61991806972E+02 -0.41117655306E+02  0.64994402906E+03  0.65418719539E+03  0.00000000000E+00 0. -1.
<mgrwt>
<rscale>  0 0.11209112E+03</rscale>
<asrwt>0</asrwt>
<pdfrwt beam="1">  1        2 0.10834052E+00 0.74388478E+02</pdfrwt>
<pdfrwt beam="2">  1        2 0.26786880E+00 0.16890276E+03</pdfrwt>
<totfact> 0.71792481E+01</totfact>
</mgrwt>
</event>
<event>
 5    1  0.4149151E-003  0.2349764E+03  0.7546771E-02  0.1228382E+00
         -1   -1    0    0    0  501 -0.00000000000E+00  0.00000000000E+00  0.63200404471E+03  0.63200404471E+03  0.00000000000E+00 0.  1.
          1   -1    0    0  502    0  0.00000000000E+00 -0.00000000000E+00 -0.16104541421E+03  0.16104541421E+03  0.00000000000E+00 0. -1.
         25    1    1    2    0    0 -0.22761181880E+03  0.13176404568E+03  0.75640724049E+02  0.30085781181E+03  0.12500000000E+03 0.  0.
          1    1    1    2  502    0  0.18706546522E+03 -0.73194352703E+02  0.19652621759E+03  0.28102216238E+03  0.00000000000E+00 0. -1.
         -1    1    1    2    0  501  0.40546353580E+02 -0.58569692982E+02  0.19879168886E+03  0.21116948474E+03  0.00000000000E+00 0.  1.
<mgrwt>
<rscale>  0 0.12937747E+03</rscale>
<asrwt>0</asrwt>
<pdfrwt beam="2">  1        1 0.24776218E-01 0.23497641E+03</pdfrwt>
<pdfrwt beam="1">  1       -1 0.97231390E-01 0.71234933E+02</pdfrwt>
<totfact> 0.21979155E+02</totfact>
</mgrwt>
</event>
<event>
 5    1  0.4149151E-003  0.4153612E+02  0.7546771E-02  0.1499284E+00
          2   -1    0    0  502    0  0.00000000000E+00  0.00000000000E+00  0.35225080168E+04  0.35225080168E+04  0.00000000000E+00 0. -1.
         -2   -1    0    0    0  501 -0.00000000000E+00 -0.00000000000E+00 -0.36933502110E+01  0.36933502110E+01  0.00000000000E+00 0.  1.
         25    1    1    2    0    0  0.24275893000E+02  0.15102123339E+02  0.19072349210E+04  0.19115405925E+04  0.12500000000E+03 0.  0.
          2    1    1    2  502    0 -0.24362918871E+02  0.32907759359E+02  0.11185144947E+04  0.11192636630E+04  0.00000000000E+00 0. -1.
         -2    1    1    2    0  501  0.87025871454E-01 -0.48009882698E+02  0.49306525091E+03  0.49539711148E+03  0.00000000000E+00 0.  1.
<mgrwt>
<rscale>  0 0.41239372E+02</rscale>
<asrwt>0</asrwt>
<pdfrwt beam="1">  1        2 0.54192162E+00 0.40944749E+02</pdfrwt>
<pdfrwt beam="2">  1       -2 0.56821054E-03 0.41536116E+02</pdfrwt>
<totfact> 0.48396080E+03</totfact>
</mgrwt>
</event>
<event>
 5    1  0.4149151E-003  0.9852237E+02  0.7546771E-02  0.1377792E+00
         -1   -1    0    0    0  501 -0.00000000000E+00  0.00000000000E+00  0.37260545855E+03  0.37260545855E+03  0.00000000000E+00 0.  1.
          1   -1    0    0  502    0  0.00000000000E+00 -0.00000000000E+00 -0.11504884055E+03  0.11504884055E+03  0.00000000000E+00 0. -1.
         25    1    1    2    0    0 -0.10077674546E+03 -0.73773988051E+02  0.47906350752E+02  0.18308078048E+03  0.12500000000E+03 0.  0.
          1    1    1    2  502    0  0.82089604768E+02  0.35106014279E+02 -0.13052877331E+01  0.89290756664E+02  0.00000000000E+00 0. -1.
         -1    1    1    2    0  501  0.18687140689E+02  0.38667973773E+02  0.21095555497E+03  0.21528276196E+03  0.00000000000E+00 0.  1.
<mgrwt>
<rscale>  0 0.65047776E+02</rscale>
<asrwt>0</asrwt>
<pdfrwt beam="2">  1        1 0.17699822E-01 0.98522366E+02</pdfrwt>
<pdfrwt beam="1">  1       -1 0.57323916E-01 0.42946728E+02</pdfrwt>
<totfact> 0.94150240E+02</totfact>
</mgrwt>
</event>
<event>
 5    1  0.4149151E-003  0.1302871E+03  0.7546771E-02  0.1322206E+00
          2   -1    0    0  501    0  0.00000000000E+00  0.00000000000E+00  0.16168719730E+03  0.16168719730E+03  0.00000000000E+00 0. -1.
          2   -1    0    0  502    0 -0.00000000000E+00 -0.00000000000E+00 -0.24198995377E+04  0.24198995377E+04  0.00000000000E+00 0. -1.
         25    1    1    2    0    0  0.12737748443E+03 -0.36019377541E+02 -0.28925774745E+03  0.34178569829E+03  0.12500000000E+03 0.  0.
          2    1    1    2  501    0 -0.13003619845E+03 -0.16105446554E+02  0.10332284479E+03  0.16686643932E+03  0.00000000000E+00 0. -1.
          2    1    1    2  502    0  0.26587140147E+01  0.52124824095E+02 -0.20722774378E+04  0.20729345974E+04  0.00000000000E+00 0. -1.
<mgrwt>
<rscale>  0 0.82462251E+02</rscale>
<asrwt>0</asrwt>
<pdfrwt beam="1">  1        2 0.24874957E-01 0.13028714E+03</pdfrwt>
<pdfrwt beam="2">  1        2 0.37229218E+00 0.52192586E+02</pdfrwt>
<totfact> 0.18083145E+02</totfact>
</mgrwt>
</event>
<event>
 5    1  0.4149151E-003  0.5797864E+02  0.7546771E-02  0.1540813E+00
          2   -1    0    0  502    0  0.00000000000E+00  0.00000000000E+00  0.88508044455E+02  0.88508044455E+02  0.00000000000E+00 0. -1.
         -1   -1    0    0    0  501 -0.00000000000E+00 -0.00000000000E+00 -0.32932286712E+03  0.32932286712E+03  0.00000000000E+00 0.  1.
         25    1    1    2    0    0  0.48723551669E+02 -0.27996519008E+02  0.21118664651E+02  0.13866790386E+03  0.12500000000E+03 0.  0.
          2    1    1    2  502    0 -0.12766908374E+02 -0.18186104766E+02 -0.16068801087E+03  0.16221703114E+03  0.00000000000E+00 0. -1.
         -1    1    1    2    0  501 -0.35956643295E+02  0.46182623773E+02 -0.10124547644E+03  0.11694597657E+03  0.00000000000E+00 0.  1.
<mgrwt>
<rscale>  0 0.35892693E+02</rscale>
<asrwt>0</asrwt>
<pdfrwt beam="1">  1        2 0.13616622E-01 0.22219999E+02</pdfrwt>
<pdfrwt beam="2">  1       -1 0.50665056E-01 0.57978645E+02</pdfrwt>
<totfact> 0.17542886E+03</totfact>
</mgrwt>
</event>
<event>
 5    1  0.4149151E-003  0.4899959E+02  0.7546771E-02  0.1451356E+00
          1   -1    0    0  502    0  0.00000000000E+00  0.00000000000E+00  0.23766014634E+04  0.23766014634E+04  0.00000000000E+00 0. -1.
          1   -1    0    0  501    0 -0.00000000000E+00 -0.00000000000E+00 -0.25577417623E+03  0.25577417623E+03  0.00000000000E+00 0. -1.
         25    1    1    2    0    0 -0.23449386556E+02 -0.56772226163E+02 -0.12934720954E+03  0.19007540611E+03  0.12500000000E+03 0.  0.
          1    1    1    2  501    0  0.47976670495E+02  0.14353223970E+02 -0.89262453395E+02  0.10235019070E+03  0.00000000000E+00 0. -1.
          1    1    1    2  502    0 -0.24527283939E+02  0.42419002193E+02  0.23394369501E+04  0.23399500428E+04  0.00000000000E+00 0. -1.
<mgrwt>
<rscale>  0 0.48901935E+02</rscale>
<asrwt>0</asrwt>
<pdfrwt beam="1">  1        1 0.36563098E+00 0.48999586E+02</pdfrwt>
<pdfrwt beam="2">  1        1 0.39349875E-01 0.48804478E+02</pdfrwt>
<totfact> 0.31035506E+01</totfact>
</mgrwt>
</event>
<event>
 5    1  0.4149151E-003  0.2402121E+03  0.7546771E-02  0.1331123E+00
          2   -1    0    0  501    0  0.00000000000E+00  0.00000000000E+00  0.18352303894E+04  0.18352303894E+04  0.00000000000E+00 0.  1.
          3   -1    0    0  502    0 -0.00000000000E+00 -0.00000000000E+00 -0.11973344905E+03  0.11973344905E+03  0.00000000000E+00 0. -1.
         25    1    1    2    0    0  0.14842231436E+02  0.21945606766E+03  0.11809491508E+03  0.27920004734E+03  0.12500000000E+03 0.  0.
          2    1    1    2  501    0 -0.24616151385E+01 -0.24250327343E+03  0.16218949003E+04  0.16399259023E+04  0.00000000000E+00 0.  1.
          3    1    1    2  502    0 -0.12380616297E+02  0.23047205766E+02 -0.24492875019E+02  0.35837888892E+02  0.00000000000E+00 0. -1.
<mgrwt>
<rscale>  0 0.79274475E+02</rscale>
<asrwt>0</asrwt>
<pdfrwt beam="1">  1        2 0.28234312E+00 0.24021207E+03</pdfrwt>
<pdfrwt beam="2">  1        3 0.18420532E-01 0.26162059E+02</pdfrwt>
<totfact> 0.11790977E+02</totfact>
</mgrwt>
</event>
<event>
 5    1  0.4149151E-003  0.7666951E+02  0.7546771E-02  0.1507174E+00
          1   -1    0    0  501    0  0.00000000000E+00  0.00000000000E+00  0.21356464837E+03  0.21356464837E+03  0.00000000000E+00 0. -1.
          1   -1    0    0  502    0 -0.00000000000E+00 -0.00000000000E+00 -0.30730723852E+03  0.30730723852E+03  0.00000000000E+00 0. -1.
         25    1    1    2    0    0  0.71558413098E+02  0.15255909849E+02 -0.27013473718E+02  0.14733661131E+03  0.12500000000E+03 0.  0.
          1    1    1    2  501    0 -0.31201153442E+01  0.20783693466E+02  0.14583205119E+03  0.14733867173E+03  0.00000000000E+00 0. -1.
          1    1    1    2  502    0 -0.68438297754E+02 -0.36039603316E+02 -0.21256116762E+03  0.22619660384E+03  0.00000000000E+00 0. -1.
<mgrwt>
<rscale>  0 0.40141396E+02</rscale>
<asrwt>0</asrwt>
<pdfrwt beam="1">  1        1 0.32856100E-01 0.21016589E+02</pdfrwt>
<pdfrwt beam="2">  1        1 0.47278036E-01 0.76669514E+02</pdfrwt>
<totfact> 0.13076417E+03</totfact>
</mgrwt>
</event>
<event>
 5    1  0.4149151E-003  0.5951938E+02  0.7546771E-02  0.1465513E+00
          2   -1    0    0  502    0  0.00000000000E+00  0.00000000000E+00  0.24056170642E+04  0.24056170642E+04  0.00000000000E+00 0. -1.
         -1   -1    0    0    0  501 -0.00000000000E+00 -0.00000000000E+00 -0.95990579847E+01  0.95990579847E+01  0.00000000000E+00 0.  1.
         25    1    1    2    0    0  0.68356855182E+02  0.26965475878E+02  0.19766862460E+04  0.19819973036E+04  0.12500000000E+03 0.  0.
          2    1    1    2  502    0 -0.52218227300E+02  0.54867822800E+01  0.35913752924E+03  0.36295538700E+03  0.00000000000E+00 0. -1.
         -1    1    1    2    0  501 -0.16138627882E+02 -0.32452258158E+02  0.60194230999E+02  0.70263431563E+02  0.00000000000E+00 0.  1.
<mgrwt>
<rscale>  0 0.46445681E+02</rscale>
<asrwt>0</asrwt>
<pdfrwt beam="1">  1        2 0.37009445E+00 0.59519378E+02</pdfrwt>
<pdfrwt beam="2">  1       -1 0.14767801E-02 0.36243680E+02</pdfrwt>
<totfact> 0.49665674E+03</totfact>
</mgrwt>
</event>
<event>
 5    1  0.4149151E-003  0.5730547E+02  0.7546771E-02  0.1430636E+00
          2   -1    0    0  501    0  0.00000000000E+00  0.00000000000E+00  0.19013422050E+04  0.19013422050E+04  0.00000000000E+00 0. -1.
          2   -1    0    0  502    0 -0.00000000000E+00 -0.00000000000E+00 -0.89755796943E+03  0.89755796943E+03  0.00000000000E+00 0.  1.
         25    1    1    2    0    0 -0.31046357628E+02 -0.35906241786E+02 -0.41102002257E+00  0.13370977324E+03  0.12500000000E+03 0.  0.
          2    1    1    2  501    0  0.44274639321E+02 -0.20304755203E+02  0.18333651586E+04  0.18340120859E+04  0.00000000000E+00 0. -1.
          2    1    1    2  502    0 -0.13228281693E+02  0.56210996988E+02 -0.82916990301E+03  0.83117831521E+03  0.00000000000E+00 0.  1.
<mgrwt>
<rscale>  0 0.52832457E+02</rscale>
<asrwt>0</asrwt>
<pdfrwt beam="1">  1        2 0.29251418E+00 0.48708590E+02</pdfrwt>
<pdfrwt beam="2">  1        2 0.13808584E+00 0.57305467E+02</pdfrwt>
<totfact> 0.51013498E+01</totfact>
</mgrwt>
</event>
<event>
 5    1  0.4149151E-003  0.6403886E+02  0.7546771E-02  0.1497969E+00
         -2   -1    0    0    0  501 -0.00000000000E+00  0.00000000000E+00  0.20352247845E+04  0.20352247845E+04  0.00000000000E+00 0. -1.
          1   -1    0    0  502    0  0.00000000000E+00 -0.00000000000E+00 -0.10974646146E+03  0.10974646146E+03  0.00000000000E+00 0. -1.
         25    1    1    2    0    0  0.28643871613E+02 -0.37525541948E+02  0.12467731428E+03  0.18275138953E+03  0.12500000000E+03 0.  0.
          1    1    1    2  502    0 -0.19598267973E+02  0.62751401099E+02 -0.67210347798E+02  0.94016282093E+02  0.00000000000E+00 0. -1.
         -2    1    1    2    0  501 -0.90456036395E+01 -0.25225859151E+02  0.18680113566E+04  0.18682035743E+04  0.00000000000E+00 0. -1.
<mgrwt>
<rscale>  0 0.41426492E+02</rscale>
<asrwt>0</asrwt>
<pdfrwt beam="2">  1        1 0.16884072E-01 0.64038864E+02</pdfrwt>
<pdfrwt beam="1">  1       -2 0.31311148E+00 0.26798636E+02</pdfrwt>
<totfact> 0.10786353E+01</totfact>
</mgrwt>
</event>
<event>
 5    1  0.4149151E-003  0.8103185E+02  0.7546771E-02  0.1398994E+00
          2   -1    0    0  502    0  0.00000000000E+00  0.00000000000E+00  0.27029221799E+04  0.27029221799E+04  0.00000000000E+00 0. -1.
         -2   -1    0    0    0  501 -0.00000000000E+00 -0.00000000000E+00 -0.73767553329E+03  0.73767553329E+03  0.00000000000E+00 0. -1.
         25    1    1    2    0    0 -0.62516593408E+02 -0.48336201927E+00 -0.39055354891E+03  0.41480794671E+03  0.12500000000E+03 0.  0.
          2    1    1    2  502    0  0.67992397724E+02  0.44160651794E+02  0.26887352445E+04  0.26899573128E+04  0.00000000000E+00 0. -1.
         -2    1    1    2    0  501 -0.54758043159E+01 -0.43677289775E+02 -0.33293504904E+03  0.33583245369E+03  0.00000000000E+00 0. -1.
<mgrwt>
<rscale>  0 0.59724010E+02</rscale>
<asrwt>0</asrwt>
<pdfrwt beam="1">  1        2 0.41583418E+00 0.81031851E+02</pdfrwt>
<pdfrwt beam="2">  1       -2 0.11348855E+00 0.44019201E+02</pdfrwt>
<totfact> 0.25161594E+00</totfact>
</mgrwt>
</event>
<event>
 5    1  0.4149151E-003  0.6540278E+02  0.7546771E-02  0.1427387E+00
          2   -1    0    0  501    0  0.00000000000E+00  0.00000000000E+00  0.10331634897E+04  0.10331634897E+04  0.00000000000E+00 0. -1.
          1   -1    0    0  502    0 -0.00000000000E+00 -0.00000000000E+00 -0.32395842096E+03  0.32395842096E+03  0.00000000000E+00 0. -1.
         25    1    1    2    0    0  0.97202998258E+02 -0.33092564337E+02  0.99724810701E+02  0.19003572968E+03  0.12500000000E+03 0.  0.
          2    1    1    2  501    0 -0.53554691192E+02  0.35986139244E+02  0.88538615443E+03  0.88773405343E+03  0.00000000000E+00 0. -1.
          1    1    1    2  502    0 -0.43648307066E+02 -0.28935749070E+01 -0.27590589640E+03  0.27935212753E+03  0.00000000000E+00 0. -1.
<mgrwt>
<rscale>  0 0.53488190E+02</rscale>
<asrwt>0</asrwt>
<pdfrwt beam="1">  1        2 0.15894823E+00 0.65402776E+02</pdfrwt>
<pdfrwt beam="2">  1        1 0.49839758E-01 0.43744114E+02</pdfrwt>
<totfact> 0.29477013E+02</totfact>
</mgrwt>
</event>
<event>
 5    1  0.4149151E-003  0.1050859E+03  0.7546771E-02  0.1309968E+00
          1   -1    0    0  502    0  0.00000000000E+00  0.00000000000E+00  0.16878068176E+03  0.16878068176E+03  0.00000000000E+00 0. -1.
         -2   -1    0    0    0  501 -0.00000000000E+00 -0.00000000000E+00 -0.57334234905E+03  0.57334234905E+03  0.00000000000E+00 0. -1.
         25    1    1    2    0    0 -0.12764473831E+02 -0.29583681211E+02 -0.31168872736E+03  0.33736180689E+03  0.12500000000E+03 0.  0.
          1    1    1    2  502    0 -0.64610796931E+02 -0.82876400903E+02  0.11518538141E+03  0.15591896933E+03  0.00000000000E+00 0. -1.
         -2    1    1    2    0  501  0.77375270762E+02  0.11246008211E+03 -0.20805832134E+03  0.24884225459E+03  0.00000000000E+00 0. -1.
<mgrwt>
<rscale>  0 0.87124667E+02</rscale>
<asrwt>0</asrwt>
<pdfrwt beam="1">  1        1 0.25966259E-01 0.10508593E+03</pdfrwt>
<pdfrwt beam="2">  1       -2 0.88206516E-01 0.72233339E+02</pdfrwt>
<totfact> 0.18652241E+02</totfact>
</mgrwt>
</event>
<event>
 5    1  0.4645120E-003  0.3800328E+02  0.7546771E-02  0.1553070E+00
          1   -1    0    0  502    0  0.00000000000E+00  0.00000000000E+00  0.14825333305E+04  0.14825333305E+04  0.00000000000E+00 0. -1.
         -2   -1    0    0    0  501 -0.00000000000E+00 -0.00000000000E+00 -0.72083391618E+01  0.72083391618E+01  0.00000000000E+00 0.  1.
         25    1    1    2    0    0  0.26416131125E+01 -0.25381511517E+01  0.97591985536E+03  0.98389937718E+03  0.12500000000E+03 0.  0.
          1    1    1    2  502    0 -0.85707076208E+01  0.40076066066E+02  0.30666175271E+03  0.30938807132E+03  0.00000000000E+00 0. -1.
         -2    1    1    2    0  501  0.59290945083E+01 -0.37537914914E+02  0.19274338325E+03  0.19645422114E+03  0.00000000000E+00 0.  1.
<mgrwt>
<rscale>  0 0.34501819E+02</rscale>
<asrwt>0</asrwt>
<pdfrwt beam="1">  1        1 0.22808181E+00 0.31322968E+02</pdfrwt>
<pdfrwt beam="2">  1       -2 0.11089764E-02 0.38003279E+02</pdfrwt>
<totfact> 0.10736859E+04</totfact>
</mgrwt>
</event>
<event>
 5    1  0.4149151E-003  0.3886433E+02  0.7546771E-02  0.1546740E+00
          1   -1    0    0  502    0  0.00000000000E+00  0.00000000000E+00  0.32059761308E+03  0.32059761308E+03  0.00000000000E+00 0. -1.
         -2   -1    0    0    0  501 -0.00000000000E+00 -0.00000000000E+00 -0.49204019692E+02  0.49204019692E+02  0.00000000000E+00 0.  1.
         25    1    1    2    0    0  0.40893992703E+00  0.67228906495E+02  0.12193974293E+03  0.18712080057E+03  0.12500000000E+03 0.  0.
          1    1    1    2  502    0  0.71740663981E+01 -0.36243361943E+02  0.14599092201E+03  0.15059348533E+03  0.00000000000E+00 0. -1.
         -2    1    1    2    0  501 -0.75830063251E+01 -0.30985544552E+02  0.34629284503E+01  0.32087346876E+02  0.00000000000E+00 0.  1.
<mgrwt>
<rscale>  0 0.35210364E+02</rscale>
<asrwt>0</asrwt>
<pdfrwt beam="1">  1        1 0.49322708E-01 0.38864331E+02</pdfrwt>
<pdfrwt beam="2">  1       -2 0.75698494E-02 0.31899937E+02</pdfrwt>
<totfact> 0.61185035E+03</totfact>
</mgrwt>
</event>
<event>
 5    1  0.4149151E-003  0.9528771E+02  0.7546771E-02  0.1459509E+00
         -2   -1    0    0    0  501 -0.00000000000E+00  0.00000000000E+00  0.27448557753E+02  0.27448557753E+02  0.00000000000E+00 0.  1.
          1   -1    0    0  502    0  0.00000000000E+00 -0.00000000000E+00 -0.13357648307E+04  0.13357648307E+04  0.00000000000E+00 0. -1.
         25    1    1    2    0    0  0.59321272723E+02  0.61026144764E+02 -0.87272869503E+03  0.88573335653E+03  0.12500000000E+03 0.  0.
          1    1    1    2  502    0 -0.63180432168E+02 -0.84353397382E+02 -0.44083709140E+03  0.45325997376E+03  0.00000000000E+00 0. -1.
         -2    1    1    2    0  501  0.38591594452E+01  0.23327252618E+02  0.52495134704E+01  0.24220058176E+02  0.00000000000E+00 0.  1.
<mgrwt>
<rscale>  0 0.47465914E+02</rscale>
<asrwt>0</asrwt>
<pdfrwt beam="2">  1        1 0.20550220E+00 0.95287709E+02</pdfrwt>
<pdfrwt beam="1">  1       -2 0.42228566E-02 0.23644319E+02</pdfrwt>
<totfact> 0.17095301E+03</totfact>
</mgrwt>
</event>
<event>
 5    1  0.4149151E-003  0.7517099E+02  0.7546771E-02  0.1420760E+00
          1   -1    0    0  502    0 -0.00000000000E+00  0.00000000000E+00  0.22119935733E+03  0.22119935733E+03  0.00000000000E+00 0. -1.
          2   -1    0    0  501    0  0.00000000000E+00 -0.00000000000E+00 -0.32242417844E+03  0.32242417844E+03  0.00000000000E+00 0. -1.
         25    1    1    2    0    0 -0.75896388703E+02  0.15576266894E+02 -0.40281840208E+00  0.14706476183E+03  0.12500000000E+03 0.  0.
          2    1    1    2  501    0  0.37610819579E+01 -0.39860514616E+02 -0.23710507081E+03  0.24046168295E+03  0.00000000000E+00 0. -1.
          1    1    1    2  502    0  0.72135306745E+02  0.24284247721E+02  0.13628306810E+03  0.15609709100E+03  0.00000000000E+00 0. -1.
<mgrwt>
<rscale>  0 0.54860399E+02</rscale>
<asrwt>0</asrwt>
<pdfrwt beam="2">  1        2 0.49603720E-01 0.40037562E+02</pdfrwt>
<pdfrwt beam="1">  1        1 0.34030670E-01 0.75170995E+02</pdfrwt>
<totfact> 0.17281406E+03</totfact>
</mgrwt>
</event>
<event>
 5    1  0.4149151E-003  0.1012504E+03  0.7546771E-02  0.1332413E+00
         -1   -1    0    0    0  502 -0.00000000000E+00  0.00000000000E+00  0.73343266410E+03  0.73343266410E+03  0.00000000000E+00 0.  1.
         -2   -1    0    0    0  501  0.00000000000E+00 -0.00000000000E+00 -0.19280204550E+03  0.19280204550E+03  0.00000000000E+00 0. -1.
         25    1    1    2    0    0 -0.60051621958E+02  0.12204303724E+02  0.98309586315E+02  0.17042569375E+03  0.12500000000E+03 0.  0.
         -2    1    1    2    0  501 -0.22168167408E+02  0.57226260363E+02 -0.14566041625E+03  0.15806084076E+03  0.00000000000E+00 0. -1.
         -1    1    1    2    0  502  0.82219789366E+02 -0.69430564087E+02  0.58798144854E+03  0.59774817508E+03  0.00000000000E+00 0.  1.
<mgrwt>
<rscale>  0 0.78827237E+02</rscale>
<asrwt>0</asrwt>
<pdfrwt beam="2">  1       -2 0.29661853E-01 0.61369964E+02</pdfrwt>
<pdfrwt beam="1">  1       -1 0.11283579E+00 0.10125040E+03</pdfrwt>
<totfact> 0.60676107E+01</totfact>
</mgrwt>
</event>
<event>
 5    1  0.4149151E-003  0.1298796E+03  0.7546771E-02  0.1290520E+00
          1   -1    0    0  502    0 -0.00000000000E+00  0.00000000000E+00  0.65298962399E+03  0.65298962399E+03  0.00000000000E+00 0. -1.
          2   -1    0    0  501    0  0.00000000000E+00 -0.00000000000E+00 -0.31332170297E+04  0.31332170297E+04  0.00000000000E+00 0. -1.
         25    1    1    2    0    0  0.10939374520E+03 -0.39515286453E+02 -0.29187197696E+03  0.33814597482E+03  0.12500000000E+03 0.  0.
          2    1    1    2  501    0 -0.29219857230E+02 -0.63516173586E+02 -0.28110039097E+04  0.28118732341E+04  0.00000000000E+00 0. -1.
          1    1    1    2  502    0 -0.80173887967E+02  0.10303146004E+03  0.62264848094E+03  0.63618744477E+03  0.00000000000E+00 0. -1.
<mgrwt>
<rscale>  0 0.95291823E+02</rscale>
<asrwt>0</asrwt>
<pdfrwt beam="2">  1        2 0.48203338E+00 0.69914980E+02</pdfrwt>
<pdfrwt beam="1">  1        1 0.10045994E+00 0.12987963E+03</pdfrwt>
<totfact> 0.95288474E+00</totfact>
</mgrwt>
</event>
<event>
 5    1  0.4149151E-003  0.2066409E+03  0.7546771E-02  0.1244357E+00
          1   -1    0    0  501    0  0.00000000000E+00  0.00000000000E+00  0.27428442941E+03  0.27428442941E+03  0.00000000000E+00 0. -1.
          1   -1    0    0  502    0 -0.00000000000E+00 -0.00000000000E+00 -0.42272739551E+03  0.42272739551E+03  0.00000000000E+00 0. -1.
         25    1    1    2    0    0 -0.55288005162E+02  0.18339148033E+03 -0.12360015352E+03  0.25998306968E+03  0.12500000000E+03 0.  0.
          1    1    1    2  501    0  0.12347260770E+03 -0.17416782808E+03  0.14210100671E+03  0.25646171897E+03  0.00000000000E+00 0. -1.
          1    1    1    2  502    0 -0.68184602540E+02 -0.92236522496E+01 -0.16694381930E+03  0.18056703626E+03  0.00000000000E+00 0. -1.
<mgrwt>
<rscale>  0 0.11923949E+03</rscale>
<asrwt>0</asrwt>
<pdfrwt beam="1">  1        1 0.42197604E-01 0.20664087E+03</pdfrwt>
<pdfrwt beam="2">  1        1 0.65034984E-01 0.68805638E+02</pdfrwt>
<totfact> 0.67591040E+02</totfact>
</mgrwt>
</event>
<event>
 5    1  0.4149151E-003  0.5604216E+02  0.7546771E-02  0.1485302E+00
          2   -1    0    0  501    0  0.00000000000E+00  0.00000000000E+00  0.18614971498E+04  0.18614971498E+04  0.00000000000E+00 0.  1.
          1   -1    0    0  502    0 -0.00000000000E+00 -0.00000000000E+00 -0.99271917448E+01  0.99271917448E+01  0.00000000000E+00 0. -1.
         25    1    1    2    0    0 -0.28909706402E+02 -0.19865951378E+02  0.83215000846E+03  0.84221675579E+03  0.12500000000E+03 0.  0.
          2    1    1    2  501    0 -0.30609174631E+01 -0.33300569534E+02  0.81249119433E+03  0.81317909345E+03  0.00000000000E+00 0.  1.
          1    1    1    2  502    0  0.31970623865E+02  0.53166520912E+02  0.20692875524E+03  0.21602849229E+03  0.00000000000E+00 0. -1.
<mgrwt>
<rscale>  0 0.43290911E+02</rscale>
<asrwt>0</asrwt>
<pdfrwt beam="1">  1        2 0.28638390E+00 0.33440950E+02</pdfrwt>
<pdfrwt beam="2">  1        1 0.15272618E-02 0.56042157E+02</pdfrwt>
<totfact> 0.10584136E+04</totfact>
</mgrwt>
</event>
<event>
 5    1  0.4149151E-003  0.2137253E+03  0.7546771E-02  0.1332857E+00
          1   -1    0    0  502    0 -0.00000000000E+00  0.00000000000E+00  0.14183926216E+04  0.14183926216E+04  0.00000000000E+00 0. -1.
          2   -1    0    0  501    0  0.00000000000E+00 -0.00000000000E+00 -0.19968344579E+03  0.19968344579E+03  0.00000000000E+00 0.  1.
         25    1    1    2    0    0  0.22894559017E+03  0.62145360531E+02  0.19505334928E+03  0.33158549147E+03  0.12500000000E+03 0.  0.
          2    1    1    2  501    0 -0.23365690955E+02 -0.17110278155E+02 -0.12009555724E+03  0.12353809130E+03  0.00000000000E+00 0.  1.
          1    1    1    2  502    0 -0.20557989921E+03 -0.45035082377E+02  0.11437513838E+04  0.11629524847E+04  0.00000000000E+00 0. -1.
<mgrwt>
<rscale>  0 0.78674116E+02</rscale>
<asrwt>0</asrwt>
<pdfrwt beam="2">  1        2 0.30720531E-01 0.28960613E+02</pdfrwt>
<pdfrwt beam="1">  1        1 0.21821424E+00 0.21372532E+03</pdfrwt>
<totfact> 0.18318237E+02</totfact>
</mgrwt>
</event>
<event>
 5    1  0.4149151E-003  0.5841465E+02  0.7546771E-02  0.1495308E+00
         -1   -1    0    0    0  501 -0.00000000000E+00  0.00000000000E+00  0.42501591321E+03  0.42501591321E+03  0.00000000000E+00 0.  1.
          2   -1    0    0  502    0  0.00000000000E+00 -0.00000000000E+00 -0.37972107164E+02  0.37972107164E+02  0.00000000000E+00 0. -1.
         25    1    1    2    0    0  0.53691065697E+02  0.16358154670E+02  0.13333784722E+03  0.19119179182E+03  0.12500000000E+03 0.  0.
          2    1    1    2  502    0 -0.12766368957E+02  0.27063394525E+02  0.40230832101E+02  0.50139080078E+02  0.00000000000E+00 0. -1.
         -1    1    1    2    0  501 -0.40924696740E+02 -0.43421549195E+02  0.21347512672E+03  0.22165714847E+03  0.00000000000E+00 0.  1.
<mgrwt>
<rscale>  0 0.41808644E+02</rscale>
<asrwt>0</asrwt>
<pdfrwt beam="2">  1        2 0.58418629E-02 0.29923360E+02</pdfrwt>
<pdfrwt beam="1">  1       -1 0.65387060E-01 0.58414654E+02</pdfrwt>
<totfact> 0.30374123E+03</totfact>
</mgrwt>
</event>
<event>
 5    1  0.4149151E-003  0.1108984E+03  0.7546771E-02  0.1335746E+00
         -1   -1    0    0    0  502 -0.00000000000E+00  0.00000000000E+00  0.16588042391E+03  0.16588042391E+03  0.00000000000E+00 0.  1.
         -2   -1    0    0    0  501  0.00000000000E+00 -0.00000000000E+00 -0.51549901548E+03  0.51549901548E+03  0.00000000000E+00 0.  1.
         25    1    1    2    0    0  0.74418579852E+02 -0.60416967394E+02  0.38234672688E+02  0.16209634534E+03  0.12500000000E+03 0.  0.
         -2    1    1    2    0  501 -0.11098223349E+03  0.20107588400E+02 -0.43369842360E+03  0.44812464102E+03  0.00000000000E+00 0.  1.
         -1    1    1    2    0  502  0.36563653633E+02  0.40309378994E+02  0.45845159337E+02  0.71158453022E+02  0.00000000000E+00 0.  1.
<mgrwt>
<rscale>  0 0.77687222E+02</rscale>
<asrwt>0</asrwt>
<pdfrwt beam="2">  1       -2 0.79307541E-01 0.11089839E+03</pdfrwt>
<pdfrwt beam="1">  1       -1 0.25520065E-01 0.54421933E+02</pdfrwt>
<totfact> 0.14249040E+02</totfact>
</mgrwt>
</event>
<event>
 5    1  0.4149151E-003  0.2983005E+02  0.7546771E-02  0.1611308E+00
          2   -1    0    0  501    0  0.00000000000E+00  0.00000000000E+00  0.87790997943E+03  0.87790997943E+03  0.00000000000E+00 0.  1.
          2   -1    0    0  502    0 -0.00000000000E+00 -0.00000000000E+00 -0.13654667544E+03  0.13654667544E+03  0.00000000000E+00 0. -1.
         25    1    1    2    0    0 -0.35909094928E+01 -0.27695157409E+01  0.38075112815E+03  0.40077049097E+03  0.12500000000E+03 0.  0.
          2    1    1    2  501    0  0.31096895715E+02 -0.17670928110E+01  0.48510819874E+03  0.48610709111E+03  0.00000000000E+00 0.  1.
          2    1    1    2  502    0 -0.27505986222E+02  0.45366085519E+01 -0.12449602290E+03  0.12757907279E+03  0.00000000000E+00 0. -1.
<mgrwt>
<rscale>  0 0.28837301E+02</rscale>
<asrwt>0</asrwt>
<pdfrwt beam="1">  1        2 0.13506307E+00 0.29830049E+02</pdfrwt>
<pdfrwt beam="2">  1        2 0.21007181E-01 0.27877591E+02</pdfrwt>
<totfact> 0.12848512E+03</totfact>
</mgrwt>
</event>
<event>
 5    1  0.4149151E-003  0.1144046E+03  0.7546771E-02  0.1304834E+00
          1   -1    0    0  502    0  0.00000000000E+00  0.00000000000E+00  0.40965759128E+03  0.40965759128E+03  0.00000000000E+00 0. -1.
         -1   -1    0    0    0  501 -0.00000000000E+00 -0.00000000000E+00 -0.11127195129E+04  0.11127195129E+04  0.00000000000E+00 0.  1.
         25    1    1    2    0    0 -0.41971825789E+02  0.64774190518E+02 -0.33453896879E+03  0.36537467285E+03  0.12500000000E+03 0.  0.
          1    1    1    2  502    0 -0.69480222967E+02  0.25450226849E+01  0.38555102159E+03  0.39176979054E+03  0.00000000000E+00 0. -1.
         -1    1    1    2    0  501  0.11145204876E+03 -0.67319213203E+02 -0.75407397438E+03  0.76523264075E+03  0.00000000000E+00 0.  1.
<mgrwt>
<rscale>  0 0.89186239E+02</rscale>
<asrwt>0</asrwt>
<pdfrwt beam="1">  1        1 0.63024244E-01 0.69526819E+02</pdfrwt>
<pdfrwt beam="2">  1       -1 0.17118762E+00 0.11440456E+03</pdfrwt>
<totfact> 0.17069730E+01</totfact>
</mgrwt>
</event>
<event>
 5    1  0.4149151E-003  0.4304712E+02  0.7546771E-02  0.1502667E+00
          2   -1    0    0  502    0  0.00000000000E+00  0.00000000000E+00  0.97061661564E+02  0.97061661564E+02  0.00000000000E+00 0. -1.
          2   -1    0    0  501    0 -0.00000000000E+00 -0.00000000000E+00 -0.44391718739E+03  0.44391718739E+03  0.00000000000E+00 0. -1.
         25    1    1    2    0    0  0.52076232380E+02 -0.38866292609E+02 -0.15194873200E+03  0.20720989319E+03  0.12500000000E+03 0.  0.
          2    1    1    2  501    0 -0.38568701174E+02 -0.15795403957E+01 -0.25620564264E+03  0.25909722302E+03  0.00000000000E+00 0. -1.
          2    1    1    2  502    0 -0.13507531205E+02  0.40445833005E+02  0.61298848804E+02  0.74671732747E+02  0.00000000000E+00 0. -1.
<mgrwt>
<rscale>  0 0.40763506E+02</rscale>
<asrwt>0</asrwt>
<pdfrwt beam="1">  1        2 0.14932563E-01 0.43047125E+02</pdfrwt>
<pdfrwt beam="2">  1        2 0.68294952E-01 0.38601032E+02</pdfrwt>
<totfact> 0.39940068E+03</totfact>
</mgrwt>
</event>
<event>
 5    1  0.4149151E-003  0.1842751E+03  0.7546771E-02  0.1312227E+00
          2   -1    0    0  502    0  0.00000000000E+00  0.00000000000E+00  0.74737457640E+03  0.74737457640E+03  0.00000000000E+00 0. -1.
          2   -1    0    0  501    0 -0.00000000000E+00 -0.00000000000E+00 -0.14728736038E+04  0.14728736038E+04  0.00000000000E+00 0. -1.
         25    1    1    2    0    0 -0.87342261165E+02 -0.12064145520E+03 -0.31564497030E+03  0.37072871291E+03  0.12500000000E+03 0.  0.
          2    1    1    2  501    0 -0.55225148589E+01 -0.39978176445E+02 -0.11173613620E+04  0.11180899633E+04  0.00000000000E+00 0. -1.
          2    1    1    2  502    0  0.92864776024E+02  0.16061963165E+03  0.70750730494E+03  0.73142950394E+03  0.00000000000E+00 0. -1.
<mgrwt>
<rscale>  0 0.86237688E+02</rscale>
<asrwt>0</asrwt>
<pdfrwt beam="1">  1        2 0.11498071E+00 0.18427509E+03</pdfrwt>
<pdfrwt beam="2">  1        2 0.22659594E+00 0.40357809E+02</pdfrwt>
<totfact> 0.10065535E+02</totfact>
</mgrwt>
</event>
<event>
 5    1  0.4149151E-003  0.6253629E+02  0.7546771E-02  0.1413103E+00
         -2   -1    0    0    0  501  0.00000000000E+00  0.00000000000E+00  0.78332491063E+03  0.78332491063E+03  0.00000000000E+00 0.  1.
         -1   -1    0    0    0  502 -0.00000000000E+00 -0.00000000000E+00 -0.26650196592E+02  0.26650196592E+02  0.00000000000E+00 0.  1.
         25    1    1    2    0    0 -0.24904612577E+02  0.34493552853E+02  0.42251280512E+03  0.44266478899E+03  0.12500000000E+03 0.  0.
         -2    1    1    2    0  501 -0.49501154697E+01 -0.75915276462E+02  0.28996675313E+03  0.29978050431E+03  0.00000000000E+00 0.  1.
         -1    1    1    2    0  502  0.29854728047E+02  0.41421723609E+02  0.44195155777E+02  0.67529813917E+02  0.00000000000E+00 0.  1.
<mgrwt>
<rscale>  0 0.56507225E+02</rscale>
<asrwt>0</asrwt>
<pdfrwt beam="1">  1       -2 0.12051151E+00 0.62536291E+02</pdfrwt>
<pdfrwt beam="2">  1       -1 0.41000308E-02 0.51059416E+02</pdfrwt>
<totfact> 0.85946331E+02</totfact>
</mgrwt>
</event>
<event>
 5    1  0.4149151E-003  0.5315905E+02  0.7546771E-02  0.1524296E+00
         -1   -1    0    0    0  501 -0.00000000000E+00  0.00000000000E+00  0.14313465424E+02  0.14313465424E+02  0.00000000000E+00 0.  1.
          1   -1    0    0  502    0  0.00000000000E+00 -0.00000000000E+00 -0.11033109519E+04  0.11033109519E+04  0.00000000000E+00 0. -1.
         25    1    1    2    0    0  0.48816976257E+02  0.25625647539E+02 -0.74443437180E+03  0.75686676826E+03  0.12500000000E+03 0.  0.
          1    1    1    2  502    0  0.48593321255E+01 -0.26573728172E+02 -0.25434071315E+03  0.25577133245E+03  0.00000000000E+00 0. -1.
         -1    1    1    2    0  501 -0.53676308382E+02  0.94808063348E+00 -0.90222401523E+02  0.10498631661E+03  0.00000000000E+00 0.  1.
<mgrwt>
<rscale>  0 0.37895357E+02</rscale>
<asrwt>0</asrwt>
<pdfrwt beam="2">  1        1 0.16974018E+00 0.27014369E+02</pdfrwt>
<pdfrwt beam="1">  1       -1 0.22020712E-02 0.53159047E+02</pdfrwt>
<totfact> 0.77247348E+03</totfact>
</mgrwt>
</event>
<event>
 5    1  0.4149151E-003  0.1049180E+03  0.7546771E-02  0.1350466E+00
         -1   -1    0    0    0  502 -0.00000000000E+00  0.00000000000E+00  0.13214556309E+04  0.13214556309E+04  0.00000000000E+00 0.  1.
         -2   -1    0    0    0  501  0.00000000000E+00 -0.00000000000E+00 -0.12130863434E+03  0.12130863434E+03  0.00000000000E+00 0.  1.
         25    1    1    2    0    0  0.53679996625E+02 -0.37363795805E+02  0.56097879680E+03  0.57844602664E+03  0.12500000000E+03 0.  0.
         -2    1    1    2    0  501 -0.10332955925E+03  0.27258012930E+02 -0.86129678554E+02  0.13725275448E+03  0.00000000000E+00 0.  1.
         -1    1    1    2    0  502  0.49649562628E+02  0.10105782875E+02  0.72529787828E+03  0.72706548409E+03  0.00000000000E+00 0.  1.
<mgrwt>
<rscale>  0 0.72910527E+02</rscale>
<asrwt>0</asrwt>
<pdfrwt beam="2">  1       -2 0.18662868E-01 0.10491803E+03</pdfrwt>
<pdfrwt beam="1">  1       -1 0.20330086E+00 0.50667602E+02</pdfrwt>
<totfact> 0.31311682E+01</totfact>
</mgrwt>
</event>
<event>
 5    1  0.4149151E-003  0.3752562E+02  0.7546771E-02  0.1549865E+00
          2   -1    0    0  502    0  0.00000000000E+00  0.00000000000E+00  0.14167012985E+04  0.14167012985E+04  0.00000000000E+00 0. -1.
         -1   -1    0    0    0  501 -0.00000000000E+00 -0.00000000000E+00 -0.22252928174E+02  0.22252928174E+02  0.00000000000E+00 0.  1.
         25    1    1    2    0    0 -0.62522977800E+01 -0.35638482781E+02  0.98439340798E+03  0.99295748869E+03  0.12500000000E+03 0.  0.
          2    1    1    2  502    0  0.34811677748E+02  0.20379871469E+02  0.41160764123E+03  0.41357954784E+03  0.00000000000E+00 0. -1.
         -1    1    1    2    0  501 -0.28559379968E+02  0.15258611312E+02 -0.15526789085E+01  0.32417190118E+02  0.00000000000E+00 0.  1.
<mgrwt>
<rscale>  0 0.34857983E+02</rscale>
<asrwt>0</asrwt>
<pdfrwt beam="1">  1        2 0.21795398E+00 0.37525620E+02</pdfrwt>
<pdfrwt beam="2">  1       -1 0.34235285E-02 0.32379985E+02</pdfrwt>
<totfact> 0.48829626E+03</totfact>
</mgrwt>
</event>
<event>
 5    1  0.4149151E-003  0.8886892E+02  0.7546771E-02  0.1424074E+00
         -1   -1    0    0    0  501 -0.00000000000E+00  0.00000000000E+00  0.26837869787E+03  0.26837869787E+03  0.00000000000E+00 0.  1.
          1   -1    0    0  502    0  0.00000000000E+00 -0.00000000000E+00 -0.89033062785E+03  0.89033062785E+03  0.00000000000E+00 0. -1.
         25    1    1    2    0    0  0.55431692420E+02  0.11865556849E+02 -0.47507188287E+03  0.49450152463E+03  0.12500000000E+03 0.  0.
          1    1    1    2  502    0  0.32995921786E+02  0.11801703566E+01 -0.39711630114E+03  0.39848648696E+03  0.00000000000E+00 0. -1.
         -1    1    1    2    0  501 -0.88427614205E+02 -0.13045727206E+02  0.25023625404E+03  0.26572131414E+03  0.00000000000E+00 0.  1.
<mgrwt>
<rscale>  0 0.54168137E+02</rscale>
<asrwt>0</asrwt>
<pdfrwt beam="2">  1        1 0.13697394E+00 0.33017021E+02</pdfrwt>
<pdfrwt beam="1">  1       -1 0.41289031E-01 0.88868923E+02</pdfrwt>
<totfact> 0.12926243E+02</totfact>
</mgrwt>
</event>
<event>
 5    1  0.4149151E-003  0.1075806E+03  0.7546771E-02  0.1461594E+00
          2   -1    0    0  502    0  0.00000000000E+00  0.00000000000E+00  0.75738173132E+03  0.75738173132E+03  0.00000000000E+00 0. -1.
         -3   -1    0    0    0  501 -0.00000000000E+00 -0.00000000000E+00 -0.41767982489E+03  0.41767982489E+03  0.00000000000E+00 0.  1.
         25    1    1    2    0    0 -0.85300466875E+02  0.55861987294E+02 -0.12000277367E+03  0.20105321923E+03  0.12500000000E+03 0.  0.
          2    1    1    2  502    0 -0.15707315202E+02 -0.13371586925E+02  0.70502475719E+03  0.70532646862E+03  0.00000000000E+00 0. -1.
         -3    1    1    2    0  501  0.10100778208E+03 -0.42490400369E+02 -0.24532007709E+03  0.26868186837E+03  0.00000000000E+00 0.  1.
<mgrwt>
<rscale>  0 0.47108224E+02</rscale>
<asrwt>0</asrwt>
<pdfrwt beam="1">  1        2 0.11652027E+00 0.20628114E+02</pdfrwt>
<pdfrwt beam="2">  1       -3 0.64258435E-01 0.10758060E+03</pdfrwt>
<totfact> 0.60029056E+01</totfact>
</mgrwt>
</event>
<event>
 5    1  0.4149151E-003  0.7460155E+02  0.7546771E-02  0.1427734E+00
          1   -1    0    0  502    0  0.00000000000E+00  0.00000000000E+00  0.45852721376E+03  0.45852721376E+03  0.00000000000E+00 0. -1.
         -1   -1    0    0    0  501 -0.00000000000E+00 -0.00000000000E+00 -0.12144640024E+04  0.12144640024E+04  0.00000000000E+00 0.  1.
         25    1    1    2    0    0 -0.49477435825E+02 -0.22425012118E+02 -0.45365099780E+03  0.47368251564E+03  0.12500000000E+03 0.  0.
          1    1    1    2  502    0  0.44219382922E+02  0.60310999479E+02  0.44490146375E+03  0.45114308476E+03  0.00000000000E+00 0. -1.
         -1    1    1    2    0  501  0.52580529031E+01 -0.37885987361E+02 -0.74718725459E+03  0.74816561574E+03  0.00000000000E+00 0.  1.
<mgrwt>
<rscale>  0 0.53417635E+02</rscale>
<asrwt>0</asrwt>
<pdfrwt beam="1">  1        1 0.70542648E-01 0.74601554E+02</pdfrwt>
<pdfrwt beam="2">  1       -1 0.18684062E+00 0.38249120E+02</pdfrwt>
<totfact> 0.12683422E+01</totfact>
</mgrwt>
</event>
<event>
 5    1  0.4149151E-003  0.6312197E+02  0.7546771E-02  0.1425450E+00
          1   -1    0    0  502    0 -0.00000000000E+00  0.00000000000E+00  0.11484582471E+04  0.11484582471E+04  0.00000000000E+00 0. -1.
          2   -1    0    0  501    0  0.00000000000E+00 -0.00000000000E+00 -0.17817640776E+03  0.17817640776E+03  0.00000000000E+00 0. -1.
         25    1    1    2    0    0  0.74038571025E+02 -0.52895846250E+02  0.15078571809E+03  0.21596530585E+03  0.12500000000E+03 0.  0.
          2    1    1    2  501    0 -0.12054853475E+02  0.44390980874E+02 -0.14090982248E+03  0.14822771923E+03  0.00000000000E+00 0. -1.
          1    1    1    2  502    0 -0.61983717550E+02  0.85048653759E+01  0.96040594378E+03  0.96244162983E+03  0.00000000000E+00 0. -1.
<mgrwt>
<rscale>  0 0.53884388E+02</rscale>
<asrwt>0</asrwt>
<pdfrwt beam="2">  1        2 0.27411756E-01 0.45998681E+02</pdfrwt>
<pdfrwt beam="1">  1        1 0.17668588E+00 0.63121968E+02</pdfrwt>
<totfact> 0.35010490E+02</totfact>
</mgrwt>
</event>
<event>
 5    1  0.4149151E-003  0.6177535E+02  0.7546771E-02  0.1408651E+00
          3   -1    0    0  502    0 -0.00000000000E+00  0.00000000000E+00  0.30753962352E+03  0.30753962352E+03  0.00000000000E+00 0. -1.
          2   -1    0    0  501    0  0.00000000000E+00 -0.00000000000E+00 -0.36442595457E+03  0.36442595457E+03  0.00000000000E+00 0. -1.
         25    1    1    2    0    0 -0.30113390029E+02 -0.10230397451E+03 -0.16993363618E+03  0.23637969491E+03  0.12500000000E+03 0.  0.
          2    1    1    2  501    0  0.45535493909E+01  0.55289636166E+02 -0.15376156042E+03  0.16346343978E+03  0.00000000000E+00 0. -1.
          3    1    1    2  502    0  0.25559840638E+02  0.47014338345E+02  0.26680886556E+03  0.27212244341E+03  0.00000000000E+00 0. -1.
<mgrwt>
<rscale>  0 0.57496010E+02</rscale>
<asrwt>0</asrwt>
<pdfrwt beam="2">  1        2 0.56065531E-01 0.61775346E+02</pdfrwt>
<pdfrwt beam="1">  1        3 0.47313789E-01 0.53513115E+02</pdfrwt>
<totfact> 0.22682820E+02</totfact>
</mgrwt>
</event>
<event>
 5    1  0.4149151E-003  0.5878756E+02  0.7546771E-02  0.1532715E+00
         -1   -1    0    0    0  501 -0.00000000000E+00  0.00000000000E+00  0.13340157280E+02  0.13340157280E+02  0.00000000000E+00 0.  1.
          2   -1    0    0  502    0  0.00000000000E+00 -0.00000000000E+00 -0.10232866222E+04  0.10232866222E+04  0.00000000000E+00 0. -1.
         25    1    1    2    0    0 -0.22387934116E+02 -0.32621957179E+02 -0.75917679530E+03  0.77041535434E+03  0.12500000000E+03 0.  0.
          2    1    1    2  502    0 -0.14960807179E+02 -0.17608059655E+02 -0.10600609479E+03  0.10849498444E+03  0.00000000000E+00 0. -1.
         -1    1    1    2    0  501  0.37348741295E+02  0.50230016835E+02 -0.14476357480E+03  0.15771644066E+03  0.00000000000E+00 0.  1.
<mgrwt>
<rscale>  0 0.36855430E+02</rscale>
<asrwt>0</asrwt>
<pdfrwt beam="2">  1        2 0.15742879E+00 0.23105617E+02</pdfrwt>
<pdfrwt beam="1">  1       -1 0.20523308E-02 0.58787555E+02</pdfrwt>
<totfact> 0.17959676E+04</totfact>
</mgrwt>
</event>
<event>
 5    1  0.4149151E-003  0.6802010E+02  0.7546771E-02  0.1414411E+00
         -1   -1    0    0    0  501 -0.00000000000E+00  0.00000000000E+00  0.42794569838E+02  0.42794569838E+02  0.00000000000E+00 0.  1.
          1   -1    0    0  502    0  0.00000000000E+00 -0.00000000000E+00 -0.83618823162E+03  0.83618823162E+03  0.00000000000E+00 0. -1.
         25    1    1    2    0    0  0.18823410251E+02 -0.64873934016E+02 -0.16883863461E+03  0.22066815045E+03  0.12500000000E+03 0.  0.
          1    1    1    2  502    0  0.40537094542E+02  0.22717840980E+02 -0.55718778910E+03  0.55912215898E+03  0.00000000000E+00 0. -1.
         -1    1    1    2    0  501 -0.59360504794E+02  0.42156093036E+02 -0.67367238073E+02  0.99192492030E+02  0.00000000000E+00 0.  1.
<mgrwt>
<rscale>  0 0.56221147E+02</rscale>
<asrwt>0</asrwt>
<pdfrwt beam="2">  1        1 0.12864432E+00 0.46468875E+02</pdfrwt>
<pdfrwt beam="1">  1       -1 0.65837814E-02 0.68020097E+02</pdfrwt>
<totfact> 0.24546884E+03</totfact>
</mgrwt>
</event>
<event>
 5    1  0.4149151E-003  0.7731879E+02  0.7546771E-02  0.1426445E+00
          1   -1    0    0  502    0 -0.00000000000E+00  0.00000000000E+00  0.13816443430E+03  0.13816443430E+03  0.00000000000E+00 0. -1.
          2   -1    0    0  501    0  0.00000000000E+00 -0.00000000000E+00 -0.18636631856E+04  0.18636631856E+04  0.00000000000E+00 0. -1.
         25    1    1    2    0    0 -0.44923297931E+02 -0.73836990495E+02 -0.28104732711E+03  0.31950368377E+03  0.12500000000E+03 0.  0.
          2    1    1    2  501    0  0.37144077279E+02 -0.30462547824E+01 -0.15505881003E+04  0.15510359180E+04  0.00000000000E+00 0. -1.
          1    1    1    2  502    0  0.77792206525E+01  0.76883245278E+02  0.10613667614E+03  0.13128801811E+03  0.00000000000E+00 0. -1.
<mgrwt>
<rscale>  0 0.53680324E+02</rscale>
<asrwt>0</asrwt>
<pdfrwt beam="2">  1        2 0.28671741E+00 0.37268782E+02</pdfrwt>
<pdfrwt beam="1">  1        1 0.21256067E-01 0.77318789E+02</pdfrwt>
<totfact> 0.33257504E+02</totfact>
</mgrwt>
</event>
<event>
 5    1  0.4149151E-003  0.1130996E+03  0.7546771E-02  0.1394704E+00
          2   -1    0    0  502    0  0.00000000000E+00  0.00000000000E+00  0.50202007952E+03  0.50202007952E+03  0.00000000000E+00 0. -1.
          2   -1    0    0  501    0 -0.00000000000E+00 -0.00000000000E+00 -0.15117118596E+03  0.15117118596E+03  0.00000000000E+00 0. -1.
         25    1    1    2    0    0  0.34707597387E+02 -0.11969842667E+03  0.31662372099E+03  0.36250229152E+03  0.12500000000E+03 0.  0.
          2    1    1    2  501    0 -0.28805921127E+01  0.11249045415E+03 -0.10122887974E+03  0.15135946016E+03  0.00000000000E+00 0. -1.
          2    1    1    2  502    0 -0.31827005274E+02  0.72079725131E+01  0.13545405230E+03  0.13932951380E+03  0.00000000000E+00 0. -1.
<mgrwt>
<rscale>  0 0.60751782E+02</rscale>
<asrwt>0</asrwt>
<pdfrwt beam="1">  1        2 0.77233858E-01 0.32633007E+02</pdfrwt>
<pdfrwt beam="2">  1        2 0.23257106E-01 0.11309957E+03</pdfrwt>
<totfact> 0.22424950E+03</totfact>
</mgrwt>
</event>
<event>
 5    1  0.4149151E-003  0.8039450E+02  0.7546771E-02  0.1435962E+00
         -1   -1    0    0    0  501 -0.00000000000E+00  0.00000000000E+00  0.22171464265E+03  0.22171464265E+03  0.00000000000E+00 0.  1.
          1   -1    0    0  502    0  0.00000000000E+00 -0.00000000000E+00 -0.91151080034E+02  0.91151080034E+02  0.00000000000E+00 0. -1.
         25    1    1    2    0    0 -0.10435266589E+02  0.91539336377E+02  0.69931792053E+02  0.17030502175E+03  0.12500000000E+03 0.  0.
          1    1    1    2  502    0 -0.18787620365E+02 -0.75464415020E+02  0.52924130461E+01  0.77947817475E+02  0.00000000000E+00 0. -1.
         -1    1    1    2    0  501  0.29222886955E+02 -0.16074921357E+02  0.55339357518E+02  0.64612883461E+02  0.00000000000E+00 0.  1.
<mgrwt>
<rscale>  0 0.51781721E+02</rscale>
<asrwt>0</asrwt>
<pdfrwt beam="2">  1        1 0.14023243E-01 0.80394499E+02</pdfrwt>
<pdfrwt beam="1">  1       -1 0.34109945E-01 0.33352365E+02</pdfrwt>
<totfact> 0.30615158E+03</totfact>
</mgrwt>
</event>
<event>
 5    1  0.4149151E-003  0.4849867E+02  0.7546771E-02  0.1496293E+00
          3   -1    0    0  502    0 -0.00000000000E+00  0.00000000000E+00  0.50676900454E+03  0.50676900454E+03  0.00000000000E+00 0. -1.
          1   -1    0    0  501    0  0.00000000000E+00 -0.00000000000E+00 -0.10387102032E+03  0.10387102032E+03  0.00000000000E+00 0. -1.
         25    1    1    2    0    0  0.44922519238E+01 -0.15016638377E+02  0.16911659192E+03  0.21088172376E+03  0.12500000000E+03 0.  0.
          1    1    1    2  501    0  0.45951287811E+01  0.49641041135E+02 -0.74370641275E+02  0.89534018435E+02  0.00000000000E+00 0. -1.
          3    1    1    2  502    0 -0.90873807049E+01 -0.34624402758E+02  0.30815203358E+03  0.31022428266E+03  0.00000000000E+00 0. -1.
<mgrwt>
<rscale>  0 0.41666655E+02</rscale>
<asrwt>0</asrwt>
<pdfrwt beam="2">  1        1 0.15980157E-01 0.48498674E+02</pdfrwt>
<pdfrwt beam="1">  1        3 0.77964461E-01 0.35797063E+02</pdfrwt>
<totfact> 0.25423103E+02</totfact>
</mgrwt>
</event>
<event>
 5    1  0.4149151E-003  0.6693063E+02  0.7546771E-02  0.1433975E+00
          2   -1    0    0  502    0  0.00000000000E+00  0.00000000000E+00  0.20873679169E+04  0.20873679169E+04  0.00000000000E+00 0.  1.
          2   -1    0    0  501    0 -0.00000000000E+00 -0.00000000000E+00 -0.13595733676E+03  0.13595733676E+03  0.00000000000E+00 0. -1.
         25    1    1    2    0    0  0.64592944797E+02  0.84363191909E+02  0.11196938003E+04  0.11316486217E+04  0.12500000000E+03 0.  0.
          2    1    1    2  501    0 -0.46032323477E+02 -0.48180802650E+02 -0.12097710324E+03  0.13811525642E+03  0.00000000000E+00 0. -1.
          2    1    1    2  502    0 -0.18560621319E+02 -0.36182389259E+02  0.95269388312E+03  0.95356137553E+03  0.00000000000E+00 0.  1.
<mgrwt>
<rscale>  0 0.52170397E+02</rscale>
<asrwt>0</asrwt>
<pdfrwt beam="1">  1        2 0.32113350E+00 0.40665243E+02</pdfrwt>
<pdfrwt beam="2">  1        2 0.20916515E-01 0.66930632E+02</pdfrwt>
<totfact> 0.32349862E+02</totfact>
</mgrwt>
</event>
<event>
 5    1  0.4149151E-003  0.1469704E+03  0.7546771E-02  0.1247246E+00
          2   -1    0    0  502    0  0.00000000000E+00  0.00000000000E+00  0.25340184672E+03  0.25340184672E+03  0.00000000000E+00 0. -1.
         -2   -1    0    0    0  501 -0.00000000000E+00 -0.00000000000E+00 -0.46076881314E+03  0.46076881314E+03  0.00000000000E+00 0.  1.
         25    1    1    2    0    0 -0.17528942512E+03 -0.93510853938E+02 -0.10542954168E+03  0.25731508044E+03  0.12500000000E+03 0.  0.
          2    1    1    2  502    0  0.83533674005E+02  0.11379141147E+03  0.13908081136E+03  0.19816617296E+03  0.00000000000E+00 0. -1.
         -2    1    1    2    0  501  0.91755751114E+02 -0.20280557528E+02 -0.24101823611E+03  0.25868940646E+03  0.00000000000E+00 0.  1.
<mgrwt>
<rscale>  0 0.11751958E+03</rscale>
<asrwt>0</asrwt>
<pdfrwt beam="1">  1        2 0.38984900E-01 0.14697038E+03</pdfrwt>
<pdfrwt beam="2">  1       -2 0.70887509E-01 0.93970308E+02</pdfrwt>
<totfact> 0.24821122E+02</totfact>
</mgrwt>
</event>
<event>
 5    1  0.4149151E-003  0.1573507E+03  0.7546771E-02  0.1309525E+00
          1   -1    0    0  502    0  0.00000000000E+00  0.00000000000E+00  0.15325449757E+03  0.15325449757E+03  0.00000000000E+00 0. -1.
         -1   -1    0    0    0  501 -0.00000000000E+00 -0.00000000000E+00 -0.18681498862E+04  0.18681498862E+04  0.00000000000E+00 0.  1.
         25    1    1    2    0    0  0.15957638325E+03  0.13456525460E+01 -0.14992544672E+03  0.25212907894E+03  0.12500000000E+03 0.  0.
          1    1    1    2  502    0 -0.15065400927E+03 -0.48951833748E+02  0.40156672801E+02  0.16341808623E+03  0.00000000000E+00 0. -1.
         -1    1    1    2    0  501 -0.89223739803E+01  0.47606181202E+02 -0.16051266147E+04  0.16058572186E+04  0.00000000000E+00 0.  1.
<mgrwt>
<rscale>  0 0.87300036E+02</rscale>
<asrwt>0</asrwt>
<pdfrwt beam="1">  1        1 0.23577614E-01 0.15735074E+03</pdfrwt>
<pdfrwt beam="2">  1       -1 0.28740768E+00 0.48435083E+02</pdfrwt>
<totfact> 0.11694350E+01</totfact>
</mgrwt>
</event>
<event>
 5    1  0.4149151E-003  0.4843424E+02  0.7546771E-02  0.1510226E+00
          1   -1    0    0  502    0 -0.00000000000E+00  0.00000000000E+00  0.27732462514E+04  0.27732462514E+04  0.00000000000E+00 0. -1.
          2   -1    0    0  501    0  0.00000000000E+00 -0.00000000000E+00 -0.28230921711E+02  0.28230921711E+02  0.00000000000E+00 0. -1.
         25    1    1    2    0    0 -0.45087491436E+02 -0.41648111639E+02  0.47756281599E+03  0.49745219901E+03  0.12500000000E+03 0.  0.
          2    1    1    2  501    0  0.32209945849E+02 -0.49356965411E+01 -0.33050829475E+01  0.32753095812E+02  0.00000000000E+00 0. -1.
          1    1    1    2  502    0  0.12877545586E+02  0.46583808180E+02  0.22707575966E+04  0.22712718783E+04  0.00000000000E+00 0. -1.
<mgrwt>
<rscale>  0 0.39727497E+02</rscale>
<asrwt>0</asrwt>
<pdfrwt beam="2">  1        2 0.43432209E-02 0.32585913E+02</pdfrwt>
<pdfrwt beam="1">  1        1 0.42665305E+00 0.48434244E+02</pdfrwt>
<totfact> 0.28518154E+02</totfact>
</mgrwt>
</event>
<event>
 5    1  0.4149151E-003  0.2934049E+03  0.7546771E-02  0.1159280E+00
          2   -1    0    0  501    0  0.00000000000E+00  0.00000000000E+00  0.22202090534E+04  0.22202090534E+04  0.00000000000E+00 0. -1.
          1   -1    0    0  502    0 -0.00000000000E+00 -0.00000000000E+00 -0.10380023421E+04  0.10380023421E+04  0.00000000000E+00 0. -1.
         25    1    1    2    0    0  0.31365181891E+02  0.18881121748E+03 -0.36757782539E+03  0.43286476896E+03  0.12500000000E+03 0.  0.
          2    1    1    2  501    0  0.28947993127E+02 -0.29470984571E+03  0.21716017604E+04  0.21916993601E+04  0.00000000000E+00 0. -1.
          1    1    1    2  502    0 -0.60313175018E+02  0.10589862823E+03 -0.62181722374E+03  0.63364726645E+03  0.00000000000E+00 0. -1.
<mgrwt>
<rscale>  0 0.18909557E+03</rscale>
<asrwt>0</asrwt>
<pdfrwt beam="1">  1        2 0.34157062E+00 0.29340489E+03</pdfrwt>
<pdfrwt beam="2">  1        1 0.15969267E+00 0.12186960E+03</pdfrwt>
<totfact> 0.12255238E+01</totfact>
</mgrwt>
</event>
<event>
 5    1  0.4149151E-003  0.1813706E+03  0.7546771E-02  0.1272974E+00
          1   -1    0    0  501    0  0.00000000000E+00  0.00000000000E+00  0.17627911993E+04  0.17627911993E+04  0.00000000000E+00 0. -1.
          1   -1    0    0  502    0 -0.00000000000E+00 -0.00000000000E+00 -0.10368982791E+04  0.10368982791E+04  0.00000000000E+00 0. -1.
         25    1    1    2    0    0  0.15977219075E+03 -0.15779993154E+03  0.49028987963E+03  0.55356764483E+03  0.12500000000E+03 0.  0.
          1    1    1    2  501    0 -0.58592245541E+02  0.80053752260E+01  0.12320212654E+04  0.12334397170E+04  0.00000000000E+00 0. -1.
          1    1    1    2  502    0 -0.10117994521E+03  0.14979455631E+03 -0.99641822479E+03  0.10126821165E+04  0.00000000000E+00 0. -1.
<mgrwt>
<rscale>  0 0.10356468E+03</rscale>
<asrwt>0</asrwt>
<pdfrwt beam="1">  1        1 0.27119865E+00 0.59136598E+02</pdfrwt>
<pdfrwt beam="2">  1        1 0.15952281E+00 0.18137064E+03</pdfrwt>
<totfact> 0.10587813E+01</totfact>
</mgrwt>
</event>
<event>
 5    1  0.4149151E-003  0.7177061E+02  0.7546771E-02  0.1505921E+00
          1   -1    0    0  502    0  0.00000000000E+00  0.00000000000E+00  0.26530737936E+03  0.26530737936E+03  0.00000000000E+00 0. -1.
         -1   -1    0    0    0  501 -0.00000000000E+00 -0.00000000000E+00 -0.67727042499E+02  0.67727042499E+02  0.00000000000E+00 0.  1.
         25    1    1    2    0    0 -0.44858095501E+02  0.60685266098E+02  0.14163123390E+03  0.20341916495E+03  0.12500000000E+03 0.  0.
          1    1    1    2  502    0  0.57484682751E+02 -0.41889124083E+02  0.72502218844E+02  0.10156652601E+03  0.00000000000E+00 0. -1.
         -1    1    1    2    0  501 -0.12626587250E+02 -0.18796142015E+02 -0.16553115879E+02  0.28048730908E+02  0.00000000000E+00 0.  1.
<mgrwt>
<rscale>  0 0.40312951E+02</rscale>
<asrwt>0</asrwt>
<pdfrwt beam="1">  1        1 0.40816519E-01 0.71770612E+02</pdfrwt>
<pdfrwt beam="2">  1       -1 0.10419545E-01 0.22643446E+02</pdfrwt>
<totfact> 0.48562184E+03</totfact>
</mgrwt>
</event>
<event>
 5    1  0.7972192E-003  0.8056205E+02  0.7546771E-02  0.1351133E+00
          2   -1    0    0  502    0  0.00000000000E+00  0.00000000000E+00  0.52085260391E+03  0.52085260391E+03  0.00000000000E+00 0. -1.
         -1   -1    0    0    0  501 -0.00000000000E+00 -0.00000000000E+00 -0.47101457201E+02  0.47101457201E+02  0.00000000000E+00 0.  1.
         25    1    1    2    0    0  0.55289109384E+02 -0.10323449673E+03  0.26236530596E+03  0.31332858264E+03  0.12500000000E+03 0.  0.
          2    1    1    2  502    0  0.22612031569E+01  0.71723906513E+02  0.14216962018E+03  0.15925336011E+03  0.00000000000E+00 0. -1.
         -1    1    1    2    0  501 -0.57550312541E+02  0.31510590215E+02  0.69216220570E+02  0.95372118354E+02  0.00000000000E+00 0.  1.
<mgrwt>
<rscale>  0 0.72703855E+02</rscale>
<asrwt>0</asrwt>
<pdfrwt beam="1">  1        2 0.80131166E-01 0.80562055E+02</pdfrwt>
<pdfrwt beam="2">  1       -1 0.72463784E-02 0.65612162E+02</pdfrwt>
<totfact> 0.61967069E+03</totfact>
</mgrwt>
</event>
<event>
 5    1  0.4149151E-003  0.7908422E+02  0.7546771E-02  0.1433728E+00
          1   -1    0    0  502    0 -0.00000000000E+00  0.00000000000E+00  0.12401872175E+04  0.12401872175E+04  0.00000000000E+00 0. -1.
          2   -1    0    0  501    0  0.00000000000E+00 -0.00000000000E+00 -0.13918021313E+03  0.13918021313E+03  0.00000000000E+00 0. -1.
         25    1    1    2    0    0  0.19749070059E+02 -0.95302027801E+02  0.25223037664E+03  0.29785510768E+03  0.12500000000E+03 0.  0.
          2    1    1    2  501    0  0.20056672239E+02  0.28046362741E+02 -0.11219207422E+03  0.11737090815E+03  0.00000000000E+00 0. -1.
          1    1    1    2  502    0 -0.39805742298E+02  0.67255665060E+02  0.96096870190E+03  0.96414141475E+03  0.00000000000E+00 0. -1.
<mgrwt>
<rscale>  0 0.52218980E+02</rscale>
<asrwt>0</asrwt>
<pdfrwt beam="2">  1        2 0.21412341E-01 0.34479973E+02</pdfrwt>
<pdfrwt beam="1">  1        1 0.19079803E+00 0.79084223E+02</pdfrwt>
<totfact> 0.38357434E+02</totfact>
</mgrwt>
</event>
<event>
 5    1  0.4149151E-003  0.5394173E+02  0.7546771E-02  0.1428196E+00
          1   -1    0    0  502    0 -0.00000000000E+00  0.00000000000E+00  0.12071401955E+04  0.12071401955E+04  0.00000000000E+00 0. -1.
          2   -1    0    0  501    0  0.00000000000E+00 -0.00000000000E+00 -0.56909895626E+03  0.56909895626E+03  0.00000000000E+00 0. -1.
         25    1    1    2    0    0  0.49120658903E+02  0.12168571262E+00  0.64979450455E+02  0.14919846822E+03  0.12500000000E+03 0.  0.
          2    1    1    2  501    0 -0.26443982046E+02  0.47464126527E+02 -0.52495501116E+03  0.52775931185E+03  0.00000000000E+00 0. -1.
          1    1    1    2  502    0 -0.22676676857E+02 -0.47585812240E+02  0.10980168000E+04  0.10992813717E+04  0.00000000000E+00 0. -1.
<mgrwt>
<rscale>  0 0.53323735E+02</rscale>
<asrwt>0</asrwt>
<pdfrwt beam="2">  1        2 0.87553686E-01 0.53941733E+02</pdfrwt>
<pdfrwt beam="1">  1        1 0.18571388E+00 0.52712818E+02</pdfrwt>
<totfact> 0.97717297E+01</totfact>
</mgrwt>
</event>
<event>
 5    1  0.4149151E-003  0.6011486E+02  0.7546771E-02  0.1434329E+00
          2   -1    0    0  501    0  0.00000000000E+00  0.00000000000E+00  0.14355777294E+04  0.14355777294E+04  0.00000000000E+00 0. -1.
          1   -1    0    0  502    0 -0.00000000000E+00 -0.00000000000E+00 -0.13492491333E+03  0.13492491333E+03  0.00000000000E+00 0. -1.
         25    1    1    2    0    0 -0.13991470069E+02  0.28448953699E+02  0.65793688849E+02  0.14477193683E+03  0.12500000000E+03 0.  0.
          2    1    1    2  501    0  0.30726827449E+02  0.33088205258E+02  0.13192118520E+04  0.13199844233E+04  0.00000000000E+00 0. -1.
          1    1    1    2  502    0 -0.16735357379E+02 -0.61537158957E+02 -0.84352724759E+02  0.10574628265E+03  0.00000000000E+00 0. -1.
<mgrwt>
<rscale>  0 0.52100690E+02</rscale>
<asrwt>0</asrwt>
<pdfrwt beam="1">  1        2 0.22085810E+00 0.45154925E+02</pdfrwt>
<pdfrwt beam="2">  1        1 0.20757680E-01 0.60114859E+02</pdfrwt>
<totfact> 0.53678689E+02</totfact>
</mgrwt>
</event>
<event>
 5    1  0.4149151E-003  0.2927107E+02  0.7546771E-02  0.1621880E+00
         -1   -1    0    0    0  501 -0.00000000000E+00  0.00000000000E+00  0.12950165663E+03  0.12950165663E+03  0.00000000000E+00 0.  1.
          1   -1    0    0  502    0  0.00000000000E+00 -0.00000000000E+00 -0.71752413963E+03  0.71752413963E+03  0.00000000000E+00 0. -1.
         25    1    1    2    0    0 -0.72742745697E+01  0.49628713159E+02 -0.28202889638E+03  0.31253995366E+03  0.12500000000E+03 0.  0.
          1    1    1    2  502    0 -0.78568502133E+01 -0.27636241565E+02 -0.41818064053E+03  0.41916648251E+03  0.00000000000E+00 0. -1.
         -1    1    1    2    0  501  0.15131124783E+02 -0.21992471594E+02  0.11218705392E+03  0.11531936009E+03  0.00000000000E+00 0.  1.
<mgrwt>
<rscale>  0 0.27953341E+02</rscale>
<asrwt>0</asrwt>
<pdfrwt beam="2">  1        1 0.11038833E+00 0.29271065E+02</pdfrwt>
<pdfrwt beam="1">  1       -1 0.19923332E-01 0.26694939E+02</pdfrwt>
<totfact> 0.55619676E+02</totfact>
</mgrwt>
</event>
<event>
 5    1  0.4149151E-003  0.1517146E+03  0.7546771E-02  0.1347667E+00
          1   -1    0    0  502    0 -0.00000000000E+00  0.00000000000E+00  0.30688857201E+04  0.30688857201E+04  0.00000000000E+00 0. -1.
          2   -1    0    0  501    0  0.00000000000E+00 -0.00000000000E+00 -0.13036881961E+04  0.13036881961E+04  0.00000000000E+00 0. -1.
         25    1    1    2    0    0  0.21670578458E+01  0.13863103487E+03 -0.10096486770E+02  0.18694972322E+03  0.12500000000E+03 0.  0.
          2    1    1    2  501    0 -0.34484149703E+02  0.99369993804E+01 -0.12029582890E+04  0.12034934755E+04  0.00000000000E+00 0. -1.
          1    1    1    2  502    0  0.32317091858E+02 -0.14856803425E+03  0.29782522998E+04  0.29821307175E+04  0.00000000000E+00 0. -1.
<mgrwt>
<rscale>  0 0.73787748E+02</rscale>
<asrwt>0</asrwt>
<pdfrwt beam="2">  1        2 0.20056742E+00 0.35887331E+02</pdfrwt>
<pdfrwt beam="1">  1        1 0.47213626E+00 0.15171459E+03</pdfrwt>
<totfact> 0.19727249E+00</totfact>
</mgrwt>
</event>
<event>
 5    1  0.4149151E-003  0.2996532E+02  0.7546771E-02  0.1616362E+00
          1   -1    0    0  501    0  0.00000000000E+00  0.00000000000E+00  0.53395187502E+03  0.53395187502E+03  0.00000000000E+00 0. -1.
          1   -1    0    0  502    0 -0.00000000000E+00 -0.00000000000E+00 -0.30002672435E+03  0.30002672435E+03  0.00000000000E+00 0. -1.
         25    1    1    2    0    0  0.10512461588E+02 -0.47688378367E+02  0.24631275588E+01  0.13422280088E+03  0.12500000000E+03 0.  0.
          1    1    1    2  501    0  0.85216326964E+01  0.28630724283E+02  0.46435278543E+03  0.46531263247E+03  0.00000000000E+00 0. -1.
          1    1    1    2  502    0 -0.19034094285E+02  0.19057654084E+02 -0.23289076232E+03  0.23444316603E+03  0.00000000000E+00 0. -1.
<mgrwt>
<rscale>  0 0.28409755E+02</rscale>
<asrwt>0</asrwt>
<pdfrwt beam="1">  1        1 0.82146442E-01 0.29965324E+02</pdfrwt>
<pdfrwt beam="2">  1        1 0.46157958E-01 0.26934939E+02</pdfrwt>
<totfact> 0.45758465E+02</totfact>
</mgrwt>
</event>
<event>
 5    1  0.4149151E-003  0.4739596E+02  0.7546771E-02  0.1534115E+00
          2   -1    0    0  502    0  0.00000000000E+00  0.00000000000E+00  0.13908857212E+03  0.13908857212E+03  0.00000000000E+00 0. -1.
         -1   -1    0    0    0  501 -0.00000000000E+00 -0.00000000000E+00 -0.83678434952E+02  0.83678434952E+02  0.00000000000E+00 0.  1.
         25    1    1    2    0    0 -0.56351411905E+00 -0.31175971676E+02  0.22292338214E+02  0.13074481673E+03  0.12500000000E+03 0.  0.
          2    1    1    2  502    0  0.19051020479E+02 -0.21057903576E+02  0.20961363093E+02  0.35295260687E+02  0.00000000000E+00 0. -1.
         -1    1    1    2    0  501 -0.18487506360E+02  0.52233875251E+02  0.12156435859E+02  0.56726929654E+02  0.00000000000E+00 0.  1.
<mgrwt>
<rscale>  0 0.36686405E+02</rscale>
<asrwt>0</asrwt>
<pdfrwt beam="1">  1        2 0.21398242E-01 0.28396772E+02</pdfrwt>
<pdfrwt beam="2">  1       -1 0.12873605E-01 0.47395962E+02</pdfrwt>
<totfact> 0.99449996E+03</totfact>
</mgrwt>
</event>
<event>
 5    1  0.8610269E-003  0.1181565E+03  0.7546771E-02  0.1396734E+00
          2   -1    0    0  502    0  0.00000000000E+00  0.00000000000E+00  0.79380469200E+03  0.79380469200E+03  0.00000000000E+00 0. -1.
         -1   -1    0    0    0  501 -0.00000000000E+00 -0.00000000000E+00 -0.45862547642E+02  0.45862547642E+02  0.00000000000E+00 0.  1.
         25    1    1    2    0    0 -0.47287545042E+02 -0.12337374394E+03  0.20025265322E+03  0.27052415370E+03  0.12500000000E+03 0.  0.
          2    1    1    2  502    0  0.17637620623E+02  0.25170586048E+02  0.29245514174E+03  0.29406573074E+03  0.00000000000E+00 0. -1.
         -1    1    1    2    0  501  0.29649924419E+02  0.98203157891E+02  0.25523434939E+03  0.27507735520E+03  0.00000000000E+00 0.  1.
<mgrwt>
<rscale>  0 0.60262311E+02</rscale>
<asrwt>0</asrwt>
<pdfrwt beam="1">  1        2 0.12212379E+00 0.30735062E+02</pdfrwt>
<pdfrwt beam="2">  1       -1 0.70557771E-02 0.11815646E+03</pdfrwt>
<totfact> 0.43437749E+03</totfact>
</mgrwt>
</event>
<event>
 5    1  0.4149151E-003  0.6522621E+02  0.7546771E-02  0.1496417E+00
         -1   -1    0    0    0  501 -0.00000000000E+00  0.00000000000E+00  0.13616542583E+02  0.13616542583E+02  0.00000000000E+00 0.  1.
          2   -1    0    0  502    0  0.00000000000E+00 -0.00000000000E+00 -0.18220126082E+04  0.18220126082E+04  0.00000000000E+00 0. -1.
         25    1    1    2    0    0 -0.36129845949E+02  0.37258767839E+02 -0.16066987200E+04  0.16123893322E+04  0.12500000000E+03 0.  0.
          2    1    1    2  502    0  0.10813974857E+02  0.24295997358E+02 -0.82988771818E+02  0.87145704356E+02  0.00000000000E+00 0. -1.
         -1    1    1    2    0  501  0.25315871092E+02 -0.61554765197E+02 -0.11870857372E+03  0.13609411421E+03  0.00000000000E+00 0.  1.
<mgrwt>
<rscale>  0 0.41648792E+02</rscale>
<asrwt>0</asrwt>
<pdfrwt beam="2">  1        2 0.28030943E+00 0.26593938E+02</pdfrwt>
<pdfrwt beam="1">  1       -1 0.20948542E-02 0.65226213E+02</pdfrwt>
<totfact> 0.71499860E+03</totfact>
</mgrwt>
</event>
<event>
 5    1  0.4149151E-003  0.6818147E+02  0.7546771E-02  0.1426767E+00
          1   -1    0    0  501    0  0.00000000000E+00  0.00000000000E+00  0.14885680540E+04  0.14885680540E+04  0.00000000000E+00 0. -1.
          3   -1    0    0  502    0 -0.00000000000E+00 -0.00000000000E+00 -0.10701484648E+04  0.10701484648E+04  0.00000000000E+00 0. -1.
         25    1    1    2    0    0 -0.67510164500E+02 -0.84024387697E+02  0.41362505827E+03  0.44534077836E+03  0.12500000000E+03 0.  0.
          1    1    1    2  501    0  0.40419602724E+02  0.51720258920E+02  0.10576457543E+04  0.10596807401E+04  0.00000000000E+00 0. -1.
          3    1    1    2  502    0  0.27090561777E+02  0.32304128777E+02 -0.10528512233E+04  0.10536950003E+04  0.00000000000E+00 0. -1.
<mgrwt>
<rscale>  0 0.53614574E+02</rscale>
<asrwt>0</asrwt>
<pdfrwt beam="1">  1        1 0.22901047E+00 0.68181472E+02</pdfrwt>
<pdfrwt beam="2">  1        3 0.16463822E+00 0.42159878E+02</pdfrwt>
<totfact> 0.12496686E+00</totfact>
</mgrwt>
</event>
<event>
 5    1  0.4149151E-003  0.2941427E+02  0.7546771E-02  0.1650411E+00
         -2   -1    0    0    0  501 -0.00000000000E+00  0.00000000000E+00  0.58106334222E+02  0.58106334222E+02  0.00000000000E+00 0.  1.
          2   -1    0    0  502    0  0.00000000000E+00 -0.00000000000E+00 -0.57073151140E+03  0.57073151140E+03  0.00000000000E+00 0. -1.
         25    1    1    2    0    0  0.38369452976E+02  0.13279693258E+02 -0.83548030231E+02  0.15573643931E+03  0.12500000000E+03 0.  0.
          2    1    1    2  502    0 -0.28504118321E+02  0.69956777999E+01 -0.44470151831E+03  0.44566900796E+03  0.00000000000E+00 0. -1.
         -2    1    1    2    0  501 -0.98653346551E+01 -0.20275371058E+02  0.15624371353E+02  0.27432398356E+02  0.00000000000E+00 0.  1.
<mgrwt>
<rscale>  0 0.25753351E+02</rscale>
<asrwt>0</asrwt>
<pdfrwt beam="2">  1        2 0.87804852E-01 0.29414271E+02</pdfrwt>
<pdfrwt beam="1">  1       -2 0.89394356E-02 0.22548071E+02</pdfrwt>
<totfact> 0.36302643E+03</totfact>
</mgrwt>
</event>
<event>
 5    1  0.4149151E-003  0.8153698E+02  0.7546771E-02  0.1479633E+00
          2   -1    0    0  502    0  0.00000000000E+00  0.00000000000E+00  0.31678665686E+03  0.31678665686E+03  0.00000000000E+00 0. -1.
         -1   -1    0    0    0  501 -0.00000000000E+00 -0.00000000000E+00 -0.10559886676E+04  0.10559886676E+04  0.00000000000E+00 0.  1.
         25    1    1    2    0    0 -0.75280188945E+02 -0.66234032180E+02 -0.36107436487E+01  0.16028752708E+03  0.12500000000E+03 0.  0.
          2    1    1    2  502    0  0.23645243617E+02  0.36188490502E+01  0.23615241974E+03  0.23736082019E+03  0.00000000000E+00 0. -1.
         -1    1    1    2    0  501  0.51634945327E+02  0.62615183130E+02 -0.97174368686E+03  0.97512697721E+03  0.00000000000E+00 0.  1.
<mgrwt>
<rscale>  0 0.44163456E+02</rscale>
<asrwt>0</asrwt>
<pdfrwt beam="1">  1        2 0.48736408E-01 0.23920569E+02</pdfrwt>
<pdfrwt beam="2">  1       -1 0.16245980E+00 0.81536976E+02</pdfrwt>
<totfact> 0.38712680E+01</totfact>
</mgrwt>
</event>
<event>
 5    1  0.4149151E-003  0.9056883E+02  0.7546771E-02  0.1356090E+00
         -1   -1    0    0    0  501 -0.00000000000E+00  0.00000000000E+00  0.54625278202E+02  0.54625278202E+02  0.00000000000E+00 0. -1.
          2   -1    0    0  502    0  0.00000000000E+00 -0.00000000000E+00 -0.10274312545E+04  0.10274312545E+04  0.00000000000E+00 0.  1.
         25    1    1    2    0    0 -0.47476282300E+02  0.21614848862E+02 -0.19190630496E+03  0.23489195166E+03  0.12500000000E+03 0.  0.
          2    1    1    2  502    0 -0.55582588238E+02  0.64775995932E+01 -0.72395591779E+03  0.72611538637E+03  0.00000000000E+00 0.  1.
         -1    1    1    2    0  501  0.10305887054E+03 -0.28092448455E+02 -0.56943753495E+02  0.12104919462E+03  0.00000000000E+00 0. -1.
<mgrwt>
<rscale>  0 0.71190727E+02</rscale>
<asrwt>0</asrwt>
<pdfrwt beam="2">  1        2 0.15806633E+00 0.55958765E+02</pdfrwt>
<pdfrwt beam="1">  1       -1 0.84038897E-02 0.90568826E+02</pdfrwt>
<totfact> 0.23180039E+03</totfact>
</mgrwt>
</event>
<event>
 5    1  0.4149151E-003  0.1895070E+03  0.7546771E-02  0.1223917E+00
          2   -1    0    0  501    0  0.00000000000E+00  0.00000000000E+00  0.22912279781E+03  0.22912279781E+03  0.00000000000E+00 0. -1.
          1   -1    0    0  502    0 -0.00000000000E+00 -0.00000000000E+00 -0.44893384634E+03  0.44893384634E+03  0.00000000000E+00 0. -1.
         25    1    1    2    0    0  0.10804867653E+03  0.11259897354E+03 -0.69266575664E+02  0.21160317542E+03  0.12500000000E+03 0.  0.
          2    1    1    2  501    0 -0.32930356441E+02  0.86463350810E+02  0.10101503309E+03  0.13698305121E+03  0.00000000000E+00 0. -1.
          1    1    1    2  502    0 -0.75118320094E+02 -0.19906232435E+03 -0.25155950596E+03  0.32947041753E+03  0.00000000000E+00 0. -1.
<mgrwt>
<rscale>  0 0.13241436E+03</rscale>
<asrwt>0</asrwt>
<pdfrwt beam="1">  1        2 0.35249661E-01 0.92521994E+02</pdfrwt>
<pdfrwt beam="2">  1        1 0.69066745E-01 0.18950698E+03</pdfrwt>
<totfact> 0.10306033E+03</totfact>
</mgrwt>
</event>
<event>
 5    1  0.4149151E-003  0.2084017E+03  0.7546771E-02  0.1261349E+00
          1   -1    0    0  502    0  0.00000000000E+00  0.00000000000E+00  0.86561860761E+03  0.86561860761E+03  0.00000000000E+00 0. -1.
         -1   -1    0    0    0  501 -0.00000000000E+00 -0.00000000000E+00 -0.81642729742E+02  0.81642729742E+02  0.00000000000E+00 0.  1.
         25    1    1    2    0    0 -0.49674289626E+02  0.16591205840E+03  0.23730653631E+03  0.31927063496E+03  0.12500000000E+03 0.  0.
          1    1    1    2  502    0  0.53232427776E+02 -0.22342102308E+03  0.51095362352E+03  0.56020018771E+03  0.00000000000E+00 0. -1.
         -1    1    1    2    0  501 -0.35581381495E+01  0.57508964683E+02  0.35715718037E+02  0.67790514682E+02  0.00000000000E+00 0.  1.
<mgrwt>
<rscale>  0 0.10958049E+03</rscale>
<asrwt>0</asrwt>
<pdfrwt beam="1">  1        1 0.13317209E+00 0.20840170E+03</pdfrwt>
<pdfrwt beam="2">  1       -1 0.12560421E-01 0.57618932E+02</pdfrwt>
<totfact> 0.81213056E+02</totfact>
</mgrwt>
</event>
<event>
 5    1  0.4149151E-003  0.7531374E+02  0.7546771E-02  0.1355101E+00
          3   -1    0    0  502    0  0.00000000000E+00  0.00000000000E+00  0.84180500900E+02  0.84180500900E+02  0.00000000000E+00 0. -1.
         -3   -1    0    0    0  501 -0.00000000000E+00 -0.00000000000E+00 -0.44109135093E+03  0.44109135093E+03  0.00000000000E+00 0.  1.
         25    1    1    2    0    0 -0.43181012187E+02  0.50339000023E+02 -0.18066071989E+03  0.22948183032E+03  0.12500000000E+03 0.  0.
          3    1    1    2  502    0 -0.31801429510E+02 -0.68270263837E+02  0.25736618898E+02  0.79589781980E+02  0.00000000000E+00 0. -1.
         -3    1    1    2    0  501  0.74982441698E+02  0.17931263815E+02 -0.20198674904E+03  0.21620023953E+03  0.00000000000E+00 0.  1.
<mgrwt>
<rscale>  0 0.71489308E+02</rscale>
<asrwt>0</asrwt>
<pdfrwt beam="1">  1        3 0.12950846E-01 0.75313743E+02</pdfrwt>
<pdfrwt beam="2">  1       -3 0.67860207E-01 0.67859078E+02</pdfrwt>
<totfact> 0.21663257E+02</totfact>
</mgrwt>
</event>
<event>
 5    1  0.4149151E-003  0.7771570E+02  0.7546771E-02  0.1384607E+00
          1   -1    0    0  502    0 -0.00000000000E+00  0.00000000000E+00  0.51197158073E+03  0.51197158073E+03  0.00000000000E+00 0. -1.
          2   -1    0    0  501    0  0.00000000000E+00 -0.00000000000E+00 -0.13884397393E+03  0.13884397393E+03  0.00000000000E+00 0. -1.
         25    1    1    2    0    0 -0.41783410732E+02 -0.15548286779E+02  0.22067252393E+03  0.25750527267E+03  0.12500000000E+03 0.  0.
          2    1    1    2  501    0  0.76985821297E+02 -0.22050976906E+02 -0.10426762059E+03  0.13147166603E+03  0.00000000000E+00 0. -1.
          1    1    1    2  502    0 -0.35202410565E+02  0.37599263685E+02  0.25672270346E+03  0.26183861597E+03  0.00000000000E+00 0. -1.
<mgrwt>
<rscale>  0 0.63268156E+02</rscale>
<asrwt>0</asrwt>
<pdfrwt beam="2">  1        2 0.21360612E-01 0.77715697E+02</pdfrwt>
<pdfrwt beam="1">  1        1 0.78764857E-01 0.51506449E+02</pdfrwt>
<totfact> 0.15293032E+03</totfact>
</mgrwt>
</event>
<event>
 5    1  0.4149151E-003  0.6030248E+02  0.7546771E-02  0.1406286E+00
          1   -1    0    0  502    0 -0.00000000000E+00  0.00000000000E+00  0.42369154650E+03  0.42369154650E+03  0.00000000000E+00 0. -1.
          2   -1    0    0  501    0  0.00000000000E+00 -0.00000000000E+00 -0.48073065429E+03  0.48073065429E+03  0.00000000000E+00 0. -1.
         25    1    1    2    0    0  0.52391481212E+02  0.88287141946E+02  0.85677287019E+01  0.16198114925E+03  0.12500000000E+03 0.  0.
          2    1    1    2  501    0 -0.47548801765E+02 -0.29287154211E+02 -0.39947790062E+03  0.40336239169E+03  0.00000000000E+00 0. -1.
          1    1    1    2  502    0 -0.48426794467E+01 -0.58999987735E+02  0.33387106413E+03  0.33907865984E+03  0.00000000000E+00 0. -1.
<mgrwt>
<rscale>  0 0.58030779E+02</rscale>
<asrwt>0</asrwt>
<pdfrwt beam="2">  1        2 0.73958562E-01 0.55844659E+02</pdfrwt>
<pdfrwt beam="1">  1        1 0.65183315E-01 0.60302478E+02</pdfrwt>
<totfact> 0.52108189E+02</totfact>
</mgrwt>
</event>
<event>
 5    1  0.4149151E-003  0.3002656E+03  0.7546771E-02  0.1226451E+00
          2   -1    0    0  501    0  0.00000000000E+00  0.00000000000E+00  0.32450797503E+03  0.32450797503E+03  0.00000000000E+00 0. -1.
          1   -1    0    0  502    0 -0.00000000000E+00 -0.00000000000E+00 -0.16249486551E+04  0.16249486551E+04  0.00000000000E+00 0. -1.
         25    1    1    2    0    0 -0.14416559346E+02  0.29222855372E+03 -0.97520169948E+03  0.10257917525E+04  0.12500000000E+03 0.  0.
          2    1    1    2  501    0 -0.42136133899E+02 -0.29826102784E+03  0.22155100095E+03  0.37392504667E+03  0.00000000000E+00 0. -1.
          1    1    1    2  502    0  0.56552693245E+02  0.60324741225E+01 -0.54678998155E+03  0.54973983099E+03  0.00000000000E+00 0. -1.
<mgrwt>
<rscale>  0 0.13067962E+03</rscale>
<asrwt>0</asrwt>
<pdfrwt beam="1">  1        2 0.49924304E-01 0.30026559E+03</pdfrwt>
<pdfrwt beam="2">  1        1 0.24999210E+00 0.56873525E+02</pdfrwt>
<totfact> 0.95139496E+01</totfact>
</mgrwt>
</event>
<event>
 5    1  0.4149151E-003  0.7211239E+02  0.7546771E-02  0.1358310E+00
          2   -1    0    0  501    0  0.00000000000E+00  0.00000000000E+00  0.21517201123E+03  0.21517201123E+03  0.00000000000E+00 0. -1.
          1   -1    0    0  502    0 -0.00000000000E+00 -0.00000000000E+00 -0.23470622777E+04  0.23470622777E+04  0.00000000000E+00 0. -1.
         25    1    1    2    0    0  0.23356819314E+02 -0.63404301046E+01 -0.94117580870E+02  0.15833149115E+03  0.12500000000E+03 0.  0.
          2    1    1    2  501    0 -0.49770557504E+02 -0.57378322245E+02  0.17462549412E+03  0.19042962862E+03  0.00000000000E+00 0. -1.
          1    1    1    2  502    0  0.26413738190E+02  0.63718752350E+02 -0.22123981797E+04  0.22134731691E+04  0.00000000000E+00 0. -1.
<mgrwt>
<rscale>  0 0.70527045E+02</rscale>
<asrwt>0</asrwt>
<pdfrwt beam="1">  1        2 0.33103389E-01 0.72112389E+02</pdfrwt>
<pdfrwt beam="2">  1        1 0.36108648E+00 0.68976554E+02</pdfrwt>
<totfact> 0.50641472E+01</totfact>
</mgrwt>
</event>
<event>
 5    1  0.4149151E-003  0.6646975E+02  0.7546771E-02  0.1446010E+00
          2   -1    0    0  502    0  0.00000000000E+00  0.00000000000E+00  0.37471307506E+03  0.37471307506E+03  0.00000000000E+00 0. -1.
          2   -1    0    0  501    0 -0.00000000000E+00 -0.00000000000E+00 -0.33901012051E+03  0.33901012051E+03  0.00000000000E+00 0. -1.
         25    1    1    2    0    0  0.15999630361E+02 -0.93944603190E+02  0.57458604587E+01  0.15728824353E+03  0.12500000000E+03 0.  0.
          2    1    1    2  501    0  0.74584904978E+01  0.64783484136E+02 -0.25797054656E+03  0.26608519648E+03  0.00000000000E+00 0. -1.
          2    1    1    2  502    0 -0.23458120859E+02  0.29161119054E+02  0.28792764065E+03  0.29034975555E+03  0.00000000000E+00 0. -1.
<mgrwt>
<rscale>  0 0.49876361E+02</rscale>
<asrwt>0</asrwt>
<pdfrwt beam="1">  1        2 0.57648166E-01 0.37425316E+02</pdfrwt>
<pdfrwt beam="2">  1        2 0.52155403E-01 0.66469748E+02</pdfrwt>
<totfact> 0.12706641E+03</totfact>
</mgrwt>
</event>
<event>
 5    1  0.4149151E-003  0.1084886E+03  0.7546771E-02  0.1318169E+00
          1   -1    0    0  502    0 -0.00000000000E+00  0.00000000000E+00  0.27452067425E+04  0.27452067425E+04  0.00000000000E+00 0. -1.
          2   -1    0    0  501    0  0.00000000000E+00 -0.00000000000E+00 -0.11220558976E+04  0.11220558976E+04  0.00000000000E+00 0. -1.
         25    1    1    2    0    0  0.41564527636E+02  0.21130519427E+02  0.15998305927E+03  0.20831151688E+03  0.12500000000E+03 0.  0.
          2    1    1    2  501    0  0.57340633070E+02  0.30569414698E+02 -0.10957128410E+04  0.10976379491E+04  0.00000000000E+00 0. -1.
          1    1    1    2  502    0 -0.98905160706E+02 -0.51699934125E+02  0.25588806267E+04  0.25613131740E+04  0.00000000000E+00 0. -1.
<mgrwt>
<rscale>  0 0.83962027E+02</rscale>
<asrwt>0</asrwt>
<pdfrwt beam="2">  1        2 0.17262399E+00 0.64980284E+02</pdfrwt>
<pdfrwt beam="1">  1        1 0.42233950E+00 0.10848863E+03</pdfrwt>
<totfact> 0.41282870E+00</totfact>
</mgrwt>
</event>
<event>
 5    1  0.4149151E-003  0.1294354E+03  0.7546771E-02  0.1422484E+00
          2   -1    0    0  501    0  0.00000000000E+00  0.00000000000E+00  0.13763060463E+04  0.13763060463E+04  0.00000000000E+00 0. -1.
          2   -1    0    0  502    0 -0.00000000000E+00 -0.00000000000E+00 -0.28860275140E+04  0.28860275140E+04  0.00000000000E+00 0. -1.
         25    1    1    2    0    0 -0.10849692857E+03 -0.16427534684E+02  0.88427812835E+03  0.89978567208E+03  0.12500000000E+03 0.  0.
          2    1    1    2  501    0 -0.16993352159E+02 -0.15420038651E+02  0.48254544904E+03  0.48309073889E+03  0.00000000000E+00 0. -1.
          2    1    1    2  502    0  0.12549028073E+03  0.31847573335E+02 -0.28765450451E+04  0.28794571493E+04  0.00000000000E+00 0. -1.
<mgrwt>
<rscale>  0 0.54498784E+02</rscale>
<asrwt>0</asrwt>
<pdfrwt beam="1">  1        2 0.21173939E+00 0.22946712E+02</pdfrwt>
<pdfrwt beam="2">  1        2 0.44400423E+00 0.12943542E+03</pdfrwt>
<totfact> 0.81612575E+00</totfact>
</mgrwt>
</event>
<event>
 5    1  0.4149151E-003  0.5939904E+02  0.7546771E-02  0.1407732E+00
          2   -1    0    0  501    0  0.00000000000E+00  0.00000000000E+00  0.11329945170E+04  0.11329945170E+04  0.00000000000E+00 0. -1.
          2   -1    0    0  502    0 -0.00000000000E+00 -0.00000000000E+00 -0.41665971076E+03  0.41665971076E+03  0.00000000000E+00 0. -1.
         25    1    1    2    0    0  0.57416109065E+00 -0.14796438673E+02 -0.28642005877E+03  0.31285893678E+03  0.12500000000E+03 0.  0.
          2    1    1    2  501    0 -0.56483555369E+02  0.18840817826E+02  0.11122197595E+04  0.11138124446E+04  0.00000000000E+00 0. -1.
          2    1    1    2  502    0  0.55909394279E+02 -0.40443791529E+01 -0.10946489448E+03  0.12298284634E+03  0.00000000000E+00 0. -1.
<mgrwt>
<rscale>  0 0.57703048E+02</rscale>
<asrwt>0</asrwt>
<pdfrwt beam="1">  1        2 0.17430685E+00 0.59399036E+02</pdfrwt>
<pdfrwt beam="2">  1        2 0.64101495E-01 0.56055485E+02</pdfrwt>
<totfact> 0.28675441E+02</totfact>
</mgrwt>
</event>
<event>
 5    1  0.4149151E-003  0.4237301E+02  0.7546771E-02  0.1530552E+00
         -1   -1    0    0    0  501 -0.00000000000E+00  0.00000000000E+00  0.20878742096E+03  0.20878742096E+03  0.00000000000E+00 0.  1.
          2   -1    0    0  502    0  0.00000000000E+00 -0.00000000000E+00 -0.33136128112E+04  0.33136128112E+04  0.00000000000E+00 0. -1.
         25    1    1    2    0    0  0.53591238542E+01 -0.57448389442E+02 -0.10482585263E+04  0.10572605997E+04  0.12500000000E+03 0.  0.
          2    1    1    2  502    0 -0.26485675457E+02  0.32730755156E+02 -0.22593619756E+04  0.22597542632E+04  0.00000000000E+00 0. -1.
         -1    1    1    2    0  501  0.21126551603E+02  0.24717634286E+02  0.20279511162E+03  0.20538536931E+03  0.00000000000E+00 0.  1.
<mgrwt>
<rscale>  0 0.37118760E+02</rscale>
<asrwt>0</asrwt>
<pdfrwt beam="2">  1        2 0.50978656E+00 0.42373011E+02</pdfrwt>
<pdfrwt beam="1">  1       -1 0.32121144E-01 0.32516036E+02</pdfrwt>
<totfact> 0.18809963E+01</totfact>
</mgrwt>
</event>
<event>
 5    1  0.4149151E-003  0.1769518E+03  0.7546771E-02  0.1280895E+00
          3   -1    0    0  502    0 -0.00000000000E+00  0.00000000000E+00  0.89320425457E+02  0.89320425457E+02  0.00000000000E+00 0. -1.
          2   -1    0    0  501    0  0.00000000000E+00 -0.00000000000E+00 -0.23215616590E+04  0.23215616590E+04  0.00000000000E+00 0. -1.
         25    1    1    2    0    0  0.30170533662E+02 -0.19775555969E+03 -0.78456812720E+03  0.81926166071E+03  0.12500000000E+03 0.  0.
          2    1    1    2  501    0  0.41148470043E+02  0.38266348971E+02 -0.14122363849E+04  0.14133538541E+04  0.00000000000E+00 0. -1.
          3    1    1    2  502    0 -0.71319003705E+02  0.15948921072E+03 -0.35436721433E+02  0.17826656964E+03  0.00000000000E+00 0. -1.
<mgrwt>
<rscale>  0 0.99715727E+02</rscale>
<asrwt>0</asrwt>
<pdfrwt beam="2">  1        2 0.35716330E+00 0.56191726E+02</pdfrwt>
<pdfrwt beam="1">  1        3 0.13741605E-01 0.17695178E+03</pdfrwt>
<totfact> 0.16091269E+02</totfact>
</mgrwt>
</event>
<event>
 5    1  0.4149151E-003  0.9924262E+02  0.7546771E-02  0.1455708E+00
         -1   -1    0    0    0  501 -0.00000000000E+00  0.00000000000E+00  0.20477284676E+02  0.20477284676E+02  0.00000000000E+00 0.  1.
          2   -1    0    0  502    0  0.00000000000E+00 -0.00000000000E+00 -0.11961581148E+04  0.11961581148E+04  0.00000000000E+00 0. -1.
         25    1    1    2    0    0  0.10864018413E+03  0.35310044156E+02 -0.52954573287E+03  0.55596148430E+03  0.12500000000E+03 0.  0.
          2    1    1    2  502    0 -0.85998372865E+02 -0.40975162397E+02 -0.61170764230E+03  0.61908070856E+03  0.00000000000E+00 0. -1.
         -1    1    1    2    0  501 -0.22641811261E+02  0.56651182408E+01 -0.34427454977E+02  0.41593206633E+02  0.00000000000E+00 0.  1.
<mgrwt>
<rscale>  0 0.48127960E+02</rscale>
<asrwt>0</asrwt>
<pdfrwt beam="2">  1        2 0.18402434E+00 0.99242615E+02</pdfrwt>
<pdfrwt beam="1">  1       -1 0.31503512E-02 0.23339777E+02</pdfrwt>
<totfact> 0.63067206E+03</totfact>
</mgrwt>
</event>
<event>
 5    1  0.4149151E-003  0.1419751E+03  0.7546771E-02  0.1318855E+00
          2   -1    0    0  501    0  0.00000000000E+00  0.00000000000E+00  0.12758720308E+04  0.12758720308E+04  0.00000000000E+00 0. -1.
          1   -1    0    0  502    0 -0.00000000000E+00 -0.00000000000E+00 -0.94142971397E+02  0.94142971397E+02  0.00000000000E+00 0. -1.
         25    1    1    2    0    0  0.46330003725E+02 -0.12354258402E+03  0.11877919121E+03  0.21712377939E+03  0.12500000000E+03 0.  0.
          2    1    1    2  501    0 -0.39757571120E+02 -0.29236345950E+02  0.97546910432E+03  0.97671664359E+03  0.00000000000E+00 0. -1.
          1    1    1    2  502    0 -0.65724326050E+01  0.15277892997E+03  0.87480763866E+02  0.17617457921E+03  0.00000000000E+00 0. -1.
<mgrwt>
<rscale>  0 0.83704710E+02</rscale>
<asrwt>0</asrwt>
<pdfrwt beam="1">  1        2 0.19628799E+00 0.49350060E+02</pdfrwt>
<pdfrwt beam="2">  1        1 0.14483535E-01 0.14197508E+03</pdfrwt>
<totfact> 0.10486824E+03</totfact>
</mgrwt>
</event>
<event>
 5    1  0.4149151E-003  0.4726736E+03  0.7546771E-02  0.1021168E+00
         -1   -1    0    0    0  501 -0.00000000000E+00  0.00000000000E+00  0.36039296381E+02  0.36039296381E+02  0.00000000000E+00 0.  1.
          2   -1    0    0  502    0  0.00000000000E+00 -0.00000000000E+00 -0.15498384502E+04  0.15498384502E+04  0.00000000000E+00 0. -1.
         25    1    1    2    0    0  0.20421822310E+03  0.18095395894E+02 -0.95093672408E+03  0.98078447133E+03  0.12500000000E+03 0.  0.
          2    1    1    2  502    0 -0.77048799160E+02  0.18262583643E+02 -0.30723605829E+03  0.31727596021E+03  0.00000000000E+00 0. -1.
         -1    1    1    2    0  501 -0.12716942394E+03 -0.36357979537E+02 -0.25562637148E+03  0.28781731508E+03  0.00000000000E+00 0.  1.
<mgrwt>
<rscale>  0 0.47267362E+03</rscale>
<asrwt>0</asrwt>
<pdfrwt beam="2">  1        2 0.23843667E+00 0.47267362E+03</pdfrwt>
<pdfrwt beam="1">  1       -1 0.55445075E-02 0.47267362E+03</pdfrwt>
<totfact> 0.21860755E+03</totfact>
</mgrwt>
</event>
<event>
 5    1  0.4149151E-003  0.2239658E+03  0.7546771E-02  0.1242795E+00
          1   -1    0    0  501    0  0.00000000000E+00  0.00000000000E+00  0.15042047378E+04  0.15042047378E+04  0.00000000000E+00 0. -1.
          3   -1    0    0  502    0 -0.00000000000E+00 -0.00000000000E+00 -0.90040992600E+02  0.90040992600E+02  0.00000000000E+00 0. -1.
         25    1    1    2    0    0  0.10793161638E+03 -0.14053557419E+03  0.65649641046E+03  0.69138413228E+03  0.12500000000E+03 0.  0.
          1    1    1    2  501    0  0.55881811191E+02 -0.32193931119E+02  0.62892627461E+03  0.63222423626E+03  0.00000000000E+00 0. -1.
          3    1    1    2  502    0 -0.16381342757E+03  0.17272950531E+03  0.12874106009E+03  0.27063736181E+03  0.00000000000E+00 0. -1.
<mgrwt>
<rscale>  0 0.12018325E+03</rscale>
<asrwt>0</asrwt>
<pdfrwt beam="1">  1        1 0.23141609E+00 0.64492062E+02</pdfrwt>
<pdfrwt beam="2">  1        3 0.13852462E-01 0.22396578E+03</pdfrwt>
<totfact> 0.19012253E+02</totfact>
</mgrwt>
</event>
<event>
 5    1  0.4149151E-003  0.3244863E+02  0.7546771E-02  0.1599446E+00
          2   -1    0    0  502    0  0.00000000000E+00  0.00000000000E+00  0.23206710263E+04  0.23206710263E+04  0.00000000000E+00 0. -1.
         -1   -1    0    0    0  501 -0.00000000000E+00 -0.00000000000E+00 -0.50960726307E+01  0.50960726307E+01  0.00000000000E+00 0.  1.
         25    1    1    2    0    0  0.21812519903E+02 -0.21402126068E+00  0.11022601105E+04  0.11095396267E+04  0.12500000000E+03 0.  0.
          2    1    1    2  502    0 -0.46240559892E+00  0.32445338554E+02  0.24478685685E+03  0.24692816587E+03  0.00000000000E+00 0. -1.
         -1    1    1    2    0  501 -0.21350114304E+02 -0.32231317293E+02  0.96852798623E+03  0.96929930636E+03  0.00000000000E+00 0.  1.
<mgrwt>
<rscale>  0 0.29877561E+02</rscale>
<asrwt>0</asrwt>
<pdfrwt beam="1">  1        2 0.35702547E+00 0.32448633E+02</pdfrwt>
<pdfrwt beam="2">  1       -1 0.78401303E-03 0.27510209E+02</pdfrwt>
<totfact> 0.13377502E+04</totfact>
</mgrwt>
</event>
<event>
 5    1  0.4149151E-003  0.9839500E+02  0.7546771E-02  0.1301393E+00
          1   -1    0    0  501    0  0.00000000000E+00  0.00000000000E+00  0.29347996293E+04  0.29347996293E+04  0.00000000000E+00 0. -1.
          1   -1    0    0  502    0 -0.00000000000E+00 -0.00000000000E+00 -0.18975296211E+04  0.18975296211E+04  0.00000000000E+00 0. -1.
         25    1    1    2    0    0  0.10352879064E+03 -0.13986193735E+03 -0.58200602054E+02  0.22201775174E+03  0.12500000000E+03 0.  0.
          1    1    1    2  501    0 -0.35739917593E+02  0.91225440767E+02  0.28510588796E+04  0.28527418666E+04  0.00000000000E+00 0. -1.
          1    1    1    2  502    0 -0.67788873049E+02  0.48636496579E+02 -0.17555882693E+04  0.17575696320E+04  0.00000000000E+00 0. -1.
<mgrwt>
<rscale>  0 0.90604953E+02</rscale>
<asrwt>0</asrwt>
<pdfrwt beam="1">  1        1 0.45150763E+00 0.98395004E+02</pdfrwt>
<pdfrwt beam="2">  1        1 0.29192764E+00 0.83431649E+02</pdfrwt>
<totfact> 0.51447953E-01</totfact>
</mgrwt>
</event>
<event>
 5    1  0.4149151E-003  0.8785639E+02  0.7546771E-02  0.1311706E+00
          2   -1    0    0  502    0  0.00000000000E+00  0.00000000000E+00  0.13583083151E+04  0.13583083151E+04  0.00000000000E+00 0. -1.
         -2   -1    0    0    0  501 -0.00000000000E+00 -0.00000000000E+00 -0.12577117797E+04  0.12577117797E+04  0.00000000000E+00 0.  1.
         25    1    1    2    0    0  0.88036268032E+02  0.10184577127E+03  0.14950252454E+03  0.23685217006E+03  0.12500000000E+03 0.  0.
          2    1    1    2  502    0 -0.85482145202E+02 -0.16835277763E+02  0.11620086550E+04  0.11652702425E+04  0.00000000000E+00 0. -1.
         -2    1    1    2    0  501 -0.25541228304E+01 -0.85010493509E+02 -0.12109146441E+04  0.12138976822E+04  0.00000000000E+00 0.  1.
<mgrwt>
<rscale>  0 0.86441224E+02</rscale>
<asrwt>0</asrwt>
<pdfrwt beam="1">  1        2 0.20897051E+00 0.87856389E+02</pdfrwt>
<pdfrwt beam="2">  1       -2 0.19349412E+00 0.85048854E+02</pdfrwt>
<totfact> 0.30735479E+00</totfact>
</mgrwt>
</event>
<event>
 5    1  0.4149151E-003  0.1027123E+03  0.7546771E-02  0.1295332E+00
          2   -1    0    0  501    0  0.00000000000E+00  0.00000000000E+00  0.13768918059E+04  0.13768918059E+04  0.00000000000E+00 0. -1.
          3   -1    0    0  502    0 -0.00000000000E+00 -0.00000000000E+00 -0.32428787285E+03  0.32428787285E+03  0.00000000000E+00 0. -1.
         25    1    1    2    0    0  0.68408687411E+02  0.37218548870E+02  0.15407417659E+03  0.21314037812E+03  0.12500000000E+03 0.  0.
          2    1    1    2  501    0 -0.51607165314E+02  0.66947417592E+02  0.11822845062E+04  0.11853024550E+04  0.00000000000E+00 0. -1.
          3    1    1    2  502    0 -0.16801522096E+02 -0.10416596646E+03 -0.28375474973E+03  0.30273684564E+03  0.00000000000E+00 0. -1.
<mgrwt>
<rscale>  0 0.93178477E+02</rscale>
<asrwt>0</asrwt>
<pdfrwt beam="1">  1        2 0.21182951E+00 0.84529617E+02</pdfrwt>
<pdfrwt beam="2">  1        3 0.49890443E-01 0.10271227E+03</pdfrwt>
<totfact> 0.41810821E+01</totfact>
</mgrwt>
</event>
<event>
 5    1  0.4149151E-003  0.1135134E+03  0.7546771E-02  0.1405598E+00
          2   -1    0    0  502    0  0.00000000000E+00  0.00000000000E+00  0.28508523029E+03  0.28508523029E+03  0.00000000000E+00 0. -1.
          2   -1    0    0  501    0 -0.00000000000E+00 -0.00000000000E+00 -0.21054310557E+04  0.21054310557E+04  0.00000000000E+00 0. -1.
         25    1    1    2    0    0 -0.12813651562E+03 -0.18932625992E+01 -0.22413683330E+02  0.18041597568E+03  0.12500000000E+03 0.  0.
          2    1    1    2  501    0  0.19220852366E+02 -0.22808644657E+02 -0.19887654553E+04  0.19889891180E+04  0.00000000000E+00 0. -1.
          2    1    1    2  502    0  0.10891566326E+03  0.24701907257E+02  0.19083331322E+03  0.22111119230E+03  0.00000000000E+00 0. -1.
<mgrwt>
<rscale>  0 0.58187726E+02</rscale>
<asrwt>0</asrwt>
<pdfrwt beam="1">  1        2 0.43859267E-01 0.11351336E+03</pdfrwt>
<pdfrwt beam="2">  1        2 0.32391246E+00 0.29827428E+02</pdfrwt>
<totfact> 0.15129068E+02</totfact>
</mgrwt>
</event>
<event>
 5    1  0.4149151E-003  0.1403689E+03  0.7546771E-02  0.1336026E+00
         -1   -1    0    0    0  501 -0.00000000000E+00  0.00000000000E+00  0.13272946280E+03  0.13272946280E+03  0.00000000000E+00 0.  1.
          2   -1    0    0  502    0  0.00000000000E+00 -0.00000000000E+00 -0.16230805219E+04  0.16230805219E+04  0.00000000000E+00 0. -1.
         25    1    1    2    0    0 -0.10160854091E+03 -0.23900370613E+02 -0.19413933657E+03  0.25339811622E+03  0.12500000000E+03 0.  0.
          2    1    1    2  502    0  0.14398828986E+03  0.17296187672E+02 -0.13909116333E+04  0.13984516286E+04  0.00000000000E+00 0. -1.
         -1    1    1    2    0  501 -0.42379748955E+02  0.66041829409E+01  0.94699910859E+02  0.10396023985E+03  0.00000000000E+00 0.  1.
<mgrwt>
<rscale>  0 0.77592499E+02</rscale>
<asrwt>0</asrwt>
<pdfrwt beam="2">  1        2 0.24970470E+00 0.14036890E+03</pdfrwt>
<pdfrwt beam="1">  1       -1 0.20419917E-01 0.42891239E+02</pdfrwt>
<totfact> 0.25963692E+02</totfact>
</mgrwt>
</event>
<event>
 5    1  0.4149151E-003  0.3720986E+02  0.7546771E-02  0.1590895E+00
          2   -1    0    0  502    0  0.00000000000E+00  0.00000000000E+00  0.69780066443E+03  0.69780066443E+03  0.00000000000E+00 0. -1.
         -1   -1    0    0    0  501 -0.00000000000E+00 -0.00000000000E+00 -0.22684027333E+02  0.22684027333E+02  0.00000000000E+00 0.  1.
         25    1    1    2    0    0  0.31416780244E+01 -0.50213847083E+02  0.52454314813E+03  0.54157346208E+03  0.12500000000E+03 0.  0.
          2    1    1    2  502    0 -0.18283895002E+02  0.29989694744E+02  0.14955703005E+03  0.15362613009E+03  0.00000000000E+00 0. -1.
         -1    1    1    2    0  501  0.15142216978E+02  0.20224152339E+02  0.10164589141E+01  0.25285099595E+02  0.00000000000E+00 0.  1.
<mgrwt>
<rscale>  0 0.30660962E+02</rscale>
<asrwt>0</asrwt>
<pdfrwt beam="1">  1        2 0.10735393E+00 0.37209865E+02</pdfrwt>
<pdfrwt beam="2">  1       -1 0.34898509E-02 0.25264661E+02</pdfrwt>
<totfact> 0.11569751E+04</totfact>
</mgrwt>
</event>
<event>
 5    1  0.4149151E-003  0.1026410E+03  0.7546771E-02  0.1304997E+00
          2   -1    0    0  502    0  0.00000000000E+00  0.00000000000E+00  0.11871067870E+04  0.11871067870E+04  0.00000000000E+00 0. -1.
         -2   -1    0    0    0  501 -0.00000000000E+00 -0.00000000000E+00 -0.39070341732E+03  0.39070341732E+03  0.00000000000E+00 0.  1.
         25    1    1    2    0    0 -0.49453508812E+02  0.43938383726E+02  0.37758430524E+03  0.40320111441E+03  0.12500000000E+03 0.  0.
          2    1    1    2  502    0 -0.53571396045E+02 -0.55837383004E+02  0.78766675885E+03  0.79145854649E+03  0.00000000000E+00 0. -1.
         -2    1    1    2    0  501  0.10302490486E+03  0.11898999278E+02 -0.36884769444E+03  0.38315054339E+03  0.00000000000E+00 0.  1.
<mgrwt>
<rscale>  0 0.89120098E+02</rscale>
<asrwt>0</asrwt>
<pdfrwt beam="1">  1        2 0.18263181E+00 0.77380281E+02</pdfrwt>
<pdfrwt beam="2">  1       -2 0.60108219E-01 0.10264103E+03</pdfrwt>
<totfact> 0.59203338E+01</totfact>
</mgrwt>
</event>
<event>
 5    1  0.4149151E-003  0.1008523E+03  0.7546771E-02  0.1333197E+00
          3   -1    0    0  502    0 -0.00000000000E+00  0.00000000000E+00  0.13669681988E+02  0.13669681988E+02  0.00000000000E+00 0. -1.
          2   -1    0    0  501    0  0.00000000000E+00 -0.00000000000E+00 -0.25205831411E+04  0.25205831411E+04  0.00000000000E+00 0. -1.
         25    1    1    2    0    0  0.14659974867E+03  0.63771766063E+00 -0.11952443621E+04  0.12106717053E+04  0.12500000000E+03 0.  0.
          2    1    1    2  501    0 -0.60428771039E+02 -0.96267108222E+01 -0.93824220961E+03  0.94023547786E+03  0.00000000000E+00 0. -1.
          3    1    1    2  502    0 -0.86170977627E+02  0.89889931616E+01 -0.37342688742E+03  0.38334563990E+03  0.00000000000E+00 0. -1.
<mgrwt>
<rscale>  0 0.78557171E+02</rscale>
<asrwt>0</asrwt>
<pdfrwt beam="2">  1        2 0.38778206E+00 0.61190767E+02</pdfrwt>
<pdfrwt beam="1">  1        3 0.21030278E-02 0.10085229E+03</pdfrwt>
<totfact> 0.23360198E+03</totfact>
</mgrwt>
</event>
<event>
 5    1  0.4149151E-003  0.1951102E+03  0.7546771E-02  0.1367876E+00
         -2   -1    0    0    0  501 -0.00000000000E+00  0.00000000000E+00  0.17198901655E+03  0.17198901655E+03  0.00000000000E+00 0.  1.
          1   -1    0    0  502    0  0.00000000000E+00 -0.00000000000E+00 -0.55238125250E+03  0.55238125250E+03  0.00000000000E+00 0. -1.
         25    1    1    2    0    0  0.57309489133E+01  0.17808439350E+03 -0.31765066790E+03  0.38506342568E+03  0.12500000000E+03 0.  0.
          1    1    1    2  502    0  0.12916101420E+02  0.19672137869E+02 -0.12806365658E+03  0.13020798294E+03  0.00000000000E+00 0. -1.
         -2    1    1    2    0  501 -0.18647050333E+02 -0.19775653137E+03  0.65322088532E+02  0.20909886043E+03  0.00000000000E+00 0.  1.
<mgrwt>
<rscale>  0 0.67761322E+02</rscale>
<asrwt>0</asrwt>
<pdfrwt beam="2">  1        1 0.84981730E-01 0.23533353E+02</pdfrwt>
<pdfrwt beam="1">  1       -2 0.26459849E-01 0.19511018E+03</pdfrwt>
<totfact> 0.47624278E+02</totfact>
</mgrwt>
</event>
<event>
 5    1  0.4149151E-003  0.1460433E+03  0.7546771E-02  0.1310578E+00
         -1   -1    0    0    0  501 -0.00000000000E+00  0.00000000000E+00  0.73116916161E+03  0.73116916161E+03  0.00000000000E+00 0.  1.
          1   -1    0    0  502    0  0.00000000000E+00 -0.00000000000E+00 -0.20507771368E+04  0.20507771368E+04  0.00000000000E+00 0. -1.
         25    1    1    2    0    0  0.41535435019E+02 -0.13603855289E+03 -0.10995776103E+03  0.21896892347E+03  0.12500000000E+03 0.  0.
          1    1    1    2  502    0  0.47776143349E+02  0.19727370084E+02 -0.18780088471E+04  0.18787200320E+04  0.00000000000E+00 0. -1.
         -1    1    1    2    0  501 -0.89311578368E+02  0.11631118281E+03  0.66835863287E+03  0.68425734297E+03  0.00000000000E+00 0.  1.
<mgrwt>
<rscale>  0 0.86883820E+02</rscale>
<asrwt>0</asrwt>
<pdfrwt beam="2">  1        1 0.31550417E+00 0.51688771E+02</pdfrwt>
<pdfrwt beam="1">  1       -1 0.11248756E+00 0.14604329E+03</pdfrwt>
<totfact> 0.31051484E+00</totfact>
</mgrwt>
</event>
<event>
 5    1  0.4149151E-003  0.1390885E+03  0.7546771E-02  0.1248995E+00
          2   -1    0    0  501    0  0.00000000000E+00  0.00000000000E+00  0.46090157436E+03  0.46090157436E+03  0.00000000000E+00 0. -1.
          1   -1    0    0  502    0 -0.00000000000E+00 -0.00000000000E+00 -0.16372607939E+04  0.16372607939E+04  0.00000000000E+00 0. -1.
         25    1    1    2    0    0 -0.70129906795E+02  0.15003517103E+02 -0.43119930327E+03  0.45464397994E+03  0.12500000000E+03 0.  0.
          2    1    1    2  501    0  0.87173863893E+02 -0.11107389766E+03  0.43602163335E+03  0.45831382048E+03  0.00000000000E+00 0. -1.
          1    1    1    2  502    0 -0.17043957098E+02  0.96070380558E+02 -0.11811815496E+04  0.11852045678E+04  0.00000000000E+00 0. -1.
<mgrwt>
<rscale>  0 0.11649438E+03</rscale>
<asrwt>0</asrwt>
<pdfrwt beam="1">  1        2 0.70907936E-01 0.13908847E+03</pdfrwt>
<pdfrwt beam="2">  1        1 0.25188627E+00 0.97570562E+02</pdfrwt>
<totfact> 0.60618426E+01</totfact>
</mgrwt>
</event>
<event>
 5    1  0.4149151E-003  0.8876016E+02  0.7546771E-02  0.1489560E+00
         -2   -1    0    0    0  501 -0.00000000000E+00  0.00000000000E+00  0.13483793815E+02  0.13483793815E+02  0.00000000000E+00 0.  1.
          1   -1    0    0  502    0  0.00000000000E+00 -0.00000000000E+00 -0.13004596875E+04  0.13004596875E+04  0.00000000000E+00 0. -1.
         25    1    1    2    0    0  0.79435757759E+02  0.83642475477E+01 -0.63599478000E+03  0.65306535694E+03  0.12500000000E+03 0.  0.
          1    1    1    2  502    0 -0.93047824643E+02  0.69575301946E+01 -0.54593170142E+03  0.55384810870E+03  0.00000000000E+00 0. -1.
         -2    1    1    2    0  501  0.13612066884E+02 -0.15321777742E+02 -0.10504941232E+03  0.10703001572E+03  0.00000000000E+00 0.  1.
<mgrwt>
<rscale>  0 0.42651376E+02</rscale>
<asrwt>0</asrwt>
<pdfrwt beam="2">  1        1 0.20007075E+00 0.88760156E+02</pdfrwt>
<pdfrwt beam="1">  1       -2 0.20744295E-02 0.20495005E+02</pdfrwt>
<totfact> 0.47425124E+03</totfact>
</mgrwt>
</event>
<event>
 5    1  0.4149151E-003  0.9559657E+02  0.7546771E-02  0.1298212E+00
         -1   -1    0    0    0  501 -0.00000000000E+00  0.00000000000E+00  0.16857044023E+03  0.16857044023E+03  0.00000000000E+00 0.  1.
          1   -1    0    0  502    0  0.00000000000E+00 -0.00000000000E+00 -0.85871205281E+03  0.85871205281E+03  0.00000000000E+00 0. -1.
         25    1    1    2    0    0 -0.12539369273E+03 -0.10610190174E+03 -0.33380184847E+03  0.39246638808E+03  0.12500000000E+03 0.  0.
          1    1    1    2  502    0  0.35693574210E+02  0.80906873519E+02 -0.47544440897E+03  0.48359832448E+03  0.00000000000E+00 0. -1.
         -1    1    1    2    0  501  0.89700118520E+02  0.25195028219E+02  0.11910464485E+03  0.15121778049E+03  0.00000000000E+00 0.  1.
<mgrwt>
<rscale>  0 0.91943748E+02</rscale>
<asrwt>0</asrwt>
<pdfrwt beam="2">  1        1 0.13210955E+00 0.88430501E+02</pdfrwt>
<pdfrwt beam="1">  1       -1 0.25933914E-01 0.95596573E+02</pdfrwt>
<totfact> 0.28258550E+02</totfact>
</mgrwt>
</event>
<event>
 5    1  0.4149151E-003  0.1280605E+03  0.7546771E-02  0.1337230E+00
          1   -1    0    0  502    0 -0.00000000000E+00  0.00000000000E+00  0.88825300604E+03  0.88825300604E+03  0.00000000000E+00 0. -1.
          2   -1    0    0  501    0  0.00000000000E+00 -0.00000000000E+00 -0.18215022055E+04  0.18215022055E+04  0.00000000000E+00 0. -1.
         25    1    1    2    0    0 -0.10986143205E+03  0.10260587169E+03 -0.59643448759E+02  0.20440117450E+03  0.12500000000E+03 0.  0.
          2    1    1    2  501    0  0.45893164485E+02  0.76322134284E+01 -0.16841791073E+04  0.16848215629E+04  0.00000000000E+00 0. -1.
          1    1    1    2  502    0  0.63968267564E+02 -0.11023808512E+03  0.81057335662E+03  0.82053247415E+03  0.00000000000E+00 0. -1.
<mgrwt>
<rscale>  0 0.77186893E+02</rscale>
<asrwt>0</asrwt>
<pdfrwt beam="2">  1        2 0.28023110E+00 0.46523470E+02</pdfrwt>
<pdfrwt beam="1">  1        1 0.13665431E+00 0.12806045E+03</pdfrwt>
<totfact> 0.30716770E+01</totfact>
</mgrwt>
</event>
<event>
 5    1  0.4149151E-003  0.2246476E+03  0.7546771E-02  0.1207574E+00
         -1   -1    0    0    0  501 -0.00000000000E+00  0.00000000000E+00  0.33391497222E+03  0.33391497222E+03  0.00000000000E+00 0.  1.
          2   -1    0    0  502    0  0.00000000000E+00 -0.00000000000E+00 -0.79719922945E+03  0.79719922945E+03  0.00000000000E+00 0. -1.
         25    1    1    2    0    0  0.20226317238E+03  0.20299577576E+03 -0.30754665139E+03  0.43855172860E+03  0.12500000000E+03 0.  0.
          2    1    1    2  502    0 -0.14790482769E+02 -0.91585949918E+02 -0.37321801071E+03  0.38457564681E+03  0.00000000000E+00 0. -1.
         -1    1    1    2    0  501 -0.18747268961E+03 -0.11140982584E+03  0.21748040487E+03  0.30798682626E+03  0.00000000000E+00 0.  1.
<mgrwt>
<rscale>  0 0.14436456E+03</rscale>
<asrwt>0</asrwt>
<pdfrwt beam="2">  1        2 0.12264604E+00 0.92772542E+02</pdfrwt>
<pdfrwt beam="1">  1       -1 0.51371534E-01 0.22464758E+03</pdfrwt>
<totfact> 0.16705642E+02</totfact>
</mgrwt>
</event>
<event>
 5    1  0.4149151E-003  0.8938118E+02  0.7546771E-02  0.1372628E+00
          2   -1    0    0  502    0  0.00000000000E+00  0.00000000000E+00  0.36253780711E+03  0.36253780711E+03  0.00000000000E+00 0. -1.
          2   -1    0    0  501    0 -0.00000000000E+00 -0.00000000000E+00 -0.37274218427E+03  0.37274218427E+03  0.00000000000E+00 0. -1.
         25    1    1    2    0    0 -0.30651118175E+02  0.30105243601E+02  0.93325578392E+02  0.16180383283E+03  0.12500000000E+03 0.  0.
          2    1    1    2  501    0  0.56521820007E+02 -0.72177607923E+02 -0.32958042714E+03  0.34209294231E+03  0.00000000000E+00 0. -1.
          2    1    1    2  502    0 -0.25870701832E+02  0.42072364322E+02  0.22605047159E+03  0.23138321624E+03  0.00000000000E+00 0. -1.
<mgrwt>
<rscale>  0 0.66442012E+02</rscale>
<asrwt>0</asrwt>
<pdfrwt beam="1">  1        2 0.55775047E-01 0.49390050E+02</pdfrwt>
<pdfrwt beam="2">  1        2 0.57344951E-01 0.89381179E+02</pdfrwt>
<totfact> 0.11922493E+03</totfact>
</mgrwt>
</event>
<event>
 5    1  0.4149151E-003  0.1820365E+03  0.7546771E-02  0.1229928E+00
          1   -1    0    0  501    0  0.00000000000E+00  0.00000000000E+00  0.23259369564E+04  0.23259369564E+04  0.00000000000E+00 0. -1.
          1   -1    0    0  502    0 -0.00000000000E+00 -0.00000000000E+00 -0.13746437555E+03  0.13746437555E+03  0.00000000000E+00 0. -1.
         25    1    1    2    0    0 -0.10353670886E+03  0.72972713998E+02  0.10278787156E+03  0.20551207655E+03  0.12500000000E+03 0.  0.
          1    1    1    2  501    0  0.18450308445E+03 -0.32555130904E+02  0.21427370069E+04  0.21509121566E+04  0.00000000000E+00 0. -1.
          1    1    1    2  502    0 -0.80966375593E+02 -0.40417583093E+02 -0.57052297619E+02  0.10697709878E+03  0.00000000000E+00 0. -1.
<mgrwt>
<rscale>  0 0.12834788E+03</rscale>
<asrwt>0</asrwt>
<pdfrwt beam="1">  1        1 0.35783643E+00 0.18203646E+03</pdfrwt>
<pdfrwt beam="2">  1        1 0.21148367E-01 0.90493840E+02</pdfrwt>
<totfact> 0.59965596E+01</totfact>
</mgrwt>
</event>
<event>
 5    1  0.4149151E-003  0.3809185E+02  0.7546771E-02  0.1532223E+00
          2   -1    0    0  502    0  0.00000000000E+00  0.00000000000E+00  0.22568132812E+02  0.22568132812E+02  0.00000000000E+00 0. -1.
         -1   -1    0    0    0  501 -0.00000000000E+00 -0.00000000000E+00 -0.60271048531E+03  0.60271048531E+03  0.00000000000E+00 0.  1.
         25    1    1    2    0    0  0.31900361363E+02 -0.40479872876E+02 -0.41962646726E+03  0.44087143839E+03  0.12500000000E+03 0.  0.
          2    1    1    2  502    0  0.37791878166E+01  0.37870374380E+02 -0.28273867850E+02  0.47411592669E+02  0.00000000000E+00 0. -1.
         -1    1    1    2    0  501 -0.35679549180E+02  0.26094984959E+01 -0.13224201739E+03  0.13699558706E+03  0.00000000000E+00 0.  1.
<mgrwt>
<rscale>  0 0.36915173E+02</rscale>
<asrwt>0</asrwt>
<pdfrwt beam="1">  1        2 0.34720204E-02 0.38091847E+02</pdfrwt>
<pdfrwt beam="2">  1       -1 0.92724692E-01 0.35774847E+02</pdfrwt>
<totfact> 0.30515377E+03</totfact>
</mgrwt>
</event>
<event>
 5    1  0.4149151E-003  0.6682584E+02  0.7546771E-02  0.1502335E+00
          2   -1    0    0  502    0  0.00000000000E+00  0.00000000000E+00  0.36282760723E+04  0.36282760723E+04  0.00000000000E+00 0. -1.
         -1   -1    0    0    0  501 -0.00000000000E+00 -0.00000000000E+00 -0.51719806544E+01  0.51719806544E+01  0.00000000000E+00 0.  1.
         25    1    1    2    0    0  0.46044895317E+02  0.72893871644E+02  0.22533404845E+04  0.22584512365E+04  0.12500000000E+03 0.  0.
          2    1    1    2  502    0 -0.33042609980E+02 -0.51632351153E+02  0.12894271357E+04  0.12908834386E+04  0.00000000000E+00 0. -1.
         -1    1    1    2    0  501 -0.13002285337E+02 -0.21261520491E+02  0.80336471435E+02  0.84113377772E+02  0.00000000000E+00 0.  1.
<mgrwt>
<rscale>  0 0.40809815E+02</rscale>
<asrwt>0</asrwt>
<pdfrwt beam="1">  1        2 0.55819429E+00 0.66825837E+02</pdfrwt>
<pdfrwt beam="2">  1       -1 0.79569223E-03 0.24922112E+02</pdfrwt>
<totfact> 0.21089906E+03</totfact>
</mgrwt>
</event>
<event>
 5    1  0.4149151E-003  0.1260432E+03  0.7546771E-02  0.1251317E+00
          2   -1    0    0  502    0  0.00000000000E+00  0.00000000000E+00  0.33404349236E+03  0.33404349236E+03  0.00000000000E+00 0.  1.
         -1   -1    0    0    0  501 -0.00000000000E+00 -0.00000000000E+00 -0.22986440240E+03  0.22986440240E+03  0.00000000000E+00 0.  1.
         25    1    1    2    0    0  0.78569113814E+02  0.55102998609E+02  0.11712449170E+03  0.19634814147E+03  0.12500000000E+03 0.  0.
          2    1    1    2  502    0  0.14852226739E+02 -0.13971584491E+03  0.11970095956E+03  0.18457904994E+03  0.00000000000E+00 0.  1.
         -1    1    1    2    0  501 -0.93421340554E+02  0.84612846305E+02 -0.13264636130E+03  0.18298070334E+03  0.00000000000E+00 0.  1.
<mgrwt>
<rscale>  0 0.11515121E+03</rscale>
<asrwt>0</asrwt>
<pdfrwt beam="1">  1        2 0.51391306E-01 0.10520047E+03</pdfrwt>
<pdfrwt beam="2">  1       -1 0.35363754E-01 0.12604317E+03</pdfrwt>
<totfact> 0.84903133E+02</totfact>
</mgrwt>
</event>
<event>
 5    1  0.4149151E-003  0.1031587E+03  0.7546771E-02  0.1329411E+00
          1   -1    0    0  502    0 -0.00000000000E+00  0.00000000000E+00  0.16615832740E+04  0.16615832740E+04  0.00000000000E+00 0. -1.
          2   -1    0    0  501    0  0.00000000000E+00 -0.00000000000E+00 -0.73618833787E+02  0.73618833787E+02  0.00000000000E+00 0. -1.
         25    1    1    2    0    0 -0.14583446907E+02 -0.43099698757E+02  0.16624207690E+02  0.13405829045E+03  0.12500000000E+03 0.  0.
          2    1    1    2  501    0  0.60822361455E+01 -0.61544276101E+02  0.60017653510E+02  0.86178943195E+02  0.00000000000E+00 0. -1.
          1    1    1    2  502    0  0.85012107620E+01  0.10464397486E+03  0.15113225790E+04  0.15149648741E+04  0.00000000000E+00 0. -1.
<mgrwt>
<rscale>  0 0.79873390E+02</rscale>
<asrwt>0</asrwt>
<pdfrwt beam="2">  1        2 0.11325976E-01 0.61844090E+02</pdfrwt>
<pdfrwt beam="1">  1        1 0.25562817E+00 0.10315874E+03</pdfrwt>
<totfact> 0.42408043E+02</totfact>
</mgrwt>
</event>
<event>
 5    1  0.4149151E-003  0.3500236E+02  0.7546771E-02  0.1617262E+00
          2   -1    0    0  501    0  0.00000000000E+00  0.00000000000E+00  0.10993289821E+04  0.10993289821E+04  0.00000000000E+00 0. -1.
          1   -1    0    0  502    0 -0.00000000000E+00 -0.00000000000E+00 -0.17653804059E+04  0.17653804059E+04  0.00000000000E+00 0. -1.
         25    1    1    2    0    0  0.32327612882E+02  0.14938550188E+02  0.47976817735E+03  0.49706210762E+03  0.12500000000E+03 0.  0.
          2    1    1    2  501    0  0.17670716710E+01 -0.22868874561E+02  0.61052408400E+03  0.61095479793E+03  0.00000000000E+00 0. -1.
          1    1    1    2  502    0 -0.34094684553E+02  0.79303243731E+01 -0.17563436851E+04  0.17566924824E+04  0.00000000000E+00 0. -1.
<mgrwt>
<rscale>  0 0.28334619E+02</rscale>
<asrwt>0</asrwt>
<pdfrwt beam="1">  1        2 0.16912753E+00 0.22937044E+02</pdfrwt>
<pdfrwt beam="2">  1        1 0.27159699E+00 0.35002359E+02</pdfrwt>
<totfact> 0.21931957E+01</totfact>
</mgrwt>
</event>
<event>
 5    1  0.4149151E-003  0.6024515E+02  0.7546771E-02  0.1443985E+00
          3   -1    0    0  502    0 -0.00000000000E+00  0.00000000000E+00  0.10862143525E+04  0.10862143525E+04  0.00000000000E+00 0. -1.
          1   -1    0    0  501    0  0.00000000000E+00 -0.00000000000E+00 -0.89413069184E+02  0.89413069184E+02  0.00000000000E+00 0. -1.
         25    1    1    2    0    0 -0.36737883962E+02  0.20101260644E+02  0.26551834863E+03  0.29644346216E+03  0.12500000000E+03 0.  0.
          1    1    1    2  501    0  0.19638407970E+02 -0.58372042755E+02 -0.60476615241E+02  0.86315603654E+02  0.00000000000E+00 0. -1.
          3    1    1    2  502    0  0.17099475992E+02  0.38270782111E+02  0.79175954988E+03  0.79286835583E+03  0.00000000000E+00 0. -1.
<mgrwt>
<rscale>  0 0.50252394E+02</rscale>
<asrwt>0</asrwt>
<pdfrwt beam="2">  1        1 0.13755858E-01 0.60245151E+02</pdfrwt>
<pdfrwt beam="1">  1        3 0.16710989E+00 0.41917119E+02</pdfrwt>
<totfact> 0.55849042E+01</totfact>
</mgrwt>
</event>
<event>
 5    1  0.4149151E-003  0.1551047E+03  0.7546771E-02  0.1243325E+00
          1   -1    0    0  501    0  0.00000000000E+00  0.00000000000E+00  0.10592395606E+04  0.10592395606E+04  0.00000000000E+00 0. -1.
          1   -1    0    0  502    0 -0.00000000000E+00 -0.00000000000E+00 -0.18790595780E+03  0.18790595780E+03  0.00000000000E+00 0. -1.
         25    1    1    2    0    0 -0.12674598080E+03 -0.18927832978E+03  0.65264826446E+03  0.70247105768E+03  0.12500000000E+03 0.  0.
          1    1    1    2  501    0  0.10398116759E+02  0.92041634159E+02  0.33879989278E+03  0.35123375493E+03  0.00000000000E+00 0. -1.
          1    1    1    2  502    0  0.11634786404E+03  0.97236695620E+02 -0.12011455449E+03  0.19344070575E+03  0.00000000000E+00 0. -1.
<mgrwt>
<rscale>  0 0.11986199E+03</rscale>
<asrwt>0</asrwt>
<pdfrwt beam="1">  1        1 0.16295993E+00 0.92627119E+02</pdfrwt>
<pdfrwt beam="2">  1        1 0.28908609E-01 0.15510465E+03</pdfrwt>
<totfact> 0.29276668E+02</totfact>
</mgrwt>
</event>
<event>
 5    1  0.4149151E-003  0.4555757E+02  0.7546771E-02  0.1551907E+00
         -1   -1    0    0    0  501 -0.00000000000E+00  0.00000000000E+00  0.66306255810E+02  0.66306255810E+02  0.00000000000E+00 0.  1.
          1   -1    0    0  502    0  0.00000000000E+00 -0.00000000000E+00 -0.21069247129E+04  0.21069247129E+04  0.00000000000E+00 0. -1.
         25    1    1    2    0    0  0.88910879607E+01 -0.53684356907E+02 -0.17888851698E+03  0.22491590235E+03  0.12500000000E+03 0.  0.
          1    1    1    2  502    0 -0.23980699155E+02  0.10857625770E+02 -0.18929994224E+04  0.18931824464E+04  0.00000000000E+00 0. -1.
         -1    1    1    2    0  501  0.15089611194E+02  0.42826731137E+02  0.31269482293E+02  0.55132620007E+02  0.00000000000E+00 0.  1.
<mgrwt>
<rscale>  0 0.34630411E+02</rscale>
<asrwt>0</asrwt>
<pdfrwt beam="2">  1        1 0.32414224E+00 0.26324171E+02</pdfrwt>
<pdfrwt beam="1">  1       -1 0.10200963E-01 0.45557574E+02</pdfrwt>
<totfact> 0.20716971E+02</totfact>
</mgrwt>
</event>
<event>
 5    1  0.4149151E-003  0.3342436E+02  0.7546771E-02  0.1567767E+00
          1   -1    0    0  502    0 -0.00000000000E+00  0.00000000000E+00  0.32224255492E+03  0.32224255492E+03  0.00000000000E+00 0. -1.
          2   -1    0    0  501    0  0.00000000000E+00 -0.00000000000E+00 -0.11851666211E+04  0.11851666211E+04  0.00000000000E+00 0. -1.
         25    1    1    2    0    0  0.33926955669E+02  0.52114852207E+02  0.15052299787E+03  0.20530262792E+03  0.12500000000E+03 0.  0.
          2    1    1    2  501    0 -0.81756249086E+01 -0.32373526709E+02 -0.11557089451E+04  0.11561911831E+04  0.00000000000E+00 0. -1.
          1    1    1    2  502    0 -0.25751330760E+02 -0.19741325498E+02  0.14226188101E+03  0.14591536505E+03  0.00000000000E+00 0. -1.
<mgrwt>
<rscale>  0 0.32932392E+02</rscale>
<asrwt>0</asrwt>
<pdfrwt beam="2">  1        2 0.18233333E+00 0.33424360E+02</pdfrwt>
<pdfrwt beam="1">  1        1 0.49575777E-01 0.32447665E+02</pdfrwt>
<totfact> 0.25553490E+02</totfact>
</mgrwt>
</event>
<event>
 5    1  0.4149151E-003  0.3724389E+02  0.7546771E-02  0.1564321E+00
          2   -1    0    0  502    0  0.00000000000E+00  0.00000000000E+00  0.12546715743E+04  0.12546715743E+04  0.00000000000E+00 0.  1.
         -3   -1    0    0    0  501 -0.00000000000E+00 -0.00000000000E+00 -0.11339082292E+03  0.11339082292E+03  0.00000000000E+00 0.  1.
         25    1    1    2    0    0 -0.54856576874E+02  0.34864249331E+02  0.64861172806E+03  0.66373709681E+03  0.12500000000E+03 0.  0.
          2    1    1    2  502    0  0.28876572527E+02 -0.20352906717E+02  0.59587165577E+03  0.59691802402E+03  0.00000000000E+00 0.  1.
         -3    1    1    2    0  501  0.25980004346E+02 -0.14511342614E+02 -0.10320263241E+03  0.10740727642E+03  0.00000000000E+00 0.  1.
<mgrwt>
<rscale>  0 0.33291207E+02</rscale>
<asrwt>0</asrwt>
<pdfrwt beam="1">  1        2 0.19302639E+00 0.37243894E+02</pdfrwt>
<pdfrwt beam="2">  1       -3 0.17444743E-01 0.29758019E+02</pdfrwt>
<totfact> 0.30511732E+02</totfact>
</mgrwt>
</event>
<event>
 5    1  0.4149151E-003  0.5595697E+02  0.7546771E-02  0.1531387E+00
         -2   -1    0    0    0  501 -0.00000000000E+00  0.00000000000E+00  0.26964445609E+03  0.26964445609E+03  0.00000000000E+00 0.  1.
          1   -1    0    0  502    0  0.00000000000E+00 -0.00000000000E+00 -0.49272362990E+02  0.49272362990E+02  0.00000000000E+00 0. -1.
         25    1    1    2    0    0 -0.36381367109E+02  0.35954616187E+02  0.12177225856E+03  0.18185109638E+03  0.12500000000E+03 0.  0.
          1    1    1    2  502    0  0.23054860960E+02 -0.56498277752E+02  0.94122429981E+02  0.11217225071E+03  0.00000000000E+00 0. -1.
         -2    1    1    2    0  501  0.13326506149E+02  0.20543661564E+02  0.44774045571E+01  0.24893471999E+02  0.00000000000E+00 0.  1.
<mgrwt>
<rscale>  0 0.37016841E+02</rscale>
<asrwt>0</asrwt>
<pdfrwt beam="2">  1        1 0.75803637E-02 0.55956971E+02</pdfrwt>
<pdfrwt beam="1">  1       -2 0.41483762E-01 0.24487503E+02</pdfrwt>
<totfact> 0.39535536E+03</totfact>
</mgrwt>
</event>
<event>
 5    1  0.4149151E-003  0.2718873E+03  0.7546771E-02  0.1231642E+00
          3   -1    0    0  502    0 -0.00000000000E+00  0.00000000000E+00  0.12916386207E+03  0.12916386207E+03  0.00000000000E+00 0. -1.
          1   -1    0    0  501    0  0.00000000000E+00 -0.00000000000E+00 -0.26766087961E+04  0.26766087961E+04  0.00000000000E+00 0. -1.
         25    1    1    2    0    0 -0.24056839629E+03  0.57303029499E+02 -0.51732486768E+03  0.58686183144E+03  0.12500000000E+03 0.  0.
          1    1    1    2  501    0  0.25454245144E+03 -0.11516620615E+03 -0.21048835870E+04  0.21233440676E+04  0.00000000000E+00 0. -1.
          3    1    1    2  502    0 -0.13974055147E+02  0.57863176650E+02  0.74763520650E+02  0.95566759122E+02  0.00000000000E+00 0. -1.
<mgrwt>
<rscale>  0 0.12721847E+03</rscale>
<asrwt>0</asrwt>
<pdfrwt beam="2">  1        1 0.41178596E+00 0.27188730E+03</pdfrwt>
<pdfrwt beam="1">  1        3 0.19871364E-01 0.59526645E+02</pdfrwt>
<totfact> 0.13397889E+01</totfact>
</mgrwt>
</event>
<event>
 5    1  0.4149151E-003  0.5520192E+02  0.7546771E-02  0.1524777E+00
          2   -1    0    0  501    0  0.00000000000E+00  0.00000000000E+00  0.16808811105E+04  0.16808811105E+04  0.00000000000E+00 0. -1.
          1   -1    0    0  502    0 -0.00000000000E+00 -0.00000000000E+00 -0.28050230029E+03  0.28050230029E+03  0.00000000000E+00 0. -1.
         25    1    1    2    0    0  0.18324410331E+01  0.57859015344E+02  0.46709031342E+02  0.14545706276E+03  0.12500000000E+03 0.  0.
          2    1    1    2  501    0 -0.26087116508E+02 -0.48685173182E+02  0.15835877118E+04  0.15845506697E+04  0.00000000000E+00 0. -1.
          1    1    1    2  502    0  0.24254675475E+02 -0.91738421623E+01 -0.22991793294E+03  0.23137567839E+03  0.00000000000E+00 0. -1.
<mgrwt>
<rscale>  0 0.37834837E+02</rscale>
<asrwt>0</asrwt>
<pdfrwt beam="1">  1        2 0.25859709E+00 0.55201919E+02</pdfrwt>
<pdfrwt beam="2">  1        1 0.43154201E-01 0.25931615E+02</pdfrwt>
<totfact> 0.16281942E+02</totfact>
</mgrwt>
</event>
<event>
 5    1  0.4149151E-003  0.1668441E+03  0.7546771E-02  0.1328701E+00
          1   -1    0    0  502    0 -0.00000000000E+00  0.00000000000E+00  0.35851587476E+03  0.35851587476E+03  0.00000000000E+00 0. -1.
          2   -1    0    0  501    0  0.00000000000E+00 -0.00000000000E+00 -0.69076169395E+03  0.69076169395E+03  0.00000000000E+00 0.  1.
         25    1    1    2    0    0  0.16955659553E+03 -0.33519494188E+02 -0.17494974885E+03  0.27587209029E+03  0.12500000000E+03 0.  0.
          2    1    1    2  501    0 -0.29903636585E+01  0.38361361783E+02 -0.44191871612E+03  0.44359067620E+03  0.00000000000E+00 0.  1.
          1    1    1    2  502    0 -0.16656623187E+03 -0.48418675948E+01  0.28462264578E+03  0.32981480223E+03  0.00000000000E+00 0. -1.
<mgrwt>
<rscale>  0 0.80123557E+02</rscale>
<asrwt>0</asrwt>
<pdfrwt beam="2">  1        2 0.10627103E+00 0.38477738E+02</pdfrwt>
<pdfrwt beam="1">  1        1 0.55156290E-01 0.16684412E+03</pdfrwt>
<totfact> 0.43203010E+02</totfact>
</mgrwt>
</event>
<event>
 5    1  0.4149151E-003  0.9036343E+02  0.7546771E-02  0.1370682E+00
          1   -1    0    0  501    0  0.00000000000E+00  0.00000000000E+00  0.10328567850E+04  0.10328567850E+04  0.00000000000E+00 0. -1.
          1   -1    0    0  502    0 -0.00000000000E+00 -0.00000000000E+00 -0.19630356392E+04  0.19630356392E+04  0.00000000000E+00 0. -1.
         25    1    1    2    0    0 -0.76523504338E+01  0.13291091689E+03 -0.55984796103E+01  0.18270252672E+03  0.12500000000E+03 0.  0.
          1    1    1    2  501    0 -0.17254084334E+02 -0.46549720434E+02  0.94257048126E+03  0.94387694751E+03  0.00000000000E+00 0. -1.
          1    1    1    2  502    0  0.24906434768E+02 -0.86361196458E+02 -0.18671508558E+04  0.18693129500E+04  0.00000000000E+00 0. -1.
<mgrwt>
<rscale>  0 0.66977987E+02</rscale>
<asrwt>0</asrwt>
<pdfrwt beam="1">  1        1 0.15890105E+00 0.49644535E+02</pdfrwt>
<pdfrwt beam="2">  1        1 0.30200548E+00 0.90363435E+02</pdfrwt>
<totfact> 0.82908886E+00</totfact>
</mgrwt>
</event>
<event>
 5    1  0.4149151E-003  0.3787496E+03  0.7546771E-02  0.1051397E+00
          1   -1    0    0  502    0  0.00000000000E+00  0.00000000000E+00  0.40438349575E+03  0.40438349575E+03  0.00000000000E+00 0. -1.
         -2   -1    0    0    0  501 -0.00000000000E+00 -0.00000000000E+00 -0.88685178425E+02  0.88685178425E+02  0.00000000000E+00 0.  1.
         25    1    1    2    0    0 -0.15498084678E+03  0.26487595433E+02  0.20168660794E+03  0.28464564533E+03  0.12500000000E+03 0.  0.
          1    1    1    2  502    0  0.10523341932E+03  0.15689799847E+01  0.10831579743E+03  0.15102597860E+03  0.00000000000E+00 0. -1.
         -2    1    1    2    0  501  0.49747427462E+02 -0.28056575418E+02  0.56959119512E+01  0.57397050239E+02  0.00000000000E+00 0.  1.
<mgrwt>
<rscale>  0 0.37874964E+03</rscale>
<asrwt>0</asrwt>
<pdfrwt beam="1">  1        1 0.62212845E-01 0.37874964E+03</pdfrwt>
<pdfrwt beam="2">  1       -2 0.13643874E-01 0.37874964E+03</pdfrwt>
<totfact> 0.21116619E+03</totfact>
</mgrwt>
</event>
<event>
 5    1  0.4149151E-003  0.1042838E+03  0.7546771E-02  0.1305597E+00
          1   -1    0    0  502    0  0.00000000000E+00  0.00000000000E+00  0.88380825515E+03  0.88380825515E+03  0.00000000000E+00 0. -1.
         -1   -1    0    0    0  501 -0.00000000000E+00 -0.00000000000E+00 -0.42347039497E+03  0.42347039497E+03  0.00000000000E+00 0.  1.
         25    1    1    2    0    0  0.12041225716E+03  0.69559964627E+02 -0.13603208051E+03  0.23123024733E+03  0.12500000000E+03 0.  0.
          1    1    1    2  502    0 -0.73347391809E+02  0.18904352971E+02  0.82392923934E+03  0.82740353267E+03  0.00000000000E+00 0. -1.
         -1    1    1    2    0  501 -0.47064865350E+02 -0.88464317598E+02 -0.22755929865E+03  0.24864487012E+03  0.00000000000E+00 0.  1.
<mgrwt>
<rscale>  0 0.88875827E+02</rscale>
<asrwt>0</asrwt>
<pdfrwt beam="1">  1        1 0.13597050E+00 0.75744402E+02</pdfrwt>
<pdfrwt beam="2">  1       -1 0.65149292E-01 0.10428378E+03</pdfrwt>
<totfact> 0.54044619E+01</totfact>
</mgrwt>
</event>
<event>
 5    1  0.4149151E-003  0.2112909E+03  0.7546771E-02  0.1228396E+00
          2   -1    0    0  502    0  0.00000000000E+00  0.00000000000E+00  0.53160232677E+03  0.53160232677E+03  0.00000000000E+00 0. -1.
          2   -1    0    0  501    0 -0.00000000000E+00 -0.00000000000E+00 -0.30541779237E+04  0.30541779237E+04  0.00000000000E+00 0. -1.
         25    1    1    2    0    0  0.45781249107E+02 -0.13840085207E+03 -0.17832586814E+03  0.26206074462E+03  0.12500000000E+03 0.  0.
          2    1    1    2  501    0  0.57494280967E+02 -0.54483805919E+02 -0.28089615834E+04  0.28100781581E+04  0.00000000000E+00 0. -1.
          2    1    1    2  502    0 -0.10327553007E+03  0.19288465799E+03  0.46471185458E+03  0.51364134781E+03  0.00000000000E+00 0. -1.
<mgrwt>
<rscale>  0 0.12936829E+03</rscale>
<asrwt>0</asrwt>
<pdfrwt beam="1">  1        2 0.81784974E-01 0.21129088E+03</pdfrwt>
<pdfrwt beam="2">  1        2 0.46987352E+00 0.79209074E+02</pdfrwt>
<totfact> 0.21381113E+01</totfact>
</mgrwt>
</event>
<event>
 5    1  0.4149151E-003  0.1113147E+03  0.7546771E-02  0.1418312E+00
          2   -1    0    0  502    0  0.00000000000E+00  0.00000000000E+00  0.12067742592E+04  0.12067742592E+04  0.00000000000E+00 0. -1.
          2   -1    0    0  501    0 -0.00000000000E+00 -0.00000000000E+00 -0.15401910566E+03  0.15401910566E+03  0.00000000000E+00 0. -1.
         25    1    1    2    0    0 -0.89441430868E+02 -0.10021727659E+03 -0.53562019767E+02  0.19114696452E+03  0.12500000000E+03 0.  0.
          2    1    1    2  501    0  0.64321529637E+01  0.26790338886E+02 -0.22395722497E+02  0.35505819742E+02  0.00000000000E+00 0. -1.
          2    1    1    2  502    0  0.83009277904E+02  0.73426937700E+02  0.11287128958E+04  0.11341405806E+04  0.00000000000E+00 0. -1.
<mgrwt>
<rscale>  0 0.55379648E+02</rscale>
<asrwt>0</asrwt>
<pdfrwt beam="1">  1        2 0.18565757E+00 0.11131466E+03</pdfrwt>
<pdfrwt beam="2">  1        2 0.23695248E-01 0.27551676E+02</pdfrwt>
<totfact> 0.68618208E+02</totfact>
</mgrwt>
</event>
<event>
 5    1  0.4149151E-003  0.1037771E+03  0.7546771E-02  0.1460006E+00
          2   -1    0    0  502    0  0.00000000000E+00  0.00000000000E+00  0.99415395245E+02  0.99415395245E+02  0.00000000000E+00 0.  1.
         -1   -1    0    0    0  501 -0.00000000000E+00 -0.00000000000E+00 -0.43904785967E+03  0.43904785967E+03  0.00000000000E+00 0.  1.
         25    1    1    2    0    0  0.64253969537E+02  0.59558040052E+02 -0.35175605078E+03  0.38344889099E+03  0.12500000000E+03 0.  0.
          2    1    1    2  502    0 -0.85830720086E+02 -0.61101870155E+02  0.45885725713E+02  0.11491671276E+03  0.00000000000E+00 0.  1.
         -1    1    1    2    0  501  0.21576750549E+02  0.15438301034E+01 -0.33762139356E+02  0.40097651172E+02  0.00000000000E+00 0.  1.
<mgrwt>
<rscale>  0 0.47380341E+02</rscale>
<asrwt>0</asrwt>
<pdfrwt beam="1">  1        2 0.15294676E-01 0.10377709E+03</pdfrwt>
<pdfrwt beam="2">  1       -1 0.67545825E-01 0.21631911E+02</pdfrwt>
<totfact> 0.10087967E+03</totfact>
</mgrwt>
</event>
<event>
 5    1  0.4149151E-003  0.8390628E+02  0.7546771E-02  0.1472402E+00
          2   -1    0    0  502    0  0.00000000000E+00  0.00000000000E+00  0.12605364730E+04  0.12605364730E+04  0.00000000000E+00 0.  1.
          2   -1    0    0  501    0 -0.00000000000E+00 -0.00000000000E+00 -0.15845454157E+03  0.15845454157E+03  0.00000000000E+00 0.  1.
         25    1    1    2    0    0  0.49868999862E+02 -0.78761618973E+02 -0.76224253031E+02  0.17356683589E+03  0.12500000000E+03 0.  0.
          2    1    1    2  501    0 -0.53524677459E+02  0.54566059947E+02  0.10258928454E+02  0.77120630237E+02  0.00000000000E+00 0.  1.
          2    1    1    2  502    0  0.36556775971E+01  0.24195559027E+02  0.11680472560E+04  0.11683035485E+04  0.00000000000E+00 0.  1.
<mgrwt>
<rscale>  0 0.45312256E+02</rscale>
<asrwt>0</asrwt>
<pdfrwt beam="1">  1        2 0.19392868E+00 0.24470167E+02</pdfrwt>
<pdfrwt beam="2">  1        2 0.24377623E-01 0.83906277E+02</pdfrwt>
<totfact> 0.72420764E+02</totfact>
</mgrwt>
</event>
<event>
 5    1  0.4149151E-003  0.4262414E+02  0.7546771E-02  0.1565108E+00
         -1   -1    0    0    0  501 -0.00000000000E+00  0.00000000000E+00  0.77115180818E+01  0.77115180818E+01  0.00000000000E+00 0.  1.
          2   -1    0    0  502    0  0.00000000000E+00 -0.00000000000E+00 -0.22723159392E+04  0.22723159392E+04  0.00000000000E+00 0. -1.
         25    1    1    2    0    0 -0.55885943129E+02 -0.12060527374E+02 -0.79406931828E+03  0.80587826450E+03  0.12500000000E+03 0.  0.
          2    1    1    2  502    0  0.41082958108E+02 -0.91594791402E+01 -0.13590314696E+04  0.13596831399E+04  0.00000000000E+00 0. -1.
         -1    1    1    2    0  501  0.14802985020E+02  0.21220006514E+02 -0.11150363322E+03  0.11446605289E+03  0.00000000000E+00 0.  1.
<mgrwt>
<rscale>  0 0.33208709E+02</rscale>
<asrwt>0</asrwt>
<pdfrwt beam="2">  1        2 0.34958700E+00 0.42624138E+02</pdfrwt>
<pdfrwt beam="1">  1       -1 0.11863876E-02 0.25873095E+02</pdfrwt>
<totfact> 0.76500208E+03</totfact>
</mgrwt>
</event>
<event>
 5    1  0.4149151E-003  0.1721974E+03  0.7546771E-02  0.1183184E+00
          1   -1    0    0  501    0  0.00000000000E+00  0.00000000000E+00  0.19268151528E+04  0.19268151528E+04  0.00000000000E+00 0. -1.
          1   -1    0    0  502    0 -0.00000000000E+00 -0.00000000000E+00 -0.25777338994E+03  0.25777338994E+03  0.00000000000E+00 0. -1.
         25    1    1    2    0    0  0.50132807367E+02  0.13431877956E+01  0.17508294022E+03  0.22089395303E+03  0.12500000000E+03 0.  0.
          1    1    1    2  501    0  0.20596205061E+02 -0.17096119533E+03  0.16878139769E+04  0.16965753607E+04  0.00000000000E+00 0. -1.
          1    1    1    2  502    0 -0.70729012428E+02  0.16961800754E+03 -0.19385515425E+03  0.26711922902E+03  0.00000000000E+00 0. -1.
<mgrwt>
<rscale>  0 0.16498181E+03</rscale>
<asrwt>0</asrwt>
<pdfrwt beam="1">  1        1 0.29643309E+00 0.17219737E+03</pdfrwt>
<pdfrwt beam="2">  1        1 0.39657446E-01 0.15806860E+03</pdfrwt>
<totfact> 0.50430771E+01</totfact>
</mgrwt>
</event>
<event>
 5    1  0.4149151E-003  0.9033877E+02  0.7546771E-02  0.1386804E+00
          1   -1    0    0  502    0  0.00000000000E+00  0.00000000000E+00  0.25710046809E+04  0.25710046809E+04  0.00000000000E+00 0. -1.
         -3   -1    0    0    0  501 -0.00000000000E+00 -0.00000000000E+00 -0.28868387651E+03  0.28868387651E+03  0.00000000000E+00 0.  1.
         25    1    1    2    0    0  0.49918850461E+02 -0.42124074835E+02  0.63999745940E+03  0.65535339882E+03  0.12500000000E+03 0.  0.
          1    1    1    2  502    0 -0.90870168478E+02  0.27366732518E+02  0.19204647731E+04  0.19228081730E+04  0.00000000000E+00 0. -1.
         -3    1    1    2    0  501  0.40951318017E+02  0.14757342317E+02 -0.27814142807E+03  0.28152698558E+03  0.00000000000E+00 0.  1.
<mgrwt>
<rscale>  0 0.62708632E+02</rscale>
<asrwt>0</asrwt>
<pdfrwt beam="1">  1        1 0.39553917E+00 0.90338766E+02</pdfrwt>
<pdfrwt beam="2">  1       -3 0.44412906E-01 0.43529181E+02</pdfrwt>
<totfact> 0.41917826E+00</totfact>
</mgrwt>
</event>
<event>
 5    1  0.4149151E-003  0.8382888E+02  0.7546771E-02  0.1413038E+00
         -3   -1    0    0    0  502 -0.00000000000E+00  0.00000000000E+00  0.31308477076E+03  0.31308477076E+03  0.00000000000E+00 0.  1.
         -2   -1    0    0    0  501  0.00000000000E+00 -0.00000000000E+00 -0.15308349935E+03  0.15308349935E+03  0.00000000000E+00 0.  1.
         25    1    1    2    0    0  0.75205556027E+02 -0.46515995149E+02  0.74183309059E+02  0.17014046199E+03  0.12500000000E+03 0.  0.
         -2    1    1    2    0  501 -0.45765002012E+02  0.70714795595E+02 -0.85796233345E+02  0.12023315425E+03  0.00000000000E+00 0.  1.
         -3    1    1    2    0  502 -0.29440554015E+02 -0.24198800446E+02  0.17161419570E+03  0.17579465387E+03  0.00000000000E+00 0.  1.
<mgrwt>
<rscale>  0 0.56521414E+02</rscale>
<asrwt>0</asrwt>
<pdfrwt beam="2">  1       -2 0.23551308E-01 0.83828878E+02</pdfrwt>
<pdfrwt beam="1">  1       -3 0.48166888E-01 0.38109424E+02</pdfrwt>
<totfact> 0.23835818E+02</totfact>
</mgrwt>
</event>
<event>
 5    1  0.4149151E-003  0.6067592E+02  0.7546771E-02  0.1396143E+00
          2   -1    0    0  502    0  0.00000000000E+00  0.00000000000E+00  0.23167073022E+04  0.23167073022E+04  0.00000000000E+00 0. -1.
         -1   -1    0    0    0  501 -0.00000000000E+00 -0.00000000000E+00 -0.17047670791E+02  0.17047670791E+02  0.00000000000E+00 0. -1.
         25    1    1    2    0    0  0.13250944563E+02 -0.15603735220E+02  0.49024224975E+03  0.50634131524E+03  0.12500000000E+03 0.  0.
          2    1    1    2  502    0  0.60579469363E+02  0.34198296479E+01  0.16520237347E+04  0.16531376190E+04  0.00000000000E+00 0. -1.
         -1    1    1    2    0  501 -0.73830413926E+02  0.12183905572E+02  0.15739364691E+03  0.17427603869E+03  0.00000000000E+00 0. -1.
<mgrwt>
<rscale>  0 0.60404304E+02</rscale>
<asrwt>0</asrwt>
<pdfrwt beam="1">  1        2 0.35641626E+00 0.60675921E+02</pdfrwt>
<pdfrwt beam="2">  1       -1 0.26227204E-02 0.60133903E+02</pdfrwt>
<totfact> 0.26696754E+03</totfact>
</mgrwt>
</event>
<event>
 5    1  0.4149151E-003  0.9283871E+02  0.7546771E-02  0.1444599E+00
          1   -1    0    0  502    0  0.00000000000E+00  0.00000000000E+00  0.16829981517E+03  0.16829981517E+03  0.00000000000E+00 0. -1.
         -1   -1    0    0    0  501 -0.00000000000E+00 -0.00000000000E+00 -0.37269318848E+03  0.37269318848E+03  0.00000000000E+00 0.  1.
         25    1    1    2    0    0 -0.10547513074E+03  0.40495913838E+02 -0.17015184639E+03  0.23946100533E+03  0.12500000000E+03 0.  0.
          1    1    1    2  502    0  0.23410906354E+02 -0.13605219450E+02  0.12094314774E+03  0.12393715149E+03  0.00000000000E+00 0. -1.
         -1    1    1    2    0  501  0.82064224391E+02 -0.26890694388E+02 -0.15518467466E+03  0.17759484683E+03  0.00000000000E+00 0.  1.
<mgrwt>
<rscale>  0 0.50137895E+02</rscale>
<asrwt>0</asrwt>
<pdfrwt beam="1">  1        1 0.25892279E-01 0.27077159E+02</pdfrwt>
<pdfrwt beam="2">  1       -1 0.57337413E-01 0.92838711E+02</pdfrwt>
<totfact> 0.55638730E+02</totfact>
</mgrwt>
</event>
<event>
 5    1  0.4149151E-003  0.3994565E+02  0.7546771E-02  0.1521280E+00
          1   -1    0    0  502    0 -0.00000000000E+00  0.00000000000E+00  0.83108143026E+03  0.83108143026E+03  0.00000000000E+00 0. -1.
          2   -1    0    0  501    0  0.00000000000E+00 -0.00000000000E+00 -0.26094425330E+03  0.26094425330E+03  0.00000000000E+00 0. -1.
         25    1    1    2    0    0 -0.30473057836E+01  0.59361036852E+02 -0.96787054503E+01  0.13875048147E+03  0.12500000000E+03 0.  0.
          2    1    1    2  501    0  0.25531992812E+02 -0.30380740879E+02 -0.18417618159E+03  0.18840312614E+03  0.00000000000E+00 0. -1.
          1    1    1    2  502    0 -0.22484687028E+02 -0.28980295974E+02  0.76399206401E+03  0.76487207595E+03  0.00000000000E+00 0. -1.
<mgrwt>
<rscale>  0 0.38277988E+02</rscale>
<asrwt>0</asrwt>
<pdfrwt beam="2">  1        2 0.40145270E-01 0.39945647E+02</pdfrwt>
<pdfrwt beam="1">  1        1 0.12785868E+00 0.36679950E+02</pdfrwt>
<totfact> 0.40867427E+02</totfact>
</mgrwt>
</event>
<event>
 5    1  0.4149151E-003  0.3830971E+02  0.7546771E-02  0.1557664E+00
         -1   -1    0    0    0  501 -0.00000000000E+00  0.00000000000E+00  0.15072878930E+04  0.15072878930E+04  0.00000000000E+00 0.  1.
          2   -1    0    0  502    0  0.00000000000E+00 -0.00000000000E+00 -0.20778801322E+04  0.20778801322E+04  0.00000000000E+00 0. -1.
         25    1    1    2    0    0  0.71337140489E+01 -0.19494924154E+02  0.53550521324E+03  0.55029244530E+03  0.12500000000E+03 0.  0.
          2    1    1    2  502    0 -0.25941128457E+02 -0.15414311745E+02 -0.20699688962E+04  0.20701888258E+04  0.00000000000E+00 0. -1.
         -1    1    1    2    0  501  0.18807414408E+02  0.34909235900E+02  0.96387144376E+03  0.96468675418E+03  0.00000000000E+00 0.  1.
<mgrwt>
<rscale>  0 0.34000052E+02</rscale>
<asrwt>0</asrwt>
<pdfrwt beam="2">  1        2 0.31967386E+00 0.30175208E+02</pdfrwt>
<pdfrwt beam="1">  1       -1 0.23189045E+00 0.38309712E+02</pdfrwt>
<totfact> 0.12687612E+00</totfact>
</mgrwt>
</event>
<event>
 5    1  0.4149151E-003  0.1456496E+03  0.7546771E-02  0.1289850E+00
         -2   -1    0    0    0  501  0.00000000000E+00  0.00000000000E+00  0.10995097199E+04  0.10995097199E+04  0.00000000000E+00 0.  1.
         -3   -1    0    0    0  502 -0.00000000000E+00 -0.00000000000E+00 -0.78494998888E+02  0.78494998888E+02  0.00000000000E+00 0.  1.
         25    1    1    2    0    0 -0.45216017226E+01  0.18512579934E+03  0.31481014410E+03  0.38603423850E+03  0.12500000000E+03 0.  0.
         -2    1    1    2    0  501  0.32528210613E+02 -0.53646096608E+02  0.63827836265E+03  0.64135423628E+03  0.00000000000E+00 0.  1.
         -3    1    1    2    0  502 -0.28006608890E+02 -0.13147970273E+03  0.67926214238E+02  0.15061624399E+03  0.00000000000E+00 0.  1.
<mgrwt>
<rscale>  0 0.95591252E+02</rscale>
<asrwt>0</asrwt>
<pdfrwt beam="1">  1       -2 0.16915533E+00 0.62737454E+02</pdfrwt>
<pdfrwt beam="2">  1       -3 0.12076154E-01 0.14564964E+03</pdfrwt>
<totfact> 0.52451360E+01</totfact>
</mgrwt>
</event>
<event>
 5    1  0.4149151E-003  0.8272598E+02  0.7546771E-02  0.1432571E+00
         -1   -1    0    0    0  501  0.00000000000E+00  0.00000000000E+00  0.22284252216E+03  0.22284252216E+03  0.00000000000E+00 0.  1.
         -3   -1    0    0    0  502 -0.00000000000E+00 -0.00000000000E+00 -0.18868372423E+04  0.18868372423E+04  0.00000000000E+00 0.  1.
         25    1    1    2    0    0  0.83215165946E+02 -0.64966725407E+02 -0.58915627728E+02  0.17390080634E+03  0.12500000000E+03 0.  0.
         -1    1    1    2    0  501 -0.73978623864E+02  0.33024277649E+02  0.15525993544E+03  0.17512591829E+03  0.00000000000E+00 0.  1.
         -3    1    1    2    0  502 -0.92365420816E+01  0.31942447758E+02 -0.17603390279E+04  0.17606530399E+04  0.00000000000E+00 0.  1.
<mgrwt>
<rscale>  0 0.52447376E+02</rscale>
<asrwt>0</asrwt>
<pdfrwt beam="1">  1       -1 0.34283465E-01 0.82725975E+02</pdfrwt>
<pdfrwt beam="2">  1       -3 0.29028266E+00 0.33251070E+02</pdfrwt>
<totfact> 0.21017577E+00</totfact>
</mgrwt>
</event>
<event>
 5    1  0.4149151E-003  0.7228602E+02  0.7546771E-02  0.1352624E+00
          2   -1    0    0  501    0  0.00000000000E+00  0.00000000000E+00  0.63690913222E+03  0.63690913222E+03  0.00000000000E+00 0. -1.
          2   -1    0    0  502    0 -0.00000000000E+00 -0.00000000000E+00 -0.14494759986E+04  0.14494759986E+04  0.00000000000E+00 0. -1.
         25    1    1    2    0    0  0.36953564742E+02 -0.81547600393E+02 -0.56439677780E+02  0.16378648999E+03  0.12500000000E+03 0.  0.
          2    1    1    2  501    0 -0.70169225902E+02  0.17012913001E+02  0.58001241041E+03  0.58448914079E+03  0.00000000000E+00 0. -1.
          2    1    1    2  502    0  0.33215661160E+02  0.64534687392E+02 -0.13361395990E+04  0.13381095000E+04  0.00000000000E+00 0. -1.
<mgrwt>
<rscale>  0 0.72244104E+02</rscale>
<asrwt>0</asrwt>
<pdfrwt beam="1">  1        2 0.97986022E-01 0.72202212E+02</pdfrwt>
<pdfrwt beam="2">  1        2 0.22299630E+00 0.72286020E+02</pdfrwt>
<totfact> 0.12212017E+02</totfact>
</mgrwt>
</event>
<event>
 5    1  0.4149151E-003  0.3436044E+02  0.7546771E-02  0.1599779E+00
          2   -1    0    0  502    0  0.00000000000E+00  0.00000000000E+00  0.64989833783E+03  0.64989833783E+03  0.00000000000E+00 0. -1.
         -2   -1    0    0    0  501 -0.00000000000E+00 -0.00000000000E+00 -0.21473267238E+02  0.21473267238E+02  0.00000000000E+00 0.  1.
         25    1    1    2    0    0  0.14388589562E+02  0.44998616748E+02  0.34095455324E+03  0.36620610917E+03  0.12500000000E+03 0.  0.
          2    1    1    2  502    0  0.84700816588E+01 -0.32762678452E+02  0.27374571271E+03  0.27582938677E+03  0.00000000000E+00 0. -1.
         -2    1    1    2    0  501 -0.22858671220E+02 -0.12235938297E+02  0.13724804643E+02  0.29336109123E+02  0.00000000000E+00 0.  1.
<mgrwt>
<rscale>  0 0.29847639E+02</rscale>
<asrwt>0</asrwt>
<pdfrwt beam="1">  1        2 0.99984345E-01 0.34360443E+02</pdfrwt>
<pdfrwt beam="2">  1       -2 0.33035801E-02 0.25927534E+02</pdfrwt>
<totfact> 0.13361206E+04</totfact>
</mgrwt>
</event>
<event>
 5    1  0.4149151E-003  0.3916566E+02  0.7546771E-02  0.1585286E+00
          2   -1    0    0  502    0  0.00000000000E+00  0.00000000000E+00  0.84637879931E+02  0.84637879931E+02  0.00000000000E+00 0. -1.
         -1   -1    0    0    0  501 -0.00000000000E+00 -0.00000000000E+00 -0.18874293186E+03  0.18874293186E+03  0.00000000000E+00 0.  1.
         25    1    1    2    0    0 -0.49196508030E+02  0.84233315601E+00 -0.80008753795E+00  0.13433780580E+03  0.12500000000E+03 0.  0.
          2    1    1    2  502    0  0.32247603489E+02 -0.19001436921E+02 -0.51360086481E+01  0.37780168352E+02  0.00000000000E+00 0. -1.
         -1    1    1    2    0  501  0.16948904541E+02  0.18159103765E+02 -0.98168955744E+02  0.10126283764E+03  0.00000000000E+00 0.  1.
<mgrwt>
<rscale>  0 0.31190853E+02</rscale>
<asrwt>0</asrwt>
<pdfrwt beam="1">  1        2 0.13021213E-01 0.39165659E+02</pdfrwt>
<pdfrwt beam="2">  1       -1 0.29037373E-01 0.24839855E+02</pdfrwt>
<totfact> 0.48334764E+03</totfact>
</mgrwt>
</event>
<event>
 5    1  0.4149151E-003  0.1220399E+03  0.7546771E-02  0.1253225E+00
          2   -1    0    0  501    0  0.00000000000E+00  0.00000000000E+00  0.12012876540E+04  0.12012876540E+04  0.00000000000E+00 0. -1.
          2   -1    0    0  502    0 -0.00000000000E+00 -0.00000000000E+00 -0.90800720129E+03  0.90800720129E+03  0.00000000000E+00 0. -1.
         25    1    1    2    0    0 -0.61197504148E+02  0.31142206596E+02  0.77749547899E+03  0.79046770420E+03  0.12500000000E+03 0.  0.
          2    1    1    2  501    0  0.55174482328E+02  0.91219514131E+02  0.40623421606E+03  0.41998983507E+03  0.00000000000E+00 0. -1.
          2    1    1    2  502    0  0.60230218203E+01 -0.12236172073E+03 -0.89044924233E+03  0.89883731602E+03  0.00000000000E+00 0. -1.
<mgrwt>
<rscale>  0 0.11406317E+03</rscale>
<asrwt>0</asrwt>
<pdfrwt beam="1">  1        2 0.18481349E+00 0.10660780E+03</pdfrwt>
<pdfrwt beam="2">  1        2 0.13969342E+00 0.12203990E+03</pdfrwt>
<totfact> 0.10272606E+02</totfact>
</mgrwt>
</event>
<event>
 5    1  0.4149151E-003  0.1215386E+03  0.7546771E-02  0.1331039E+00
          2   -1    0    0  501    0  0.00000000000E+00  0.00000000000E+00  0.15227714859E+04  0.15227714859E+04  0.00000000000E+00 0. -1.
          2   -1    0    0  502    0 -0.00000000000E+00 -0.00000000000E+00 -0.17109539737E+04  0.17109539737E+04  0.00000000000E+00 0. -1.
         25    1    1    2    0    0  0.48540367777E+02 -0.15136022009E+03 -0.13511151681E+03  0.24319992908E+03  0.12500000000E+03 0.  0.
          2    1    1    2  501    0 -0.66908533076E+01  0.12092636516E+03  0.14657892214E+04  0.14707841428E+04  0.00000000000E+00 0. -1.
          2    1    1    2  502    0 -0.41849514469E+02  0.30433854922E+02 -0.15188601924E+04  0.15197413877E+04  0.00000000000E+00 0. -1.
<mgrwt>
<rscale>  0 0.79303714E+02</rscale>
<asrwt>0</asrwt>
<pdfrwt beam="1">  1        2 0.23427254E+00 0.12153856E+03</pdfrwt>
<pdfrwt beam="2">  1        2 0.26322369E+00 0.51745545E+02</pdfrwt>
<totfact> 0.27225217E+01</totfact>
</mgrwt>
</event>
<event>
 5    1  0.4149151E-003  0.1019164E+03  0.7546771E-02  0.1438351E+00
          1   -1    0    0  502    0  0.00000000000E+00  0.00000000000E+00  0.21193495569E+03  0.21193495569E+03  0.00000000000E+00 0. -1.
         -2   -1    0    0    0  501 -0.00000000000E+00 -0.00000000000E+00 -0.22694737025E+03  0.22694737025E+03  0.00000000000E+00 0.  1.
         25    1    1    2    0    0  0.11057001300E+03  0.42509779628E+02  0.14414805455E+03  0.22458065537E+03  0.12500000000E+03 0.  0.
          1    1    1    2  502    0 -0.11738844301E+02 -0.23021710007E+02  0.11799597873E+00  0.25842088155E+02  0.00000000000E+00 0. -1.
         -2    1    1    2    0  501 -0.98831168702E+02 -0.19488069621E+02 -0.15927846508E+03  0.18845958241E+03  0.00000000000E+00 0.  1.
<mgrwt>
<rscale>  0 0.51319626E+02</rscale>
<asrwt>0</asrwt>
<pdfrwt beam="1">  1        1 0.32605378E-01 0.25841819E+02</pdfrwt>
<pdfrwt beam="2">  1       -2 0.34914980E-01 0.10191636E+03</pdfrwt>
<totfact> 0.87907921E+02</totfact>
</mgrwt>
</event>
<event>
 5    1  0.4149151E-003  0.7854847E+02  0.7546771E-02  0.1393362E+00
         -1   -1    0    0    0  501 -0.00000000000E+00  0.00000000000E+00  0.36466924137E+02  0.36466924137E+02  0.00000000000E+00 0.  1.
          2   -1    0    0  502    0  0.00000000000E+00 -0.00000000000E+00 -0.59576247045E+03  0.59576247045E+03  0.00000000000E+00 0. -1.
         25    1    1    2    0    0 -0.95730962771E+02  0.37367025725E+02 -0.36042766834E+03  0.39508709919E+03  0.12500000000E+03 0.  0.
          2    1    1    2  502    0  0.70546801777E+02  0.28995151097E+01 -0.16297211998E+03  0.17760960087E+03  0.00000000000E+00 0. -1.
         -1    1    1    2    0  501  0.25184160994E+02 -0.40266540835E+02 -0.35895757994E+02  0.59532694528E+02  0.00000000000E+00 0.  1.
<mgrwt>
<rscale>  0 0.61078185E+02</rscale>
<asrwt>0</asrwt>
<pdfrwt beam="2">  1        2 0.91655762E-01 0.78548467E+02</pdfrwt>
<pdfrwt beam="1">  1       -1 0.56102962E-02 0.47493539E+02</pdfrwt>
<totfact> 0.75231825E+03</totfact>
</mgrwt>
</event>
<event>
 5    1  0.4149151E-003  0.7527954E+02  0.7546771E-02  0.1368391E+00
          1   -1    0    0  502    0 -0.00000000000E+00  0.00000000000E+00  0.65809159345E+03  0.65809159345E+03  0.00000000000E+00 0. -1.
          2   -1    0    0  501    0  0.00000000000E+00 -0.00000000000E+00 -0.15081821691E+04  0.15081821691E+04  0.00000000000E+00 0. -1.
         25    1    1    2    0    0 -0.94912065696E+02  0.45547328327E+02 -0.45502040527E+03  0.48347846751E+03  0.12500000000E+03 0.  0.
          2    1    1    2  501    0  0.37068477045E+02 -0.64059841015E+02 -0.10361776381E+04  0.10388175167E+04  0.00000000000E+00 0. -1.
          1    1    1    2  502    0  0.57843588651E+02  0.18512512688E+02  0.64110746772E+03  0.64397777837E+03  0.00000000000E+00 0. -1.
<mgrwt>
<rscale>  0 0.67616654E+02</rscale>
<asrwt>0</asrwt>
<pdfrwt beam="2">  1        2 0.23202803E+00 0.75279536E+02</pdfrwt>
<pdfrwt beam="1">  1        1 0.10124486E+00 0.60733795E+02</pdfrwt>
<totfact> 0.67118411E+01</totfact>
</mgrwt>
</event>
<event>
 5    1  0.4149151E-003  0.1176409E+03  0.7546771E-02  0.1360932E+00
          2   -1    0    0  501    0  0.00000000000E+00  0.00000000000E+00  0.58531588148E+03  0.58531588148E+03  0.00000000000E+00 0. -1.
          2   -1    0    0  502    0 -0.00000000000E+00 -0.00000000000E+00 -0.86021571167E+03  0.86021571167E+03  0.00000000000E+00 0.  1.
         25    1    1    2    0    0 -0.86645162917E+02  0.98679380330E+02 -0.63396154138E+03  0.65937640260E+03  0.12500000000E+03 0.  0.
          2    1    1    2  501    0 -0.22052066403E+01 -0.41301015171E+02  0.55870072384E+03  0.56022953832E+03  0.00000000000E+00 0. -1.
          2    1    1    2  502    0  0.88850369557E+02 -0.57378365159E+02 -0.19963901265E+03  0.22592565222E+03  0.00000000000E+00 0.  1.
<mgrwt>
<rscale>  0 0.69753911E+02</rscale>
<asrwt>0</asrwt>
<pdfrwt beam="1">  1        2 0.90048597E-01 0.41359845E+02</pdfrwt>
<pdfrwt beam="2">  1        2 0.13234088E+00 0.11764087E+03</pdfrwt>
<totfact> 0.28117878E+02</totfact>
</mgrwt>
</event>
<event>
 5    1  0.4149151E-003  0.7114523E+02  0.7546771E-02  0.1391488E+00
          1   -1    0    0  502    0  0.00000000000E+00  0.00000000000E+00  0.12588263582E+04  0.12588263582E+04  0.00000000000E+00 0. -1.
         -2   -1    0    0    0  501 -0.00000000000E+00 -0.00000000000E+00 -0.22185600851E+02  0.22185600851E+02  0.00000000000E+00 0.  1.
         25    1    1    2    0    0 -0.83408187755E+02 -0.68661892791E+02  0.39042808949E+03  0.42394631071E+03  0.12500000000E+03 0.  0.
          1    1    1    2  502    0  0.44476804807E+02  0.29241819703E+02  0.67535931243E+03  0.67745366710E+03  0.00000000000E+00 0. -1.
         -2    1    1    2    0  501  0.38931382949E+02  0.39420073088E+02  0.17085335541E+03  0.17961198121E+03  0.00000000000E+00 0.  1.
<mgrwt>
<rscale>  0 0.61538214E+02</rscale>
<asrwt>0</asrwt>
<pdfrwt beam="1">  1        1 0.19366554E+00 0.53228472E+02</pdfrwt>
<pdfrwt beam="2">  1       -2 0.34131703E-02 0.71145230E+02</pdfrwt>
<totfact> 0.31740291E+03</totfact>
</mgrwt>
</event>
<event>
 5    1  0.4149151E-003  0.1108617E+03  0.7546771E-02  0.1304242E+00
          2   -1    0    0  502    0  0.00000000000E+00  0.00000000000E+00  0.19504488554E+04  0.19504488554E+04  0.00000000000E+00 0. -1.
         -1   -1    0    0    0  501 -0.00000000000E+00 -0.00000000000E+00 -0.26312757357E+04  0.26312757357E+04  0.00000000000E+00 0.  1.
         25    1    1    2    0    0  0.11154644660E+02 -0.45326393171E+02  0.22639883554E+03  0.26279334229E+03  0.12500000000E+03 0.  0.
          2    1    1    2  502    0 -0.12562415590E+02  0.11745171190E+03  0.17033090642E+04  0.17073999201E+04  0.00000000000E+00 0. -1.
         -1    1    1    2    0  501  0.14077709302E+01 -0.72125318733E+02 -0.26105347800E+04  0.26115313288E+04  0.00000000000E+00 0.  1.
<mgrwt>
<rscale>  0 0.89428517E+02</rscale>
<asrwt>0</asrwt>
<pdfrwt beam="1">  1        2 0.30006905E+00 0.11086172E+03</pdfrwt>
<pdfrwt beam="2">  1       -1 0.40481165E+00 0.72139056E+02</pdfrwt>
<totfact> 0.10096171E-01</totfact>
</mgrwt>
</event>
<event>
 5    1  0.4149151E-003  0.4733284E+02  0.7546771E-02  0.1544700E+00
          1   -1    0    0  501    0  0.00000000000E+00  0.00000000000E+00  0.76202762017E+03  0.76202762017E+03  0.00000000000E+00 0. -1.
          3   -1    0    0  502    0 -0.00000000000E+00 -0.00000000000E+00 -0.21288741592E+02  0.21288741592E+02  0.00000000000E+00 0. -1.
         25    1    1    2    0    0  0.40938343797E+02 -0.23377524961E+02  0.40420079530E+03  0.42570616579E+03  0.12500000000E+03 0.  0.
          1    1    1    2  501    0 -0.18276271561E+02 -0.19244664307E+02  0.28777028121E+03  0.28899154651E+03  0.00000000000E+00 0. -1.
          3    1    1    2  502    0 -0.22662072236E+02  0.42622189268E+02  0.48767802062E+02  0.68618649462E+02  0.00000000000E+00 0. -1.
<mgrwt>
<rscale>  0 0.35443199E+02</rscale>
<asrwt>0</asrwt>
<pdfrwt beam="1">  1        1 0.11723500E+00 0.26540143E+02</pdfrwt>
<pdfrwt beam="2">  1        3 0.32751916E-02 0.47332840E+02</pdfrwt>
<totfact> 0.52810478E+03</totfact>
</mgrwt>
</event>
<event>
 5    1  0.4149151E-003  0.3251761E+03  0.7546771E-02  0.1204931E+00
          2   -1    0    0  502    0  0.00000000000E+00  0.00000000000E+00  0.16988699021E+04  0.16988699021E+04  0.00000000000E+00 0. -1.
          2   -1    0    0  501    0 -0.00000000000E+00 -0.00000000000E+00 -0.16130640981E+04  0.16130640981E+04  0.00000000000E+00 0. -1.
         25    1    1    2    0    0  0.15118952781E+03  0.34342977476E+03  0.33437710799E+03  0.51791440785E+03  0.12500000000E+03 0.  0.
          2    1    1    2  501    0 -0.27729930195E+01 -0.65879625344E+02 -0.15011020544E+04  0.15025495640E+04  0.00000000000E+00 0. -1.
          2    1    1    2  502    0 -0.14841653479E+03 -0.27755014942E+03  0.12525307504E+04  0.12914700283E+04  0.00000000000E+00 0. -1.
<mgrwt>
<rscale>  0 0.14642899E+03</rscale>
<asrwt>0</asrwt>
<pdfrwt beam="1">  1        2 0.26136460E+00 0.32517610E+03</pdfrwt>
<pdfrwt beam="2">  1        2 0.24816371E+00 0.65937960E+02</pdfrwt>
<totfact> 0.22185236E+01</totfact>
</mgrwt>
</event>
<event>
 5    1  0.4149151E-003  0.5716254E+02  0.7546771E-02  0.1412621E+00
          1   -1    0    0  502    0  0.00000000000E+00  0.00000000000E+00  0.23376410012E+03  0.23376410012E+03  0.00000000000E+00 0. -1.
         -3   -1    0    0    0  501 -0.00000000000E+00 -0.00000000000E+00 -0.44982614631E+03  0.44982614631E+03  0.00000000000E+00 0.  1.
         25    1    1    2    0    0  0.10299686396E+02  0.13848015656E+02  0.46090926460E+01  0.12626992838E+03  0.12500000000E+03 0.  0.
          1    1    1    2  502    0  0.41740307902E+02 -0.39055130234E+02  0.16123161310E+03  0.17106486946E+03  0.00000000000E+00 0. -1.
         -3    1    1    2    0  501 -0.52039994298E+02  0.25207114578E+02 -0.38190275193E+03  0.38625544859E+03  0.00000000000E+00 0.  1.
<mgrwt>
<rscale>  0 0.56613165E+02</rscale>
<asrwt>0</asrwt>
<pdfrwt beam="1">  1        1 0.35963708E-01 0.57162545E+02</pdfrwt>
<pdfrwt beam="2">  1       -3 0.69204022E-01 0.56069065E+02</pdfrwt>
<totfact> 0.12465540E+02</totfact>
</mgrwt>
</event>
<event>
 5    1  0.4149151E-003  0.3070581E+02  0.7546771E-02  0.1597142E+00
          2   -1    0    0  502    0  0.00000000000E+00  0.00000000000E+00  0.92408490842E+03  0.92408490842E+03  0.00000000000E+00 0. -1.
         -2   -1    0    0    0  501 -0.00000000000E+00 -0.00000000000E+00 -0.18604596730E+02  0.18604596730E+02  0.00000000000E+00 0.  1.
         25    1    1    2    0    0 -0.60353959655E+01  0.36438563067E+02  0.27259924412E+03  0.30215814200E+03  0.12500000000E+03 0.  0.
          2    1    1    2  502    0 -0.20335522618E+02 -0.23264979474E+02  0.57255515714E+03  0.57338835070E+03  0.00000000000E+00 0. -1.
         -2    1    1    2    0  501  0.26370918584E+02 -0.13173583593E+02  0.60325910422E+02  0.67143012443E+02  0.00000000000E+00 0.  1.
<mgrwt>
<rscale>  0 0.30085783E+02</rscale>
<asrwt>0</asrwt>
<pdfrwt beam="1">  1        2 0.14216687E+00 0.30705812E+02</pdfrwt>
<pdfrwt beam="2">  1       -2 0.28622464E-02 0.29478274E+02</pdfrwt>
<totfact> 0.11177829E+04</totfact>
</mgrwt>
</event>
<event>
 5    1  0.4149151E-003  0.2925471E+03  0.7546771E-02  0.1191163E+00
          2   -1    0    0  502    0  0.00000000000E+00  0.00000000000E+00  0.11733247591E+04  0.11733247591E+04  0.00000000000E+00 0. -1.
         -1   -1    0    0    0  501 -0.00000000000E+00 -0.00000000000E+00 -0.28354621793E+03  0.28354621793E+03  0.00000000000E+00 0.  1.
         25    1    1    2    0    0 -0.10744753105E+03 -0.33261386068E+03  0.12645415596E+03  0.39216400371E+03  0.12500000000E+03 0.  0.
          2    1    1    2  502    0  0.39820218597E+02  0.28086476414E+03  0.87753408006E+03  0.92224548099E+03  0.00000000000E+00 0. -1.
         -1    1    1    2    0  501  0.67627312448E+02  0.51749096544E+02 -0.11420969489E+03  0.14246149230E+03  0.00000000000E+00 0.  1.
<mgrwt>
<rscale>  0 0.15783514E+03</rscale>
<asrwt>0</asrwt>
<pdfrwt beam="1">  1        2 0.18051150E+00 0.29254708E+03</pdfrwt>
<pdfrwt beam="2">  1       -1 0.43622496E-01 0.85155284E+02</pdfrwt>
<totfact> 0.12575648E+02</totfact>
</mgrwt>
</event>
<event>
 5    1  0.4149151E-003  0.4597911E+02  0.7546771E-02  0.1494573E+00
          2   -1    0    0  502    0  0.00000000000E+00  0.00000000000E+00  0.25386820709E+03  0.25386820709E+03  0.00000000000E+00 0. -1.
         -1   -1    0    0    0  501 -0.00000000000E+00 -0.00000000000E+00 -0.58778149599E+02  0.58778149599E+02  0.00000000000E+00 0.  1.
         25    1    1    2    0    0  0.12988408226E+02  0.36405587126E+02  0.43686096862E+02  0.13794035153E+03  0.12500000000E+03 0.  0.
          2    1    1    2  502    0 -0.45629568999E+02 -0.16541249108E+02  0.93196236991E+02  0.10507715774E+03  0.00000000000E+00 0. -1.
         -1    1    1    2    0  501  0.32641160773E+02 -0.19864338018E+02  0.58207723637E+02  0.69628847416E+02  0.00000000000E+00 0.  1.
<mgrwt>
<rscale>  0 0.41915171E+02</rscale>
<asrwt>0</asrwt>
<pdfrwt beam="1">  1        2 0.39056646E-01 0.45979105E+02</pdfrwt>
<pdfrwt beam="2">  1       -1 0.90427924E-02 0.38210434E+02</pdfrwt>
<totfact> 0.89830081E+03</totfact>
</mgrwt>
</event>
<event>
 5    1  0.4149151E-003  0.5780828E+02  0.7546771E-02  0.1492224E+00
         -1   -1    0    0    0  501 -0.00000000000E+00  0.00000000000E+00  0.65075688659E+02  0.65075688659E+02  0.00000000000E+00 0.  1.
          1   -1    0    0  502    0  0.00000000000E+00 -0.00000000000E+00 -0.22190224631E+03  0.22190224631E+03  0.00000000000E+00 0. -1.
         25    1    1    2    0    0  0.32723360416E+02 -0.11630155303E+02 -0.13320439945E+03  0.18594217074E+03  0.12500000000E+03 0.  0.
          1    1    1    2  502    0  0.30867637246E+02 -0.11901505113E+01  0.27432161045E+01  0.31012138301E+02  0.00000000000E+00 0. -1.
         -1    1    1    2    0  501 -0.63590997662E+02  0.12820305815E+02 -0.26365374306E+02  0.70023625921E+02  0.00000000000E+00 0.  1.
<mgrwt>
<rscale>  0 0.42257910E+02</rscale>
<asrwt>0</asrwt>
<pdfrwt beam="2">  1        1 0.34138808E-01 0.30890573E+02</pdfrwt>
<pdfrwt beam="1">  1       -1 0.10011644E-01 0.57808281E+02</pdfrwt>
<totfact> 0.68319953E+03</totfact>
</mgrwt>
</event>
<event>
 5    1  0.4149151E-003  0.5546272E+02  0.7546771E-02  0.1439738E+00
         -2   -1    0    0    0  501 -0.00000000000E+00  0.00000000000E+00  0.37394609100E+03  0.37394609100E+03  0.00000000000E+00 0. -1.
          1   -1    0    0  502    0  0.00000000000E+00 -0.00000000000E+00 -0.75036065353E+02  0.75036065353E+02  0.00000000000E+00 0. -1.
         25    1    1    2    0    0  0.48902010514E+02  0.12710968516E+02  0.15398569757E+02  0.13570221554E+03  0.12500000000E+03 0.  0.
          1    1    1    2  502    0 -0.25985575209E+02  0.39157928647E+02  0.35576626653E+02  0.58943106966E+02  0.00000000000E+00 0. -1.
         -2    1    1    2    0  501 -0.22916435305E+02 -0.51868897162E+02  0.24793482924E+03  0.25433683385E+03  0.00000000000E+00 0. -1.
<mgrwt>
<rscale>  0 0.51053973E+02</rscale>
<asrwt>0</asrwt>
<pdfrwt beam="2">  1        1 0.11544010E-01 0.46995675E+02</pdfrwt>
<pdfrwt beam="1">  1       -2 0.57530167E-01 0.55462724E+02</pdfrwt>
<totfact> 0.12260533E+03</totfact>
</mgrwt>
</event>
<event>
 5    1  0.4149151E-003  0.1251548E+03  0.7546771E-02  0.1351256E+00
          1   -1    0    0  502    0  0.00000000000E+00  0.00000000000E+00  0.42047758631E+03  0.42047758631E+03  0.00000000000E+00 0. -1.
         -2   -1    0    0    0  501 -0.00000000000E+00 -0.00000000000E+00 -0.84559381266E+02  0.84559381266E+02  0.00000000000E+00 0.  1.
         25    1    1    2    0    0 -0.97549566238E+01 -0.14659761993E+03  0.25443862777E+03  0.31929615821E+03  0.12500000000E+03 0.  0.
          1    1    1    2  502    0 -0.82608907376E+01  0.10844726827E+03  0.91779589047E+02  0.14231143762E+03  0.00000000000E+00 0. -1.
         -2    1    1    2    0  501  0.18015847361E+02  0.38150351657E+02 -0.10300011771E+02  0.43429371745E+02  0.00000000000E+00 0.  1.
<mgrwt>
<rscale>  0 0.72665786E+02</rscale>
<asrwt>0</asrwt>
<pdfrwt beam="1">  1        1 0.64688858E-01 0.12515480E+03</pdfrwt>
<pdfrwt beam="2">  1       -2 0.13009136E-01 0.42190284E+02</pdfrwt>
<totfact> 0.19688645E+03</totfact>
</mgrwt>
</event>
<event>
 5    1  0.4149151E-003  0.9569896E+02  0.7546771E-02  0.1314643E+00
          2   -1    0    0  502    0  0.00000000000E+00  0.00000000000E+00  0.23195069618E+04  0.23195069618E+04  0.00000000000E+00 0. -1.
         -2   -1    0    0    0  501 -0.00000000000E+00 -0.00000000000E+00 -0.18425198907E+03  0.18425198907E+03  0.00000000000E+00 0.  1.
         25    1    1    2    0    0 -0.33365591021E+02  0.22185673356E+02  0.21938092399E+02  0.13308548630E+03  0.12500000000E+03 0.  0.
          2    1    1    2  502    0 -0.74163508213E+02  0.16769673779E+02  0.22158013658E+04  0.22171055772E+04  0.00000000000E+00 0. -1.
         -2    1    1    2    0  501  0.10752909923E+03 -0.38955347135E+02 -0.10248448548E+03  0.15356788732E+03  0.00000000000E+00 0.  1.
<mgrwt>
<rscale>  0 0.85302699E+02</rscale>
<asrwt>0</asrwt>
<pdfrwt beam="1">  1        2 0.35684720E+00 0.76035833E+02</pdfrwt>
<pdfrwt beam="2">  1       -2 0.28346462E-01 0.95698965E+02</pdfrwt>
<totfact> 0.65809494E+01</totfact>
</mgrwt>
</event>
<event>
 5    1  0.4149151E-003  0.5090252E+03  0.7546771E-02  0.1011450E+00
         -1   -1    0    0    0  501 -0.00000000000E+00  0.00000000000E+00  0.18471262020E+03  0.18471262020E+03  0.00000000000E+00 0.  1.
          2   -1    0    0  502    0  0.00000000000E+00 -0.00000000000E+00 -0.35068883785E+03  0.35068883785E+03  0.00000000000E+00 0. -1.
         25    1    1    2    0    0  0.45227728237E+02  0.17962317312E+03 -0.23202216022E+03  0.32213244878E+03  0.12500000000E+03 0.  0.
          2    1    1    2  502    0 -0.18711567658E+02 -0.10590443046E+03 -0.47886585101E+01  0.10765130006E+03  0.00000000000E+00 0. -1.
         -1    1    1    2    0  501 -0.26516160579E+02 -0.73718742656E+02  0.70834601080E+02  0.10561770922E+03  0.00000000000E+00 0.  1.
<mgrwt>
<rscale>  0 0.50902516E+03</rscale>
<asrwt>0</asrwt>
<pdfrwt beam="2">  1        2 0.53952128E-01 0.50902516E+03</pdfrwt>
<pdfrwt beam="1">  1       -1 0.28417327E-01 0.50902516E+03</pdfrwt>
<totfact> 0.11815639E+03</totfact>
</mgrwt>
</event>
<event>
 5    1  0.4149151E-003  0.1257351E+03  0.7546771E-02  0.1312176E+00
         -1   -1    0    0    0  501 -0.00000000000E+00  0.00000000000E+00  0.16665125058E+04  0.16665125058E+04  0.00000000000E+00 0.  1.
          2   -1    0    0  502    0  0.00000000000E+00 -0.00000000000E+00 -0.21471473513E+03  0.21471473513E+03  0.00000000000E+00 0. -1.
         25    1    1    2    0    0 -0.13854367045E+03 -0.80705503282E+02  0.26461342989E+03  0.33369596066E+03  0.12500000000E+03 0.  0.
          2    1    1    2  502    0  0.17354784500E+02  0.56572858318E+02 -0.17243612612E+03  0.18230714312E+03  0.00000000000E+00 0. -1.
         -1    1    1    2    0  501  0.12118888595E+03  0.24132644963E+02  0.13596204669E+04  0.13652241372E+04  0.00000000000E+00 0.  1.
<mgrwt>
<rscale>  0 0.86257584E+02</rscale>
<asrwt>0</asrwt>
<pdfrwt beam="2">  1        2 0.33033037E-01 0.59174968E+02</pdfrwt>
<pdfrwt beam="1">  1       -1 0.25638653E+00 0.12573511E+03</pdfrwt>
<totfact> 0.13813830E+01</totfact>
</mgrwt>
</event>
<event>
 5    1  0.4149151E-003  0.6445048E+02  0.7546771E-02  0.1518880E+00
         -1   -1    0    0    0  501  0.00000000000E+00  0.00000000000E+00  0.27197450356E+03  0.27197450356E+03  0.00000000000E+00 0.  1.
         -1   -1    0    0    0  502 -0.00000000000E+00 -0.00000000000E+00 -0.19058165870E+03  0.19058165870E+03  0.00000000000E+00 0.  1.
         25    1    1    2    0    0 -0.79299603495E+02  0.21078018280E+02  0.81357862013E+01  0.14974612177E+03  0.12500000000E+03 0.  0.
         -1    1    1    2    0  501  0.22452953224E+02  0.54358014606E+01  0.18404943448E+03  0.18549360469E+03  0.00000000000E+00 0.  1.
         -1    1    1    2    0  502  0.56846650271E+02 -0.26513819741E+02 -0.11079237583E+03  0.12731643580E+03  0.00000000000E+00 0.  1.
<mgrwt>
<rscale>  0 0.38586371E+02</rscale>
<asrwt>0</asrwt>
<pdfrwt beam="1">  1       -1 0.41842231E-01 0.23101581E+02</pdfrwt>
<pdfrwt beam="2">  1       -1 0.29320255E-01 0.64450483E+02</pdfrwt>
<totfact> 0.49234308E+02</totfact>
</mgrwt>
</event>
<event>
 5    1  0.4149151E-003  0.2751291E+03  0.7546771E-02  0.1228255E+00
         -3   -1    0    0    0  501 -0.00000000000E+00  0.00000000000E+00  0.65156425637E+03  0.65156425637E+03  0.00000000000E+00 0.  1.
          1   -1    0    0  502    0  0.00000000000E+00 -0.00000000000E+00 -0.62399520999E+03  0.62399520999E+03  0.00000000000E+00 0. -1.
         25    1    1    2    0    0 -0.30666861291E+03  0.50057118276E+02  0.93556304795E+02  0.34774866700E+03  0.12500000000E+03 0.  0.
          1    1    1    2  502    0  0.42337509583E+02 -0.43802709687E+02 -0.45411333915E+03  0.45818125986E+03  0.00000000000E+00 0. -1.
         -3    1    1    2    0  501  0.26433110333E+03 -0.62544085894E+01  0.38812608074E+03  0.46962953949E+03  0.00000000000E+00 0.  1.
<mgrwt>
<rscale>  0 0.12946285E+03</rscale>
<asrwt>0</asrwt>
<pdfrwt beam="2">  1        1 0.95999262E-01 0.60919144E+02</pdfrwt>
<pdfrwt beam="1">  1       -3 0.10024066E+00 0.27512909E+03</pdfrwt>
<totfact> 0.17131815E+01</totfact>
</mgrwt>
</event>
<event>
 5    1  0.4149151E-003  0.1123693E+03  0.7546771E-02  0.1313404E+00
         -2   -1    0    0    0  501 -0.00000000000E+00  0.00000000000E+00  0.85959670609E+02  0.85959670609E+02  0.00000000000E+00 0.  1.
          2   -1    0    0  502    0  0.00000000000E+00 -0.00000000000E+00 -0.10415088227E+04  0.10415088227E+04  0.00000000000E+00 0. -1.
         25    1    1    2    0    0 -0.21166585742E+02  0.12305712451E+03 -0.43376810046E+03  0.46837041455E+03  0.12500000000E+03 0.  0.
          2    1    1    2  502    0 -0.41712704268E+02 -0.10477430439E+03 -0.56790992318E+03  0.57899851934E+03  0.00000000000E+00 0. -1.
         -2    1    1    2    0  501  0.62879290010E+02 -0.18282820122E+02  0.46128871568E+02  0.80099559399E+02  0.00000000000E+00 0.  1.
<mgrwt>
<rscale>  0 0.85780621E+02</rscale>
<asrwt>0</asrwt>
<pdfrwt beam="2">  1        2 0.16023212E+00 0.11236928E+03</pdfrwt>
<pdfrwt beam="1">  1       -2 0.13224565E-01 0.65483331E+02</pdfrwt>
<totfact> 0.10184136E+03</totfact>
</mgrwt>
</event>
<event>
 5    1  0.4149151E-003  0.8380175E+02  0.7546771E-02  0.1455505E+00
          2   -1    0    0  502    0  0.00000000000E+00  0.00000000000E+00  0.10662430525E+04  0.10662430525E+04  0.00000000000E+00 0. -1.
         -2   -1    0    0    0  501 -0.00000000000E+00 -0.00000000000E+00 -0.66531459396E+03  0.66531459396E+03  0.00000000000E+00 0.  1.
         25    1    1    2    0    0 -0.77037298385E+02  0.80315616651E+02 -0.28183289042E+03  0.32778060001E+03  0.12500000000E+03 0.  0.
          2    1    1    2  502    0  0.58857201261E+02 -0.59441081793E+02  0.10410576787E+04  0.10444129943E+04  0.00000000000E+00 0. -1.
         -2    1    1    2    0  501  0.18180097124E+02 -0.20874534858E+02 -0.35829632968E+03  0.35936405218E+03  0.00000000000E+00 0.  1.
<mgrwt>
<rscale>  0 0.48163816E+02</rscale>
<asrwt>0</asrwt>
<pdfrwt beam="1">  1        2 0.16403739E+00 0.83801753E+02</pdfrwt>
<pdfrwt beam="2">  1       -2 0.10235609E+00 0.27681440E+02</pdfrwt>
<totfact> 0.22362304E+01</totfact>
</mgrwt>
</event>
<event>
 5    1  0.4149151E-003  0.7136145E+02  0.7546771E-02  0.1400480E+00
         -2   -1    0    0    0  501 -0.00000000000E+00  0.00000000000E+00  0.12166766007E+02  0.12166766007E+02  0.00000000000E+00 0.  1.
          1   -1    0    0  502    0  0.00000000000E+00 -0.00000000000E+00 -0.16190865018E+04  0.16190865018E+04  0.00000000000E+00 0. -1.
         25    1    1    2    0    0  0.77027254730E+02  0.39925510895E+02 -0.72497937725E+03  0.74077482532E+03  0.12500000000E+03 0.  0.
          1    1    1    2  502    0 -0.69904539022E+02  0.89577259016E+01 -0.61308459816E+03  0.61712203812E+03  0.00000000000E+00 0. -1.
         -2    1    1    2    0  501 -0.71227157082E+01 -0.48883236797E+02 -0.26885576040E+03  0.27335640439E+03  0.00000000000E+00 0.  1.
<mgrwt>
<rscale>  0 0.59373522E+02</rscale>
<asrwt>0</asrwt>
<pdfrwt beam="2">  1        1 0.24909033E+00 0.71361449E+02</pdfrwt>
<pdfrwt beam="1">  1       -2 0.18718094E-02 0.49399432E+02</pdfrwt>
<totfact> 0.40877452E+03</totfact>
</mgrwt>
</event>
<event>
 5    1  0.4149151E-003  0.5296328E+02  0.7546771E-02  0.1537539E+00
          1   -1    0    0  502    0 -0.00000000000E+00  0.00000000000E+00  0.48885087160E+03  0.48885087160E+03  0.00000000000E+00 0. -1.
          2   -1    0    0  501    0  0.00000000000E+00 -0.00000000000E+00 -0.10062583478E+04  0.10062583478E+04  0.00000000000E+00 0. -1.
         25    1    1    2    0    0  0.34857277147E+02  0.97009050436E+00  0.19057525796E+03  0.23056430728E+03  0.12500000000E+03 0.  0.
          2    1    1    2  501    0  0.17716315302E+02  0.17423846138E+02 -0.98331825429E+03  0.98363217082E+03  0.00000000000E+00 0. -1.
          1    1    1    2  502    0 -0.52573592448E+02 -0.18393936642E+02  0.27533552018E+03  0.28091274126E+03  0.00000000000E+00 0. -1.
<mgrwt>
<rscale>  0 0.36277665E+02</rscale>
<asrwt>0</asrwt>
<pdfrwt beam="2">  1        2 0.15480898E+00 0.24848707E+02</pdfrwt>
<pdfrwt beam="1">  1        1 0.75207827E-01 0.52963278E+02</pdfrwt>
<totfact> 0.19494531E+02</totfact>
</mgrwt>
</event>
<event>
 5    1  0.4149151E-003  0.1205399E+03  0.7546771E-02  0.1333142E+00
          3   -1    0    0  502    0 -0.00000000000E+00  0.00000000000E+00  0.20347867925E+04  0.20347867925E+04  0.00000000000E+00 0. -1.
          2   -1    0    0  501    0  0.00000000000E+00 -0.00000000000E+00 -0.10113813377E+04  0.10113813377E+04  0.00000000000E+00 0. -1.
         25    1    1    2    0    0  0.58098454009E+02  0.52730778282E+02 -0.27174147585E+03  0.30923194375E+03  0.12500000000E+03 0.  0.
          2    1    1    2  501    0  0.51205824850E+02 -0.12438607411E+01 -0.71817140967E+03  0.71999566482E+03  0.00000000000E+00 0. -1.
          3    1    1    2  502    0 -0.10930427886E+03 -0.51486917541E+02  0.20133183403E+04  0.20169405216E+04  0.00000000000E+00 0. -1.
<mgrwt>
<rscale>  0 0.78575855E+02</rscale>
<asrwt>0</asrwt>
<pdfrwt beam="2">  1        2 0.15559713E+00 0.51220930E+02</pdfrwt>
<pdfrwt beam="1">  1        3 0.31304412E+00 0.12053988E+03</pdfrwt>
<totfact> 0.70325422E-01</totfact>
</mgrwt>
</event>
<event>
 5    1  0.4149151E-003  0.1027498E+03  0.7546771E-02  0.1453942E+00
          1   -1    0    0  502    0 -0.00000000000E+00  0.00000000000E+00  0.16878744141E+03  0.16878744141E+03  0.00000000000E+00 0. -1.
          2   -1    0    0  501    0  0.00000000000E+00 -0.00000000000E+00 -0.16477672552E+04  0.16477672552E+04  0.00000000000E+00 0. -1.
         25    1    1    2    0    0  0.63406976842E+02  0.85378592889E+02 -0.12018933244E+03  0.20342178956E+03  0.12500000000E+03 0.  0.
          2    1    1    2  501    0 -0.77486479816E+02 -0.67398853303E+02 -0.14831463355E+04  0.14866976197E+04  0.00000000000E+00 0. -1.
          1    1    1    2  502    0  0.14079502974E+02 -0.17979739586E+02  0.12435585411E+03  0.12643528737E+03  0.00000000000E+00 0. -1.
<mgrwt>
<rscale>  0 0.48440075E+02</rscale>
<asrwt>0</asrwt>
<pdfrwt beam="2">  1        2 0.25350266E+00 0.10274981E+03</pdfrwt>
<pdfrwt beam="1">  1        1 0.25967298E-01 0.22836450E+02</pdfrwt>
<totfact> 0.28701966E+02</totfact>
</mgrwt>
</event>
<event>
 5    1  0.4149151E-003  0.8420380E+02  0.7546771E-02  0.1414583E+00
          1   -1    0    0  501    0  0.00000000000E+00  0.00000000000E+00  0.90638303779E+03  0.90638303779E+03  0.00000000000E+00 0. -1.
          1   -1    0    0  502    0 -0.00000000000E+00 -0.00000000000E+00 -0.61762998811E+02  0.61762998811E+02  0.00000000000E+00 0. -1.
         25    1    1    2    0    0  0.43420632486E+02  0.28112163245E+02  0.32567041460E+03  0.35264977526E+03  0.12500000000E+03 0.  0.
          1    1    1    2  501    0  0.23708815075E+02  0.29038222164E+02  0.52573848120E+03  0.52707331262E+03  0.00000000000E+00 0. -1.
          1    1    1    2  502    0 -0.67129447561E+02 -0.57150385409E+02 -0.67888568267E+01  0.88422948714E+02  0.00000000000E+00 0. -1.
<mgrwt>
<rscale>  0 0.56183673E+02</rscale>
<asrwt>0</asrwt>
<pdfrwt beam="1">  1        1 0.13944353E+00 0.37487681E+02</pdfrwt>
<pdfrwt beam="2">  1        1 0.95020005E-02 0.84203798E+02</pdfrwt>
<totfact> 0.16177933E+03</totfact>
</mgrwt>
</event>
<event>
 5    1  0.4149151E-003  0.2135828E+03  0.7546771E-02  0.1305520E+00
          2   -1    0    0  502    0  0.00000000000E+00  0.00000000000E+00  0.28624322513E+04  0.28624322513E+04  0.00000000000E+00 0. -1.
          2   -1    0    0  501    0 -0.00000000000E+00 -0.00000000000E+00 -0.77249387741E+03  0.77249387741E+03  0.00000000000E+00 0. -1.
         25    1    1    2    0    0  0.16655476385E+03 -0.15993957002E+03 -0.20255051830E+03  0.33162157331E+03  0.12500000000E+03 0.  0.
          2    1    1    2  501    0 -0.35953863133E+02 -0.87738806572E+01 -0.50065642290E+03  0.50202242484E+03  0.00000000000E+00 0. -1.
          2    1    1    2  502    0 -0.13060090071E+03  0.16871345068E+03  0.27931453151E+04  0.28012821306E+04  0.00000000000E+00 0. -1.
<mgrwt>
<rscale>  0 0.88907100E+02</rscale>
<asrwt>0</asrwt>
<pdfrwt beam="1">  1        2 0.44037419E+00 0.21358281E+03</pdfrwt>
<pdfrwt beam="2">  1        2 0.11884521E+00 0.37008935E+02</pdfrwt>
<totfact> 0.16165306E+01</totfact>
</mgrwt>
</event>
<event>
 5    1  0.4149151E-003  0.9326389E+02  0.7546771E-02  0.1375873E+00
          1   -1    0    0  501    0  0.00000000000E+00  0.00000000000E+00  0.86864619466E+03  0.86864619466E+03  0.00000000000E+00 0. -1.
          3   -1    0    0  502    0 -0.00000000000E+00 -0.00000000000E+00 -0.24097976232E+03  0.24097976232E+03  0.00000000000E+00 0. -1.
         25    1    1    2    0    0  0.69352075250E+02  0.40608275637E+02  0.32483376973E+03  0.35721243029E+03  0.12500000000E+03 0.  0.
          1    1    1    2  501    0 -0.98958077241E+02 -0.52883810404E+01  0.52053608400E+03  0.52988534871E+03  0.00000000000E+00 0. -1.
          3    1    1    2  502    0  0.29606001990E+02 -0.35319894597E+02 -0.21770342140E+03  0.22252817798E+03  0.00000000000E+00 0. -1.
<mgrwt>
<rscale>  0 0.65561052E+02</rscale>
<asrwt>0</asrwt>
<pdfrwt beam="1">  1        1 0.13363787E+00 0.93263887E+02</pdfrwt>
<pdfrwt beam="2">  1        3 0.37073810E-01 0.46086986E+02</pdfrwt>
<totfact> 0.75953778E+01</totfact>
</mgrwt>
</event>
<event>
 5    1  0.4149151E-003  0.3887257E+02  0.7546771E-02  0.1615188E+00
          2   -1    0    0  501    0  0.00000000000E+00  0.00000000000E+00  0.16554838820E+04  0.16554838820E+04  0.00000000000E+00 0. -1.
          3   -1    0    0  502    0 -0.00000000000E+00 -0.00000000000E+00 -0.18592943902E+02  0.18592943902E+02  0.00000000000E+00 0. -1.
         25    1    1    2    0    0  0.60379051101E+01  0.26306071776E+02  0.10245691054E+04  0.10325189187E+04  0.12500000000E+03 0.  0.
          2    1    1    2  501    0 -0.17645691199E+02  0.11213606186E+02  0.60004560182E+03  0.60040972648E+03  0.00000000000E+00 0. -1.
          3    1    1    2  502    0  0.11607786088E+02 -0.37519677962E+02  0.12276230857E+02  0.41148180717E+02  0.00000000000E+00 0. -1.
<mgrwt>
<rscale>  0 0.28508257E+02</rscale>
<asrwt>0</asrwt>
<pdfrwt beam="1">  1        2 0.25468971E+00 0.20907305E+02</pdfrwt>
<pdfrwt beam="2">  1        3 0.28604542E-02 0.38872573E+02</pdfrwt>
<totfact> 0.36616954E+03</totfact>
</mgrwt>
</event>
<event>
 5    1  0.4149151E-003  0.2947560E+02  0.7546771E-02  0.1604471E+00
          3   -1    0    0  502    0  0.00000000000E+00  0.00000000000E+00  0.11331222993E+03  0.11331222993E+03  0.00000000000E+00 0. -1.
          3   -1    0    0  501    0 -0.00000000000E+00 -0.00000000000E+00 -0.10621307433E+03  0.10621307433E+03  0.00000000000E+00 0. -1.
         25    1    1    2    0    0  0.11606674971E+02  0.12171119187E+01 -0.34042289596E+00  0.12554406459E+03  0.12500000000E+03 0.  0.
          3    1    1    2  501    0 -0.15529620006E+02  0.27996264700E+02 -0.31653572559E+02  0.45021201566E+02  0.00000000000E+00 0. -1.
          3    1    1    2  502    0  0.39229450346E+01 -0.29213376619E+02  0.39093151058E+02  0.48960038101E+02  0.00000000000E+00 0. -1.
<mgrwt>
<rscale>  0 0.29430417E+02</rscale>
<asrwt>0</asrwt>
<pdfrwt beam="1">  1        3 0.17432651E-01 0.29475598E+02</pdfrwt>
<pdfrwt beam="2">  1        3 0.16340473E-01 0.29385306E+02</pdfrwt>
<totfact> 0.14619398E+03</totfact>
</mgrwt>
</event>
<event>
 5    1  0.4149151E-003  0.3502583E+02  0.7546771E-02  0.1553421E+00
         -1   -1    0    0    0  501 -0.00000000000E+00  0.00000000000E+00  0.14690868800E+02  0.14690868800E+02  0.00000000000E+00 0.  1.
          2   -1    0    0  502    0  0.00000000000E+00 -0.00000000000E+00 -0.81555224601E+03  0.81555224601E+03  0.00000000000E+00 0. -1.
         25    1    1    2    0    0 -0.10260219643E+02 -0.16546112816E+02 -0.35640645619E+03  0.37819255409E+03  0.12500000000E+03 0.  0.
          2    1    1    2  502    0 -0.33459603517E+02  0.10356834568E+02 -0.26188272230E+03  0.26421462739E+03  0.00000000000E+00 0. -1.
         -1    1    1    2    0  501  0.43719823161E+02  0.61892782485E+01 -0.18257219872E+03  0.18783593333E+03  0.00000000000E+00 0.  1.
<mgrwt>
<rscale>  0 0.34463012E+02</rscale>
<asrwt>0</asrwt>
<pdfrwt beam="2">  1        2 0.12546960E+00 0.35025835E+02</pdfrwt>
<pdfrwt beam="1">  1       -1 0.22601333E-02 0.33909233E+02</pdfrwt>
<totfact> 0.18582757E+04</totfact>
</mgrwt>
</event>
<event>
 5    1  0.4149151E-003  0.1146993E+03  0.7546771E-02  0.1340366E+00
          1   -1    0    0  502    0 -0.00000000000E+00  0.00000000000E+00  0.11822430491E+04  0.11822430491E+04  0.00000000000E+00 0. -1.
          2   -1    0    0  501    0  0.00000000000E+00 -0.00000000000E+00 -0.12701474827E+03  0.12701474827E+03  0.00000000000E+00 0. -1.
         25    1    1    2    0    0  0.16703731095E+02 -0.15290827367E+03  0.20051963268E+02  0.19921605362E+03  0.12500000000E+03 0.  0.
          2    1    1    2  501    0  0.21153428718E+02  0.45909332336E+02 -0.15795739784E+02  0.52958849472E+02  0.00000000000E+00 0. -1.
          1    1    1    2  502    0 -0.37857159813E+02  0.10699894133E+03  0.10509720774E+04  0.10570828943E+04  0.00000000000E+00 0. -1.
<mgrwt>
<rscale>  0 0.76143671E+02</rscale>
<asrwt>0</asrwt>
<pdfrwt beam="2">  1        2 0.19540731E-01 0.50548337E+02</pdfrwt>
<pdfrwt beam="1">  1        1 0.18188354E+00 0.11469929E+03</pdfrwt>
<totfact> 0.45832060E+02</totfact>
</mgrwt>
</event>
<event>
 5    1  0.4149151E-003  0.1107415E+03  0.7546771E-02  0.1437748E+00
          1   -1    0    0  502    0  0.00000000000E+00  0.00000000000E+00  0.72747282910E+03  0.72747282910E+03  0.00000000000E+00 0. -1.
         -1   -1    0    0    0  501 -0.00000000000E+00 -0.00000000000E+00 -0.23800033672E+03  0.23800033672E+03  0.00000000000E+00 0.  1.
         25    1    1    2    0    0 -0.28620025420E+02  0.10325227205E+03  0.97465012346E+01  0.16492462468E+03  0.12500000000E+03 0.  0.
          1    1    1    2  502    0 -0.23529689902E+02 -0.41349944717E+01  0.62032979346E+03  0.62078965611E+03  0.00000000000E+00 0. -1.
         -1    1    1    2    0  501  0.52149715322E+02 -0.99117277583E+02 -0.14060380230E+03  0.17975888503E+03  0.00000000000E+00 0.  1.
<mgrwt>
<rscale>  0 0.51435809E+02</rscale>
<asrwt>0</asrwt>
<pdfrwt beam="1">  1        1 0.11191890E+00 0.23890259E+02</pdfrwt>
<pdfrwt beam="2">  1       -1 0.36615437E-01 0.11074147E+03</pdfrwt>
<totfact> 0.21536867E+02</totfact>
</mgrwt>
</event>
<event>
 5    1  0.4149151E-003  0.4630036E+02  0.7546771E-02  0.1525971E+00
          1   -1    0    0  502    0  0.00000000000E+00  0.00000000000E+00  0.81353241988E+03  0.81353241988E+03  0.00000000000E+00 0. -1.
         -3   -1    0    0    0  501 -0.00000000000E+00 -0.00000000000E+00 -0.24423240475E+02  0.24423240475E+02  0.00000000000E+00 0.  1.
         25    1    1    2    0    0 -0.28085293813E+02  0.27156826137E+02  0.56380561898E+03  0.57881607867E+03  0.12500000000E+03 0.  0.
          1    1    1    2  502    0  0.85119692084E+01 -0.50773159793E+02  0.22245498502E+03  0.22833437704E+03  0.00000000000E+00 0. -1.
         -3    1    1    2    0  501  0.19573324605E+02  0.23616333656E+02  0.28485754014E+01  0.30805204646E+02  0.00000000000E+00 0.  1.
<mgrwt>
<rscale>  0 0.37685289E+02</rscale>
<asrwt>0</asrwt>
<pdfrwt beam="1">  1        1 0.12515881E+00 0.46300361E+02</pdfrwt>
<pdfrwt beam="2">  1       -3 0.37574222E-02 0.30673217E+02</pdfrwt>
<totfact> 0.34638034E+03</totfact>
</mgrwt>
</event>
<event>
 5    1  0.4149151E-003  0.1042235E+03  0.7546771E-02  0.1349246E+00
          2   -1    0    0  501    0  0.00000000000E+00  0.00000000000E+00  0.42496943352E+03  0.42496943352E+03  0.00000000000E+00 0. -1.
          1   -1    0    0  502    0 -0.00000000000E+00 -0.00000000000E+00 -0.10619009125E+04  0.10619009125E+04  0.00000000000E+00 0. -1.
         25    1    1    2    0    0  0.90918752167E+02  0.12525396561E+03  0.16139279586E+03  0.25617847285E+03  0.12500000000E+03 0.  0.
          2    1    1    2  501    0 -0.26174031950E+02 -0.44398088227E+02  0.21042171519E+03  0.21664156668E+03  0.00000000000E+00 0. -1.
          1    1    1    2  502    0 -0.64744720217E+02 -0.80855877381E+02 -0.10087459901E+04  0.10140503065E+04  0.00000000000E+00 0. -1.
<mgrwt>
<rscale>  0 0.73291045E+02</rscale>
<asrwt>0</asrwt>
<pdfrwt beam="1">  1        2 0.65379913E-01 0.51539016E+02</pdfrwt>
<pdfrwt beam="2">  1        1 0.16336937E+00 0.10422351E+03</pdfrwt>
<totfact> 0.15862622E+02</totfact>
</mgrwt>
</event>
<event>
 5    1  0.4149151E-003  0.5876537E+02  0.7546771E-02  0.1431357E+00
          2   -1    0    0  501    0  0.00000000000E+00  0.00000000000E+00  0.24467736579E+04  0.24467736579E+04  0.00000000000E+00 0. -1.
          1   -1    0    0  502    0 -0.00000000000E+00 -0.00000000000E+00 -0.77384941045E+02  0.77384941045E+02  0.00000000000E+00 0. -1.
         25    1    1    2    0    0  0.17328058032E+01  0.10269654814E+03  0.67859762011E+03  0.69761688170E+03  0.12500000000E+03 0.  0.
          2    1    1    2  501    0 -0.12187667742E+02 -0.45641116947E+02  0.17458956249E+04  0.17465346214E+04  0.00000000000E+00 0. -1.
          1    1    1    2  502    0  0.10454861939E+02 -0.57055431191E+02 -0.55104528123E+02  0.80007095849E+02  0.00000000000E+00 0. -1.
<mgrwt>
<rscale>  0 0.52688676E+02</rscale>
<asrwt>0</asrwt>
<pdfrwt beam="1">  1        2 0.37642666E+00 0.47240351E+02</pdfrwt>
<pdfrwt beam="2">  1        1 0.11905377E-01 0.58765366E+02</pdfrwt>
<totfact> 0.34278252E+02</totfact>
</mgrwt>
</event>
<event>
 5    1  0.4149151E-003  0.1259011E+03  0.7546771E-02  0.1258455E+00
         -3   -1    0    0    0  501 -0.00000000000E+00  0.00000000000E+00  0.13707018374E+03  0.13707018374E+03  0.00000000000E+00 0.  1.
          1   -1    0    0  502    0  0.00000000000E+00 -0.00000000000E+00 -0.57667712457E+03  0.57667712457E+03  0.00000000000E+00 0. -1.
         25    1    1    2    0    0 -0.41806689991E+02 -0.59599153887E+02 -0.11767347794E+03  0.18647226572E+03  0.12500000000E+03 0.  0.
          1    1    1    2  502    0 -0.98035515422E+02  0.42322784218E+01 -0.35916759438E+03  0.37233081436E+03  0.00000000000E+00 0. -1.
         -3    1    1    2    0  501  0.13984220541E+03  0.55366875466E+02  0.37234131492E+02  0.15494422823E+03  0.00000000000E+00 0.  1.
<mgrwt>
<rscale>  0 0.11114977E+03</rscale>
<asrwt>0</asrwt>
<pdfrwt beam="2">  1        1 0.88719557E-01 0.98126828E+02</pdfrwt>
<pdfrwt beam="1">  1       -3 0.21087721E-01 0.12590106E+03</pdfrwt>
<totfact> 0.41021092E+02</totfact>
</mgrwt>
</event>
<event>
 5    1  0.4149151E-003  0.1602717E+03  0.7546771E-02  0.1254615E+00
         -1   -1    0    0    0  501 -0.00000000000E+00  0.00000000000E+00  0.21901979243E+03  0.21901979243E+03  0.00000000000E+00 0.  1.
          1   -1    0    0  502    0  0.00000000000E+00 -0.00000000000E+00 -0.10763998096E+04  0.10763998096E+04  0.00000000000E+00 0. -1.
         25    1    1    2    0    0  0.11584234906E+03  0.86885528665E+02 -0.53931637505E+03  0.57223744838E+03  0.12500000000E+03 0.  0.
          1    1    1    2  502    0 -0.86705121324E+02 -0.16146051147E+03 -0.49561456760E+03  0.52841373415E+03  0.00000000000E+00 0. -1.
         -1    1    1    2    0  501 -0.29137227733E+02  0.74574982806E+02  0.17755092548E+03  0.19476841951E+03  0.00000000000E+00 0.  1.
<mgrwt>
<rscale>  0 0.11327910E+03</rscale>
<asrwt>0</asrwt>
<pdfrwt beam="2">  1        1 0.16559997E+00 0.16027170E+03</pdfrwt>
<pdfrwt beam="1">  1       -1 0.33695353E-01 0.80065012E+02</pdfrwt>
<totfact> 0.12142893E+02</totfact>
</mgrwt>
</event>
<event>
 5    1  0.4149151E-003  0.8822955E+02  0.7546771E-02  0.1366121E+00
          1   -1    0    0  502    0 -0.00000000000E+00  0.00000000000E+00  0.88891818628E+03  0.88891818628E+03  0.00000000000E+00 0. -1.
          2   -1    0    0  501    0  0.00000000000E+00 -0.00000000000E+00 -0.39224991153E+03  0.39224991153E+03  0.00000000000E+00 0. -1.
         25    1    1    2    0    0  0.37611399705E+02 -0.86128211516E+02  0.20661525730E+03  0.25912844452E+03  0.12500000000E+03 0.  0.
          2    1    1    2  501    0  0.37154936921E+02  0.37523609491E+02 -0.36103328345E+03  0.36487469406E+03  0.00000000000E+00 0. -1.
          1    1    1    2  502    0 -0.74766336627E+02  0.48604602025E+02  0.65108630089E+03  0.65716495923E+03  0.00000000000E+00 0. -1.
<mgrwt>
<rscale>  0 0.68257459E+02</rscale>
<asrwt>0</asrwt>
<pdfrwt beam="2">  1        2 0.60346141E-01 0.52806350E+02</pdfrwt>
<pdfrwt beam="1">  1        1 0.13675664E+00 0.88229554E+02</pdfrwt>
<totfact> 0.23286789E+02</totfact>
</mgrwt>
</event>
<event>
 5    1  0.4149151E-003  0.6963991E+02  0.7546771E-02  0.1395309E+00
          2   -1    0    0  501    0  0.00000000000E+00  0.00000000000E+00  0.13564071404E+03  0.13564071404E+03  0.00000000000E+00 0.  1.
          2   -1    0    0  502    0 -0.00000000000E+00 -0.00000000000E+00 -0.13782332319E+04  0.13782332319E+04  0.00000000000E+00 0. -1.
         25    1    1    2    0    0  0.43420286474E+02  0.49176507657E+02 -0.27272465180E+03  0.30709507629E+03  0.12500000000E+03 0.  0.
          2    1    1    2  501    0 -0.48009318909E+02  0.21838242432E+02  0.11135629801E+03  0.12321537502E+03  0.00000000000E+00 0.  1.
          2    1    1    2  502    0  0.45890324345E+01 -0.71014750089E+02 -0.10812241640E+04  0.10835634946E+04  0.00000000000E+00 0. -1.
<mgrwt>
<rscale>  0 0.60605315E+02</rscale>
<asrwt>0</asrwt>
<pdfrwt beam="1">  1        2 0.20867802E-01 0.52742806E+02</pdfrwt>
<pdfrwt beam="2">  1        2 0.21203589E+00 0.69639908E+02</pdfrwt>
<totfact> 0.67897661E+02</totfact>
</mgrwt>
</event>
<event>
 5    1  0.4149151E-003  0.1279211E+03  0.7546771E-02  0.1259325E+00
          2   -1    0    0  501    0  0.00000000000E+00  0.00000000000E+00  0.78881452910E+03  0.78881452910E+03  0.00000000000E+00 0. -1.
          1   -1    0    0  502    0 -0.00000000000E+00 -0.00000000000E+00 -0.11255208936E+04  0.11255208936E+04  0.00000000000E+00 0. -1.
         25    1    1    2    0    0  0.75427157060E+02  0.20485566346E+03  0.18814165867E+03  0.31412956339E+03  0.12500000000E+03 0.  0.
          2    1    1    2  501    0 -0.51923189230E+02 -0.80454045944E+02  0.52959896429E+03  0.53818578026E+03  0.00000000000E+00 0. -1.
          1    1    1    2  502    0 -0.23503967830E+02 -0.12440161751E+03 -0.10544469874E+04  0.10620200790E+04  0.00000000000E+00 0. -1.
<mgrwt>
<rscale>  0 0.11067513E+03</rscale>
<asrwt>0</asrwt>
<pdfrwt beam="1">  1        2 0.12135608E+00 0.95754222E+02</pdfrwt>
<pdfrwt beam="2">  1        1 0.17315706E+00 0.12792110E+03</pdfrwt>
<totfact> 0.70274683E+01</totfact>
</mgrwt>
</event>
<event>
 5    1  0.4149151E-003  0.6055105E+02  0.7546771E-02  0.1460418E+00
         -2   -1    0    0    0  501 -0.00000000000E+00  0.00000000000E+00  0.34896855788E+02  0.34896855788E+02  0.00000000000E+00 0.  1.
          2   -1    0    0  502    0  0.00000000000E+00 -0.00000000000E+00 -0.45633554336E+03  0.45633554336E+03  0.00000000000E+00 0. -1.
         25    1    1    2    0    0  0.24529150866E+02 -0.45440947911E+02 -0.16029620612E+03  0.20972942733E+03  0.12500000000E+03 0.  0.
          2    1    1    2  502    0  0.67410361696E+01  0.65151077057E+02 -0.13490148102E+03  0.14996170842E+03  0.00000000000E+00 0.  1.
         -2    1    1    2    0  501 -0.31270187035E+02 -0.19710129146E+02 -0.12624100043E+03  0.13154126340E+03  0.00000000000E+00 0. -1.
<mgrwt>
<rscale>  0 0.47309512E+02</rscale>
<asrwt>0</asrwt>
<pdfrwt beam="2">  1        2 0.70205466E-01 0.60551053E+02</pdfrwt>
<pdfrwt beam="1">  1       -2 0.53687472E-02 0.36963682E+02</pdfrwt>
<totfact> 0.10151620E+04</totfact>
</mgrwt>
</event>
<event>
 5    1  0.4149151E-003  0.6353145E+02  0.7546771E-02  0.1405250E+00
          1   -1    0    0  502    0 -0.00000000000E+00  0.00000000000E+00  0.90018847657E+02  0.90018847657E+02  0.00000000000E+00 0. -1.
          2   -1    0    0  501    0  0.00000000000E+00 -0.00000000000E+00 -0.90696085970E+03  0.90696085970E+03  0.00000000000E+00 0. -1.
         25    1    1    2    0    0 -0.75887841324E+02 -0.29129225531E+02 -0.40808186738E+03  0.43446897096E+03  0.12500000000E+03 0.  0.
          2    1    1    2  501    0  0.16163864211E+02  0.50936277849E+02 -0.47075479952E+03  0.47377827744E+03  0.00000000000E+00 0. -1.
          1    1    1    2  502    0  0.59723977113E+02 -0.21807052318E+02  0.61894654854E+02  0.88732458957E+02  0.00000000000E+00 0. -1.
<mgrwt>
<rscale>  0 0.58267366E+02</rscale>
<asrwt>0</asrwt>
<pdfrwt beam="2">  1        2 0.13953244E+00 0.53439451E+02</pdfrwt>
<pdfrwt beam="1">  1        1 0.13849054E-01 0.63531452E+02</pdfrwt>
<totfact> 0.16971822E+03</totfact>
</mgrwt>
</event>
<event>
 5    1  0.4149151E-003  0.5205335E+02  0.7546771E-02  0.1443963E+00
          2   -1    0    0  501    0  0.00000000000E+00  0.00000000000E+00  0.13887231738E+04  0.13887231738E+04  0.00000000000E+00 0. -1.
          1   -1    0    0  502    0 -0.00000000000E+00 -0.00000000000E+00 -0.37020775716E+03  0.37020775716E+03  0.00000000000E+00 0. -1.
         25    1    1    2    0    0 -0.53907648099E+02 -0.61959193785E+02 -0.10270949283E+03  0.18143653473E+03  0.12500000000E+03 0.  0.
          2    1    1    2  501    0  0.50230350318E+01  0.48260886694E+02  0.13460927462E+04  0.13469669727E+04  0.00000000000E+00 0. -1.
          1    1    1    2  502    0  0.48884613067E+02  0.13698307091E+02 -0.22486783674E+03  0.23052742356E+03  0.00000000000E+00 0. -1.
<mgrwt>
<rscale>  0 0.50256451E+02</rscale>
<asrwt>0</asrwt>
<pdfrwt beam="1">  1        2 0.21364972E+00 0.48521584E+02</pdfrwt>
<pdfrwt beam="2">  1        1 0.56955040E-01 0.52053348E+02</pdfrwt>
<totfact> 0.16595845E+02</totfact>
</mgrwt>
</event>
<event>
 5    1  0.4149151E-003  0.5037835E+02  0.7546771E-02  0.1479493E+00
          1   -1    0    0  502    0  0.00000000000E+00  0.00000000000E+00  0.13999070773E+03  0.13999070773E+03  0.00000000000E+00 0. -1.
          1   -1    0    0  501    0 -0.00000000000E+00 -0.00000000000E+00 -0.21930038549E+04  0.21930038549E+04  0.00000000000E+00 0. -1.
         25    1    1    2    0    0 -0.59015503165E+02  0.45540389898E+02 -0.11242605047E+04  0.11336416714E+04  0.12500000000E+03 0.  0.
          1    1    1    2  501    0  0.38750179626E+02  0.51357031322E+00 -0.10590082179E+04  0.10597170593E+04  0.00000000000E+00 0. -1.
          1    1    1    2  502    0  0.20265323539E+02 -0.46053960211E+02  0.13025557550E+03  0.13963583186E+03  0.00000000000E+00 0. -1.
<mgrwt>
<rscale>  0 0.44185310E+02</rscale>
<asrwt>0</asrwt>
<pdfrwt beam="1">  1        1 0.21537031E-01 0.50378352E+02</pdfrwt>
<pdfrwt beam="2">  1        1 0.33738522E+00 0.38753583E+02</pdfrwt>
<totfact> 0.86440840E+01</totfact>
</mgrwt>
</event>
<event>
 5    1  0.4149151E-003  0.7397467E+02  0.7546771E-02  0.1484581E+00
          2   -1    0    0  502    0  0.00000000000E+00  0.00000000000E+00  0.44532075773E+03  0.44532075773E+03  0.00000000000E+00 0. -1.
          2   -1    0    0  501    0 -0.00000000000E+00 -0.00000000000E+00 -0.31012005263E+03  0.31012005263E+03  0.00000000000E+00 0.  1.
         25    1    1    2    0    0  0.59155035429E+02 -0.48792052606E+02  0.33953702941E+03  0.36985183108E+03  0.12500000000E+03 0.  0.
          2    1    1    2  501    0 -0.69459893160E+02  0.25507514246E+02 -0.28840637523E+03  0.29774745560E+03  0.00000000000E+00 0.  1.
          2    1    1    2  502    0  0.10304857731E+02  0.23284538359E+02  0.84070050925E+02  0.87841523677E+02  0.00000000000E+00 0. -1.
<mgrwt>
<rscale>  0 0.43400582E+02</rscale>
<asrwt>0</asrwt>
<pdfrwt beam="1">  1        2 0.68510886E-01 0.25462911E+02</pdfrwt>
<pdfrwt beam="2">  1        2 0.47710777E-01 0.73974674E+02</pdfrwt>
<totfact> 0.11715030E+03</totfact>
</mgrwt>
</event>
<event>
 5    1  0.4149151E-003  0.1385129E+03  0.7546771E-02  0.1243123E+00
         -1   -1    0    0    0  502 -0.00000000000E+00  0.00000000000E+00  0.77247130011E+03  0.77247130011E+03  0.00000000000E+00 0. -1.
         -2   -1    0    0    0  501  0.00000000000E+00 -0.00000000000E+00 -0.49343873840E+03  0.49343873840E+03  0.00000000000E+00 0.  1.
         25    1    1    2    0    0 -0.13971207929E+03 -0.18523998360E+03 -0.33344842974E+02  0.26565051323E+03  0.12500000000E+03 0.  0.
         -2    1    1    2    0  501  0.84271923941E+02  0.97327074138E+02 -0.32755239998E+03  0.35194444342E+03  0.00000000000E+00 0.  1.
         -1    1    1    2    0  502  0.55440155353E+02  0.87912909462E+02  0.63992980466E+03  0.64831508186E+03  0.00000000000E+00 0. -1.
<mgrwt>
<rscale>  0 0.11998422E+03</rscale>
<asrwt>0</asrwt>
<pdfrwt beam="2">  1       -2 0.75913652E-01 0.13851294E+03</pdfrwt>
<pdfrwt beam="1">  1       -1 0.11884174E+00 0.10393407E+03</pdfrwt>
<totfact> 0.86499762E+00</totfact>
</mgrwt>
</event>
<event>
 5    1  0.4149151E-003  0.4406598E+02  0.7546771E-02  0.1484421E+00
          1   -1    0    0  502    0 -0.00000000000E+00  0.00000000000E+00  0.16366272727E+04  0.16366272727E+04  0.00000000000E+00 0. -1.
          2   -1    0    0  501    0  0.00000000000E+00 -0.00000000000E+00 -0.18432883854E+03  0.18432883854E+03  0.00000000000E+00 0. -1.
         25    1    1    2    0    0  0.55472619070E+02 -0.40364779511E+00 -0.24499119967E+01  0.13677856728E+03  0.12500000000E+03 0.  0.
          2    1    1    2  501    0 -0.28827086519E+02  0.33889141308E+02 -0.11009715049E+03  0.11874703096E+03  0.00000000000E+00 0. -1.
          1    1    1    2  502    0 -0.26645532550E+02 -0.33485493513E+02  0.15648454966E+04  0.15654305130E+04  0.00000000000E+00 0. -1.
<mgrwt>
<rscale>  0 0.43424954E+02</rscale>
<asrwt>0</asrwt>
<pdfrwt beam="2">  1        2 0.28358284E-01 0.44065978E+02</pdfrwt>
<pdfrwt beam="1">  1        1 0.25178880E+00 0.42793255E+02</pdfrwt>
<totfact> 0.17156657E+02</totfact>
</mgrwt>
</event>
<event>
 5    1  0.4149151E-003  0.3133983E+02  0.7546771E-02  0.1617845E+00
         -3   -1    0    0    0  502 -0.00000000000E+00  0.00000000000E+00  0.12218363340E+04  0.12218363340E+04  0.00000000000E+00 0.  1.
         -2   -1    0    0    0  501  0.00000000000E+00 -0.00000000000E+00 -0.41807377602E+02  0.41807377602E+02  0.00000000000E+00 0.  1.
         25    1    1    2    0    0 -0.10772744283E+02 -0.23740610480E+02  0.26015476560E+03  0.28980195077E+03  0.12500000000E+03 0.  0.
         -2    1    1    2    0  501  0.25146057233E+02 -0.44103960901E+01 -0.20619696930E+02  0.32816881167E+02  0.00000000000E+00 0.  1.
         -3    1    1    2    0  502 -0.14373312949E+02  0.28151006570E+02  0.94049388768E+03  0.94102487962E+03  0.00000000000E+00 0.  1.
<mgrwt>
<rscale>  0 0.28286087E+02</rscale>
<asrwt>0</asrwt>
<pdfrwt beam="2">  1       -2 0.64319052E-02 0.25529900E+02</pdfrwt>
<pdfrwt beam="1">  1       -3 0.18797479E+00 0.31339830E+02</pdfrwt>
<totfact> 0.83831391E+01</totfact>
</mgrwt>
</event>
<event>
 5    1  0.4149151E-003  0.1102206E+03  0.7546771E-02  0.1314181E+00
         -2   -1    0    0    0  501 -0.00000000000E+00  0.00000000000E+00  0.31715540031E+02  0.31715540031E+02  0.00000000000E+00 0.  1.
          2   -1    0    0  502    0  0.00000000000E+00 -0.00000000000E+00 -0.10457261160E+04  0.10457261160E+04  0.00000000000E+00 0. -1.
         25    1    1    2    0    0  0.59022654016E+02  0.43401864574E+02 -0.24853019319E+03  0.28767977416E+03  0.12500000000E+03 0.  0.
          2    1    1    2  502    0 -0.66164671479E+02 -0.10930946736E+03 -0.48427160367E+03  0.50084459619E+03  0.00000000000E+00 0. -1.
         -2    1    1    2    0  501  0.71420174627E+01  0.65907602783E+02 -0.28120877909E+03  0.28891728566E+03  0.00000000000E+00 0.  1.
<mgrwt>
<rscale>  0 0.85480415E+02</rscale>
<asrwt>0</asrwt>
<pdfrwt beam="2">  1        2 0.16088094E+00 0.11022057E+03</pdfrwt>
<pdfrwt beam="1">  1       -2 0.48793137E-02 0.66293442E+02</pdfrwt>
<totfact> 0.46133974E+03</totfact>
</mgrwt>
</event>
<event>
 5    1  0.4149151E-003  0.1699304E+03  0.7546771E-02  0.1224415E+00
         -1   -1    0    0    0  501 -0.00000000000E+00  0.00000000000E+00  0.60932775830E+03  0.60932775830E+03  0.00000000000E+00 0.  1.
          2   -1    0    0  502    0  0.00000000000E+00 -0.00000000000E+00 -0.26941377699E+04  0.26941377699E+04  0.00000000000E+00 0. -1.
         25    1    1    2    0    0 -0.14220005767E+03 -0.58748012410E+02 -0.26575747474E+03  0.33154821783E+03  0.12500000000E+03 0.  0.
          2    1    1    2  502    0  0.91578373236E+02  0.14804312839E+03 -0.23877214765E+04  0.23940587327E+04  0.00000000000E+00 0. -1.
         -1    1    1    2    0  501  0.50621684431E+02 -0.89295115977E+02  0.56866893973E+03  0.57785857758E+03  0.00000000000E+00 0.  1.
<mgrwt>
<rscale>  0 0.13207065E+03</rscale>
<asrwt>0</asrwt>
<pdfrwt beam="2">  1        2 0.41448274E+00 0.16993045E+03</pdfrwt>
<pdfrwt beam="1">  1       -1 0.93742731E-01 0.10264586E+03</pdfrwt>
<totfact> 0.46615338E+00</totfact>
</mgrwt>
</event>
<event>
 5    1  0.4149151E-003  0.1305073E+03  0.7546771E-02  0.1278421E+00
          2   -1    0    0  502    0  0.00000000000E+00  0.00000000000E+00  0.12533491474E+04  0.12533491474E+04  0.00000000000E+00 0. -1.
          2   -1    0    0  501    0 -0.00000000000E+00 -0.00000000000E+00 -0.10579324460E+03  0.10579324460E+03  0.00000000000E+00 0. -1.
         25    1    1    2    0    0 -0.10773430432E+03 -0.12832664822E+03  0.83606780196E+03  0.86180553400E+03  0.12500000000E+03 0.  0.
          2    1    1    2  501    0  0.29767197362E+02  0.12590728436E+03 -0.41469899892E+02  0.13586199944E+03  0.00000000000E+00 0. -1.
          2    1    1    2  502    0  0.77967106955E+02  0.24193638577E+01  0.35295800074E+03  0.36147485857E+03  0.00000000000E+00 0. -1.
<mgrwt>
<rscale>  0 0.10089685E+03</rscale>
<asrwt>0</asrwt>
<pdfrwt beam="1">  1        2 0.19282293E+00 0.78004635E+02</pdfrwt>
<pdfrwt beam="2">  1        2 0.16275885E-01 0.13050730E+03</pdfrwt>
<totfact> 0.10744313E+03</totfact>
</mgrwt>
</event>
<event>
 5    1  0.4149151E-003  0.3907148E+02  0.7546771E-02  0.1523390E+00
          1   -1    0    0  502    0  0.00000000000E+00  0.00000000000E+00  0.10421135153E+04  0.10421135153E+04  0.00000000000E+00 0. -1.
         -1   -1    0    0    0  501 -0.00000000000E+00 -0.00000000000E+00 -0.10728591114E+02  0.10728591114E+02  0.00000000000E+00 0.  1.
         25    1    1    2    0    0  0.10276050918E+02  0.10367173514E+02  0.55421949076E+03  0.56832853126E+03  0.12500000000E+03 0.  0.
          1    1    1    2  502    0  0.12673359723E+02 -0.41988454508E+02  0.29154594595E+03  0.29482653028E+03  0.00000000000E+00 0. -1.
         -1    1    1    2    0  501 -0.22949410642E+02  0.31621280994E+02  0.18561948750E+03  0.18968704489E+03  0.00000000000E+00 0.  1.
<mgrwt>
<rscale>  0 0.38009692E+02</rscale>
<asrwt>0</asrwt>
<pdfrwt beam="1">  1        1 0.16032508E+00 0.36976755E+02</pdfrwt>
<pdfrwt beam="2">  1       -1 0.16505533E-02 0.39071484E+02</pdfrwt>
<totfact> 0.11778601E+04</totfact>
</mgrwt>
</event>
<event>
 5    1  0.4149151E-003  0.1095898E+03  0.7546771E-02  0.1401195E+00
          2   -1    0    0  502    0  0.00000000000E+00  0.00000000000E+00  0.15440366645E+03  0.15440366645E+03  0.00000000000E+00 0.  1.
          2   -1    0    0  501    0 -0.00000000000E+00 -0.00000000000E+00 -0.25600045330E+04  0.25600045330E+04  0.00000000000E+00 0. -1.
         25    1    1    2    0    0  0.81881024316E+02 -0.47132117383E+02 -0.13657630491E+03  0.20785578100E+03  0.12500000000E+03 0.  0.
          2    1    1    2  501    0  0.26575085988E+02  0.17800730961E+02 -0.23610841647E+04  0.23613008140E+04  0.00000000000E+00 0. -1.
          2    1    1    2  502    0 -0.10845611030E+03  0.29331386422E+02  0.92059603063E+02  0.14525160449E+03  0.00000000000E+00 0.  1.
<mgrwt>
<rscale>  0 0.59205860E+02</rscale>
<asrwt>0</asrwt>
<pdfrwt beam="1">  1        2 0.23754411E-01 0.10958979E+03</pdfrwt>
<pdfrwt beam="2">  1        2 0.39384684E+00 0.31985953E+02</pdfrwt>
<totfact> 0.17336196E+02</totfact>
</mgrwt>
</event>
<event>
 5    1  0.4149151E-003  0.5065489E+02  0.7546771E-02  0.1465558E+00
          2   -1    0    0  502    0  0.00000000000E+00  0.00000000000E+00  0.86488271357E+03  0.86488271357E+03  0.00000000000E+00 0. -1.
          2   -1    0    0  501    0 -0.00000000000E+00 -0.00000000000E+00 -0.38745252787E+03  0.38745252787E+03  0.00000000000E+00 0. -1.
         25    1    1    2    0    0  0.38066957335E+02 -0.37118162520E+02 -0.87476036957E+02  0.16156703956E+03  0.12500000000E+03 0.  0.
          2    1    1    2  501    0 -0.40348320491E+02 -0.13580496722E+02 -0.26042315931E+03  0.26387997037E+03  0.00000000000E+00 0. -1.
          2    1    1    2  502    0  0.22813631560E+01  0.50698659242E+02  0.82532938197E+03  0.82688823151E+03  0.00000000000E+00 0. -1.
<mgrwt>
<rscale>  0 0.46438183E+02</rscale>
<asrwt>0</asrwt>
<pdfrwt beam="1">  1        2 0.13305888E+00 0.50654891E+02</pdfrwt>
<pdfrwt beam="2">  1        2 0.59608082E-01 0.42572489E+02</pdfrwt>
<totfact> 0.44417296E+02</totfact>
</mgrwt>
</event>
<event>
 5    1  0.4149151E-003  0.9468246E+02  0.7546771E-02  0.1377751E+00
         -1   -1    0    0    0  501 -0.00000000000E+00  0.00000000000E+00  0.44212302817E+03  0.44212302817E+03  0.00000000000E+00 0.  1.
          3   -1    0    0  502    0  0.00000000000E+00 -0.00000000000E+00 -0.36712422880E+03  0.36712422880E+03  0.00000000000E+00 0. -1.
         25    1    1    2    0    0 -0.21440525503E+02 -0.52535307894E+02  0.47246081181E+02  0.14517867232E+03  0.12500000000E+03 0.  0.
          3    1    1    2  502    0  0.14505388997E+02  0.96697582703E+02 -0.30913373909E+03  0.32422908175E+03  0.00000000000E+00 0. -1.
         -1    1    1    2    0  501  0.69351365059E+01 -0.44162274809E+02  0.33688645727E+03  0.33983950290E+03  0.00000000000E+00 0.  1.
<mgrwt>
<rscale>  0 0.65058721E+02</rscale>
<asrwt>0</asrwt>
<pdfrwt beam="2">  1        3 0.56480651E-01 0.94682464E+02</pdfrwt>
<pdfrwt beam="1">  1       -1 0.68018927E-01 0.44703497E+02</pdfrwt>
<totfact> 0.32686199E+01</totfact>
</mgrwt>
</event>
<event>
 5    1  0.4149151E-003  0.8523381E+02  0.7546771E-02  0.1352579E+00
          2   -1    0    0  502    0  0.00000000000E+00  0.00000000000E+00  0.90827971382E+03  0.90827971382E+03  0.00000000000E+00 0. -1.
         -3   -1    0    0    0  501 -0.00000000000E+00 -0.00000000000E+00 -0.14900076193E+03  0.14900076193E+03  0.00000000000E+00 0.  1.
         25    1    1    2    0    0 -0.75883511123E+02  0.44428563053E+02  0.32842631499E+03  0.36224446007E+03  0.12500000000E+03 0.  0.
          2    1    1    2  502    0  0.86967259369E+02  0.15817733159E+02  0.55213264453E+03  0.55916362725E+03  0.00000000000E+00 0. -1.
         -3    1    1    2    0  501 -0.11083748246E+02 -0.60246296212E+02 -0.12128000764E+03  0.13587238842E+03  0.00000000000E+00 0.  1.
<mgrwt>
<rscale>  0 0.72257868E+02</rscale>
<asrwt>0</asrwt>
<pdfrwt beam="1">  1        2 0.13973534E+00 0.85233814E+02</pdfrwt>
<pdfrwt beam="2">  1       -3 0.22923195E-01 0.61257372E+02</pdfrwt>
<totfact> 0.31111853E+02</totfact>
</mgrwt>
</event>
<event>
 5    1  0.4149151E-003  0.5841706E+02  0.7546771E-02  0.1466278E+00
          1   -1    0    0  502    0 -0.00000000000E+00  0.00000000000E+00  0.54302619062E+02  0.54302619062E+02  0.00000000000E+00 0. -1.
          2   -1    0    0  501    0  0.00000000000E+00 -0.00000000000E+00 -0.12285773467E+04  0.12285773467E+04  0.00000000000E+00 0. -1.
         25    1    1    2    0    0  0.22995943576E+02 -0.18474117430E+02 -0.30706020872E+03  0.33283791583E+03  0.12500000000E+03 0.  0.
          2    1    1    2  501    0  0.23029093963E+01 -0.36652422373E+02 -0.88583329250E+03  0.88659422825E+03  0.00000000000E+00 0. -1.
          1    1    1    2  502    0 -0.25298852972E+02  0.55126539803E+02  0.18618773549E+02  0.63447821719E+02  0.00000000000E+00 0. -1.
<mgrwt>
<rscale>  0 0.46317911E+02</rscale>
<asrwt>0</asrwt>
<pdfrwt beam="2">  1        2 0.18901188E+00 0.36724698E+02</pdfrwt>
<pdfrwt beam="1">  1        1 0.83542498E-02 0.58417059E+02</pdfrwt>
<totfact> 0.21989998E+03</totfact>
</mgrwt>
</event>
<event>
 5    1  0.4149151E-003  0.7606586E+02  0.7546771E-02  0.1424271E+00
          2   -1    0    0  502    0  0.00000000000E+00  0.00000000000E+00  0.10758395223E+04  0.10758395223E+04  0.00000000000E+00 0. -1.
         -2   -1    0    0    0  501 -0.00000000000E+00 -0.00000000000E+00 -0.18781984435E+02  0.18781984435E+02  0.00000000000E+00 0.  1.
         25    1    1    2    0    0  0.85165577783E+02 -0.23446802001E+02  0.47438278806E+03  0.49846460032E+03  0.12500000000E+03 0.  0.
          2    1    1    2  502    0 -0.56429781254E+02  0.49093673920E+02  0.49182119039E+03  0.49747622289E+03  0.00000000000E+00 0. -1.
         -2    1    1    2    0  501 -0.28735796529E+02 -0.25646871920E+02  0.90853559413E+02  0.98680683517E+02  0.00000000000E+00 0.  1.
<mgrwt>
<rscale>  0 0.54127424E+02</rscale>
<asrwt>0</asrwt>
<pdfrwt beam="1">  1        2 0.16551372E+00 0.76065859E+02</pdfrwt>
<pdfrwt beam="2">  1       -2 0.28895369E-02 0.38516335E+02</pdfrwt>
<totfact> 0.89862223E+03</totfact>
</mgrwt>
</event>
<event>
 5    1  0.4149151E-003  0.9346755E+02  0.7546771E-02  0.1319056E+00
         -2   -1    0    0    0  501  0.00000000000E+00  0.00000000000E+00  0.58099062117E+03  0.58099062117E+03  0.00000000000E+00 0.  1.
         -1   -1    0    0    0  502 -0.00000000000E+00 -0.00000000000E+00 -0.75835182884E+02  0.75835182884E+02  0.00000000000E+00 0.  1.
         25    1    1    2    0    0 -0.22903882186E+02 -0.85564649266E+02  0.14130903518E+03  0.20842058547E+03  0.12500000000E+03 0.  0.
         -2    1    1    2    0  501  0.74722841393E+02 -0.39423366568E+01  0.33179491161E+03  0.34012778248E+03  0.00000000000E+00 0.  1.
         -1    1    1    2    0  502 -0.51818959207E+02  0.89506985923E+02  0.32051491490E+02  0.10827743610E+03  0.00000000000E+00 0.  1.
<mgrwt>
<rscale>  0 0.83629390E+02</rscale>
<asrwt>0</asrwt>
<pdfrwt beam="1">  1       -2 0.89383169E-01 0.74826767E+02</pdfrwt>
<pdfrwt beam="2">  1       -1 0.11666952E-01 0.93467554E+02</pdfrwt>
<totfact> 0.38392007E+02</totfact>
</mgrwt>
</event>
<event>
 5    1  0.4149151E-003  0.1053273E+03  0.7546771E-02  0.1297696E+00
          3   -1    0    0  502    0  0.00000000000E+00  0.00000000000E+00  0.45610134082E+03  0.45610134082E+03  0.00000000000E+00 0. -1.
         -1   -1    0    0    0  501 -0.00000000000E+00 -0.00000000000E+00 -0.73768749959E+03  0.73768749959E+03  0.00000000000E+00 0.  1.
         25    1    1    2    0    0 -0.15112622318E+03 -0.79399541728E+02  0.74857288178E+01  0.21171787524E+03  0.12500000000E+03 0.  0.
          3    1    1    2  502    0  0.49138438627E+02  0.63944954983E+02  0.33753254795E+03  0.34703280010E+03  0.00000000000E+00 0. -1.
         -1    1    1    2    0  501  0.10198778456E+03  0.15454586745E+02 -0.62660443554E+03  0.63503816507E+03  0.00000000000E+00 0.  1.
<mgrwt>
<rscale>  0 0.92163313E+02</rscale>
<asrwt>0</asrwt>
<pdfrwt beam="1">  1        3 0.70169438E-01 0.80644550E+02</pdfrwt>
<pdfrwt beam="2">  1       -1 0.11349038E+00 0.10532734E+03</pdfrwt>
<totfact> 0.69722173E+00</totfact>
</mgrwt>
</event>
<event>
 5    1  0.4149151E-003  0.7728414E+02  0.7546771E-02  0.1465931E+00
          2   -1    0    0  501    0  0.00000000000E+00  0.00000000000E+00  0.22992472155E+03  0.22992472155E+03  0.00000000000E+00 0. -1.
          2   -1    0    0  502    0 -0.00000000000E+00 -0.00000000000E+00 -0.16477383626E+04  0.16477383626E+04  0.00000000000E+00 0.  1.
         25    1    1    2    0    0 -0.43719838733E+02 -0.32863813914E+02 -0.13600883780E+04  0.13669150854E+04  0.12500000000E+03 0.  0.
          2    1    1    2  501    0  0.71390909577E+02  0.29907005428E+02  0.21918116994E+03  0.23244671691E+03  0.00000000000E+00 0. -1.
          2    1    1    2  502    0 -0.27671070843E+02  0.29568084869E+01 -0.27690643292E+03  0.27830128184E+03  0.00000000000E+00 0.  1.
<mgrwt>
<rscale>  0 0.46375742E+02</rscale>
<asrwt>0</asrwt>
<pdfrwt beam="1">  1        2 0.35373034E-01 0.77284144E+02</pdfrwt>
<pdfrwt beam="2">  1        2 0.25349821E+00 0.27828598E+02</pdfrwt>
<totfact> 0.31288300E+02</totfact>
</mgrwt>
</event>
<event>
 5    1  0.4149151E-003  0.7256514E+02  0.7546771E-02  0.1489314E+00
         -1   -1    0    0    0  501 -0.00000000000E+00  0.00000000000E+00  0.16115485539E+03  0.16115485539E+03  0.00000000000E+00 0.  1.
          1   -1    0    0  502    0  0.00000000000E+00 -0.00000000000E+00 -0.13586715319E+03  0.13586715319E+03  0.00000000000E+00 0. -1.
         25    1    1    2    0    0  0.68132699856E+02 -0.32287013463E+02  0.79255377351E+02  0.16610518013E+03  0.12500000000E+03 0.  0.
          1    1    1    2  502    0  0.36066742879E+01  0.24851797135E+02 -0.53155248393E+02  0.58788607331E+02  0.00000000000E+00 0. -1.
         -1    1    1    2    0  501 -0.71739374144E+02  0.74352163282E+01 -0.81242676406E+00  0.72128221118E+02  0.00000000000E+00 0.  1.
<mgrwt>
<rscale>  0 0.42688012E+02</rscale>
<asrwt>0</asrwt>
<pdfrwt beam="2">  1        1 0.20902639E-01 0.25112147E+02</pdfrwt>
<pdfrwt beam="1">  1       -1 0.24793055E-01 0.72565138E+02</pdfrwt>
<totfact> 0.30180392E+03</totfact>
</mgrwt>
</event>
<event>
 5    1  0.4149151E-003  0.6414517E+02  0.7546771E-02  0.1515266E+00
          1   -1    0    0  502    0  0.00000000000E+00  0.00000000000E+00  0.16984301774E+04  0.16984301774E+04  0.00000000000E+00 0.  1.
         -2   -1    0    0    0  501 -0.00000000000E+00 -0.00000000000E+00 -0.37395997475E+02  0.37395997475E+02  0.00000000000E+00 0. -1.
         25    1    1    2    0    0 -0.86440491519E+02  0.27241738603E+01  0.43468866628E+03  0.46049822616E+03  0.12500000000E+03 0.  0.
          1    1    1    2  502    0  0.62775701927E+02 -0.37061827993E+00  0.12440794058E+04  0.12456622713E+04  0.00000000000E+00 0.  1.
         -2    1    1    2    0  501  0.23664789592E+02 -0.23535555804E+01 -0.17733892133E+02  0.29665677482E+02  0.00000000000E+00 0. -1.
<mgrwt>
<rscale>  0 0.39057274E+02</rscale>
<asrwt>0</asrwt>
<pdfrwt beam="1">  1        1 0.26129689E+00 0.64145167E+02</pdfrwt>
<pdfrwt beam="2">  1       -2 0.57532317E-02 0.23781537E+02</pdfrwt>
<totfact> 0.67499307E+02</totfact>
</mgrwt>
</event>
<event>
 5    1  0.4149151E-003  0.5389726E+02  0.7546771E-02  0.1509875E+00
          2   -1    0    0  502    0  0.00000000000E+00  0.00000000000E+00  0.48109665196E+02  0.48109665196E+02  0.00000000000E+00 0. -1.
         -1   -1    0    0    0  501 -0.00000000000E+00 -0.00000000000E+00 -0.28755717754E+03  0.28755717754E+03  0.00000000000E+00 0.  1.
         25    1    1    2    0    0 -0.21119678630E+02  0.46026698027E+02 -0.16670936223E+03  0.21443299469E+03  0.12500000000E+03 0.  0.
          2    1    1    2  502    0  0.27152904020E+02  0.11149329123E+02 -0.10940184676E+01  0.29373195485E+02  0.00000000000E+00 0. -1.
         -1    1    1    2    0  501 -0.60332253897E+01 -0.57176027151E+02 -0.71644131647E+02  0.91860652561E+02  0.00000000000E+00 0.  1.
<mgrwt>
<rscale>  0 0.39774819E+02</rscale>
<asrwt>0</asrwt>
<pdfrwt beam="1">  1        2 0.74014869E-02 0.29352815E+02</pdfrwt>
<pdfrwt beam="2">  1       -1 0.44239566E-01 0.53897259E+02</pdfrwt>
<totfact> 0.46209968E+03</totfact>
</mgrwt>
</event>
<event>
 5    1  0.4149151E-003  0.7768420E+02  0.7546771E-02  0.1375099E+00
          2   -1    0    0  502    0  0.00000000000E+00  0.00000000000E+00  0.90706257037E+03  0.90706257037E+03  0.00000000000E+00 0. -1.
          2   -1    0    0  501    0 -0.00000000000E+00 -0.00000000000E+00 -0.42328301500E+03  0.42328301500E+03  0.00000000000E+00 0. -1.
         25    1    1    2    0    0  0.28089388518E+02  0.30834564259E+02  0.19291683208E+03  0.23362724199E+03  0.12500000000E+03 0.  0.
          2    1    1    2  501    0  0.53519417319E+02 -0.15369202868E+02 -0.39849907700E+03  0.40237054415E+03  0.00000000000E+00 0. -1.
          2    1    1    2  502    0 -0.81608805837E+02 -0.15465361391E+02  0.68936180029E+03  0.69434779923E+03  0.00000000000E+00 0. -1.
<mgrwt>
<rscale>  0 0.65769675E+02</rscale>
<asrwt>0</asrwt>
<pdfrwt beam="1">  1        2 0.13954809E+00 0.77684200E+02</pdfrwt>
<pdfrwt beam="2">  1        2 0.65120464E-01 0.55682497E+02</pdfrwt>
<totfact> 0.37486327E+02</totfact>
</mgrwt>
</event>
<event>
 5    1  0.4149151E-003  0.9284108E+02  0.7546771E-02  0.1343077E+00
          1   -1    0    0  501    0  0.00000000000E+00  0.00000000000E+00  0.55115051345E+03  0.55115051345E+03  0.00000000000E+00 0. -1.
          1   -1    0    0  502    0 -0.00000000000E+00 -0.00000000000E+00 -0.11831733689E+04  0.11831733689E+04  0.00000000000E+00 0. -1.
         25    1    1    2    0    0  0.96234645237E+02  0.65847300637E+02  0.39945760092E+02  0.17554953060E+03  0.12500000000E+03 0.  0.
          1    1    1    2  501    0 -0.92130766020E+02 -0.49820607494E+01  0.43775629565E+03  0.44737397484E+03  0.00000000000E+00 0. -1.
          1    1    1    2  502    0 -0.41038792168E+01 -0.60865239888E+02 -0.11097249112E+04  0.11114003769E+04  0.00000000000E+00 0. -1.
<mgrwt>
<rscale>  0 0.75257061E+02</rscale>
<asrwt>0</asrwt>
<pdfrwt beam="1">  1        1 0.84792388E-01 0.92841085E+02</pdfrwt>
<pdfrwt beam="2">  1        1 0.18202667E+00 0.61003436E+02</pdfrwt>
<totfact> 0.64827288E+01</totfact>
</mgrwt>
</event>
<event>
 5    1  0.4149151E-003  0.4784063E+02  0.7546771E-02  0.1515804E+00
         -1   -1    0    0    0  501 -0.00000000000E+00  0.00000000000E+00  0.21518302890E+02  0.21518302890E+02  0.00000000000E+00 0.  1.
          1   -1    0    0  502    0  0.00000000000E+00 -0.00000000000E+00 -0.67170804200E+03  0.67170804200E+03  0.00000000000E+00 0. -1.
         25    1    1    2    0    0  0.10847657676E+02  0.30577900951E+02 -0.48879466247E+03  0.50556691126E+03  0.12500000000E+03 0.  0.
          1    1    1    2  502    0 -0.26471388453E+02 -0.58242189656E+02 -0.10826634498E+03  0.12575566992E+03  0.00000000000E+00 0. -1.
         -1    1    1    2    0  501  0.15623730777E+02  0.27664288705E+02 -0.53128731661E+02  0.61903763705E+02  0.00000000000E+00 0.  1.
<mgrwt>
<rscale>  0 0.38986634E+02</rscale>
<asrwt>0</asrwt>
<pdfrwt beam="2">  1        1 0.10333968E+00 0.47840626E+02</pdfrwt>
<pdfrwt beam="1">  1       -1 0.33105088E-02 0.31771274E+02</pdfrwt>
<totfact> 0.81359697E+03</totfact>
</mgrwt>
</event>
<event>
 5    1  0.4149151E-003  0.1108589E+03  0.7546771E-02  0.1448828E+00
          1   -1    0    0  502    0 -0.00000000000E+00  0.00000000000E+00  0.11430037832E+04  0.11430037832E+04  0.00000000000E+00 0. -1.
          2   -1    0    0  501    0  0.00000000000E+00 -0.00000000000E+00 -0.15832757540E+04  0.15832757540E+04  0.00000000000E+00 0. -1.
         25    1    1    2    0    0  0.18105548117E+02 -0.12955145377E+03  0.18688826740E+03  0.26012230688E+03  0.12500000000E+03 0.  0.
          2    1    1    2  501    0 -0.60947252537E+01  0.21114957029E+02 -0.15433440231E+04  0.15435004894E+04  0.00000000000E+00 0. -1.
          1    1    1    2  502    0 -0.12010822863E+02  0.10843649674E+03  0.91618378499E+03  0.92265674092E+03  0.00000000000E+00 0. -1.
<mgrwt>
<rscale>  0 0.49359311E+02</rscale>
<asrwt>0</asrwt>
<pdfrwt beam="2">  1        2 0.24358089E+00 0.21976967E+02</pdfrwt>
<pdfrwt beam="1">  1        1 0.17584674E+00 0.11085886E+03</pdfrwt>
<totfact> 0.28439413E+01</totfact>
</mgrwt>
</event>
<event>
 5    1  0.4149151E-003  0.4438344E+02  0.7546771E-02  0.1519508E+00
         -1   -1    0    0    0  501  0.00000000000E+00  0.00000000000E+00  0.21786943964E+04  0.21786943964E+04  0.00000000000E+00 0.  1.
         -1   -1    0    0    0  502 -0.00000000000E+00 -0.00000000000E+00 -0.11913197732E+03  0.11913197732E+03  0.00000000000E+00 0.  1.
         25    1    1    2    0    0 -0.45644937701E+02  0.61340761990E+01  0.11735519799E+04  0.11810886236E+04  0.12500000000E+03 0.  0.
         -1    1    1    2    0  502  0.16524679237E+02  0.29032361569E+02 -0.11241263592E+03  0.11727124010E+03  0.00000000000E+00 0.  1.
         -1    1    1    2    0  501  0.29120258465E+02 -0.35166437768E+02  0.99842307513E+03  0.99946651006E+03  0.00000000000E+00 0.  1.
<mgrwt>
<rscale>  0 0.38505341E+02</rscale>
<asrwt>0</asrwt>
<pdfrwt beam="1">  1       -1 0.33518372E+00 0.44383437E+02</pdfrwt>
<pdfrwt beam="2">  1       -1 0.18327998E-01 0.33405734E+02</pdfrwt>
<totfact> 0.53915268E+00</totfact>
</mgrwt>
</event>
<event>
 5    1  0.4149151E-003  0.1050925E+03  0.7546771E-02  0.1290437E+00
          1   -1    0    0  502    0  0.00000000000E+00  0.00000000000E+00  0.14264284504E+04  0.14264284504E+04  0.00000000000E+00 0. -1.
         -3   -1    0    0    0  501 -0.00000000000E+00 -0.00000000000E+00 -0.13103425642E+03  0.13103425642E+03  0.00000000000E+00 0.  1.
         25    1    1    2    0    0 -0.32345275941E+02  0.10259532833E+03  0.72122824076E+03  0.73984268161E+03  0.12500000000E+03 0.  0.
          1    1    1    2  502    0  0.85781911890E+02 -0.10908087670E+02  0.66944166583E+03  0.67500345684E+03  0.00000000000E+00 0. -1.
         -3    1    1    2    0  501 -0.53436635949E+02 -0.91687240662E+02 -0.95275712607E+02  0.14261656837E+03  0.00000000000E+00 0.  1.
<mgrwt>
<rscale>  0 0.95329070E+02</rscale>
<asrwt>0</asrwt>
<pdfrwt beam="1">  1        1 0.21945052E+00 0.86472671E+02</pdfrwt>
<pdfrwt beam="2">  1       -3 0.20159117E-01 0.10509253E+03</pdfrwt>
<totfact> 0.10143877E+02</totfact>
</mgrwt>
</event>
<event>
 5    1  0.4149151E-003  0.1739324E+03  0.7546771E-02  0.1244957E+00
          2   -1    0    0  502    0  0.00000000000E+00  0.00000000000E+00  0.85976375018E+03  0.85976375018E+03  0.00000000000E+00 0. -1.
          2   -1    0    0  501    0 -0.00000000000E+00 -0.00000000000E+00 -0.46825955969E+03  0.46825955969E+03  0.00000000000E+00 0. -1.
         25    1    1    2    0    0  0.15428621276E+03 -0.14880708526E+03  0.18634532006E+02  0.24883735623E+03  0.12500000000E+03 0.  0.
          2    1    1    2  501    0 -0.15544004365E+03  0.67563270334E+02 -0.33034793706E+03  0.37128986276E+03  0.00000000000E+00 0. -1.
          2    1    1    2  502    0  0.11538308938E+01  0.81243814930E+02  0.70321759554E+03  0.70789609087E+03  0.00000000000E+00 0. -1.
<mgrwt>
<rscale>  0 0.11887959E+03</rscale>
<asrwt>0</asrwt>
<pdfrwt beam="1">  1        2 0.13227135E+00 0.81252008E+02</pdfrwt>
<pdfrwt beam="2">  1        2 0.72039933E-01 0.17393241E+03</pdfrwt>
<totfact> 0.35584049E+02</totfact>
</mgrwt>
</event>
<event>
 5    1  0.4149151E-003  0.8856281E+02  0.7546771E-02  0.1418245E+00
          2   -1    0    0  502    0  0.00000000000E+00  0.00000000000E+00  0.20463768689E+04  0.20463768689E+04  0.00000000000E+00 0. -1.
         -1   -1    0    0    0  501 -0.00000000000E+00 -0.00000000000E+00 -0.13491840180E+03  0.13491840180E+03  0.00000000000E+00 0.  1.
         25    1    1    2    0    0 -0.73731918138E+02 -0.82162666009E+02  0.74832138363E+03  0.76667919799E+03  0.12500000000E+03 0.  0.
          2    1    1    2  502    0 -0.56791863682E+00  0.34643003639E+02  0.12731461777E+04  0.12736175447E+04  0.00000000000E+00 0. -1.
         -1    1    1    2    0  501  0.74299836775E+02  0.47519662369E+02 -0.11000909432E+03  0.14099852797E+03  0.00000000000E+00 0.  1.
<mgrwt>
<rscale>  0 0.55393990E+02</rscale>
<asrwt>0</asrwt>
<pdfrwt beam="1">  1        2 0.31482719E+00 0.34647658E+02</pdfrwt>
<pdfrwt beam="2">  1       -1 0.20756679E-01 0.88562814E+02</pdfrwt>
<totfact> 0.18626708E+02</totfact>
</mgrwt>
</event>
<event>
 5    1  0.4149151E-003  0.4065205E+02  0.7546771E-02  0.1591052E+00
          2   -1    0    0  501    0  0.00000000000E+00  0.00000000000E+00  0.16489158983E+04  0.16489158983E+04  0.00000000000E+00 0. -1.
          1   -1    0    0  502    0 -0.00000000000E+00 -0.00000000000E+00 -0.11069773683E+04  0.11069773683E+04  0.00000000000E+00 0. -1.
         25    1    1    2    0    0 -0.32651348993E+02  0.44492935771E+02  0.81259256737E+03  0.82400085708E+03  0.12500000000E+03 0.  0.
          2    1    1    2  501    0  0.22527402927E+02 -0.51266915230E+01  0.83008334060E+03  0.83040479237E+03  0.00000000000E+00 0. -1.
          1    1    1    2  502    0  0.10123946066E+02 -0.39366244248E+02 -0.11007373779E+04  0.11014876171E+04  0.00000000000E+00 0. -1.
<mgrwt>
<rscale>  0 0.30646378E+02</rscale>
<asrwt>0</asrwt>
<pdfrwt beam="1">  1        2 0.25367937E+00 0.23103395E+02</pdfrwt>
<pdfrwt beam="2">  1        1 0.17030421E+00 0.40652054E+02</pdfrwt>
<totfact> 0.30082148E+01</totfact>
</mgrwt>
</event>
<event>
 5    1  0.4149151E-003  0.6473091E+02  0.7546771E-02  0.1468490E+00
          2   -1    0    0  502    0  0.00000000000E+00  0.00000000000E+00  0.44408589228E+03  0.44408589228E+03  0.00000000000E+00 0. -1.
         -1   -1    0    0    0  501 -0.00000000000E+00 -0.00000000000E+00 -0.33372725629E+02  0.33372725629E+02  0.00000000000E+00 0.  1.
         25    1    1    2    0    0 -0.30550565823E+02  0.52262842246E+02  0.27790986412E+03  0.31068252981E+03  0.12500000000E+03 0.  0.
          2    1    1    2  502    0  0.28475053264E+02  0.15912984883E+02  0.40377533163E+02  0.51907580666E+02  0.00000000000E+00 0. -1.
         -1    1    1    2    0  501  0.20755125597E+01 -0.68175827129E+02  0.92425769359E+02  0.11486850743E+03  0.00000000000E+00 0.  1.
<mgrwt>
<rscale>  0 0.45951167E+02</rscale>
<asrwt>0</asrwt>
<pdfrwt beam="1">  1        2 0.68320903E-01 0.32619806E+02</pdfrwt>
<pdfrwt beam="2">  1       -1 0.51342658E-02 0.64730909E+02</pdfrwt>
<totfact> 0.12204956E+04</totfact>
</mgrwt>
</event>
<event>
 5    1  0.4149151E-003  0.2182266E+02  0.7546771E-02  0.1714137E+00
          2   -1    0    0  502    0  0.00000000000E+00  0.00000000000E+00  0.22039989788E+04  0.22039989788E+04  0.00000000000E+00 0. -1.
         -1   -1    0    0    0  501 -0.00000000000E+00 -0.00000000000E+00 -0.58941404233E+01  0.58941404233E+01  0.00000000000E+00 0.  1.
         25    1    1    2    0    0 -0.58799533351E+01  0.15071583546E+02  0.85897975401E+03  0.86817794505E+03  0.12500000000E+03 0.  0.
          2    1    1    2  502    0 -0.17374260677E+02 -0.13204680995E+02  0.12267498355E+04  0.12269439219E+04  0.00000000000E+00 0. -1.
         -1    1    1    2    0  501  0.23254214012E+02 -0.18669025505E+01  0.11237524890E+03  0.11477125232E+03  0.00000000000E+00 0.  1.
<mgrwt>
<rscale>  0 0.21663530E+02</rscale>
<asrwt>0</asrwt>
<pdfrwt beam="1">  1        2 0.33907611E+00 0.21822661E+02</pdfrwt>
<pdfrwt beam="2">  1       -1 0.90679259E-03 0.21505559E+02</pdfrwt>
<totfact> 0.12507607E+04</totfact>
</mgrwt>
</event>
<event>
 5    1  0.4149151E-003  0.7840518E+02  0.7546771E-02  0.1398330E+00
          3   -1    0    0  502    0 -0.00000000000E+00  0.00000000000E+00  0.13996125305E+03  0.13996125305E+03  0.00000000000E+00 0. -1.
          1   -1    0    0  501    0  0.00000000000E+00 -0.00000000000E+00 -0.15321768033E+04  0.15321768033E+04  0.00000000000E+00 0. -1.
         25    1    1    2    0    0 -0.69517533281E+02 -0.26587455648E+01 -0.14449453083E+03  0.20333082846E+03  0.12500000000E+03 0.  0.
          1    1    1    2  501    0  0.63088224271E+02  0.47938669184E+02 -0.13523240316E+04  0.13546433208E+04  0.00000000000E+00 0. -1.
          3    1    1    2  502    0  0.64293090098E+01 -0.45279923619E+02  0.10460301227E+03  0.11416390705E+03  0.00000000000E+00 0. -1.
<mgrwt>
<rscale>  0 0.59881465E+02</rscale>
<asrwt>0</asrwt>
<pdfrwt beam="2">  1        1 0.23571951E+00 0.78405177E+02</pdfrwt>
<pdfrwt beam="1">  1        3 0.21532500E-01 0.45734096E+02</pdfrwt>
<totfact> 0.71773062E+01</totfact>
</mgrwt>
</event>
<event>
 5    1  0.4149151E-003  0.1327381E+03  0.7546771E-02  0.1323859E+00
          1   -1    0    0  502    0 -0.00000000000E+00  0.00000000000E+00  0.77304912927E+03  0.77304912927E+03  0.00000000000E+00 0. -1.
          2   -1    0    0  501    0  0.00000000000E+00 -0.00000000000E+00 -0.10957548915E+03  0.10957548915E+03  0.00000000000E+00 0.  1.
         25    1    1    2    0    0  0.77214951867E+02 -0.71927152611E+02  0.11776797909E+03  0.20156874999E+03  0.12500000000E+03 0.  0.
          2    1    1    2  501    0  0.48657861316E+02  0.13445804353E+02 -0.49010092747E+02  0.70358839627E+02  0.00000000000E+00 0.  1.
          1    1    1    2  502    0 -0.12587281318E+03  0.58481348258E+02  0.59471575377E+03  0.61069702880E+03  0.00000000000E+00 0. -1.
<mgrwt>
<rscale>  0 0.81858481E+02</rscale>
<asrwt>0</asrwt>
<pdfrwt beam="2">  1        2 0.16857768E-01 0.50481453E+02</pdfrwt>
<pdfrwt beam="1">  1        1 0.11893063E+00 0.13273807E+03</pdfrwt>
<totfact> 0.10777249E+03</totfact>
</mgrwt>
</event>
<event>
 5    1  0.4149151E-003  0.8458721E+02  0.7546771E-02  0.1474288E+00
          1   -1    0    0  502    0  0.00000000000E+00  0.00000000000E+00  0.94686015411E+02  0.94686015411E+02  0.00000000000E+00 0. -1.
          1   -1    0    0  501    0 -0.00000000000E+00 -0.00000000000E+00 -0.17978485369E+04  0.17978485369E+04  0.00000000000E+00 0. -1.
         25    1    1    2    0    0  0.71971083105E+02 -0.52722955245E+02 -0.38941024157E+03  0.41859871363E+03  0.12500000000E+03 0.  0.
          1    1    1    2  501    0 -0.19675894989E+02 -0.13653170090E+02 -0.13714216497E+04  0.13716307415E+04  0.00000000000E+00 0. -1.
          1    1    1    2  502    0 -0.52295188116E+02  0.66376125335E+02  0.57669369699E+02  0.10230509721E+03  0.00000000000E+00 0. -1.
<mgrwt>
<rscale>  0 0.45008564E+02</rscale>
<asrwt>0</asrwt>
<pdfrwt beam="1">  1        1 0.14567080E-01 0.84587211E+02</pdfrwt>
<pdfrwt beam="2">  1        1 0.27659207E+00 0.23948902E+02</pdfrwt>
<totfact> 0.26680208E+02</totfact>
</mgrwt>
</event>
<event>
 5    1  0.4149151E-003  0.1366580E+03  0.7546771E-02  0.1261596E+00
          1   -1    0    0  502    0 -0.00000000000E+00  0.00000000000E+00  0.13555599088E+04  0.13555599088E+04  0.00000000000E+00 0. -1.
          2   -1    0    0  501    0  0.00000000000E+00 -0.00000000000E+00 -0.83902209974E+03  0.83902209974E+03  0.00000000000E+00 0. -1.
         25    1    1    2    0    0  0.31918426516E+02 -0.75130356122E+02  0.35308295159E+02  0.15341131663E+03  0.12500000000E+03 0.  0.
          2    1    1    2  501    0 -0.11957341977E+03  0.75390774542E+02 -0.77202256709E+03  0.78485693964E+03  0.00000000000E+00 0. -1.
          1    1    1    2  502    0  0.87654993250E+02 -0.26041841999E+00  0.12532520810E+04  0.12563137523E+04  0.00000000000E+00 0. -1.
<mgrwt>
<rscale>  0 0.10944773E+03</rscale>
<asrwt>0</asrwt>
<pdfrwt beam="2">  1        2 0.12908032E+00 0.13665797E+03</pdfrwt>
<pdfrwt beam="1">  1        1 0.20854768E+00 0.87655380E+02</pdfrwt>
<totfact> 0.46361650E+01</totfact>
</mgrwt>
</event>
<event>
 5    1  0.4149151E-003  0.5037695E+02  0.7546771E-02  0.1503610E+00
         -2   -1    0    0    0  501 -0.00000000000E+00  0.00000000000E+00  0.97113678386E+01  0.97113678386E+01  0.00000000000E+00 0.  1.
          1   -1    0    0  502    0  0.00000000000E+00 -0.00000000000E+00 -0.13314280947E+04  0.13314280947E+04  0.00000000000E+00 0. -1.
         25    1    1    2    0    0  0.36329951762E+01 -0.48888061095E+02 -0.74750095171E+03  0.75946422824E+03  0.12500000000E+03 0.  0.
          1    1    1    2  502    0 -0.32518350465E+02  0.40724055391E+01 -0.33449531296E+03  0.33609692352E+03  0.00000000000E+00 0. -1.
         -2    1    1    2    0  501  0.28885355288E+02  0.44815655556E+02 -0.23972046216E+03  0.24557831075E+03  0.00000000000E+00 0.  1.
<mgrwt>
<rscale>  0 0.40632151E+02</rscale>
<asrwt>0</asrwt>
<pdfrwt beam="2">  1        1 0.20483510E+00 0.32772360E+02</pdfrwt>
<pdfrwt beam="1">  1       -2 0.14940565E-02 0.50376955E+02</pdfrwt>
<totfact> 0.92100532E+03</totfact>
</mgrwt>
</event>
<event>
 5    1  0.4149151E-003  0.8171099E+02  0.7546771E-02  0.1333885E+00
         -3   -1    0    0    0  501 -0.00000000000E+00  0.00000000000E+00  0.27350284788E+03  0.27350284788E+03  0.00000000000E+00 0.  1.
          2   -1    0    0  502    0  0.00000000000E+00 -0.00000000000E+00 -0.26979417200E+03  0.26979417200E+03  0.00000000000E+00 0. -1.
         25    1    1    2    0    0 -0.95125994060E+02  0.68564266842E+02  0.10301526206E+03  0.19996789155E+03  0.12500000000E+03 0.  0.
          2    1    1    2  502    0  0.74830207863E+02  0.60185911893E+01 -0.20159569759E+03  0.21511998684E+03  0.00000000000E+00 0. -1.
         -3    1    1    2    0  501  0.20295786197E+02 -0.74582858031E+02  0.10228911141E+03  0.12820914149E+03  0.00000000000E+00 0.  1.
<mgrwt>
<rscale>  0 0.78321108E+02</rscale>
<asrwt>0</asrwt>
<pdfrwt beam="2">  1        2 0.41506796E-01 0.75071855E+02</pdfrwt>
<pdfrwt beam="1">  1       -3 0.42077361E-01 0.81710994E+02</pdfrwt>
<totfact> 0.39981244E+02</totfact>
</mgrwt>
</event>
<event>
 5    1  0.4149151E-003  0.6654905E+02  0.7546771E-02  0.1433744E+00
         -1   -1    0    0    0  501 -0.00000000000E+00  0.00000000000E+00  0.21957693263E+02  0.21957693263E+02  0.00000000000E+00 0.  1.
          2   -1    0    0  502    0  0.00000000000E+00 -0.00000000000E+00 -0.88418233059E+03  0.88418233059E+03  0.00000000000E+00 0. -1.
         25    1    1    2    0    0  0.38676381712E+02 -0.75247172810E+02 -0.36579078766E+03  0.39570936286E+03  0.12500000000E+03 0.  0.
          2    1    1    2  502    0  0.95046994919E+00  0.64844138684E+02 -0.40603283109E+03  0.41117918921E+03  0.00000000000E+00 0. -1.
         -1    1    1    2    0  501 -0.39626851661E+02  0.10403034126E+02 -0.90401018581E+02  0.99251471788E+02  0.00000000000E+00 0.  1.
<mgrwt>
<rscale>  0 0.52215801E+02</rscale>
<asrwt>0</asrwt>
<pdfrwt beam="2">  1        2 0.13602804E+00 0.66549051E+02</pdfrwt>
<pdfrwt beam="1">  1       -1 0.33781069E-02 0.40969629E+02</pdfrwt>
<totfact> 0.96293037E+03</totfact>
</mgrwt>
</event>
<event>
 5    1  0.4149151E-003  0.7174968E+02  0.7546771E-02  0.1438669E+00
          1   -1    0    0  502    0  0.00000000000E+00  0.00000000000E+00  0.81707876718E+03  0.81707876718E+03  0.00000000000E+00 0. -1.
          1   -1    0    0  501    0 -0.00000000000E+00 -0.00000000000E+00 -0.11359890111E+03  0.11359890111E+03  0.00000000000E+00 0. -1.
         25    1    1    2    0    0  0.72285288136E+02  0.46619334739E+02  0.37769887800E+03  0.40703804208E+03  0.12500000000E+03 0.  0.
          1    1    1    2  501    0 -0.38349262674E+02 -0.60379626711E+02 -0.85078301427E+02  0.11115162007E+03  0.00000000000E+00 0. -1.
          1    1    1    2  502    0 -0.33936025462E+02  0.13760291972E+02  0.41085928949E+03  0.41248800615E+03  0.00000000000E+00 0. -1.
<mgrwt>
<rscale>  0 0.51258648E+02</rscale>
<asrwt>0</asrwt>
<pdfrwt beam="1">  1        1 0.12570442E+00 0.36619659E+02</pdfrwt>
<pdfrwt beam="2">  1        1 0.17476755E-01 0.71749683E+02</pdfrwt>
<totfact> 0.85524097E+02</totfact>
</mgrwt>
</event>
<event>
 5    1  0.4149151E-003  0.5883714E+02  0.7546771E-02  0.1459561E+00
          3   -1    0    0  502    0 -0.00000000000E+00  0.00000000000E+00  0.44212352655E+02  0.44212352655E+02  0.00000000000E+00 0. -1.
          2   -1    0    0  501    0  0.00000000000E+00 -0.00000000000E+00 -0.52895650857E+03  0.52895650857E+03  0.00000000000E+00 0. -1.
         25    1    1    2    0    0  0.73618879518E+02  0.42664002334E+02 -0.20761516907E+03  0.25684433991E+03  0.12500000000E+03 0.  0.
          2    1    1    2  501    0 -0.19642833714E+02 -0.32853692226E+02 -0.25386629549E+03  0.25673586036E+03  0.00000000000E+00 0. -1.
          3    1    1    2  502    0 -0.53976045804E+02 -0.98103101078E+01 -0.23262691356E+02  0.59588660953E+02  0.00000000000E+00 0. -1.
<mgrwt>
<rscale>  0 0.47457018E+02</rscale>
<asrwt>0</asrwt>
<pdfrwt beam="2">  1        2 0.81377927E-01 0.38278009E+02</pdfrwt>
<pdfrwt beam="1">  1        3 0.68019002E-02 0.58837139E+02</pdfrwt>
<totfact> 0.43943207E+03</totfact>
</mgrwt>
</event>
<event>
 5    1  0.4149151E-003  0.6304452E+02  0.7546771E-02  0.1508856E+00
         -2   -1    0    0    0  501 -0.00000000000E+00  0.00000000000E+00  0.85422223858E+02  0.85422223858E+02  0.00000000000E+00 0.  1.
          1   -1    0    0  502    0  0.00000000000E+00 -0.00000000000E+00 -0.15834466739E+03  0.15834466739E+03  0.00000000000E+00 0. -1.
         25    1    1    2    0    0 -0.78083371295E+01 -0.53192493284E+02 -0.30387120451E+02  0.13942305606E+03  0.12500000000E+03 0.  0.
          1    1    1    2  502    0 -0.23460963361E+02 -0.93838525243E+01 -0.12913374097E+02  0.28376552303E+02  0.00000000000E+00 0. -1.
         -2    1    1    2    0  501  0.31269300491E+02  0.62576345808E+02 -0.29621948982E+02  0.75967282888E+02  0.00000000000E+00 0.  1.
<mgrwt>
<rscale>  0 0.39912542E+02</rscale>
<asrwt>0</asrwt>
<pdfrwt beam="2">  1        1 0.24360718E-01 0.25268033E+02</pdfrwt>
<pdfrwt beam="1">  1       -2 0.13141881E-01 0.63044519E+02</pdfrwt>
<totfact> 0.63476752E+03</totfact>
</mgrwt>
</event>
<event>
 5    1  0.4149151E-003  0.9089825E+02  0.7546771E-02  0.1455784E+00
          3   -1    0    0  502    0  0.00000000000E+00  0.00000000000E+00  0.42881873812E+02  0.42881873812E+02  0.00000000000E+00 0. -1.
         -3   -1    0    0    0  501 -0.00000000000E+00 -0.00000000000E+00 -0.46616248940E+03  0.46616248940E+03  0.00000000000E+00 0.  1.
         25    1    1    2    0    0  0.26633375280E+02  0.75885264847E+02 -0.29936707482E+03  0.33423577843E+03  0.12500000000E+03 0.  0.
          3    1    1    2  502    0 -0.51851789730E+02 -0.79443877410E+02 -0.80238877947E+02  0.12425061485E+03  0.00000000000E+00 0. -1.
         -3    1    1    2    0  501  0.25218414450E+02  0.35586125631E+01 -0.43674662820E+02  0.50557969928E+02  0.00000000000E+00 0.  1.
<mgrwt>
<rscale>  0 0.48114654E+02</rscale>
<asrwt>0</asrwt>
<pdfrwt beam="1">  1        3 0.65972115E-02 0.90898245E+02</pdfrwt>
<pdfrwt beam="2">  1       -3 0.71717305E-01 0.25468258E+02</pdfrwt>
<totfact> 0.55769782E+02</totfact>
</mgrwt>
</event>
<event>
 5    1  0.4149151E-003  0.1253341E+03  0.7546771E-02  0.1250761E+00
          2   -1    0    0  501    0  0.00000000000E+00  0.00000000000E+00  0.10856356772E+04  0.10856356772E+04  0.00000000000E+00 0. -1.
          2   -1    0    0  502    0 -0.00000000000E+00 -0.00000000000E+00 -0.23471421764E+03  0.23471421764E+03  0.00000000000E+00 0. -1.
         25    1    1    2    0    0  0.59586833746E+02 -0.99878898147E+02  0.17600853234E+03  0.24521498426E+03  0.12500000000E+03 0.  0.
          2    1    1    2  501    0  0.43858296589E+02  0.12471359502E+03  0.85543911271E+03  0.86559407722E+03  0.00000000000E+00 0. -1.
          2    1    1    2  502    0 -0.10344513033E+03 -0.24834696874E+02 -0.18052618554E+03  0.20954083331E+03  0.00000000000E+00 0. -1.
<mgrwt>
<rscale>  0 0.11547121E+03</rscale>
<asrwt>0</asrwt>
<pdfrwt beam="1">  1        2 0.16702087E+00 0.12533408E+03</pdfrwt>
<pdfrwt beam="2">  1        2 0.36109880E-01 0.10638448E+03</pdfrwt>
<totfact> 0.53253579E+02</totfact>
</mgrwt>
</event>
<event>
 5    1  0.4149151E-003  0.6919998E+02  0.7546771E-02  0.1432134E+00
          1   -1    0    0  502    0  0.00000000000E+00  0.00000000000E+00  0.21083456317E+03  0.21083456317E+03  0.00000000000E+00 0. -1.
         -1   -1    0    0    0  501 -0.00000000000E+00 -0.00000000000E+00 -0.82226454421E+02  0.82226454421E+02  0.00000000000E+00 0.  1.
         25    1    1    2    0    0  0.64694311504E+02  0.27475603030E+02  0.40161659515E+02  0.14892354279E+03  0.12500000000E+03 0.  0.
          1    1    1    2  502    0  0.74843389372E+01 -0.39173447063E+02  0.39598714080E+02  0.56201712082E+02  0.00000000000E+00 0. -1.
         -1    1    1    2    0  501 -0.72178650441E+02  0.11697844034E+02  0.48847735150E+02  0.87935762713E+02  0.00000000000E+00 0.  1.
<mgrwt>
<rscale>  0 0.52534123E+02</rscale>
<asrwt>0</asrwt>
<pdfrwt beam="1">  1        1 0.32436086E-01 0.39882005E+02</pdfrwt>
<pdfrwt beam="2">  1       -1 0.12650224E-01 0.69199985E+02</pdfrwt>
<totfact> 0.52008369E+03</totfact>
</mgrwt>
</event>
<event>
 5    1  0.4149151E-003  0.8603243E+02  0.7546771E-02  0.1458407E+00
          1   -1    0    0  502    0  0.00000000000E+00  0.00000000000E+00  0.29767447635E+04  0.29767447635E+04  0.00000000000E+00 0. -1.
         -1   -1    0    0    0  501 -0.00000000000E+00 -0.00000000000E+00 -0.33273342528E+02  0.33273342528E+02  0.00000000000E+00 0.  1.
         25    1    1    2    0    0 -0.52694392284E+02 -0.69643985178E+02  0.71396149592E+03  0.73006369674E+03  0.12500000000E+03 0.  0.
          1    1    1    2  502    0  0.28988212779E+02  0.81259249689E+02  0.22467622319E+04  0.22484180903E+04  0.00000000000E+00 0. -1.
         -1    1    1    2    0  501  0.23706179505E+02 -0.11615264511E+02 -0.17252306913E+02  0.31536318907E+02  0.00000000000E+00 0.  1.
<mgrwt>
<rscale>  0 0.47656626E+02</rscale>
<asrwt>0</asrwt>
<pdfrwt beam="1">  1        1 0.45796052E+00 0.86032430E+02</pdfrwt>
<pdfrwt beam="2">  1       -1 0.51189781E-02 0.26398813E+02</pdfrwt>
<totfact> 0.12197196E+02</totfact>
</mgrwt>
</event>
<event>
 5    1  0.4149151E-003  0.1046320E+03  0.7546771E-02  0.1312009E+00
          1   -1    0    0  501    0  0.00000000000E+00  0.00000000000E+00  0.14120005851E+04  0.14120005851E+04  0.00000000000E+00 0. -1.
          1   -1    0    0  502    0 -0.00000000000E+00 -0.00000000000E+00 -0.51436291055E+03  0.51436291055E+03  0.00000000000E+00 0. -1.
         25    1    1    2    0    0  0.27342564374E+02 -0.14463443475E+03 -0.29582512264E+03  0.35327643387E+03  0.12500000000E+03 0.  0.
          1    1    1    2  501    0  0.21433500755E+02  0.67915916689E+02  0.13714121689E+04  0.13732601005E+04  0.00000000000E+00 0. -1.
          1    1    1    2  502    0 -0.48776065128E+02  0.76718518057E+02 -0.17794937172E+03  0.19982696124E+03  0.00000000000E+00 0. -1.
<mgrwt>
<rscale>  0 0.86322953E+02</rscale>
<asrwt>0</asrwt>
<pdfrwt beam="1">  1        1 0.21723086E+00 0.71217741E+02</pdfrwt>
<pdfrwt beam="2">  1        1 0.79132756E-01 0.10463197E+03</pdfrwt>
<totfact> 0.49544951E+01</totfact>
</mgrwt>
</event>
<event>
 5    1  0.4149151E-003  0.3871185E+02  0.7546771E-02  0.1552903E+00
          2   -1    0    0  501    0  0.00000000000E+00  0.00000000000E+00  0.49326317877E+03  0.49326317877E+03  0.00000000000E+00 0. -1.
          1   -1    0    0  502    0 -0.00000000000E+00 -0.00000000000E+00 -0.17717354174E+03  0.17717354174E+03  0.00000000000E+00 0. -1.
         25    1    1    2    0    0 -0.15034163858E+02  0.36300083716E+01  0.20477221261E+02  0.12760689493E+03  0.12500000000E+03 0.  0.
          2    1    1    2  501    0 -0.19310921872E+02 -0.23971767431E+02  0.41541412434E+03  0.41655306029E+03  0.00000000000E+00 0. -1.
          1    1    1    2  502    0  0.34345085730E+02  0.20341759060E+02 -0.11980170857E+03  0.12627676529E+03  0.00000000000E+00 0. -1.
<mgrwt>
<rscale>  0 0.34520202E+02</rscale>
<asrwt>0</asrwt>
<pdfrwt beam="1">  1        2 0.75886642E-01 0.30782419E+02</pdfrwt>
<pdfrwt beam="2">  1        1 0.27257468E-01 0.38711849E+02</pdfrwt>
<totfact> 0.14445158E+03</totfact>
</mgrwt>
</event>
<event>
 5    1  0.4149151E-003  0.7162505E+02  0.7546771E-02  0.1445612E+00
          2   -1    0    0  502    0  0.00000000000E+00  0.00000000000E+00  0.55359132980E+03  0.55359132980E+03  0.00000000000E+00 0. -1.
         -1   -1    0    0    0  501 -0.00000000000E+00 -0.00000000000E+00 -0.39479107697E+02  0.39479107697E+02  0.00000000000E+00 0.  1.
         25    1    1    2    0    0  0.72283042014E+02 -0.34756873500E+02  0.42185415205E+03  0.44723461854E+03  0.12500000000E+03 0.  0.
          2    1    1    2  502    0 -0.87781354098E+00  0.34823075154E+02  0.55496600891E+02  0.65523200702E+02  0.00000000000E+00 0. -1.
         -1    1    1    2    0  501 -0.71405228473E+02 -0.66201654460E-01  0.36761469161E+02  0.80312618254E+02  0.00000000000E+00 0.  1.
<mgrwt>
<rscale>  0 0.49949943E+02</rscale>
<asrwt>0</asrwt>
<pdfrwt beam="1">  1        2 0.85167892E-01 0.34834137E+02</pdfrwt>
<pdfrwt beam="2">  1       -1 0.60737093E-02 0.71625049E+02</pdfrwt>
<totfact> 0.76832005E+03</totfact>
</mgrwt>
</event>
<event>
 5    1  0.4149151E-003  0.4662868E+02  0.7546771E-02  0.1554977E+00
          2   -1    0    0  502    0  0.00000000000E+00  0.00000000000E+00  0.43108781180E+03  0.43108781180E+03  0.00000000000E+00 0. -1.
         -1   -1    0    0    0  501 -0.00000000000E+00 -0.00000000000E+00 -0.34843461321E+02  0.34843461321E+02  0.00000000000E+00 0.  1.
         25    1    1    2    0    0 -0.29439963331E+02 -0.54472690757E+02  0.18208911943E+03  0.22938054166E+03  0.12500000000E+03 0.  0.
          2    1    1    2  502    0  0.34301003712E+02  0.29726026840E+02  0.20461198967E+03  0.20958592950E+03  0.00000000000E+00 0. -1.
         -1    1    1    2    0  501 -0.48610403808E+01  0.24746663916E+02  0.95432413786E+01  0.26964801957E+02  0.00000000000E+00 0.  1.
<mgrwt>
<rscale>  0 0.34292208E+02</rscale>
<asrwt>0</asrwt>
<pdfrwt beam="1">  1        2 0.66321198E-01 0.46628676E+02</pdfrwt>
<pdfrwt beam="2">  1       -1 0.53605328E-02 0.25219577E+02</pdfrwt>
<totfact> 0.10566294E+04</totfact>
</mgrwt>
</event>
<event>
 5    1  0.4149151E-003  0.8116789E+02  0.7546771E-02  0.1483150E+00
         -3   -1    0    0    0  501 -0.00000000000E+00  0.00000000000E+00  0.75506068246E+02  0.75506068246E+02  0.00000000000E+00 0.  1.
          2   -1    0    0  502    0  0.00000000000E+00 -0.00000000000E+00 -0.22248033142E+04  0.22248033142E+04  0.00000000000E+00 0.  1.
         25    1    1    2    0    0 -0.74460094263E+02 -0.27832192460E+02 -0.66802628528E+03  0.68425364771E+03  0.12500000000E+03 0.  0.
          2    1    1    2  502    0  0.81599120405E+02  0.55050106511E+01 -0.15455105904E+04  0.15476729973E+04  0.00000000000E+00 0.  1.
         -3    1    1    2    0  501 -0.71390261419E+01  0.22327181809E+02  0.64239629756E+02  0.68382737390E+02  0.00000000000E+00 0.  1.
<mgrwt>
<rscale>  0 0.43619218E+02</rscale>
<asrwt>0</asrwt>
<pdfrwt beam="2">  1        2 0.34227750E+00 0.81167889E+02</pdfrwt>
<pdfrwt beam="1">  1       -3 0.11616316E-01 0.23440750E+02</pdfrwt>
<totfact> 0.17344360E+02</totfact>
</mgrwt>
</event>
<event>
 5    1  0.4149151E-003  0.8142906E+02  0.7546771E-02  0.1395925E+00
          2   -1    0    0  502    0  0.00000000000E+00  0.00000000000E+00  0.66960085542E+03  0.66960085542E+03  0.00000000000E+00 0. -1.
         -3   -1    0    0    0  501 -0.00000000000E+00 -0.00000000000E+00 -0.10556275373E+04  0.10556275373E+04  0.00000000000E+00 0.  1.
         25    1    1    2    0    0 -0.24014325124E+02 -0.28631343124E+02 -0.12919908399E+03  0.18361330269E+03  0.12500000000E+03 0.  0.
          2    1    1    2  502    0  0.49622239676E+02  0.65495475513E+02  0.63920199016E+03  0.64446195249E+03  0.00000000000E+00 0. -1.
         -3    1    1    2    0  501 -0.25607914551E+02 -0.36864132389E+02 -0.89602958806E+03  0.89715313755E+03  0.00000000000E+00 0.  1.
<mgrwt>
<rscale>  0 0.60456626E+02</rscale>
<asrwt>0</asrwt>
<pdfrwt beam="1">  1        2 0.10301552E+00 0.81429062E+02</pdfrwt>
<pdfrwt beam="2">  1       -3 0.16240424E+00 0.44885739E+02</pdfrwt>
<totfact> 0.80660960E+00</totfact>
</mgrwt>
</event>
<event>
 5    1  0.4149151E-003  0.8131009E+02  0.7546771E-02  0.1349223E+00
          2   -1    0    0  501    0  0.00000000000E+00  0.00000000000E+00  0.42591607957E+04  0.42591607957E+04  0.00000000000E+00 0. -1.
          1   -1    0    0  502    0 -0.00000000000E+00 -0.00000000000E+00 -0.18276532913E+04  0.18276532913E+04  0.00000000000E+00 0. -1.
         25    1    1    2    0    0 -0.39231567440E+02  0.13436645782E+03  0.27407425231E+04  0.27471599951E+04  0.12500000000E+03 0.  0.
          2    1    1    2  501    0 -0.46180172386E+01 -0.65914290506E+02  0.15135828346E+04  0.15150244278E+04  0.00000000000E+00 0. -1.
          1    1    1    2  502    0  0.43849584678E+02 -0.68452167314E+02 -0.18228178532E+04  0.18246296641E+04  0.00000000000E+00 0. -1.
<mgrwt>
<rscale>  0 0.73298256E+02</rscale>
<asrwt>0</asrwt>
<pdfrwt beam="1">  1        2 0.65525551E+00 0.66075864E+02</pdfrwt>
<pdfrwt beam="2">  1        1 0.28117743E+00 0.81310088E+02</pdfrwt>
<totfact> 0.26204072E-01</totfact>
</mgrwt>
</event>
<event>
 5    1  0.4149151E-003  0.1240544E+03  0.7546771E-02  0.1341477E+00
          1   -1    0    0  502    0  0.00000000000E+00  0.00000000000E+00  0.21719451395E+04  0.21719451395E+04  0.00000000000E+00 0. -1.
         -3   -1    0    0    0  501 -0.00000000000E+00 -0.00000000000E+00 -0.57341001904E+02  0.57341001904E+02  0.00000000000E+00 0.  1.
         25    1    1    2    0    0  0.74102526605E+02  0.83081694356E+02  0.16483399663E+03  0.23492338928E+03  0.12500000000E+03 0.  0.
          1    1    1    2  502    0  0.45554067112E+02 -0.82167191734E+01  0.17452590989E+04  0.17458728504E+04  0.00000000000E+00 0. -1.
         -3    1    1    2    0  501 -0.11965659372E+03 -0.74864975182E+02  0.20451104209E+03  0.24848990174E+03  0.00000000000E+00 0.  1.
<mgrwt>
<rscale>  0 0.75778459E+02</rscale>
<asrwt>0</asrwt>
<pdfrwt beam="1">  1        1 0.33414534E+00 0.46289173E+02</pdfrwt>
<pdfrwt beam="2">  1       -3 0.88216943E-02 0.12405438E+03</pdfrwt>
<totfact> 0.15436453E+02</totfact>
</mgrwt>
</event>
<event>
 5    1  0.4149151E-003  0.6106899E+02  0.7546771E-02  0.1514280E+00
         -1   -1    0    0    0  501 -0.00000000000E+00  0.00000000000E+00  0.83460985738E+01  0.83460985738E+01  0.00000000000E+00 0.  1.
          2   -1    0    0  502    0  0.00000000000E+00 -0.00000000000E+00 -0.19766621895E+04  0.19766621895E+04  0.00000000000E+00 0. -1.
         25    1    1    2    0    0  0.18386929609E+02 -0.59285904685E+02 -0.77969777699E+03  0.79208997034E+03  0.12500000000E+03 0.  0.
          2    1    1    2  502    0  0.22186836893E+02  0.11834655089E+02 -0.68260713062E+03  0.68307013517E+03  0.00000000000E+00 0. -1.
         -1    1    1    2    0  501 -0.40573766502E+02  0.47451249597E+02 -0.50601118337E+03  0.50984818261E+03  0.00000000000E+00 0.  1.
<mgrwt>
<rscale>  0 0.39187151E+02</rscale>
<asrwt>0</asrwt>
<pdfrwt beam="2">  1        2 0.30410245E+00 0.25145870E+02</pdfrwt>
<pdfrwt beam="1">  1       -1 0.12840127E-02 0.61068987E+02</pdfrwt>
<totfact> 0.12007175E+04</totfact>
</mgrwt>
</event>
<event>
 5    1  0.4149151E-003  0.1312486E+03  0.7546771E-02  0.1354555E+00
          1   -1    0    0  502    0 -0.00000000000E+00  0.00000000000E+00  0.66547506268E+03  0.66547506268E+03  0.00000000000E+00 0. -1.
          2   -1    0    0  501    0  0.00000000000E+00 -0.00000000000E+00 -0.66146586312E+03  0.66146586312E+03  0.00000000000E+00 0. -1.
         25    1    1    2    0    0  0.10389644850E+03  0.11089710880E+03  0.31086860556E+03  0.36790886191E+03  0.12500000000E+03 0.  0.
          2    1    1    2  501    0 -0.34640365036E+01 -0.38965821294E+02 -0.62060778782E+03  0.62183949785E+03  0.00000000000E+00 0. -1.
          1    1    1    2  502    0 -0.10043241199E+03 -0.71931287504E+02  0.31374838182E+03  0.33719256604E+03  0.00000000000E+00 0. -1.
<mgrwt>
<rscale>  0 0.71654573E+02</rscale>
<asrwt>0</asrwt>
<pdfrwt beam="2">  1        2 0.10176398E+00 0.39119494E+02</pdfrwt>
<pdfrwt beam="1">  1        1 0.10238078E+00 0.13124857E+03</pdfrwt>
<totfact> 0.20242541E+02</totfact>
</mgrwt>
</event>
<event>
 5    1  0.4149151E-003  0.1361209E+03  0.7546771E-02  0.1279828E+00
          1   -1    0    0  502    0  0.00000000000E+00  0.00000000000E+00  0.10653313666E+04  0.10653313666E+04  0.00000000000E+00 0. -1.
          1   -1    0    0  501    0 -0.00000000000E+00 -0.00000000000E+00 -0.12678770625E+04  0.12678770625E+04  0.00000000000E+00 0. -1.
         25    1    1    2    0    0 -0.34891058333E+02  0.53375950967E+02  0.17082073313E+03  0.22106809123E+03  0.12500000000E+03 0.  0.
          1    1    1    2  501    0  0.72564797270E+02 -0.11682588063E+03 -0.12373710084E+04  0.12449903408E+04  0.00000000000E+00 0. -1.
          1    1    1    2  502    0 -0.37673738936E+02  0.63449929664E+02  0.86400457944E+03  0.86714999710E+03  0.00000000000E+00 0. -1.
<mgrwt>
<rscale>  0 0.10022266E+03</rscale>
<asrwt>0</asrwt>
<pdfrwt beam="1">  1        1 0.16389713E+00 0.73791627E+02</pdfrwt>
<pdfrwt beam="2">  1        1 0.19505801E+00 0.13612089E+03</pdfrwt>
<totfact> 0.20490473E+01</totfact>
</mgrwt>
</event>
<event>
 5    1  0.4149151E-003  0.4943538E+02  0.7546771E-02  0.1459209E+00
          2   -1    0    0  502    0  0.00000000000E+00  0.00000000000E+00  0.11882443652E+04  0.11882443652E+04  0.00000000000E+00 0. -1.
         -1   -1    0    0    0  501 -0.00000000000E+00 -0.00000000000E+00 -0.15272660792E+02  0.15272660792E+02  0.00000000000E+00 0.  1.
         25    1    1    2    0    0  0.63312509287E+02  0.41370838768E+01  0.39720395800E+03  0.42121440330E+03  0.12500000000E+03 0.  0.
          2    1    1    2  502    0 -0.37032090459E+02  0.33219416850E+02  0.52976046883E+03  0.53209121372E+03  0.00000000000E+00 0. -1.
         -1    1    1    2    0  501 -0.26280418828E+02 -0.37356500727E+02  0.24600727756E+03  0.25021140896E+03  0.00000000000E+00 0.  1.
<mgrwt>
<rscale>  0 0.47517798E+02</rscale>
<asrwt>0</asrwt>
<pdfrwt beam="1">  1        2 0.18280675E+00 0.49435384E+02</pdfrwt>
<pdfrwt beam="2">  1       -1 0.23496411E-02 0.45674594E+02</pdfrwt>
<totfact> 0.11144938E+04</totfact>
</mgrwt>
</event>
<event>
 5    1  0.4149151E-003  0.8392717E+02  0.7546771E-02  0.1435632E+00
         -2   -1    0    0    0  501 -0.00000000000E+00  0.00000000000E+00  0.59034462328E+02  0.59034462328E+02  0.00000000000E+00 0.  1.
          2   -1    0    0  502    0  0.00000000000E+00 -0.00000000000E+00 -0.34973180454E+03  0.34973180454E+03  0.00000000000E+00 0. -1.
         25    1    1    2    0    0  0.45871843370E+02  0.66484766209E+02 -0.18112462468E+03  0.23442606472E+03  0.12500000000E+03 0.  0.
          2    1    1    2  502    0 -0.20089965293E+02 -0.85486760062E+02 -0.11188192779E+03  0.14222924670E+03  0.00000000000E+00 0. -1.
         -2    1    1    2    0  501 -0.25781878077E+02  0.19001993853E+02  0.23092102662E+01  0.32110955445E+02  0.00000000000E+00 0.  1.
<mgrwt>
<rscale>  0 0.51845963E+02</rscale>
<asrwt>0</asrwt>
<pdfrwt beam="2">  1        2 0.53804894E-01 0.83927167E+02</pdfrwt>
<pdfrwt beam="1">  1       -2 0.90822248E-02 0.32027816E+02</pdfrwt>
<totfact> 0.60813070E+03</totfact>
</mgrwt>
</event>
<event>
 5    1  0.4149151E-003  0.7078186E+02  0.7546771E-02  0.1472190E+00
          2   -1    0    0  502    0  0.00000000000E+00  0.00000000000E+00  0.91598769651E+03  0.91598769651E+03  0.00000000000E+00 0. -1.
         -3   -1    0    0    0  501 -0.00000000000E+00 -0.00000000000E+00 -0.29200064974E+03  0.29200064974E+03  0.00000000000E+00 0.  1.
         25    1    1    2    0    0  0.26121033947E+02 -0.71666870428E+02 -0.14629134453E+03  0.20698938672E+03  0.12500000000E+03 0.  0.
          2    1    1    2  502    0 -0.47740025514E+02  0.52260816243E+02  0.88236964309E+03  0.88520420807E+03  0.00000000000E+00 0. -1.
         -3    1    1    2    0  501  0.21618991566E+02  0.19406054185E+02 -0.11209125180E+03  0.11579475146E+03  0.00000000000E+00 0.  1.
<mgrwt>
<rscale>  0 0.45346468E+02</rscale>
<asrwt>0</asrwt>
<pdfrwt beam="1">  1        2 0.14092118E+00 0.70781857E+02</pdfrwt>
<pdfrwt beam="2">  1       -3 0.44923177E-01 0.29051260E+02</pdfrwt>
<totfact> 0.84791581E+01</totfact>
</mgrwt>
</event>
<event>
 5    1  0.4149151E-003  0.2993727E+02  0.7546771E-02  0.1648290E+00
         -2   -1    0    0    0  501 -0.00000000000E+00  0.00000000000E+00  0.11410286955E+02  0.11410286955E+02  0.00000000000E+00 0.  1.
          2   -1    0    0  502    0  0.00000000000E+00 -0.00000000000E+00 -0.12586714658E+04  0.12586714658E+04  0.00000000000E+00 0.  1.
         25    1    1    2    0    0  0.30902648599E+02 -0.61967361546E+00 -0.56362849946E+03  0.57815001781E+03  0.12500000000E+03 0.  0.
          2    1    1    2  502    0 -0.88371786460E+01 -0.20606325752E+02 -0.62824447619E+03  0.62864444502E+03  0.00000000000E+00 0.  1.
         -2    1    1    2    0  501 -0.22065469953E+02  0.21225999367E+02 -0.55388203169E+02  0.63287289906E+02  0.00000000000E+00 0.  1.
<mgrwt>
<rscale>  0 0.25908179E+02</rscale>
<asrwt>0</asrwt>
<pdfrwt beam="2">  1        2 0.19364186E+00 0.22421338E+02</pdfrwt>
<pdfrwt beam="1">  1       -2 0.17554279E-02 0.29937274E+02</pdfrwt>
<totfact> 0.15017499E+04</totfact>
</mgrwt>
</event>
<event>
 5    1  0.4149151E-003  0.3688051E+02  0.7546771E-02  0.1596397E+00
          3   -1    0    0  502    0 -0.00000000000E+00  0.00000000000E+00  0.38369344205E+02  0.38369344205E+02  0.00000000000E+00 0. -1.
          2   -1    0    0  501    0  0.00000000000E+00 -0.00000000000E+00 -0.93100397987E+03  0.93100397987E+03  0.00000000000E+00 0.  1.
         25    1    1    2    0    0  0.50461956079E+02 -0.16079719139E+01 -0.43169102436E+03  0.45225118585E+03  0.12500000000E+03 0.  0.
          2    1    1    2  501    0 -0.32801457377E+02 -0.15594117658E+02 -0.48280658112E+03  0.48417074146E+03  0.00000000000E+00 0.  1.
          3    1    1    2  502    0 -0.17660498702E+02  0.17202089572E+02  0.21862969815E+02  0.32951396771E+02  0.00000000000E+00 0. -1.
<mgrwt>
<rscale>  0 0.30153624E+02</rscale>
<asrwt>0</asrwt>
<pdfrwt beam="2">  1        2 0.14323137E+00 0.36880506E+02</pdfrwt>
<pdfrwt beam="1">  1        3 0.59029764E-02 0.24653704E+02</pdfrwt>
<totfact> 0.24546560E+03</totfact>
</mgrwt>
</event>
<event>
 5    1  0.4149151E-003  0.3413533E+03  0.7546771E-02  0.1154666E+00
         -3   -1    0    0    0  501 -0.00000000000E+00  0.00000000000E+00  0.44603217580E+03  0.44603217580E+03  0.00000000000E+00 0.  1.
          2   -1    0    0  502    0  0.00000000000E+00 -0.00000000000E+00 -0.20780872241E+04  0.20780872241E+04  0.00000000000E+00 0. -1.
         25    1    1    2    0    0  0.23931389757E+03 -0.16206499691E+03  0.84728369675E+01  0.31501268825E+03  0.12500000000E+03 0.  0.
          2    1    1    2  502    0 -0.21819568173E+03  0.27059062369E+03 -0.18976489821E+04  0.19292227192E+04  0.00000000000E+00 0. -1.
         -3    1    1    2    0  501 -0.21118215841E+02 -0.10852562678E+03  0.25712109689E+03  0.27988399235E+03  0.00000000000E+00 0.  1.
<mgrwt>
<rscale>  0 0.19426900E+03</rscale>
<asrwt>0</asrwt>
<pdfrwt beam="2">  1        2 0.31970572E+00 0.34135328E+03</pdfrwt>
<pdfrwt beam="1">  1       -3 0.68620336E-01 0.11056125E+03</pdfrwt>
<totfact> 0.83598499E+00</totfact>
</mgrwt>
</event>
<event>
 5    1  0.4149151E-003  0.1543032E+03  0.7546771E-02  0.1339664E+00
         -3   -1    0    0    0  501 -0.00000000000E+00  0.00000000000E+00  0.32195876603E+03  0.32195876603E+03  0.00000000000E+00 0.  1.
          1   -1    0    0  502    0  0.00000000000E+00 -0.00000000000E+00 -0.10872159172E+04  0.10872159172E+04  0.00000000000E+00 0. -1.
         25    1    1    2    0    0 -0.71566742505E+02  0.11082058265E+03  0.36071090653E+02  0.18528120184E+03  0.12500000000E+03 0.  0.
          1    1    1    2  502    0  0.10937033699E+03 -0.11076049137E+03 -0.10048782027E+04  0.10168628026E+04  0.00000000000E+00 0. -1.
         -3    1    1    2    0  501 -0.37803594486E+02 -0.60091279277E-01  0.20354996090E+03  0.20703067877E+03  0.00000000000E+00 0.  1.
<mgrwt>
<rscale>  0 0.76375550E+02</rscale>
<asrwt>0</asrwt>
<pdfrwt beam="2">  1        1 0.16726398E+00 0.15430324E+03</pdfrwt>
<pdfrwt beam="1">  1       -3 0.49532119E-01 0.37803642E+02</pdfrwt>
<totfact> 0.28872185E+01</totfact>
</mgrwt>
</event>
<event>
 5    1  0.4149151E-003  0.3912983E+02  0.7546771E-02  0.1518708E+00
          2   -1    0    0  501    0  0.00000000000E+00  0.00000000000E+00  0.33314307953E+04  0.33314307953E+04  0.00000000000E+00 0. -1.
          2   -1    0    0  502    0 -0.00000000000E+00 -0.00000000000E+00 -0.27966374272E+04  0.27966374272E+04  0.00000000000E+00 0.  1.
         25    1    1    2    0    0 -0.23591938861E+02  0.29668037127E+02  0.16119477995E+04  0.16172314245E+04  0.12500000000E+03 0.  0.
          2    1    1    2  501    0 -0.13470950512E+02 -0.38471842235E+02  0.17164693585E+04  0.17169532923E+04  0.00000000000E+00 0. -1.
          2    1    1    2  502    0  0.37062889372E+02  0.88038051088E+01 -0.27936237898E+04  0.27938835058E+04  0.00000000000E+00 0.  1.
<mgrwt>
<rscale>  0 0.38608522E+02</rscale>
<asrwt>0</asrwt>
<pdfrwt beam="1">  1        2 0.51252781E+00 0.39129833E+02</pdfrwt>
<pdfrwt beam="2">  1        2 0.43025191E+00 0.38094156E+02</pdfrwt>
<totfact> 0.10697033E+00</totfact>
</mgrwt>
</event>
<event>
 5    1  0.4149151E-003  0.5746675E+02  0.7546771E-02  0.1418196E+00
         -2   -1    0    0    0  501 -0.00000000000E+00  0.00000000000E+00  0.76011952964E+01  0.76011952964E+01  0.00000000000E+00 0.  1.
          2   -1    0    0  502    0  0.00000000000E+00 -0.00000000000E+00 -0.24648965205E+04  0.24648965205E+04  0.00000000000E+00 0. -1.
         25    1    1    2    0    0 -0.63474720774E+02 -0.48100154060E+02 -0.15611383335E+04  0.15681583342E+04  0.12500000000E+03 0.  0.
          2    1    1    2  502    0  0.52894274659E+02 -0.74486360823E+01 -0.62896666768E+03  0.63123082586E+03  0.00000000000E+00 0. -1.
         -2    1    1    2    0  501  0.10580446114E+02  0.55548790143E+02 -0.26719032403E+03  0.27310855568E+03  0.00000000000E+00 0.  1.
<mgrwt>
<rscale>  0 0.55404453E+02</rscale>
<asrwt>0</asrwt>
<pdfrwt beam="2">  1        2 0.37921526E+00 0.53416163E+02</pdfrwt>
<pdfrwt beam="1">  1       -2 0.11694134E-02 0.57466753E+02</pdfrwt>
<totfact> 0.70222443E+03</totfact>
</mgrwt>
</event>
<event>
 5    1  0.4149151E-003  0.3734953E+02  0.7546771E-02  0.1533925E+00
         -2   -1    0    0    0  501 -0.00000000000E+00  0.00000000000E+00  0.69558652410E+01  0.69558652410E+01  0.00000000000E+00 0.  1.
          1   -1    0    0  502    0  0.00000000000E+00 -0.00000000000E+00 -0.18203194905E+04  0.18203194905E+04  0.00000000000E+00 0. -1.
         25    1    1    2    0    0 -0.48798682393E+01  0.33375638953E+02 -0.12906437761E+04  0.12971214682E+04  0.12500000000E+03 0.  0.
          1    1    1    2  502    0  0.38102169220E+02 -0.19302653602E+02 -0.39902199590E+03  0.40130153370E+03  0.00000000000E+00 0. -1.
         -2    1    1    2    0  501 -0.33222300981E+02 -0.14072985350E+02 -0.12369785325E+03  0.12885235387E+03  0.00000000000E+00 0.  1.
<mgrwt>
<rscale>  0 0.36709306E+02</rscale>
<asrwt>0</asrwt>
<pdfrwt beam="2">  1        1 0.28004904E+00 0.37349534E+02</pdfrwt>
<pdfrwt beam="1">  1       -2 0.10701336E-02 0.36080053E+02</pdfrwt>
<totfact> 0.68294731E+03</totfact>
</mgrwt>
</event>
<event>
 5    1  0.4149151E-003  0.1682845E+03  0.7546771E-02  0.1373307E+00
         -2   -1    0    0    0  501 -0.00000000000E+00  0.00000000000E+00  0.31384252501E+03  0.31384252501E+03  0.00000000000E+00 0.  1.
          2   -1    0    0  502    0  0.00000000000E+00 -0.00000000000E+00 -0.13804535012E+03  0.13804535012E+03  0.00000000000E+00 0. -1.
         25    1    1    2    0    0 -0.13047522299E+03  0.11759582711E+03  0.11825515825E+03  0.24588990386E+03  0.12500000000E+03 0.  0.
          2    1    1    2  502    0  0.25235927021E+02  0.66058113495E+01 -0.12318835881E+02  0.28848613028E+02  0.00000000000E+00 0. -1.
         -2    1    1    2    0  501  0.10523929597E+03 -0.12420163846E+03  0.69860852512E+02  0.17714935824E+03  0.00000000000E+00 0.  1.
<mgrwt>
<rscale>  0 0.66256327E+02</rscale>
<asrwt>0</asrwt>
<pdfrwt beam="2">  1        2 0.21237746E-01 0.26086179E+02</pdfrwt>
<pdfrwt beam="1">  1       -2 0.48283465E-01 0.16828455E+03</pdfrwt>
<totfact> 0.97908005E+02</totfact>
</mgrwt>
</event>
<event>
 5    1  0.4149151E-003  0.3160958E+02  0.7546771E-02  0.1582399E+00
          1   -1    0    0  501    0  0.00000000000E+00  0.00000000000E+00  0.67176646051E+03  0.67176646051E+03  0.00000000000E+00 0. -1.
          1   -1    0    0  502    0 -0.00000000000E+00 -0.00000000000E+00 -0.67449096314E+02  0.67449096314E+02  0.00000000000E+00 0. -1.
         25    1    1    2    0    0 -0.40948522484E+02 -0.11656381201E+02  0.41239880393E+03  0.43302474087E+03  0.12500000000E+03 0.  0.
          1    1    1    2  501    0  0.13905649713E+02  0.28073209999E+02  0.24359413376E+03  0.24560043610E+03  0.00000000000E+00 0. -1.
          1    1    1    2  502    0  0.27042872771E+02 -0.16416828797E+02 -0.51675573492E+02  0.60590379857E+02  0.00000000000E+00 0. -1.
<mgrwt>
<rscale>  0 0.31468707E+02</rscale>
<asrwt>0</asrwt>
<pdfrwt beam="1">  1        1 0.10334868E+00 0.31328457E+02</pdfrwt>
<pdfrwt beam="2">  1        1 0.10376785E-01 0.31609585E+02</pdfrwt>
<totfact> 0.20623994E+03</totfact>
</mgrwt>
</event>
<event>
 5    1  0.4149151E-003  0.9657664E+02  0.7546771E-02  0.1309504E+00
          2   -1    0    0  501    0  0.00000000000E+00  0.00000000000E+00  0.80288916214E+03  0.80288916214E+03  0.00000000000E+00 0. -1.
          2   -1    0    0  502    0 -0.00000000000E+00 -0.00000000000E+00 -0.20927603842E+03  0.20927603842E+03  0.00000000000E+00 0. -1.
         25    1    1    2    0    0 -0.39220501118E+02 -0.59515518137E+02  0.36072749045E+03  0.38836795308E+03  0.12500000000E+03 0.  0.
          2    1    1    2  501    0 -0.12644842917E+02  0.11901238149E+03  0.41148368649E+03  0.42853548657E+03  0.00000000000E+00 0. -1.
          2    1    1    2  502    0  0.51865344035E+02 -0.59496863357E+02 -0.17859805322E+03  0.19526176091E+03  0.00000000000E+00 0. -1.
<mgrwt>
<rscale>  0 0.87308423E+02</rscale>
<asrwt>0</asrwt>
<pdfrwt beam="1">  1        2 0.12352141E+00 0.96576636E+02</pdfrwt>
<pdfrwt beam="2">  1        2 0.32196314E-01 0.78929656E+02</pdfrwt>
<totfact> 0.90175333E+02</totfact>
</mgrwt>
</event>
<event>
 5    1  0.4149151E-003  0.3765270E+02  0.7546771E-02  0.1580754E+00
          1   -1    0    0  502    0 -0.00000000000E+00  0.00000000000E+00  0.10577235403E+04  0.10577235403E+04  0.00000000000E+00 0. -1.
          2   -1    0    0  501    0  0.00000000000E+00 -0.00000000000E+00 -0.52506290929E+03  0.52506290929E+03  0.00000000000E+00 0. -1.
         25    1    1    2    0    0 -0.11573584980E+02 -0.31546663367E+02  0.44586361291E+03  0.46427201203E+03  0.12500000000E+03 0.  0.
          2    1    1    2  501    0 -0.14814275562E+02  0.34637625465E+02 -0.51487736739E+03  0.51625374702E+03  0.00000000000E+00 0. -1.
          1    1    1    2  502    0  0.26387860541E+02 -0.30909620979E+01  0.60167438549E+03  0.60226069055E+03  0.00000000000E+00 0. -1.
<mgrwt>
<rscale>  0 0.31628582E+02</rscale>
<asrwt>0</asrwt>
<pdfrwt beam="2">  1        2 0.80778909E-01 0.37652697E+02</pdfrwt>
<pdfrwt beam="1">  1        1 0.16272670E+00 0.26568275E+02</pdfrwt>
<totfact> 0.14188080E+02</totfact>
</mgrwt>
</event>
<event>
 5    1  0.4149151E-003  0.2461870E+02  0.7546771E-02  0.1686176E+00
         -2   -1    0    0    0  501 -0.00000000000E+00  0.00000000000E+00  0.21690240912E+03  0.21690240912E+03  0.00000000000E+00 0.  1.
          1   -1    0    0  502    0  0.00000000000E+00 -0.00000000000E+00 -0.54967571905E+02  0.54967571905E+02  0.00000000000E+00 0. -1.
         25    1    1    2    0    0 -0.21690229142E+02  0.16828799391E+02  0.13172172759E+03  0.18365535126E+03  0.12500000000E+03 0.  0.
          1    1    1    2  502    0  0.24324452563E+02  0.51272329613E+01 -0.20929246575E+02  0.32496167043E+02  0.00000000000E+00 0. -1.
         -2    1    1    2    0  501 -0.26342234205E+01 -0.21956032352E+02  0.51142356201E+02  0.55718462716E+02  0.00000000000E+00 0.  1.
<mgrwt>
<rscale>  0 0.23332495E+02</rscale>
<asrwt>0</asrwt>
<pdfrwt beam="2">  1        1 0.84565496E-02 0.24618697E+02</pdfrwt>
<pdfrwt beam="1">  1       -2 0.33369601E-01 0.22113491E+02</pdfrwt>
<totfact> 0.46761712E+03</totfact>
</mgrwt>
</event>
<event>
 5    1  0.4149151E-003  0.6958815E+02  0.7546771E-02  0.1364722E+00
          2   -1    0    0  501    0  0.00000000000E+00  0.00000000000E+00  0.27781833864E+04  0.27781833864E+04  0.00000000000E+00 0. -1.
          2   -1    0    0  502    0 -0.00000000000E+00 -0.00000000000E+00 -0.54886874443E+03  0.54886874443E+03  0.00000000000E+00 0.  1.
         25    1    1    2    0    0  0.22056090584E+02  0.53680216347E+01  0.10124288416E+03  0.16245124925E+03  0.12500000000E+03 0.  0.
          2    1    1    2  501    0 -0.18133993278E+02  0.65264745430E+02  0.26434864367E+04  0.26443541499E+04  0.00000000000E+00 0. -1.
          2    1    1    2  502    0 -0.39220973052E+01 -0.70632767064E+02 -0.51541467892E+03  0.52024673173E+03  0.00000000000E+00 0.  1.
<mgrwt>
<rscale>  0 0.68656440E+02</rscale>
<asrwt>0</asrwt>
<pdfrwt beam="1">  1        2 0.42741282E+00 0.67737203E+02</pdfrwt>
<pdfrwt beam="2">  1        2 0.84441347E-01 0.69588152E+02</pdfrwt>
<totfact> 0.30741187E+01</totfact>
</mgrwt>
</event>
<event>
 5    1  0.4149151E-003  0.9205231E+02  0.7546771E-02  0.1397256E+00
          1   -1    0    0  502    0  0.00000000000E+00  0.00000000000E+00  0.15622538267E+04  0.15622538267E+04  0.00000000000E+00 0. -1.
         -3   -1    0    0    0  501 -0.00000000000E+00 -0.00000000000E+00 -0.43077161447E+02  0.43077161447E+02  0.00000000000E+00 0. -1.
         25    1    1    2    0    0  0.93109933187E+02 -0.88002662254E+02  0.37937506883E+03  0.41948107356E+03  0.12500000000E+03 0.  0.
          1    1    1    2  502    0 -0.62867031170E+02  0.62925465108E+02  0.11429784378E+04  0.11464342925E+04  0.00000000000E+00 0. -1.
         -3    1    1    2    0  501 -0.30242902017E+02  0.25077197146E+02 -0.31768414220E+01  0.39415622037E+02  0.00000000000E+00 0. -1.
<mgrwt>
<rscale>  0 0.60137302E+02</rscale>
<asrwt>0</asrwt>
<pdfrwt beam="1">  1        1 0.24034670E+00 0.92052314E+02</pdfrwt>
<pdfrwt beam="2">  1       -3 0.66272568E-02 0.39287389E+02</pdfrwt>
<totfact> 0.45163253E+02</totfact>
</mgrwt>
</event>
<event>
 5    1  0.4149151E-003  0.4742062E+02  0.7546771E-02  0.1476597E+00
         -1   -1    0    0    0  501 -0.00000000000E+00  0.00000000000E+00  0.13366633471E+02  0.13366633471E+02  0.00000000000E+00 0.  1.
          2   -1    0    0  502    0  0.00000000000E+00 -0.00000000000E+00 -0.14451679431E+04  0.14451679431E+04  0.00000000000E+00 0. -1.
         25    1    1    2    0    0 -0.46906460154E+02 -0.69085656994E+01 -0.11716779401E+04  0.11792803482E+04  0.12500000000E+03 0.  0.
          2    1    1    2  502    0  0.44239956906E+02 -0.35030703436E+02 -0.18197139419E+03  0.19052010989E+03  0.00000000000E+00 0. -1.
         -1    1    1    2    0  501  0.26665032478E+01  0.41939269136E+02 -0.78151975288E+02  0.88734118448E+02  0.00000000000E+00 0.  1.
<mgrwt>
<rscale>  0 0.44640808E+02</rscale>
<asrwt>0</asrwt>
<pdfrwt beam="2">  1        2 0.22233331E+00 0.47420618E+02</pdfrwt>
<pdfrwt beam="1">  1       -1 0.20564072E-02 0.42023952E+02</pdfrwt>
<totfact> 0.98294361E+03</totfact>
</mgrwt>
</event>
<event>
 5    1  0.4149151E-003  0.3041923E+03  0.7546771E-02  0.1230015E+00
         -3   -1    0    0    0  501 -0.00000000000E+00  0.00000000000E+00  0.94693027237E+03  0.94693027237E+03  0.00000000000E+00 0.  1.
          1   -1    0    0  502    0  0.00000000000E+00 -0.00000000000E+00 -0.11241690719E+04  0.11241690719E+04  0.00000000000E+00 0. -1.
         25    1    1    2    0    0 -0.29934175338E+03  0.17008394869E+03  0.73215395574E+03  0.81866259828E+03  0.12500000000E+03 0.  0.
          1    1    1    2  502    0  0.27827231651E+03 -0.12024976785E+03 -0.10546910211E+04  0.10973917435E+04  0.00000000000E+00 0. -1.
         -3    1    1    2    0  501  0.21069436868E+02 -0.49834180833E+02  0.14529826580E+03  0.15504500248E+03  0.00000000000E+00 0.  1.
<mgrwt>
<rscale>  0 0.12829018E+03</rscale>
<asrwt>0</asrwt>
<pdfrwt beam="2">  1        1 0.17294909E+00 0.30419232E+03</pdfrwt>
<pdfrwt beam="1">  1       -3 0.14568158E+00 0.54105145E+02</pdfrwt>
<totfact> 0.26075374E+00</totfact>
</mgrwt>
</event>
<event>
 5    1  0.4149151E-003  0.8715064E+02  0.7546771E-02  0.1411345E+00
         -1   -1    0    0    0  501 -0.00000000000E+00  0.00000000000E+00  0.11290244366E+03  0.11290244366E+03  0.00000000000E+00 0.  1.
          2   -1    0    0  502    0  0.00000000000E+00 -0.00000000000E+00 -0.19032359471E+03  0.19032359471E+03  0.00000000000E+00 0. -1.
         25    1    1    2    0    0  0.63472881869E+02  0.73734546204E+02 -0.67200792956E+01  0.15854257946E+03  0.12500000000E+03 0.  0.
          2    1    1    2  502    0  0.64906761919E+01 -0.36571224950E+02  0.19488253297E+01  0.37193834058E+02  0.00000000000E+00 0. -1.
         -1    1    1    2    0  501 -0.69963558061E+02 -0.37163321254E+02 -0.72649897082E+02  0.10748962484E+03  0.00000000000E+00 0.  1.
<mgrwt>
<rscale>  0 0.56894762E+02</rscale>
<asrwt>0</asrwt>
<pdfrwt beam="2">  1        2 0.29280553E-01 0.37142743E+02</pdfrwt>
<pdfrwt beam="1">  1       -1 0.17369607E-01 0.87150642E+02</pdfrwt>
<totfact> 0.47335227E+03</totfact>
</mgrwt>
</event>
<event>
 5    1  0.4149151E-003  0.7278733E+02  0.7546771E-02  0.1353525E+00
          2   -1    0    0  502    0  0.00000000000E+00  0.00000000000E+00  0.10755482366E+04  0.10755482366E+04  0.00000000000E+00 0. -1.
         -1   -1    0    0    0  501 -0.00000000000E+00 -0.00000000000E+00 -0.10403537185E+04  0.10403537185E+04  0.00000000000E+00 0.  1.
         25    1    1    2    0    0  0.54737224988E+02  0.70057104624E+02  0.93029706178E+03  0.94285830582E+03  0.12500000000E+03 0.  0.
          2    1    1    2  502    0  0.18062962191E+02 -0.68827940213E+02  0.12848277645E+03  0.14687198440E+03  0.00000000000E+00 0. -1.
         -1    1    1    2    0  501 -0.72800187179E+02 -0.12291644109E+01 -0.10235853202E+04  0.10261716649E+04  0.00000000000E+00 0.  1.
<mgrwt>
<rscale>  0 0.71968389E+02</rscale>
<asrwt>0</asrwt>
<pdfrwt beam="1">  1        2 0.16546896E+00 0.71158667E+02</pdfrwt>
<pdfrwt beam="2">  1       -1 0.16005442E+00 0.72787325E+02</pdfrwt>
<totfact> 0.10251505E+01</totfact>
</mgrwt>
</event>
<event>
 5    1  0.4149151E-003  0.5863922E+02  0.7546771E-02  0.1444938E+00
          1   -1    0    0  502    0 -0.00000000000E+00  0.00000000000E+00  0.75346119379E+03  0.75346119379E+03  0.00000000000E+00 0. -1.
          2   -1    0    0  501    0  0.00000000000E+00 -0.00000000000E+00 -0.15985563459E+03  0.15985563459E+03  0.00000000000E+00 0. -1.
         25    1    1    2    0    0  0.26887506223E+02  0.27216547216E+02  0.13848077155E+03  0.19043529747E+03  0.12500000000E+03 0.  0.
          2    1    1    2  501    0 -0.26837503545E+02  0.33291099897E+02 -0.12886032051E+03  0.13577014080E+03  0.00000000000E+00 0. -1.
          1    1    1    2  502    0 -0.50002677888E-01 -0.60507647112E+02  0.58398510815E+03  0.58711139011E+03  0.00000000000E+00 0. -1.
<mgrwt>
<rscale>  0 0.50074973E+02</rscale>
<asrwt>0</asrwt>
<pdfrwt beam="2">  1        2 0.24593175E-01 0.42761536E+02</pdfrwt>
<pdfrwt beam="1">  1        1 0.11591710E+00 0.58639216E+02</pdfrwt>
<totfact> 0.76442931E+02</totfact>
</mgrwt>
</event>
<event>
 5    1  0.4149151E-003  0.9236556E+02  0.7546771E-02  0.1388146E+00
         -1   -1    0    0    0  501 -0.00000000000E+00  0.00000000000E+00  0.11772647520E+02  0.11772647520E+02  0.00000000000E+00 0.  1.
          2   -1    0    0  502    0  0.00000000000E+00 -0.00000000000E+00 -0.18608846800E+04  0.18608846800E+04  0.00000000000E+00 0. -1.
         25    1    1    2    0    0 -0.66945333709E+02  0.78850641841E+02 -0.10553531797E+04  0.10677520477E+04  0.12500000000E+03 0.  0.
          2    1    1    2  502    0  0.79170308689E+02 -0.38548315172E+02 -0.44635501857E+03  0.45495792441E+03  0.00000000000E+00 0. -1.
         -1    1    1    2    0  501 -0.12224974979E+02 -0.40302326670E+02 -0.34740383419E+03  0.34994735541E+03  0.00000000000E+00 0.  1.
<mgrwt>
<rscale>  0 0.62370145E+02</rscale>
<asrwt>0</asrwt>
<pdfrwt beam="2">  1        2 0.28628992E+00 0.92365558E+02</pdfrwt>
<pdfrwt beam="1">  1       -1 0.18111767E-02 0.42115645E+02</pdfrwt>
<totfact> 0.68499975E+03</totfact>
</mgrwt>
</event>
<event>
 5    1  0.4149151E-003  0.1948168E+03  0.7546771E-02  0.1286706E+00
          2   -1    0    0  502    0  0.00000000000E+00  0.00000000000E+00  0.54213672429E+03  0.54213672429E+03  0.00000000000E+00 0. -1.
         -1   -1    0    0    0  501 -0.00000000000E+00 -0.00000000000E+00 -0.88883095010E+03  0.88883095010E+03  0.00000000000E+00 0.  1.
         25    1    1    2    0    0 -0.14201922136E+03 -0.94731399206E+02  0.13791638165E+03  0.25256568563E+03  0.12500000000E+03 0.  0.
          2    1    1    2  502    0  0.18975072154E+03  0.87280072411E+02  0.31466190784E+03  0.37767084030E+03  0.00000000000E+00 0. -1.
         -1    1    1    2    0  501 -0.47731500188E+02  0.74513267956E+01 -0.79927251531E+03  0.80073114846E+03  0.00000000000E+00 0.  1.
<mgrwt>
<rscale>  0 0.97013005E+02</rscale>
<asrwt>0</asrwt>
<pdfrwt beam="1">  1        2 0.83405650E-01 0.19481679E+03</pdfrwt>
<pdfrwt beam="2">  1       -1 0.13674322E+00 0.48309610E+02</pdfrwt>
<totfact> 0.35070844E+01</totfact>
</mgrwt>
</event>
<event>
 5    1  0.4149151E-003  0.8857273E+02  0.7546771E-02  0.1307728E+00
          2   -1    0    0  502    0  0.00000000000E+00  0.00000000000E+00  0.10715805188E+04  0.10715805188E+04  0.00000000000E+00 0. -1.
          2   -1    0    0  501    0 -0.00000000000E+00 -0.00000000000E+00 -0.44252373559E+03  0.44252373559E+03  0.00000000000E+00 0. -1.
         25    1    1    2    0    0  0.16389227596E+03  0.31516873786E+02 -0.22355011020E+03  0.30570188619E+03  0.12500000000E+03 0.  0.
          2    1    1    2  501    0 -0.86768290479E+02  0.11001514496E+02 -0.16512971092E+03  0.18686249218E+03  0.00000000000E+00 0. -1.
          2    1    1    2  502    0 -0.77123985477E+02 -0.42518388281E+02  0.10177366043E+04  0.10215398760E+04  0.00000000000E+00 0. -1.
<mgrwt>
<rscale>  0 0.88016097E+02</rscale>
<asrwt>0</asrwt>
<pdfrwt beam="1">  1        2 0.16485854E+00 0.88572731E+02</pdfrwt>
<pdfrwt beam="2">  1        2 0.68080575E-01 0.87462961E+02</pdfrwt>
<totfact> 0.28366973E+02</totfact>
</mgrwt>
</event>
<event>
 5    1  0.4149151E-003  0.6764231E+02  0.7546771E-02  0.1453551E+00
          1   -1    0    0  502    0 -0.00000000000E+00  0.00000000000E+00  0.67403060269E+02  0.67403060269E+02  0.00000000000E+00 0. -1.
          2   -1    0    0  501    0  0.00000000000E+00 -0.00000000000E+00 -0.26744129949E+03  0.26744129949E+03  0.00000000000E+00 0. -1.
         25    1    1    2    0    0  0.53409397098E+02  0.57988097261E+02 -0.11468168456E+03  0.18706167939E+03  0.12500000000E+03 0.  0.
          2    1    1    2  501    0 -0.34352636967E+02  0.54896826799E+01 -0.72297197730E+02  0.80231696244E+02  0.00000000000E+00 0. -1.
          1    1    1    2  502    0 -0.19056760131E+02 -0.63477779941E+02 -0.13059356932E+02  0.67550984126E+02  0.00000000000E+00 0. -1.
<mgrwt>
<rscale>  0 0.48509535E+02</rscale>
<asrwt>0</asrwt>
<pdfrwt beam="2">  1        2 0.41144815E-01 0.34788508E+02</pdfrwt>
<pdfrwt beam="1">  1        1 0.10369702E-01 0.67642308E+02</pdfrwt>
<totfact> 0.91760945E+03</totfact>
</mgrwt>
</event>
<event>
 5    1  0.4149151E-003  0.4707317E+02  0.7546771E-02  0.1510495E+00
         -1   -1    0    0    0  501 -0.00000000000E+00  0.00000000000E+00  0.40589118045E+02  0.40589118045E+02  0.00000000000E+00 0.  1.
          1   -1    0    0  502    0  0.00000000000E+00 -0.00000000000E+00 -0.39030769080E+03  0.39030769080E+03  0.00000000000E+00 0. -1.
         25    1    1    2    0    0 -0.32212935117E+02 -0.53523529604E+02 -0.21309211585E+03  0.25482482463E+03  0.12500000000E+03 0.  0.
          1    1    1    2  502    0  0.32634147099E+02  0.74206358592E+01 -0.12376033717E+03  0.12820559446E+03  0.00000000000E+00 0. -1.
         -1    1    1    2    0  501 -0.42121198229E+00  0.46102893745E+02 -0.12866119730E+02  0.47866389754E+02  0.00000000000E+00 0.  1.
<mgrwt>
<rscale>  0 0.39691401E+02</rscale>
<asrwt>0</asrwt>
<pdfrwt beam="2">  1        1 0.60047335E-01 0.33467199E+02</pdfrwt>
<pdfrwt beam="1">  1       -1 0.62444799E-02 0.47073175E+02</pdfrwt>
<totfact> 0.69113649E+03</totfact>
</mgrwt>
</event>
<event>
 5    1  0.4149151E-003  0.8591729E+02  0.7546771E-02  0.1375834E+00
          2   -1    0    0  502    0  0.00000000000E+00  0.00000000000E+00  0.31463697613E+03  0.31463697613E+03  0.00000000000E+00 0. -1.
          2   -1    0    0  501    0 -0.00000000000E+00 -0.00000000000E+00 -0.12124582549E+04  0.12124582549E+04  0.00000000000E+00 0. -1.
         25    1    1    2    0    0  0.85598481159E+02 -0.92360339625E+02 -0.79616655063E+02  0.19447710425E+03  0.12500000000E+03 0.  0.
          2    1    1    2  501    0 -0.46798647480E+02  0.17727989756E+02 -0.10679325554E+04  0.10691044561E+04  0.00000000000E+00 0. -1.
          2    1    1    2  502    0 -0.38799833679E+02  0.74632349869E+02  0.24972793176E+03  0.26351367069E+03  0.00000000000E+00 0. -1.
<mgrwt>
<rscale>  0 0.65571631E+02</rscale>
<asrwt>0</asrwt>
<pdfrwt beam="1">  1        2 0.48405688E-01 0.85917287E+02</pdfrwt>
<pdfrwt beam="2">  1        2 0.18653204E+00 0.50043931E+02</pdfrwt>
<totfact> 0.35215760E+02</totfact>
</mgrwt>
</event>
<event>
 5    1  0.4149151E-003  0.5013560E+02  0.7546771E-02  0.1543225E+00
          2   -1    0    0  502    0  0.00000000000E+00  0.00000000000E+00  0.45374246535E+02  0.45374246535E+02  0.00000000000E+00 0. -1.
         -1   -1    0    0    0  501 -0.00000000000E+00 -0.00000000000E+00 -0.25808736882E+03  0.25808736882E+03  0.00000000000E+00 0.  1.
         25    1    1    2    0    0 -0.65850047821E+01 -0.32932688738E+02 -0.13592560732E+03  0.18769308725E+03  0.12500000000E+03 0.  0.
          2    1    1    2  502    0  0.26440716207E+02  0.48606897016E+02 -0.30915878007E+02  0.63384015524E+02  0.00000000000E+00 0. -1.
         -1    1    1    2    0  501 -0.19855711425E+02 -0.15674208278E+02 -0.45871636958E+02  0.52384512583E+02  0.00000000000E+00 0.  1.
<mgrwt>
<rscale>  0 0.35612810E+02</rscale>
<asrwt>0</asrwt>
<pdfrwt beam="1">  1        2 0.69806535E-02 0.50135600E+02</pdfrwt>
<pdfrwt beam="2">  1       -1 0.39705748E-01 0.25296839E+02</pdfrwt>
<totfact> 0.62231307E+03</totfact>
</mgrwt>
</event>
<event>
 5    1  0.4149151E-003  0.6683192E+02  0.7546771E-02  0.1416373E+00
          1   -1    0    0  502    0  0.00000000000E+00  0.00000000000E+00  0.12337180374E+03  0.12337180374E+03  0.00000000000E+00 0. -1.
         -1   -1    0    0    0  501 -0.00000000000E+00 -0.00000000000E+00 -0.18299064716E+03  0.18299064716E+03  0.00000000000E+00 0.  1.
         25    1    1    2    0    0  0.27380454748E+02  0.72817701060E+02  0.34126222650E+02  0.15113472785E+03  0.12500000000E+03 0.  0.
          1    1    1    2  502    0  0.18003877375E+02 -0.62323442871E+02 -0.19786692919E+02  0.67822299788E+02  0.00000000000E+00 0. -1.
         -1    1    1    2    0  501 -0.45384332123E+02 -0.10494258189E+02 -0.73958373154E+02  0.87405423269E+02  0.00000000000E+00 0.  1.
<mgrwt>
<rscale>  0 0.55795637E+02</rscale>
<asrwt>0</asrwt>
<pdfrwt beam="1">  1        1 0.18980278E-01 0.66831918E+02</pdfrwt>
<pdfrwt beam="2">  1       -1 0.28152407E-01 0.46581832E+02</pdfrwt>
<totfact> 0.28572250E+03</totfact>
</mgrwt>
</event>
<event>
 5    1  0.4149151E-003  0.1139349E+03  0.7546771E-02  0.1375376E+00
          1   -1    0    0  501    0  0.00000000000E+00  0.00000000000E+00  0.53676395701E+03  0.53676395701E+03  0.00000000000E+00 0. -1.
          1   -1    0    0  502    0 -0.00000000000E+00 -0.00000000000E+00 -0.39415664374E+03  0.39415664374E+03  0.00000000000E+00 0. -1.
         25    1    1    2    0    0 -0.27472936781E+02 -0.72455254851E+02 -0.14589751562E+03  0.20716083432E+03  0.12500000000E+03 0.  0.
          1    1    1    2  501    0  0.43542565396E+02  0.10675768552E+03  0.49784433298E+03  0.51102068285E+03  0.00000000000E+00 0. -1.
          1    1    1    2  502    0 -0.16069628615E+02 -0.34302430668E+02 -0.20933950408E+03  0.21273908358E+03  0.00000000000E+00 0. -1.
<mgrwt>
<rscale>  0 0.65695107E+02</rscale>
<asrwt>0</asrwt>
<pdfrwt beam="1">  1        1 0.82579070E-01 0.11393490E+03</pdfrwt>
<pdfrwt beam="2">  1        1 0.60639484E-01 0.37879938E+02</pdfrwt>
<totfact> 0.31849631E+02</totfact>
</mgrwt>
</event>
<event>
 5    1  0.4149151E-003  0.8160406E+02  0.7546771E-02  0.1330053E+00
          3   -1    0    0  502    0 -0.00000000000E+00  0.00000000000E+00  0.19353019303E+04  0.19353019303E+04  0.00000000000E+00 0. -1.
          1   -1    0    0  501    0  0.00000000000E+00 -0.00000000000E+00 -0.27322103348E+03  0.27322103348E+03  0.00000000000E+00 0. -1.
         25    1    1    2    0    0 -0.74961576600E+01 -0.30041505087E+01  0.19098575756E+03  0.22839828566E+03  0.12500000000E+03 0.  0.
          1    1    1    2  501    0 -0.72927914390E+02 -0.26923845701E+02 -0.24748299692E+03  0.25940548939E+03  0.00000000000E+00 0. -1.
          3    1    1    2  502    0  0.80424072050E+02  0.29927996210E+02  0.17185781362E+04  0.17207191887E+04  0.00000000000E+00 0. -1.
<mgrwt>
<rscale>  0 0.79648161E+02</rscale>
<asrwt>0</asrwt>
<pdfrwt beam="2">  1        1 0.42034006E-01 0.77739142E+02</pdfrwt>
<pdfrwt beam="1">  1        3 0.29773875E+00 0.81604060E+02</pdfrwt>
<totfact> 0.26568520E+00</totfact>
</mgrwt>
</event>
<event>
 5    1  0.4149151E-003  0.7050365E+02  0.7546771E-02  0.1381976E+00
          1   -1    0    0  502    0 -0.00000000000E+00  0.00000000000E+00  0.12537056882E+03  0.12537056882E+03  0.00000000000E+00 0. -1.
          2   -1    0    0  501    0  0.00000000000E+00 -0.00000000000E+00 -0.18408493102E+04  0.18408493102E+04  0.00000000000E+00 0. -1.
         25    1    1    2    0    0  0.30234021443E+02 -0.97968233110E+01 -0.38232071384E+02  0.13452421746E+03  0.12500000000E+03 0.  0.
          2    1    1    2  501    0 -0.23263465234E+02  0.67376967689E+02 -0.17427483669E+04  0.17442054681E+04  0.00000000000E+00 0. -1.
          1    1    1    2  502    0 -0.69705562094E+01 -0.57580144378E+02  0.65501696825E+02  0.87490193550E+02  0.00000000000E+00 0. -1.
<mgrwt>
<rscale>  0 0.63947237E+02</rscale>
<asrwt>0</asrwt>
<pdfrwt beam="2">  1        2 0.28320758E+00 0.70503650E+02</pdfrwt>
<pdfrwt beam="1">  1        1 0.19287781E-01 0.58000532E+02</pdfrwt>
<totfact> 0.35515438E+02</totfact>
</mgrwt>
</event>
<event>
 5    1  0.4149151E-003  0.1159669E+03  0.7546771E-02  0.1300342E+00
          2   -1    0    0  501    0  0.00000000000E+00  0.00000000000E+00  0.42914492398E+03  0.42914492398E+03  0.00000000000E+00 0. -1.
          2   -1    0    0  502    0 -0.00000000000E+00 -0.00000000000E+00 -0.44778378981E+03  0.44778378981E+03  0.00000000000E+00 0.  1.
         25    1    1    2    0    0  0.17398960206E+03 -0.17183279521E+02 -0.42959196028E+02  0.21917604623E+03  0.12500000000E+03 0.  0.
          2    1    1    2  501    0 -0.11090415620E+03 -0.16422545440E+02  0.32755343862E+03  0.34620902214E+03  0.00000000000E+00 0. -1.
          2    1    1    2  502    0 -0.63085445861E+02  0.33605824961E+02 -0.30323310842E+03  0.31154364541E+03  0.00000000000E+00 0.  1.
<mgrwt>
<rscale>  0 0.91044498E+02</rscale>
<asrwt>0</asrwt>
<pdfrwt beam="1">  1        2 0.66022296E-01 0.11596693E+03</pdfrwt>
<pdfrwt beam="2">  1        2 0.68889814E-01 0.71478143E+02</pdfrwt>
<totfact> 0.82352751E+02</totfact>
</mgrwt>
</event>
<event>
 5    1  0.4149151E-003  0.6178331E+02  0.7546771E-02  0.1486441E+00
          2   -1    0    0  502    0  0.00000000000E+00  0.00000000000E+00  0.10097808135E+04  0.10097808135E+04  0.00000000000E+00 0. -1.
         -1   -1    0    0    0  501 -0.00000000000E+00 -0.00000000000E+00 -0.14739971607E+02  0.14739971607E+02  0.00000000000E+00 0.  1.
         25    1    1    2    0    0  0.41717562765E+02  0.32610529687E+02  0.41613250427E+03  0.43771573287E+03  0.12500000000E+03 0.  0.
          2    1    1    2  502    0 -0.27145952191E+02 -0.58939622765E+02  0.43199392115E+03  0.43684039392E+03  0.00000000000E+00 0. -1.
         -1    1    1    2    0  501 -0.14571610574E+02  0.26329093078E+02  0.14691441652E+03  0.14996465837E+03  0.00000000000E+00 0.  1.
<mgrwt>
<rscale>  0 0.43118540E+02</rscale>
<asrwt>0</asrwt>
<pdfrwt beam="1">  1        2 0.15535084E+00 0.61783308E+02</pdfrwt>
<pdfrwt beam="2">  1       -1 0.22676887E-02 0.30092407E+02</pdfrwt>
<totfact> 0.13529412E+04</totfact>
</mgrwt>
</event>
<event>
 5    1  0.4149151E-003  0.9406857E+02  0.7546771E-02  0.1341198E+00
          2   -1    0    0  501    0  0.00000000000E+00  0.00000000000E+00  0.18905142712E+03  0.18905142712E+03  0.00000000000E+00 0. -1.
          1   -1    0    0  502    0 -0.00000000000E+00 -0.00000000000E+00 -0.11259350210E+04  0.11259350210E+04  0.00000000000E+00 0. -1.
         25    1    1    2    0    0 -0.10996438091E+03 -0.58261129478E+02 -0.11666091961E+03  0.21147409875E+03  0.12500000000E+03 0.  0.
          2    1    1    2  501    0  0.16683738225E+02  0.58873900154E+02  0.13265034275E+03  0.14608421089E+03  0.00000000000E+00 0. -1.
          1    1    1    2  502    0  0.93280642686E+02 -0.61277067608E+00 -0.95287301702E+03  0.95742813848E+03  0.00000000000E+00 0. -1.
<mgrwt>
<rscale>  0 0.75870028E+02</rscale>
<asrwt>0</asrwt>
<pdfrwt beam="1">  1        2 0.29084836E-01 0.61192183E+02</pdfrwt>
<pdfrwt beam="2">  1        1 0.17322077E+00 0.94068571E+02</pdfrwt>
<totfact> 0.33362802E+02</totfact>
</mgrwt>
</event>
<event>
 5    1  0.4149151E-003  0.8359724E+02  0.7546771E-02  0.1400532E+00
          2   -1    0    0  501    0  0.00000000000E+00  0.00000000000E+00  0.54183672147E+03  0.54183672147E+03  0.00000000000E+00 0.  1.
          2   -1    0    0  502    0 -0.00000000000E+00 -0.00000000000E+00 -0.34262873649E+03  0.34262873649E+03  0.00000000000E+00 0. -1.
         25    1    1    2    0    0 -0.23568551821E+02  0.97014837642E+02  0.38851172203E+03  0.42015915260E+03  0.12500000000E+03 0.  0.
          2    1    1    2  501    0 -0.12156987040E+02 -0.74644528492E+02  0.12559048185E+03  0.14660343481E+03  0.00000000000E+00 0.  1.
          2    1    1    2  502    0  0.35725538860E+02 -0.22370309149E+02 -0.31489421890E+03  0.31770287055E+03  0.00000000000E+00 0. -1.
<mgrwt>
<rscale>  0 0.59361142E+02</rscale>
<asrwt>0</asrwt>
<pdfrwt beam="1">  1        2 0.83359495E-01 0.83597245E+02</pdfrwt>
<pdfrwt beam="2">  1        2 0.52712113E-01 0.42151451E+02</pdfrwt>
<totfact> 0.84765557E+02</totfact>
</mgrwt>
</event>
<event>
 5    1  0.4149151E-003  0.1091284E+03  0.7546771E-02  0.1278484E+00
          2   -1    0    0  501    0  0.00000000000E+00  0.00000000000E+00  0.34848463165E+03  0.34848463165E+03  0.00000000000E+00 0. -1.
          2   -1    0    0  502    0 -0.00000000000E+00 -0.00000000000E+00 -0.84818698727E+03  0.84818698727E+03  0.00000000000E+00 0. -1.
         25    1    1    2    0    0  0.80705602348E+02  0.28603419971E+02 -0.27060647424E+02  0.15391175564E+03  0.12500000000E+03 0.  0.
          2    1    1    2  501    0 -0.97759096103E+02  0.63053874198E+02  0.27015427202E+03  0.29413595940E+03  0.00000000000E+00 0. -1.
          2    1    1    2  502    0  0.17053493754E+02 -0.91657294169E+02 -0.74279598022E+03  0.74862390388E+03  0.00000000000E+00 0. -1.
<mgrwt>
<rscale>  0 0.10086659E+03</rscale>
<asrwt>0</asrwt>
<pdfrwt beam="1">  1        2 0.53613021E-01 0.10912841E+03</pdfrwt>
<pdfrwt beam="2">  1        2 0.13049030E+00 0.93230259E+02</pdfrwt>
<totfact> 0.49543444E+02</totfact>
</mgrwt>
</event>
<event>
 5    1  0.4149151E-003  0.6670487E+02  0.7546771E-02  0.1399610E+00
         -2   -1    0    0    0  501 -0.00000000000E+00  0.00000000000E+00  0.31679557316E+02  0.31679557316E+02  0.00000000000E+00 0.  1.
          3   -1    0    0  502    0  0.00000000000E+00 -0.00000000000E+00 -0.16252105594E+04  0.16252105594E+04  0.00000000000E+00 0. -1.
         25    1    1    2    0    0 -0.29335198379E+02  0.10355781951E+03 -0.11240852604E+04  0.11361238702E+04  0.12500000000E+03 0.  0.
          3    1    1    2  502    0  0.72573493720E+01 -0.55140668199E+02 -0.46394811153E+03  0.46726974287E+03  0.00000000000E+00 0. -1.
         -2    1    1    2    0  501  0.22077849007E+02 -0.48417151308E+02 -0.54976301020E+01  0.53496503571E+02  0.00000000000E+00 0.  1.
<mgrwt>
<rscale>  0 0.59578385E+02</rscale>
<asrwt>0</asrwt>
<pdfrwt beam="2">  1        3 0.25003238E+00 0.66704867E+02</pdfrwt>
<pdfrwt beam="1">  1       -2 0.48737783E-02 0.53213269E+02</pdfrwt>
<totfact> 0.61598878E+01</totfact>
</mgrwt>
</event>
<event>
 5    1  0.4149151E-003  0.6933590E+02  0.7546771E-02  0.1490522E+00
         -2   -1    0    0    0  501 -0.00000000000E+00  0.00000000000E+00  0.97979074453E+02  0.97979074453E+02  0.00000000000E+00 0.  1.
          2   -1    0    0  502    0  0.00000000000E+00 -0.00000000000E+00 -0.14885434098E+03  0.14885434098E+03  0.00000000000E+00 0. -1.
         25    1    1    2    0    0 -0.51177118474E+02 -0.17926467408E+01 -0.14324471161E+02  0.13583998495E+03  0.12500000000E+03 0.  0.
          2    1    1    2  502    0  0.76474005472E+02 -0.44730444429E+01 -0.36676067682E+02  0.84931829017E+02  0.00000000000E+00 0. -1.
         -2    1    1    2    0  501 -0.25296886998E+02  0.62656911837E+01  0.12527231422E+00  0.26061601466E+02  0.00000000000E+00 0.  1.
<mgrwt>
<rscale>  0 0.42508632E+02</rscale>
<asrwt>0</asrwt>
<pdfrwt beam="2">  1        2 0.22900668E-01 0.69335904E+02</pdfrwt>
<pdfrwt beam="1">  1       -2 0.15073704E-01 0.26061300E+02</pdfrwt>
<totfact> 0.67680753E+03</totfact>
</mgrwt>
</event>
<event>
 5    1  0.4149151E-003  0.2938384E+02  0.7546771E-02  0.1606708E+00
          2   -1    0    0  502    0  0.00000000000E+00  0.00000000000E+00  0.68184112600E+03  0.68184112600E+03  0.00000000000E+00 0.  1.
         -1   -1    0    0    0  501 -0.00000000000E+00 -0.00000000000E+00 -0.77660985444E+02  0.77660985444E+02  0.00000000000E+00 0.  1.
         25    1    1    2    0    0 -0.38682580625E+02  0.42743957044E+02  0.66252172479E+02  0.15276694101E+03  0.12500000000E+03 0.  0.
          2    1    1    2  502    0  0.16319901311E+02 -0.24145660963E+02  0.56574121919E+03  0.56649137612E+03  0.00000000000E+00 0.  1.
         -1    1    1    2    0  501  0.22362679314E+02 -0.18598296081E+02 -0.27813251117E+02  0.40243794315E+02  0.00000000000E+00 0.  1.
<mgrwt>
<rscale>  0 0.29234458E+02</rscale>
<asrwt>0</asrwt>
<pdfrwt beam="1">  1        2 0.10489863E+00 0.29383837E+02</pdfrwt>
<pdfrwt beam="2">  1       -1 0.11947844E-01 0.29085839E+02</pdfrwt>
<totfact> 0.21088984E+03</totfact>
</mgrwt>
</event>
<event>
 5    1  0.4149151E-003  0.2572295E+03  0.7546771E-02  0.1218396E+00
          2   -1    0    0  502    0  0.00000000000E+00  0.00000000000E+00  0.12085375541E+04  0.12085375541E+04  0.00000000000E+00 0. -1.
         -3   -1    0    0    0  501 -0.00000000000E+00 -0.00000000000E+00 -0.77369807909E+03  0.77369807909E+03  0.00000000000E+00 0.  1.
         25    1    1    2    0    0 -0.65517230296E+02  0.17866183545E+03  0.27690127378E+03  0.35848552876E+03  0.12500000000E+03 0.  0.
          2    1    1    2  502    0 -0.17083994074E+02  0.70172883182E+02  0.86584416189E+03  0.86885108567E+03  0.00000000000E+00 0. -1.
         -3    1    1    2    0  501  0.82601224371E+02 -0.24883471863E+03 -0.70790596064E+03  0.75489901879E+03  0.00000000000E+00 0.  1.
<mgrwt>
<rscale>  0 0.13630030E+03</rscale>
<asrwt>0</asrwt>
<pdfrwt beam="1">  1        2 0.18592885E+00 0.72222548E+02</pdfrwt>
<pdfrwt beam="2">  1       -3 0.11903047E+00 0.25722955E+03</pdfrwt>
<totfact> 0.79941801E+00</totfact>
</mgrwt>
</event>
<event>
 5    1  0.4149151E-003  0.1370364E+03  0.7546771E-02  0.1247790E+00
          2   -1    0    0  501    0  0.00000000000E+00  0.00000000000E+00  0.11841208063E+04  0.11841208063E+04  0.00000000000E+00 0. -1.
          1   -1    0    0  502    0 -0.00000000000E+00 -0.00000000000E+00 -0.53456846287E+03  0.53456846287E+03  0.00000000000E+00 0. -1.
         25    1    1    2    0    0 -0.47182730810E+02 -0.10884239784E+03  0.63725696342E+03  0.66014719198E+03  0.12500000000E+03 0.  0.
          2    1    1    2  501    0 -0.81188318773E+02  0.58781284540E+02  0.52148945747E+03  0.53103487340E+03  0.00000000000E+00 0. -1.
          1    1    1    2  502    0  0.12837104958E+03  0.50061113295E+02 -0.50919407751E+03  0.52750720375E+03  0.00000000000E+00 0. -1.
<mgrwt>
<rscale>  0 0.11719922E+03</rscale>
<asrwt>0</asrwt>
<pdfrwt beam="1">  1        2 0.18217243E+00 0.10023364E+03</pdfrwt>
<pdfrwt beam="2">  1        1 0.82241302E-01 0.13703640E+03</pdfrwt>
<totfact> 0.12499224E+02</totfact>
</mgrwt>
</event>
<event>
 5    1  0.4149151E-003  0.1210758E+03  0.7546771E-02  0.1311214E+00
          2   -1    0    0  501    0  0.00000000000E+00  0.00000000000E+00  0.33602147438E+04  0.33602147438E+04  0.00000000000E+00 0. -1.
          3   -1    0    0  502    0 -0.00000000000E+00 -0.00000000000E+00 -0.91480096847E+02  0.91480096847E+02  0.00000000000E+00 0. -1.
         25    1    1    2    0    0  0.85407524204E+02  0.28377977650E+02  0.37531076660E+03  0.40568821320E+03  0.12500000000E+03 0.  0.
          2    1    1    2  501    0  0.39602900397E+02 -0.47689794491E+02  0.29167262262E+04  0.29173848880E+04  0.00000000000E+00 0. -1.
          3    1    1    2  502    0 -0.12501042460E+03  0.19311816841E+02 -0.23302345857E+02  0.12862173942E+03  0.00000000000E+00 0. -1.
<mgrwt>
<rscale>  0 0.86633930E+02</rscale>
<asrwt>0</asrwt>
<pdfrwt beam="1">  1        2 0.51695602E+00 0.61989565E+02</pdfrwt>
<pdfrwt beam="2">  1        3 0.14073864E-01 0.12107582E+03</pdfrwt>
<totfact> 0.39723128E+01</totfact>
</mgrwt>
</event>
<event>
 5    1  0.4149151E-003  0.9094159E+02  0.7546771E-02  0.1319946E+00
         -1   -1    0    0    0  501 -0.00000000000E+00  0.00000000000E+00  0.91064612394E+02  0.91064612394E+02  0.00000000000E+00 0.  1.
          2   -1    0    0  502    0  0.00000000000E+00 -0.00000000000E+00 -0.88186545616E+03  0.88186545616E+03  0.00000000000E+00 0.  1.
         25    1    1    2    0    0  0.18942349930E+02 -0.12465572628E+03 -0.18976193947E+03  0.25987007598E+03  0.12500000000E+03 0.  0.
          2    1    1    2  502    0  0.43991657907E+02  0.62335974618E+02 -0.61816078885E+03  0.62285134709E+03  0.00000000000E+00 0.  1.
         -1    1    1    2    0  501 -0.62934007837E+02  0.62319751663E+02  0.17121884560E+02  0.90208645487E+02  0.00000000000E+00 0.  1.
<mgrwt>
<rscale>  0 0.83297395E+02</rscale>
<asrwt>0</asrwt>
<pdfrwt beam="2">  1        2 0.13567161E+00 0.76295738E+02</pdfrwt>
<pdfrwt beam="1">  1       -1 0.14009941E-01 0.90941593E+02</pdfrwt>
<totfact> 0.12817308E+03</totfact>
</mgrwt>
</event>
<event>
 5    1  0.4149151E-003  0.4318057E+02  0.7546771E-02  0.1599958E+00
          2   -1    0    0  501    0  0.00000000000E+00  0.00000000000E+00  0.25316782232E+04  0.25316782232E+04  0.00000000000E+00 0. -1.
          1   -1    0    0  502    0 -0.00000000000E+00 -0.00000000000E+00 -0.26378562431E+03  0.26378562431E+03  0.00000000000E+00 0. -1.
         25    1    1    2    0    0 -0.23220750555E+02 -0.47936211576E+01  0.12007894023E+03  0.17494608868E+03  0.12500000000E+03 0.  0.
          2    1    1    2  501    0  0.39880075203E+02  0.16926679819E+02  0.23835192141E+04  0.23839129130E+04  0.00000000000E+00 0. -1.
          1    1    1    2  502    0 -0.16659324648E+02 -0.12133058662E+02 -0.23570555542E+03  0.23660484582E+03  0.00000000000E+00 0. -1.
<mgrwt>
<rscale>  0 0.29831566E+02</rscale>
<asrwt>0</asrwt>
<pdfrwt beam="1">  1        2 0.38948894E+00 0.43180570E+02</pdfrwt>
<pdfrwt beam="2">  1        1 0.40582405E-01 0.20609323E+02</pdfrwt>
<totfact> 0.68299262E+01</totfact>
</mgrwt>
</event>
<event>
 5    1  0.4149151E-003  0.5841636E+02  0.7546771E-02  0.1492296E+00
         -2   -1    0    0    0  501 -0.00000000000E+00  0.00000000000E+00  0.24820868929E+03  0.24820868929E+03  0.00000000000E+00 0.  1.
          2   -1    0    0  502    0  0.00000000000E+00 -0.00000000000E+00 -0.59138157821E+02  0.59138157821E+02  0.00000000000E+00 0. -1.
         25    1    1    2    0    0  0.42571742643E+02  0.33460320455E+02  0.97125002781E+02  0.16730275695E+03  0.12500000000E+03 0.  0.
          2    1    1    2  502    0 -0.19804510427E+02  0.23266217410E+02  0.11309236110E+01  0.30574736205E+02  0.00000000000E+00 0. -1.
         -2    1    1    2    0  501 -0.22767232216E+02 -0.56726537864E+02  0.90814605073E+02  0.10946935396E+03  0.00000000000E+00 0.  1.
<mgrwt>
<rscale>  0 0.42247398E+02</rscale>
<asrwt>0</asrwt>
<pdfrwt beam="2">  1        2 0.90981783E-02 0.30553813E+02</pdfrwt>
<pdfrwt beam="1">  1       -2 0.38185952E-01 0.58416363E+02</pdfrwt>
<totfact> 0.39625942E+03</totfact>
</mgrwt>
</event>
<event>
 5    1  0.4149151E-003  0.7842643E+02  0.7546771E-02  0.1473488E+00
         -1   -1    0    0    0  501 -0.00000000000E+00  0.00000000000E+00  0.37391137187E+02  0.37391137187E+02  0.00000000000E+00 0.  1.
          2   -1    0    0  502    0  0.00000000000E+00 -0.00000000000E+00 -0.46393372341E+03  0.46393372341E+03  0.00000000000E+00 0. -1.
         25    1    1    2    0    0  0.64187807098E+02 -0.47545481383E+02 -0.25433260708E+03  0.29443288268E+03  0.12500000000E+03 0.  0.
          2    1    1    2  502    0 -0.19150172047E+02 -0.17553463306E+02 -0.12912406622E+02  0.29010057019E+02  0.00000000000E+00 0. -1.
         -1    1    1    2    0  501 -0.45037635051E+02  0.65098944690E+02 -0.15929757251E+03  0.17788192089E+03  0.00000000000E+00 0.  1.
<mgrwt>
<rscale>  0 0.45137089E+02</rscale>
<asrwt>0</asrwt>
<pdfrwt beam="2">  1        2 0.71374422E-01 0.25977936E+02</pdfrwt>
<pdfrwt beam="1">  1       -1 0.57524824E-02 0.78426429E+02</pdfrwt>
<totfact> 0.10091858E+04</totfact>
</mgrwt>
</event>
<event>
 5    1  0.4149151E-003  0.6410619E+02  0.7546771E-02  0.1467341E+00
          2   -1    0    0  501    0  0.00000000000E+00  0.00000000000E+00  0.47617503811E+03  0.47617503811E+03  0.00000000000E+00 0. -1.
          2   -1    0    0  502    0 -0.00000000000E+00 -0.00000000000E+00 -0.15305855229E+04  0.15305855229E+04  0.00000000000E+00 0. -1.
         25    1    1    2    0    0 -0.51125554857E+02  0.44708860051E+02 -0.64941595053E+03  0.66481484740E+03  0.12500000000E+03 0.  0.
          2    1    1    2  501    0 -0.12044622218E+02 -0.30949456719E+02  0.46668837477E+03  0.46786855092E+03  0.00000000000E+00 0. -1.
          2    1    1    2  502    0  0.63170177075E+02 -0.13759403332E+02 -0.87168290900E+03  0.87407716267E+03  0.00000000000E+00 0. -1.
<mgrwt>
<rscale>  0 0.46141119E+02</rscale>
<asrwt>0</asrwt>
<pdfrwt beam="1">  1        2 0.73257699E-01 0.33210568E+02</pdfrwt>
<pdfrwt beam="2">  1        2 0.23547469E+00 0.64106188E+02</pdfrwt>
<totfact> 0.15522072E+02</totfact>
</mgrwt>
</event>
<event>
 5    1  0.4149151E-003  0.1235615E+03  0.7546771E-02  0.1382027E+00
          1   -1    0    0  502    0  0.00000000000E+00  0.00000000000E+00  0.14881787295E+04  0.14881787295E+04  0.00000000000E+00 0. -1.
         -1   -1    0    0    0  501 -0.00000000000E+00 -0.00000000000E+00 -0.43903923425E+03  0.43903923425E+03  0.00000000000E+00 0.  1.
         25    1    1    2    0    0  0.83096579247E+02 -0.54708667984E+02 -0.10763290501E+03  0.19263416643E+03  0.12500000000E+03 0.  0.
          1    1    1    2  502    0  0.23865237563E+02 -0.22908724460E+02  0.14303635265E+04  0.14307460211E+04  0.00000000000E+00 0. -1.
         -1    1    1    2    0  501 -0.10696181681E+03  0.77617392444E+02 -0.27359112623E+03  0.30383777615E+03  0.00000000000E+00 0.  1.
<mgrwt>
<rscale>  0 0.63933962E+02</rscale>
<asrwt>0</asrwt>
<pdfrwt beam="1">  1        1 0.22895057E+00 0.33081101E+02</pdfrwt>
<pdfrwt beam="2">  1       -1 0.67544498E-01 0.12356153E+03</pdfrwt>
<totfact> 0.21279934E+01</totfact>
</mgrwt>
</event>
<event>
 5    1  0.4149151E-003  0.6809010E+02  0.7546771E-02  0.1502279E+00
          1   -1    0    0  502    0 -0.00000000000E+00  0.00000000000E+00  0.50393973428E+02  0.50393973428E+02  0.00000000000E+00 0. -1.
          2   -1    0    0  501    0  0.00000000000E+00 -0.00000000000E+00 -0.29104239242E+04  0.29104239242E+04  0.00000000000E+00 0. -1.
         25    1    1    2    0    0 -0.31795383819E+02 -0.83299404741E+02 -0.62830733942E+03  0.64679583334E+03  0.12500000000E+03 0.  0.
          2    1    1    2  501    0  0.15291187043E+02  0.65234693198E+02 -0.22686960208E+04  0.22696852249E+04  0.00000000000E+00 0. -1.
          1    1    1    2  502    0  0.16504196776E+02  0.18064711543E+02  0.36973409453E+02  0.44336839320E+02  0.00000000000E+00 0. -1.
<mgrwt>
<rscale>  0 0.40817684E+02</rscale>
<asrwt>0</asrwt>
<pdfrwt beam="2">  1        2 0.44775766E+00 0.68090102E+02</pdfrwt>
<pdfrwt beam="1">  1        1 0.77529167E-02 0.24468803E+02</pdfrwt>
<totfact> 0.29527145E+02</totfact>
</mgrwt>
</event>
<event>
 5    1  0.4149151E-003  0.9631717E+02  0.7546771E-02  0.1297196E+00
          2   -1    0    0  501    0  0.00000000000E+00  0.00000000000E+00  0.39139062880E+04  0.39139062880E+04  0.00000000000E+00 0. -1.
          2   -1    0    0  502    0 -0.00000000000E+00 -0.00000000000E+00 -0.12289433014E+04  0.12289433014E+04  0.00000000000E+00 0. -1.
         25    1    1    2    0    0  0.73329540965E+02  0.20172846958E+02 -0.49388796297E+03  0.51510628544E+03  0.12500000000E+03 0.  0.
          2    1    1    2  501    0 -0.23551685403E+02 -0.93464925408E+02  0.38999906358E+04  0.39011815305E+04  0.00000000000E+00 0. -1.
          2    1    1    2  502    0 -0.49777855562E+02  0.73292078450E+02 -0.72113968619E+03  0.72656177346E+03  0.00000000000E+00 0. -1.
<mgrwt>
<rscale>  0 0.92376870E+02</rscale>
<asrwt>0</asrwt>
<pdfrwt beam="1">  1        2 0.60213942E+00 0.96317173E+02</pdfrwt>
<pdfrwt beam="2">  1        2 0.18906820E+00 0.88597763E+02</pdfrwt>
<totfact> 0.20712230E+00</totfact>
</mgrwt>
</event>
<event>
 5    1  0.4149151E-003  0.2588587E+03  0.7546771E-02  0.1304522E+00
          3   -1    0    0  502    0 -0.00000000000E+00  0.00000000000E+00  0.28760021032E+03  0.28760021032E+03  0.00000000000E+00 0.  1.
          2   -1    0    0  501    0  0.00000000000E+00 -0.00000000000E+00 -0.11172576196E+04  0.11172576196E+04  0.00000000000E+00 0. -1.
         25    1    1    2    0    0 -0.39105315195E+02  0.27345982147E+03 -0.40914009057E+03  0.50924464980E+03  0.12500000000E+03 0.  0.
          2    1    1    2  501    0  0.19115956844E+02 -0.25000687028E+03 -0.63302955341E+03  0.68087830813E+03  0.00000000000E+00 0. -1.
          3    1    1    2  502    0  0.19989358351E+02 -0.23452951194E+02  0.21251223468E+03  0.21473487201E+03  0.00000000000E+00 0.  1.
<mgrwt>
<rscale>  0 0.89313749E+02</rscale>
<asrwt>0</asrwt>
<pdfrwt beam="2">  1        2 0.17188579E+00 0.25885871E+03</pdfrwt>
<pdfrwt beam="1">  1        3 0.44246186E-01 0.30815830E+02</pdfrwt>
<totfact> 0.62450208E+01</totfact>
</mgrwt>
</event>
<event>
 5    1  0.4149151E-003  0.9083623E+02  0.7546771E-02  0.1402089E+00
         -2   -1    0    0    0  501 -0.00000000000E+00  0.00000000000E+00  0.16683033104E+02  0.16683033104E+02  0.00000000000E+00 0.  1.
          1   -1    0    0  502    0  0.00000000000E+00 -0.00000000000E+00 -0.16479791003E+04  0.16479791003E+04  0.00000000000E+00 0. -1.
         25    1    1    2    0    0 -0.11732632819E+02 -0.10426055652E+03 -0.50843247773E+03  0.53398174381E+03  0.12500000000E+03 0.  0.
          1    1    1    2  502    0 -0.22268032713E+02  0.86590547413E+02 -0.91123977693E+03  0.91561548657E+03  0.00000000000E+00 0. -1.
         -2    1    1    2    0  501  0.34000665532E+02  0.17670009107E+02 -0.21162381249E+03  0.21506490297E+03  0.00000000000E+00 0.  1.
<mgrwt>
<rscale>  0 0.58997195E+02</rscale>
<asrwt>0</asrwt>
<pdfrwt beam="2">  1        1 0.25353527E+00 0.90836229E+02</pdfrwt>
<pdfrwt beam="1">  1       -2 0.25666202E-02 0.38318070E+02</pdfrwt>
<totfact> 0.23537281E+03</totfact>
</mgrwt>
</event>
<event>
 5    1  0.4149151E-003  0.7200854E+02  0.7546771E-02  0.1389300E+00
         -2   -1    0    0    0  501 -0.00000000000E+00  0.00000000000E+00  0.11976747692E+02  0.11976747692E+02  0.00000000000E+00 0.  1.
          1   -1    0    0  502    0  0.00000000000E+00 -0.00000000000E+00 -0.21298738297E+04  0.21298738297E+04  0.00000000000E+00 0. -1.
         25    1    1    2    0    0  0.69891055435E+02  0.82288321101E+02 -0.78861827827E+03  0.80572943116E+03  0.12500000000E+03 0.  0.
          1    1    1    2  502    0 -0.19058520414E+02 -0.65534736556E+02 -0.10171134598E+04  0.10194007156E+04  0.00000000000E+00 0. -1.
         -2    1    1    2    0  501 -0.50832535021E+02 -0.16753584545E+02 -0.31216534396E+03  0.31672043063E+03  0.00000000000E+00 0.  1.
<mgrwt>
<rscale>  0 0.62081058E+02</rscale>
<asrwt>0</asrwt>
<pdfrwt beam="2">  1        1 0.32767268E+00 0.72008541E+02</pdfrwt>
<pdfrwt beam="1">  1       -2 0.18425778E-02 0.53522231E+02</pdfrwt>
<totfact> 0.20349474E+03</totfact>
</mgrwt>
</event>
<event>
 5    1  0.4149151E-003  0.5497449E+02  0.7546771E-02  0.1426112E+00
         -2   -1    0    0    0  501 -0.00000000000E+00  0.00000000000E+00  0.13988357219E+03  0.13988357219E+03  0.00000000000E+00 0.  1.
          1   -1    0    0  502    0  0.00000000000E+00 -0.00000000000E+00 -0.11711862946E+04  0.11711862946E+04  0.00000000000E+00 0. -1.
         25    1    1    2    0    0 -0.87018201528E+01  0.52248501164E+01 -0.28831566694E+03  0.31441047142E+03  0.12500000000E+03 0.  0.
          1    1    1    2  502    0 -0.18805748937E+02 -0.52822411734E+02 -0.86291343015E+03  0.86473316769E+03  0.00000000000E+00 0. -1.
         -2    1    1    2    0  501  0.27507569090E+02  0.47597561618E+02  0.11992637464E+03  0.13192622773E+03  0.00000000000E+00 0.  1.
<mgrwt>
<rscale>  0 0.53748367E+02</rscale>
<asrwt>0</asrwt>
<pdfrwt beam="2">  1        1 0.18018250E+00 0.52549594E+02</pdfrwt>
<pdfrwt beam="1">  1       -2 0.21520550E-01 0.54974487E+02</pdfrwt>
<totfact> 0.21078847E+02</totfact>
</mgrwt>
</event>
<event>
 5    1  0.4149151E-003  0.6000015E+02  0.7546771E-02  0.1401856E+00
          1   -1    0    0  502    0  0.00000000000E+00  0.00000000000E+00  0.23437383211E+04  0.23437383211E+04  0.00000000000E+00 0. -1.
          1   -1    0    0  501    0 -0.00000000000E+00 -0.00000000000E+00 -0.44131770128E+02  0.44131770128E+02  0.00000000000E+00 0. -1.
         25    1    1    2    0    0 -0.53357981425E+02 -0.94056857494E+02  0.68274509633E+03  0.70246681999E+03  0.12500000000E+03 0.  0.
          1    1    1    2  501    0  0.45776194024E+02  0.36435552999E+02 -0.83970205698E+01  0.59106001524E+02  0.00000000000E+00 0. -1.
          1    1    1    2  502    0  0.75817874012E+01  0.57621304495E+02  0.16252584752E+04  0.16262972697E+04  0.00000000000E+00 0. -1.
<mgrwt>
<rscale>  0 0.59051562E+02</rscale>
<asrwt>0</asrwt>
<pdfrwt beam="1">  1        1 0.36057503E+00 0.58117968E+02</pdfrwt>
<pdfrwt beam="2">  1        1 0.67895049E-02 0.60000153E+02</pdfrwt>
<totfact> 0.28826730E+02</totfact>
</mgrwt>
</event>
<event>
 5    1  0.4149151E-003  0.1291969E+03  0.7546771E-02  0.1305535E+00
          1   -1    0    0  502    0  0.00000000000E+00  0.00000000000E+00  0.85719769971E+03  0.85719769971E+03  0.00000000000E+00 0. -1.
         -1   -1    0    0    0  501 -0.00000000000E+00 -0.00000000000E+00 -0.96828781815E+03  0.96828781815E+03  0.00000000000E+00 0.  1.
         25    1    1    2    0    0 -0.37791696689E+02  0.14188237234E+03  0.23346609784E+03  0.30280396094E+03  0.12500000000E+03 0.  0.
          1    1    1    2  502    0 -0.21296179742E+02 -0.12604658654E+03  0.58110591201E+03  0.59500029430E+03  0.00000000000E+00 0. -1.
         -1    1    1    2    0  501  0.59087876430E+02 -0.15835785801E+02 -0.92566212829E+03  0.92768126261E+03  0.00000000000E+00 0.  1.
<mgrwt>
<rscale>  0 0.88900947E+02</rscale>
<asrwt>0</asrwt>
<pdfrwt beam="1">  1        1 0.13187657E+00 0.12919694E+03</pdfrwt>
<pdfrwt beam="2">  1       -1 0.14896736E+00 0.61173109E+02</pdfrwt>
<totfact> 0.92754352E+00</totfact>
</mgrwt>
</event>
<event>
 5    1  0.4149151E-003  0.4129039E+02  0.7546771E-02  0.1502303E+00
          1   -1    0    0  502    0 -0.00000000000E+00  0.00000000000E+00  0.16654944201E+03  0.16654944201E+03  0.00000000000E+00 0. -1.
          2   -1    0    0  501    0  0.00000000000E+00 -0.00000000000E+00 -0.16394843618E+04  0.16394843618E+04  0.00000000000E+00 0. -1.
         25    1    1    2    0    0  0.38208862898E+02 -0.29893229704E+02 -0.58727838065E+02  0.14638128757E+03  0.12500000000E+03 0.  0.
          2    1    1    2  501    0  0.21500965750E+01  0.40286440798E+02 -0.15331185791E+04  0.15336493073E+04  0.00000000000E+00 0. -1.
          1    1    1    2  502    0 -0.40358959473E+02 -0.10393211094E+02  0.11891149739E+03  0.12600320892E+03  0.00000000000E+00 0. -1.
<mgrwt>
<rscale>  0 0.40814338E+02</rscale>
<asrwt>0</asrwt>
<pdfrwt beam="2">  1        2 0.25222836E+00 0.40343776E+02</pdfrwt>
<pdfrwt beam="1">  1        1 0.25622992E-01 0.41290388E+02</pdfrwt>
<totfact> 0.32888370E+02</totfact>
</mgrwt>
</event>
<event>
 5    1  0.4149151E-003  0.1017426E+03  0.7546771E-02  0.1377784E+00
         -2   -1    0    0    0  501 -0.00000000000E+00  0.00000000000E+00  0.14358264431E+02  0.14358264431E+02  0.00000000000E+00 0.  1.
          2   -1    0    0  502    0  0.00000000000E+00 -0.00000000000E+00 -0.22633687757E+04  0.22633687757E+04  0.00000000000E+00 0. -1.
         25    1    1    2    0    0 -0.13088842663E+03  0.16362964420E+02 -0.15496791583E+04  0.15602980550E+04  0.12500000000E+03 0.  0.
          2    1    1    2  502    0  0.34641518430E+02 -0.23015467021E+02 -0.41700075045E+03  0.41906965101E+03  0.00000000000E+00 0. -1.
         -2    1    1    2    0  501  0.96246908197E+02  0.66525026002E+01 -0.28233060256E+03  0.29835933415E+03  0.00000000000E+00 0.  1.
<mgrwt>
<rscale>  0 0.65049951E+02</rscale>
<asrwt>0</asrwt>
<pdfrwt beam="2">  1        2 0.34821075E+00 0.41590221E+02</pdfrwt>
<pdfrwt beam="1">  1       -2 0.22089627E-02 0.10174257E+03</pdfrwt>
<totfact> 0.40462431E+03</totfact>
</mgrwt>
</event>
<event>
 5    1  0.4149151E-003  0.4118298E+02  0.7546771E-02  0.1597890E+00
          2   -1    0    0  502    0  0.00000000000E+00  0.00000000000E+00  0.24984829279E+03  0.24984829279E+03  0.00000000000E+00 0. -1.
         -1   -1    0    0    0  501 -0.00000000000E+00 -0.00000000000E+00 -0.60356555639E+02  0.60356555639E+02  0.00000000000E+00 0.  1.
         25    1    1    2    0    0 -0.50680193927E+02 -0.31878491616E+02  0.14134797789E+03  0.19796204469E+03  0.12500000000E+03 0.  0.
          2    1    1    2  502    0  0.31597924814E+02  0.21173526165E+02  0.71034599052E+02  0.80577052101E+02  0.00000000000E+00 0. -1.
         -1    1    1    2    0  501  0.19082269113E+02  0.10704965451E+02 -0.22890839797E+02  0.31665751632E+02  0.00000000000E+00 0.  1.
<mgrwt>
<rscale>  0 0.30017973E+02</rscale>
<asrwt>0</asrwt>
<pdfrwt beam="1">  1        2 0.38438198E-01 0.41182975E+02</pdfrwt>
<pdfrwt beam="2">  1       -1 0.92856241E-02 0.21879883E+02</pdfrwt>
<totfact> 0.82879077E+03</totfact>
</mgrwt>
</event>
<event>
 5    1  0.4149151E-003  0.6840729E+02  0.7546771E-02  0.1447216E+00
          1   -1    0    0  502    0  0.00000000000E+00  0.00000000000E+00  0.50513586430E+03  0.50513586430E+03  0.00000000000E+00 0. -1.
          1   -1    0    0  501    0 -0.00000000000E+00 -0.00000000000E+00 -0.54804207419E+03  0.54804207419E+03  0.00000000000E+00 0. -1.
         25    1    1    2    0    0  0.48426862159E+02 -0.90474015260E+01  0.22093854712E+03  0.25858433452E+03  0.12500000000E+03 0.  0.
          1    1    1    2  501    0  0.13037406648E+02 -0.33601288466E+02 -0.52331447782E+03  0.52455415665E+03  0.00000000000E+00 0. -1.
          1    1    1    2  502    0 -0.61464268807E+02  0.42648689992E+02  0.25946972081E+03  0.27003944733E+03  0.00000000000E+00 0. -1.
<mgrwt>
<rscale>  0 0.49654109E+02</rscale>
<asrwt>0</asrwt>
<pdfrwt beam="1">  1        1 0.77713210E-01 0.68407287E+02</pdfrwt>
<pdfrwt beam="2">  1        1 0.84314166E-01 0.36041928E+02</pdfrwt>
<totfact> 0.23346480E+02</totfact>
</mgrwt>
</event>
<event>
 5    1  0.4149151E-003  0.1448097E+03  0.7546771E-02  0.1358872E+00
          2   -1    0    0  502    0  0.00000000000E+00  0.00000000000E+00  0.40832257358E+02  0.40832257358E+02  0.00000000000E+00 0. -1.
          2   -1    0    0  501    0 -0.00000000000E+00 -0.00000000000E+00 -0.12640533776E+04  0.12640533776E+04  0.00000000000E+00 0.  1.
         25    1    1    2    0    0  0.92911100321E+02 -0.10975351771E+03 -0.44446971437E+03  0.48358725604E+03  0.12500000000E+03 0.  0.
          2    1    1    2  501    0  0.25419843266E+02  0.22859920636E+02 -0.53959401546E+03  0.54067591580E+03  0.00000000000E+00 0.  1.
          2    1    1    2  502    0 -0.11833094359E+03  0.86893597073E+02 -0.23915739045E+03  0.28062246316E+03  0.00000000000E+00 0. -1.
<mgrwt>
<rscale>  0 0.70360462E+02</rscale>
<asrwt>0</asrwt>
<pdfrwt beam="1">  1        2 0.62818873E-02 0.14480968E+03</pdfrwt>
<pdfrwt beam="2">  1        2 0.19446970E+00 0.34186904E+02</pdfrwt>
<totfact> 0.36289622E+03</totfact>
</mgrwt>
</event>
<event>
 5    1  0.4149151E-003  0.7452702E+02  0.7546771E-02  0.1351230E+00
          1   -1    0    0  502    0 -0.00000000000E+00  0.00000000000E+00  0.20196016044E+04  0.20196016044E+04  0.00000000000E+00 0. -1.
          2   -1    0    0  501    0  0.00000000000E+00 -0.00000000000E+00 -0.21789078600E+03  0.21789078600E+03  0.00000000000E+00 0.  1.
         25    1    1    2    0    0  0.55343739212E+02  0.71108797298E+02  0.36741368773E+03  0.39841838368E+03  0.12500000000E+03 0.  0.
          2    1    1    2  501    0  0.15492101483E+02 -0.73192780962E+02 -0.19467772713E+03  0.20855839910E+03  0.00000000000E+00 0.  1.
          1    1    1    2  502    0 -0.70835840695E+02  0.20839836641E+01  0.16289748578E+04  0.16305156076E+04  0.00000000000E+00 0. -1.
<mgrwt>
<rscale>  0 0.72673711E+02</rscale>
<asrwt>0</asrwt>
<pdfrwt beam="2">  1        2 0.33521661E-01 0.74527021E+02</pdfrwt>
<pdfrwt beam="1">  1        1 0.31070793E+00 0.70866489E+02</pdfrwt>
<totfact> 0.79815072E+01</totfact>
</mgrwt>
</event>
<event>
 5    1  0.4149151E-003  0.7963780E+02  0.7546771E-02  0.1396819E+00
          2   -1    0    0  502    0  0.00000000000E+00  0.00000000000E+00  0.15236429448E+04  0.15236429448E+04  0.00000000000E+00 0. -1.
         -1   -1    0    0    0  501 -0.00000000000E+00 -0.00000000000E+00 -0.18973068743E+02  0.18973068743E+02  0.00000000000E+00 0.  1.
         25    1    1    2    0    0 -0.11246533689E+03  0.75471040913E+01  0.11932315907E+04  0.12050444140E+04  0.12500000000E+03 0.  0.
          2    1    1    2  502    0  0.38231574015E+02 -0.24798627510E+02  0.17959225558E+03  0.18528357575E+03  0.00000000000E+00 0. -1.
         -1    1    1    2    0  501  0.74233762876E+02  0.17251523419E+02  0.13184602983E+03  0.15228802380E+03  0.00000000000E+00 0.  1.
<mgrwt>
<rscale>  0 0.60241970E+02</rscale>
<asrwt>0</asrwt>
<pdfrwt beam="1">  1        2 0.23440651E+00 0.45570003E+02</pdfrwt>
<pdfrwt beam="2">  1       -1 0.29189349E-02 0.79637802E+02</pdfrwt>
<totfact> 0.60171980E+03</totfact>
</mgrwt>
</event>
<event>
 5    1  0.4149151E-003  0.6345362E+02  0.7546771E-02  0.1467058E+00
          2   -1    0    0  502    0  0.00000000000E+00  0.00000000000E+00  0.77466454990E+03  0.77466454990E+03  0.00000000000E+00 0. -1.
         -2   -1    0    0    0  501 -0.00000000000E+00 -0.00000000000E+00 -0.29330952155E+02  0.29330952155E+02  0.00000000000E+00 0.  1.
         25    1    1    2    0    0  0.57200034021E+02  0.24100462052E+02  0.17856862077E+03  0.22663721779E+03  0.12500000000E+03 0.  0.
          2    1    1    2  502    0  0.14653608150E+02 -0.30259000798E+02  0.11290391119E+03  0.11780334683E+03  0.00000000000E+00 0. -1.
         -2    1    1    2    0  501 -0.71853642171E+02  0.61585387450E+01  0.45386106578E+03  0.45955493744E+03  0.00000000000E+00 0.  1.
<mgrwt>
<rscale>  0 0.46188093E+02</rscale>
<asrwt>0</asrwt>
<pdfrwt beam="1">  1        2 0.11917915E+00 0.33620460E+02</pdfrwt>
<pdfrwt beam="2">  1       -2 0.45124548E-02 0.63453620E+02</pdfrwt>
<totfact> 0.79330123E+03</totfact>
</mgrwt>
</event>
<event>
 5    1  0.4149151E-003  0.6868788E+02  0.7546771E-02  0.1514882E+00
          1   -1    0    0  502    0 -0.00000000000E+00  0.00000000000E+00  0.15109889262E+04  0.15109889262E+04  0.00000000000E+00 0. -1.
          2   -1    0    0  501    0  0.00000000000E+00 -0.00000000000E+00 -0.82860194495E+03  0.82860194495E+03  0.00000000000E+00 0. -1.
         25    1    1    2    0    0 -0.48526426898E+02 -0.74514446439E+02  0.11863068495E+04  0.11961839983E+04  0.12500000000E+03 0.  0.
          2    1    1    2  501    0  0.44001483540E+02  0.52712957783E+02 -0.82184226959E+03  0.82470570663E+03  0.00000000000E+00 0. -1.
          1    1    1    2  502    0  0.45249433575E+01  0.21801488656E+02  0.31792240136E+03  0.31870116615E+03  0.00000000000E+00 0. -1.
<mgrwt>
<rscale>  0 0.39107702E+02</rscale>
<asrwt>0</asrwt>
<pdfrwt beam="2">  1        2 0.12747722E+00 0.68687876E+02</pdfrwt>
<pdfrwt beam="1">  1        1 0.23245983E+00 0.22266118E+02</pdfrwt>
<totfact> 0.44487573E+01</totfact>
</mgrwt>
</event>
<event>
 5    1  0.4149151E-003  0.1498872E+03  0.7546771E-02  0.1315387E+00
          1   -1    0    0  502    0 -0.00000000000E+00  0.00000000000E+00  0.13202591331E+04  0.13202591331E+04  0.00000000000E+00 0.  1.
          2   -1    0    0  501    0  0.00000000000E+00 -0.00000000000E+00 -0.82988352111E+03  0.82988352111E+03  0.00000000000E+00 0. -1.
         25    1    1    2    0    0 -0.11168954612E+03  0.15974648557E+03  0.11111901572E+03  0.25683833440E+03  0.12500000000E+03 0.  0.
          2    1    1    2  501    0  0.93009968514E+02 -0.11528883655E+03 -0.74925775521E+03  0.76376014154E+03  0.00000000000E+00 0. -1.
          1    1    1    2  502    0  0.18679577605E+02 -0.44457649015E+02  0.11285143515E+04  0.11295441783E+04  0.00000000000E+00 0.  1.
<mgrwt>
<rscale>  0 0.85017265E+02</rscale>
<asrwt>0</asrwt>
<pdfrwt beam="2">  1        2 0.12767439E+00 0.14988721E+03</pdfrwt>
<pdfrwt beam="1">  1        1 0.20311679E+00 0.48222497E+02</pdfrwt>
<totfact> 0.52085734E+01</totfact>
</mgrwt>
</event>
<event>
 5    1  0.4149151E-003  0.3594987E+02  0.7546771E-02  0.1619561E+00
         -2   -1    0    0    0  501 -0.00000000000E+00  0.00000000000E+00  0.27134648453E+02  0.27134648453E+02  0.00000000000E+00 0.  1.
          1   -1    0    0  502    0  0.00000000000E+00 -0.00000000000E+00 -0.40575055306E+03  0.40575055306E+03  0.00000000000E+00 0. -1.
         25    1    1    2    0    0 -0.50374966328E+01  0.20187872103E+02 -0.24440270658E+03  0.27530094358E+03  0.12500000000E+03 0.  0.
          1    1    1    2  502    0 -0.73263849794E+01 -0.38424734217E+02 -0.12919518228E+03  0.13498715214E+03  0.00000000000E+00 0. -1.
         -2    1    1    2    0  501  0.12363881612E+02  0.18236862114E+02 -0.50180157413E+01  0.22597105794E+02  0.00000000000E+00 0.  1.
<mgrwt>
<rscale>  0 0.28143913E+02</rscale>
<asrwt>0</asrwt>
<pdfrwt beam="2">  1        1 0.62423161E-01 0.35949866E+02</pdfrwt>
<pdfrwt beam="1">  1       -2 0.41745614E-02 0.22032901E+02</pdfrwt>
<totfact> 0.10367071E+04</totfact>
</mgrwt>
</event>
<event>
 5    1  0.4149151E-003  0.3815813E+02  0.7546771E-02  0.1531020E+00
          2   -1    0    0  501    0  0.00000000000E+00  0.00000000000E+00  0.56173673722E+02  0.56173673722E+02  0.00000000000E+00 0.  1.
          2   -1    0    0  502    0 -0.00000000000E+00 -0.00000000000E+00 -0.52487154390E+03  0.52487154390E+03  0.00000000000E+00 0. -1.
         25    1    1    2    0    0  0.10537392756E+02 -0.40578789998E+02 -0.29031934542E+03  0.31885419422E+03  0.12500000000E+03 0.  0.
          2    1    1    2  501    0  0.23931206702E+02  0.30202733970E+02  0.31176418173E+02  0.49566892616E+02  0.00000000000E+00 0.  1.
          2    1    1    2  502    0 -0.34468599458E+02  0.10376056028E+02 -0.20955494292E+03  0.21262413078E+03  0.00000000000E+00 0. -1.
<mgrwt>
<rscale>  0 0.37061549E+02</rscale>
<asrwt>0</asrwt>
<pdfrwt beam="1">  1        2 0.86421036E-02 0.38158126E+02</pdfrwt>
<pdfrwt beam="2">  1        2 0.80749468E-01 0.35996484E+02</pdfrwt>
<totfact> 0.62852496E+03</totfact>
</mgrwt>
</event>
<event>
 5    1  0.4149151E-003  0.6128737E+02  0.7546771E-02  0.1478957E+00
         -1   -1    0    0    0  501 -0.00000000000E+00  0.00000000000E+00  0.50045539803E+02  0.50045539803E+02  0.00000000000E+00 0.  1.
          1   -1    0    0  502    0  0.00000000000E+00 -0.00000000000E+00 -0.36213779837E+03  0.36213779837E+03  0.00000000000E+00 0. -1.
         25    1    1    2    0    0  0.53563170354E+02 -0.10392367128E+02 -0.83695873638E+02  0.16002191655E+03  0.12500000000E+03 0.  0.
          1    1    1    2  502    0  0.16371923771E+02  0.27467218441E+02 -0.99655439955E+02  0.10465990010E+03  0.00000000000E+00 0. -1.
         -1    1    1    2    0  501 -0.69935094125E+02 -0.17074851313E+02 -0.12874094497E+03  0.14750152152E+03  0.00000000000E+00 0.  1.
<mgrwt>
<rscale>  0 0.44269033E+02</rscale>
<asrwt>0</asrwt>
<pdfrwt beam="2">  1        1 0.55713506E-01 0.31976366E+02</pdfrwt>
<pdfrwt beam="1">  1       -1 0.76993140E-02 0.61287367E+02</pdfrwt>
<totfact> 0.57072665E+03</totfact>
</mgrwt>
</event>
<event>
 5    1  0.4149151E-003  0.9069725E+02  0.7546771E-02  0.1470411E+00
          2   -1    0    0  501    0  0.00000000000E+00  0.00000000000E+00  0.81393724163E+03  0.81393724163E+03  0.00000000000E+00 0. -1.
          1   -1    0    0  502    0 -0.00000000000E+00 -0.00000000000E+00 -0.66048846917E+02  0.66048846917E+02  0.00000000000E+00 0. -1.
         25    1    1    2    0    0  0.77014682342E+02  0.53347252233E+02  0.27510490322E+03  0.31636197368E+03  0.12500000000E+03 0.  0.
          2    1    1    2  501    0 -0.84831755802E+02 -0.31756432419E+02  0.51103990366E+03  0.51900547292E+03  0.00000000000E+00 0. -1.
          1    1    1    2  502    0  0.78170734599E+01 -0.21590819815E+02 -0.38256412160E+02  0.44618641946E+02  0.00000000000E+00 0. -1.
<mgrwt>
<rscale>  0 0.45635768E+02</rscale>
<asrwt>0</asrwt>
<pdfrwt beam="1">  1        2 0.12522111E+00 0.90697254E+02</pdfrwt>
<pdfrwt beam="2">  1        1 0.10161362E-01 0.22962364E+02</pdfrwt>
<totfact> 0.25972648E+03</totfact>
</mgrwt>
</event>
<event>
 5    1  0.4149151E-003  0.7400875E+02  0.7546771E-02  0.1445032E+00
          2   -1    0    0  501    0  0.00000000000E+00  0.00000000000E+00  0.27328796056E+04  0.27328796056E+04  0.00000000000E+00 0. -1.
          1   -1    0    0  502    0 -0.00000000000E+00 -0.00000000000E+00 -0.19786232398E+03  0.19786232398E+03  0.00000000000E+00 0. -1.
         25    1    1    2    0    0  0.17934650568E+02 -0.73347302126E+02  0.60183181829E+03  0.61929638779E+03  0.12500000000E+03 0.  0.
          2    1    1    2  501    0  0.15916879975E+02  0.72711415807E+02  0.21201418924E+04  0.21214480764E+04  0.00000000000E+00 0. -1.
          1    1    1    2  502    0 -0.33851530542E+02  0.63588631877E+00 -0.18695642907E+03  0.18999746536E+03  0.00000000000E+00 0. -1.
<mgrwt>
<rscale>  0 0.50057481E+02</rscale>
<asrwt>0</asrwt>
<pdfrwt beam="1">  1        2 0.42044299E+00 0.74008750E+02</pdfrwt>
<pdfrwt beam="2">  1        1 0.30440359E-01 0.33857502E+02</pdfrwt>
<totfact> 0.69855457E+01</totfact>
</mgrwt>
</event>
<event>
 5    1  0.4149151E-003  0.1027610E+03  0.7546771E-02  0.1312582E+00
          1   -1    0    0  502    0  0.00000000000E+00  0.00000000000E+00  0.10212371726E+04  0.10212371726E+04  0.00000000000E+00 0. -1.
         -2   -1    0    0    0  501 -0.00000000000E+00 -0.00000000000E+00 -0.30847587074E+02  0.30847587074E+02  0.00000000000E+00 0.  1.
         25    1    1    2    0    0 -0.30182646747E+02 -0.13676973802E+03  0.61525370324E+03  0.64325661501E+03  0.12500000000E+03 0.  0.
          1    1    1    2  502    0  0.53476014373E+02  0.68494225825E+02  0.24616782620E+03  0.26105505500E+03  0.00000000000E+00 0. -1.
         -2    1    1    2    0  501 -0.23293367626E+02  0.68275512191E+02  0.12896805612E+03  0.14777308970E+03  0.00000000000E+00 0.  1.
<mgrwt>
<rscale>  0 0.86099619E+02</rscale>
<asrwt>0</asrwt>
<pdfrwt beam="1">  1        1 0.15711339E+00 0.10276105E+03</pdfrwt>
<pdfrwt beam="2">  1       -2 0.47457834E-02 0.72139632E+02</pdfrwt>
<totfact> 0.27106139E+03</totfact>
</mgrwt>
</event>
<event>
 5    1  0.4149151E-003  0.4588351E+02  0.7546771E-02  0.1565991E+00
          2   -1    0    0  502    0  0.00000000000E+00  0.00000000000E+00  0.18746686337E+04  0.18746686337E+04  0.00000000000E+00 0. -1.
          2   -1    0    0  501    0 -0.00000000000E+00 -0.00000000000E+00 -0.28008208869E+03  0.28008208869E+03  0.00000000000E+00 0. -1.
         25    1    1    2    0    0  0.16126922105E+02  0.24220355309E+02  0.84366636349E+03  0.85337250724E+03  0.12500000000E+03 0.  0.
          2    1    1    2  501    0 -0.54480258362E+01 -0.45604242031E+02 -0.27317253127E+03  0.27700660591E+03  0.00000000000E+00 0. -1.
          2    1    1    2  502    0 -0.10678896269E+02  0.21383886722E+02  0.10240927128E+04  0.10243716092E+04  0.00000000000E+00 0. -1.
<mgrwt>
<rscale>  0 0.33116632E+02</rscale>
<asrwt>0</asrwt>
<pdfrwt beam="1">  1        2 0.28841055E+00 0.23902080E+02</pdfrwt>
<pdfrwt beam="2">  1        2 0.43089553E-01 0.45883511E+02</pdfrwt>
<totfact> 0.20147136E+02</totfact>
</mgrwt>
</event>
<event>
 5    1  0.4149151E-003  0.4815092E+02  0.7546771E-02  0.1527518E+00
         -2   -1    0    0    0  501 -0.00000000000E+00  0.00000000000E+00  0.94371201586E+01  0.94371201586E+01  0.00000000000E+00 0.  1.
          1   -1    0    0  502    0  0.00000000000E+00 -0.00000000000E+00 -0.18292026690E+04  0.18292026690E+04  0.00000000000E+00 0. -1.
         25    1    1    2    0    0  0.62012308477E+02 -0.17737793641E+02 -0.69397999699E+03  0.70809137260E+03  0.12500000000E+03 0.  0.
          1    1    1    2  502    0 -0.27569034406E+02 -0.96026721356E+01 -0.90258716662E+03  0.90305916546E+03  0.00000000000E+00 0. -1.
         -2    1    1    2    0  501 -0.34443274071E+02  0.27340465777E+02 -0.22319838527E+03  0.22748925114E+03  0.00000000000E+00 0.  1.
<mgrwt>
<rscale>  0 0.37492613E+02</rscale>
<asrwt>0</asrwt>
<pdfrwt beam="2">  1        1 0.28141554E+00 0.29193543E+02</pdfrwt>
<pdfrwt beam="1">  1       -2 0.14518660E-02 0.48150921E+02</pdfrwt>
<totfact> 0.48157820E+03</totfact>
</mgrwt>
</event>
<event>
 5    1  0.4149151E-003  0.4621182E+02  0.7546771E-02  0.1511986E+00
          2   -1    0    0  502    0  0.00000000000E+00  0.00000000000E+00  0.74732337337E+03  0.74732337337E+03  0.00000000000E+00 0. -1.
          2   -1    0    0  501    0 -0.00000000000E+00 -0.00000000000E+00 -0.17452791896E+04  0.17452791896E+04  0.00000000000E+00 0. -1.
         25    1    1    2    0    0  0.58750915130E+02  0.19283352764E+01 -0.27152542034E+03  0.30464149815E+03  0.12500000000E+03 0.  0.
          2    1    1    2  501    0 -0.21776102211E+02  0.25783199965E+02 -0.14562696109E+04  0.14566606165E+04  0.00000000000E+00 0. -1.
          2    1    1    2  502    0 -0.36974812919E+02 -0.27711535242E+02  0.72983921500E+03  0.73130044833E+03  0.00000000000E+00 0. -1.
<mgrwt>
<rscale>  0 0.39491605E+02</rscale>
<asrwt>0</asrwt>
<pdfrwt beam="1">  1        2 0.11497283E+00 0.46211817E+02</pdfrwt>
<pdfrwt beam="2">  1        2 0.26850449E+00 0.33748660E+02</pdfrwt>
<totfact> 0.79310596E+01</totfact>
</mgrwt>
</event>
<event>
 5    1  0.4149151E-003  0.5653709E+02  0.7546771E-02  0.1468217E+00
          1   -1    0    0  502    0 -0.00000000000E+00  0.00000000000E+00  0.42207391759E+02  0.42207391759E+02  0.00000000000E+00 0. -1.
          2   -1    0    0  501    0  0.00000000000E+00 -0.00000000000E+00 -0.24130650245E+04  0.24130650245E+04  0.00000000000E+00 0. -1.
         25    1    1    2    0    0 -0.83000190128E+02 -0.11145205891E+02 -0.10353025259E+04  0.10461785543E+04  0.12500000000E+03 0.  0.
          2    1    1    2  501    0  0.28472547733E+02  0.24281977242E+02 -0.13505245080E+04  0.13510428369E+04  0.00000000000E+00 0. -1.
          1    1    1    2  502    0  0.54527642395E+02 -0.13136771351E+02  0.14969401182E+02  0.58051025129E+02  0.00000000000E+00 0. -1.
<mgrwt>
<rscale>  0 0.45996206E+02</rscale>
<asrwt>0</asrwt>
<pdfrwt beam="2">  1        2 0.37124087E+00 0.37420588E+02</pdfrwt>
<pdfrwt beam="1">  1        1 0.64934432E-02 0.56537086E+02</pdfrwt>
<totfact> 0.80776681E+02</totfact>
</mgrwt>
</event>
<event>
 5    1  0.4149151E-003  0.7833981E+02  0.7546771E-02  0.1371303E+00
          2   -1    0    0  501    0  0.00000000000E+00  0.00000000000E+00  0.10636002660E+04  0.10636002660E+04  0.00000000000E+00 0. -1.
          1   -1    0    0  502    0 -0.00000000000E+00 -0.00000000000E+00 -0.41484213323E+03  0.41484213323E+03  0.00000000000E+00 0. -1.
         25    1    1    2    0    0  0.53636603935E+02  0.11241293115E+03 -0.10924461568E+03  0.20754020918E+03  0.12500000000E+03 0.  0.
          2    1    1    2  501    0 -0.40770482786E+02 -0.39792262462E+02  0.10083292213E+04  0.10099373619E+04  0.00000000000E+00 0. -1.
          1    1    1    2  502    0 -0.12866121150E+02 -0.72620668690E+02 -0.25032647278E+03  0.26096482822E+03  0.00000000000E+00 0. -1.
<mgrwt>
<rscale>  0 0.66806218E+02</rscale>
<asrwt>0</asrwt>
<pdfrwt beam="1">  1        2 0.16363081E+00 0.56970663E+02</pdfrwt>
<pdfrwt beam="2">  1        1 0.63821867E-01 0.78339809E+02</pdfrwt>
<totfact> 0.21077597E+02</totfact>
</mgrwt>
</event>
<event>
 5    1  0.4149151E-003  0.7711782E+02  0.7546771E-02  0.1442888E+00
          2   -1    0    0  502    0  0.00000000000E+00  0.00000000000E+00  0.31537462160E+04  0.31537462160E+04  0.00000000000E+00 0. -1.
         -1   -1    0    0    0  501 -0.00000000000E+00 -0.00000000000E+00 -0.21027269841E+02  0.21027269841E+02  0.00000000000E+00 0. -1.
         25    1    1    2    0    0  0.14158213539E+02  0.44732894112E+02  0.63956933154E+03  0.65335703614E+03  0.12500000000E+03 0.  0.
          2    1    1    2  502    0 -0.24693461785E+02 -0.76021140429E+02  0.24864434721E+04  0.24877279033E+04  0.00000000000E+00 0. -1.
         -1    1    1    2    0  501  0.10535248247E+02  0.31288246317E+02  0.67061425405E+01  0.33688546436E+02  0.00000000000E+00 0. -1.
<mgrwt>
<rscale>  0 0.50457834E+02</rscale>
<asrwt>0</asrwt>
<pdfrwt beam="1">  1        2 0.48519135E+00 0.77117823E+02</pdfrwt>
<pdfrwt beam="2">  1       -1 0.32349671E-02 0.33014327E+02</pdfrwt>
<totfact> 0.62191297E+02</totfact>
</mgrwt>
</event>
<event>
 5    1  0.4149151E-003  0.1832856E+03  0.7546771E-02  0.1368067E+00
          1   -1    0    0  502    0  0.00000000000E+00  0.00000000000E+00  0.27205647176E+03  0.27205647176E+03  0.00000000000E+00 0. -1.
         -1   -1    0    0    0  501 -0.00000000000E+00 -0.00000000000E+00 -0.21294362816E+03  0.21294362816E+03  0.00000000000E+00 0.  1.
         25    1    1    2    0    0  0.60722608228E+02 -0.18399354446E+03 -0.62634115271E+02  0.23893281890E+03  0.12500000000E+03 0.  0.
          1    1    1    2  502    0 -0.75452906285E+02  0.16377938214E+03  0.12693813382E+03  0.22052237279E+03  0.00000000000E+00 0. -1.
         -1    1    1    2    0  501  0.14730298057E+02  0.20214162315E+02 -0.51911749588E+01  0.25544908229E+02  0.00000000000E+00 0.  1.
<mgrwt>
<rscale>  0 0.67707582E+02</rscale>
<asrwt>0</asrwt>
<pdfrwt beam="1">  1        1 0.41854842E-01 0.18328558E+03</pdfrwt>
<pdfrwt beam="2">  1       -1 0.32760558E-01 0.25011878E+02</pdfrwt>
<totfact> 0.83791092E+02</totfact>
</mgrwt>
</event>
<event>
 5    1  0.4149151E-003  0.8135555E+02  0.7546771E-02  0.1431015E+00
         -2   -1    0    0    0  501 -0.00000000000E+00  0.00000000000E+00  0.15364976398E+03  0.15364976398E+03  0.00000000000E+00 0.  1.
          1   -1    0    0  502    0  0.00000000000E+00 -0.00000000000E+00 -0.13512368082E+03  0.13512368082E+03  0.00000000000E+00 0. -1.
         25    1    1    2    0    0  0.46139928087E+02 -0.86286238337E+02 -0.79553448659E+01  0.15894179879E+03  0.12500000000E+03 0.  0.
          1    1    1    2  502    0 -0.54035231979E+02  0.52998357626E+02 -0.13850082708E+02  0.76944505958E+02  0.00000000000E+00 0. -1.
         -2    1    1    2    0  501  0.78953038919E+01  0.33287880711E+02  0.40331510726E+02  0.52887140055E+02  0.00000000000E+00 0.  1.
<mgrwt>
<rscale>  0 0.52756856E+02</rscale>
<asrwt>0</asrwt>
<pdfrwt beam="2">  1        1 0.20788259E-01 0.81355546E+02</pdfrwt>
<pdfrwt beam="1">  1       -2 0.23638425E-01 0.34211384E+02</pdfrwt>
<totfact> 0.30067435E+03</totfact>
</mgrwt>
</event>
<event>
 5    1  0.4149151E-003  0.6543316E+02  0.7546771E-02  0.1379869E+00
          1   -1    0    0  502    0  0.00000000000E+00  0.00000000000E+00  0.55509055761E+03  0.55509055761E+03  0.00000000000E+00 0. -1.
          1   -1    0    0  501    0 -0.00000000000E+00 -0.00000000000E+00 -0.26075406075E+03  0.26075406075E+03  0.00000000000E+00 0. -1.
         25    1    1    2    0    0  0.45466983445E+01 -0.12097505900E+03  0.18053138616E+03  0.25074333243E+03  0.12500000000E+03 0.  0.
          1    1    1    2  501    0  0.18395144276E+02  0.61681921691E+02 -0.21797748546E+03  0.22728225836E+03  0.00000000000E+00 0. -1.
          1    1    1    2  502    0 -0.22941842620E+02  0.59293137313E+02  0.33178259617E+03  0.33781902758E+03  0.00000000000E+00 0. -1.
<mgrwt>
<rscale>  0 0.64498282E+02</rscale>
<asrwt>0</asrwt>
<pdfrwt beam="1">  1        1 0.85398547E-01 0.63576759E+02</pdfrwt>
<pdfrwt beam="2">  1        1 0.40116010E-01 0.65433162E+02</pdfrwt>
<totfact> 0.50845193E+02</totfact>
</mgrwt>
</event>
<event>
 5    1  0.4149151E-003  0.4624240E+02  0.7546771E-02  0.1535201E+00
         -3   -1    0    0    0  502 -0.00000000000E+00  0.00000000000E+00  0.15838082167E+04  0.15838082167E+04  0.00000000000E+00 0.  1.
         -2   -1    0    0    0  501  0.00000000000E+00 -0.00000000000E+00 -0.30537191064E+02  0.30537191064E+02  0.00000000000E+00 0.  1.
         25    1    1    2    0    0  0.34089201771E+02 -0.10618953023E+02  0.38773019891E+03  0.40894320264E+03  0.12500000000E+03 0.  0.
         -2    1    1    2    0  501 -0.44616575745E+02 -0.16294167768E+02  0.88081763097E+01  0.48308619359E+02  0.00000000000E+00 0.  1.
         -3    1    1    2    0  502  0.10527373975E+02  0.26913120791E+02  0.11567326504E+04  0.11570935857E+04  0.00000000000E+00 0.  1.
<mgrwt>
<rscale>  0 0.36556132E+02</rscale>
<asrwt>0</asrwt>
<pdfrwt beam="2">  1       -2 0.46980306E-02 0.46242404E+02</pdfrwt>
<pdfrwt beam="1">  1       -3 0.24366274E+00 0.28898818E+02</pdfrwt>
<totfact> 0.71067511E+01</totfact>
</mgrwt>
</event>
<event>
 5    1  0.4149151E-003  0.9031678E+02  0.7546771E-02  0.1333396E+00
          1   -1    0    0  502    0  0.00000000000E+00  0.00000000000E+00  0.23527724642E+03  0.23527724642E+03  0.00000000000E+00 0. -1.
         -1   -1    0    0    0  501 -0.00000000000E+00 -0.00000000000E+00 -0.17118321260E+03  0.17118321260E+03  0.00000000000E+00 0.  1.
         25    1    1    2    0    0 -0.53579931416E+01  0.10659072624E+03 -0.98536720518E+02  0.19163709532E+03  0.12500000000E+03 0.  0.
          1    1    1    2  502    0 -0.42435157363E+02 -0.53402185089E+02  0.89669769652E+02  0.11266411825E+03  0.00000000000E+00 0. -1.
         -1    1    1    2    0  501  0.47793150504E+02 -0.53188541149E+02  0.72960984692E+02  0.10215924545E+03  0.00000000000E+00 0.  1.
<mgrwt>
<rscale>  0 0.78488614E+02</rscale>
<asrwt>0</asrwt>
<pdfrwt beam="1">  1        1 0.36196500E-01 0.68209500E+02</pdfrwt>
<pdfrwt beam="2">  1       -1 0.26335879E-01 0.90316781E+02</pdfrwt>
<totfact> 0.14714984E+03</totfact>
</mgrwt>
</event>
<event>
 5    1  0.4149151E-003  0.7403162E+02  0.7546771E-02  0.1469602E+00
          1   -1    0    0  502    0  0.00000000000E+00  0.00000000000E+00  0.21428248056E+03  0.21428248056E+03  0.00000000000E+00 0. -1.
         -2   -1    0    0    0  501 -0.00000000000E+00 -0.00000000000E+00 -0.72701917985E+02  0.72701917985E+02  0.00000000000E+00 0.  1.
         25    1    1    2    0    0  0.35596432644E+02 -0.59246486815E+02  0.74186680402E+02  0.16095314774E+03  0.12500000000E+03 0.  0.
          1    1    1    2  502    0 -0.13369750034E+02  0.76756243422E+02  0.53475262149E+02  0.94498014700E+02  0.00000000000E+00 0. -1.
         -2    1    1    2    0  501 -0.22226682610E+02 -0.17509756607E+02  0.13918620026E+02  0.31533236112E+02  0.00000000000E+00 0.  1.
<mgrwt>
<rscale>  0 0.45768304E+02</rscale>
<asrwt>0</asrwt>
<pdfrwt beam="1">  1        1 0.32966535E-01 0.74031619E+02</pdfrwt>
<pdfrwt beam="2">  1       -2 0.11184911E-01 0.28295176E+02</pdfrwt>
<totfact> 0.55015494E+03</totfact>
</mgrwt>
</event>
<event>
 5    1  0.4149151E-003  0.3444181E+02  0.7546771E-02  0.1571019E+00
         -1   -1    0    0    0  502 -0.00000000000E+00  0.00000000000E+00  0.13178268492E+03  0.13178268492E+03  0.00000000000E+00 0.  1.
         -2   -1    0    0    0  501  0.00000000000E+00 -0.00000000000E+00 -0.10617118384E+03  0.10617118384E+03  0.00000000000E+00 0.  1.
         25    1    1    2    0    0  0.10105745811E+02  0.22782342818E+02 -0.33425807807E+02  0.13177042866E+03  0.12500000000E+03 0.  0.
         -2    1    1    2    0  501 -0.30132697945E+02  0.66352286590E+01 -0.65694306332E+01  0.31546206803E+02  0.00000000000E+00 0.  1.
         -1    1    1    2    0  502  0.20026952134E+02 -0.29417571477E+02  0.65606739519E+02  0.74637233294E+02  0.00000000000E+00 0.  1.
<mgrwt>
<rscale>  0 0.32598893E+02</rscale>
<asrwt>0</asrwt>
<pdfrwt beam="2">  1       -2 0.16334028E-01 0.30854590E+02</pdfrwt>
<pdfrwt beam="1">  1       -1 0.20274259E-01 0.34441807E+02</pdfrwt>
<totfact> 0.35753448E+03</totfact>
</mgrwt>
</event>
<event>
 5    1  0.4149151E-003  0.3876445E+02  0.7546771E-02  0.1546684E+00
          1   -1    0    0  502    0  0.00000000000E+00  0.00000000000E+00  0.10318129415E+04  0.10318129415E+04  0.00000000000E+00 0. -1.
         -1   -1    0    0    0  501 -0.00000000000E+00 -0.00000000000E+00 -0.14867212098E+02  0.14867212098E+02  0.00000000000E+00 0.  1.
         25    1    1    2    0    0  0.20385593511E+02 -0.22528028546E-01  0.32487437820E+03  0.34868887929E+03  0.12500000000E+03 0.  0.
          1    1    1    2  502    0  0.17846611930E+02 -0.34411930742E+02  0.26179228571E+03  0.26464671430E+03  0.00000000000E+00 0.  1.
         -1    1    1    2    0  501 -0.38232205441E+02  0.34434458771E+02  0.43027906554E+03  0.43334456005E+03  0.00000000000E+00 0. -1.
<mgrwt>
<rscale>  0 0.35216759E+02</rscale>
<asrwt>0</asrwt>
<pdfrwt beam="1">  1        1 0.15874040E+00 0.38764449E+02</pdfrwt>
<pdfrwt beam="2">  1       -1 0.22872642E-02 0.31993750E+02</pdfrwt>
<totfact> 0.73385594E+03</totfact>
</mgrwt>
</event>
<event>
 5    1  0.4149151E-003  0.3427606E+02  0.7546771E-02  0.1631088E+00
          2   -1    0    0  502    0  0.00000000000E+00  0.00000000000E+00  0.67866476633E+03  0.67866476633E+03  0.00000000000E+00 0. -1.
         -2   -1    0    0    0  501 -0.00000000000E+00 -0.00000000000E+00 -0.35823869182E+03  0.35823869182E+03  0.00000000000E+00 0.  1.
         25    1    1    2    0    0 -0.13226077439E+02  0.72393471703E+00  0.21810658593E+03  0.25173584575E+03  0.12500000000E+03 0.  0.
          2    1    1    2  502    0 -0.19868925446E+02  0.84934821498E+01  0.44261511161E+03  0.44314224631E+03  0.00000000000E+00 0. -1.
         -2    1    1    2    0  501  0.33095002885E+02 -0.92174168668E+01 -0.34029562304E+03  0.34202536609E+03  0.00000000000E+00 0.  1.
<mgrwt>
<rscale>  0 0.27214760E+02</rscale>
<asrwt>0</asrwt>
<pdfrwt beam="1">  1        2 0.10440996E+00 0.21608180E+02</pdfrwt>
<pdfrwt beam="2">  1       -2 0.55113645E-01 0.34276056E+02</pdfrwt>
<totfact> 0.14964682E+02</totfact>
</mgrwt>
</event>
<event>
 5    1  0.4149151E-003  0.1430019E+03  0.7546771E-02  0.1396031E+00
          1   -1    0    0  502    0 -0.00000000000E+00  0.00000000000E+00  0.45608531198E+03  0.45608531198E+03  0.00000000000E+00 0. -1.
          2   -1    0    0  501    0  0.00000000000E+00 -0.00000000000E+00 -0.80878687736E+03  0.80878687736E+03  0.00000000000E+00 0.  1.
         25    1    1    2    0    0 -0.10054082306E+03 -0.11758404576E+03 -0.31361158145E+03  0.37136463070E+03  0.12500000000E+03 0.  0.
          2    1    1    2  501    0 -0.74862722932E+01  0.24415625523E+02 -0.45402111923E+03  0.45473876429E+03  0.00000000000E+00 0.  1.
          1    1    1    2  502    0  0.10802709536E+03  0.93168420233E+02  0.41493113529E+03  0.43876879435E+03  0.00000000000E+00 0. -1.
<mgrwt>
<rscale>  0 0.60431123E+02</rscale>
<asrwt>0</asrwt>
<pdfrwt beam="2">  1        2 0.12442875E+00 0.25537561E+02</pdfrwt>
<pdfrwt beam="1">  1        1 0.70166972E-01 0.14300193E+03</pdfrwt>
<totfact> 0.27071235E+02</totfact>
</mgrwt>
</event>
<event>
 5    1  0.5825468E-003  0.7454991E+02  0.7546771E-02  0.1383168E+00
         -1   -1    0    0    0  501 -0.00000000000E+00  0.00000000000E+00  0.86301195476E+02  0.86301195476E+02  0.00000000000E+00 0.  1.
          2   -1    0    0  502    0  0.00000000000E+00 -0.00000000000E+00 -0.26696048280E+03  0.26696048280E+03  0.00000000000E+00 0. -1.
         25    1    1    2    0    0 -0.10026440611E+03  0.42956478074E+02 -0.11908413160E+03  0.20421616131E+03  0.12500000000E+03 0.  0.
          2    1    1    2  502    0  0.31723323192E+02 -0.44099110874E+02 -0.59350846713E+02  0.80458833075E+02  0.00000000000E+00 0. -1.
         -1    1    1    2    0  501  0.68541082914E+02  0.11426327993E+01 -0.22243090098E+01  0.68586683892E+02  0.00000000000E+00 0.  1.
<mgrwt>
<rscale>  0 0.63638447E+02</rscale>
<asrwt>0</asrwt>
<pdfrwt beam="2">  1        2 0.41070843E-01 0.54324035E+02</pdfrwt>
<pdfrwt beam="1">  1       -1 0.13277107E-01 0.74549911E+02</pdfrwt>
<totfact> 0.50680441E+03</totfact>
</mgrwt>
</event>
<event>
 5    1  0.4149151E-003  0.8297312E+02  0.7546771E-02  0.1456069E+00
          1   -1    0    0  502    0 -0.00000000000E+00  0.00000000000E+00  0.69407374184E+03  0.69407374184E+03  0.00000000000E+00 0. -1.
          2   -1    0    0  501    0  0.00000000000E+00 -0.00000000000E+00 -0.64150385184E+03  0.64150385184E+03  0.00000000000E+00 0. -1.
         25    1    1    2    0    0  0.47209526245E+02  0.66995009892E+02 -0.62935578893E+02  0.16218186646E+03  0.12500000000E+03 0.  0.
          2    1    1    2  501    0 -0.67876545904E+02 -0.48337478978E+02 -0.52535910001E+03  0.53192661273E+03  0.00000000000E+00 0. -1.
          1    1    1    2  502    0  0.20667019659E+02 -0.18657530914E+02  0.64086456891E+03  0.64146911449E+03  0.00000000000E+00 0. -1.
<mgrwt>
<rscale>  0 0.48064701E+02</rscale>
<asrwt>0</asrwt>
<pdfrwt beam="2">  1        2 0.98692900E-01 0.82973125E+02</pdfrwt>
<pdfrwt beam="1">  1        1 0.10678058E+00 0.27842937E+02</pdfrwt>
<totfact> 0.20646342E+02</totfact>
</mgrwt>
</event>
<event>
 5    1  0.4149151E-003  0.6017858E+02  0.7546771E-02  0.1401938E+00
          2   -1    0    0  501    0  0.00000000000E+00  0.00000000000E+00  0.56312721487E+02  0.56312721487E+02  0.00000000000E+00 0. -1.
          1   -1    0    0  502    0 -0.00000000000E+00 -0.00000000000E+00 -0.45411803562E+03  0.45411803562E+03  0.00000000000E+00 0. -1.
         25    1    1    2    0    0  0.10462799246E+02 -0.59312014791E+02 -0.19966758127E+03  0.24314507660E+03  0.12500000000E+03 0.  0.
          2    1    1    2  501    0 -0.58040420846E+02  0.26301166224E+02 -0.30605983370E+01  0.63795055129E+02  0.00000000000E+00 0. -1.
          1    1    1    2  502    0  0.47577621600E+02  0.33010848567E+02 -0.19507713453E+03  0.20349062538E+03  0.00000000000E+00 0. -1.
<mgrwt>
<rscale>  0 0.59032417E+02</rscale>
<asrwt>0</asrwt>
<pdfrwt beam="1">  1        2 0.86634955E-02 0.60178580E+02</pdfrwt>
<pdfrwt beam="2">  1        1 0.69864314E-01 0.57908084E+02</pdfrwt>
<totfact> 0.49701920E+03</totfact>
</mgrwt>
</event>
<event>
 5    1  0.4149151E-003  0.5663689E+02  0.7546771E-02  0.1426936E+00
         -1   -1    0    0    0  501 -0.00000000000E+00  0.00000000000E+00  0.10045030218E+03  0.10045030218E+03  0.00000000000E+00 0.  1.
          1   -1    0    0  502    0  0.00000000000E+00 -0.00000000000E+00 -0.17023899722E+03  0.17023899722E+03  0.00000000000E+00 0. -1.
         25    1    1    2    0    0  0.49651592498E+02  0.53066291597E+02 -0.47812370088E+02  0.15229029738E+03  0.12500000000E+03 0.  0.
          1    1    1    2  502    0  0.69365414921E+01 -0.50211142506E+02 -0.33260454042E+02  0.60626167970E+02  0.00000000000E+00 0. -1.
         -1    1    1    2    0  501 -0.56588133990E+02 -0.28551490915E+01  0.11284129094E+02  0.57772834050E+02  0.00000000000E+00 0.  1.
<mgrwt>
<rscale>  0 0.53579952E+02</rscale>
<asrwt>0</asrwt>
<pdfrwt beam="2">  1        1 0.26190615E-01 0.50688011E+02</pdfrwt>
<pdfrwt beam="1">  1       -1 0.15453893E-01 0.56636890E+02</pdfrwt>
<totfact> 0.49258388E+03</totfact>
</mgrwt>
</event>
<event>
 5    1  0.4149151E-003  0.2210351E+03  0.7546771E-02  0.1194435E+00
          3   -1    0    0  502    0 -0.00000000000E+00  0.00000000000E+00  0.27698105536E+03  0.27698105536E+03  0.00000000000E+00 0. -1.
          1   -1    0    0  501    0  0.00000000000E+00 -0.00000000000E+00 -0.12325004081E+04  0.12325004081E+04  0.00000000000E+00 0. -1.
         25    1    1    2    0    0  0.13346210939E+03  0.13060287790E+02 -0.49559226428E+03  0.52841214802E+03  0.12500000000E+03 0.  0.
          1    1    1    2  501    0  0.92706602746E+02 -0.56799393643E+02 -0.66428802338E+03  0.67312648390E+03  0.00000000000E+00 0. -1.
          3    1    1    2  502    0 -0.22616871213E+03  0.43739105854E+02  0.20436093497E+03  0.30794283150E+03  0.00000000000E+00 0. -1.
<mgrwt>
<rscale>  0 0.15502128E+03</rscale>
<asrwt>0</asrwt>
<pdfrwt beam="2">  1        1 0.18961545E+00 0.10872298E+03</pdfrwt>
<pdfrwt beam="1">  1        3 0.42612470E-01 0.22103512E+03</pdfrwt>
<totfact> 0.34949882E+01</totfact>
</mgrwt>
</event>
<event>
 5    1  0.4149151E-003  0.9768995E+02  0.7546771E-02  0.1320848E+00
         -1   -1    0    0    0  501 -0.00000000000E+00  0.00000000000E+00  0.10958335775E+04  0.10958335775E+04  0.00000000000E+00 0.  1.
          1   -1    0    0  502    0  0.00000000000E+00 -0.00000000000E+00 -0.50934587238E+03  0.50934587238E+03  0.00000000000E+00 0. -1.
         25    1    1    2    0    0 -0.31735675729E+02  0.32977750411E+02 -0.87979820540E+02  0.15956231998E+03  0.12500000000E+03 0.  0.
          1    1    1    2  502    0 -0.66614909104E+02 -0.22944932382E+02 -0.38002476437E+03  0.38650076012E+03  0.00000000000E+00 0. -1.
         -1    1    1    2    0  501  0.98350584833E+02 -0.10032818029E+02  0.10544922900E+04  0.10591163697E+04  0.00000000000E+00 0.  1.
<mgrwt>
<rscale>  0 0.82962771E+02</rscale>
<asrwt>0</asrwt>
<pdfrwt beam="2">  1        1 0.78360903E-01 0.70455774E+02</pdfrwt>
<pdfrwt beam="1">  1       -1 0.16858978E+00 0.97689955E+02</pdfrwt>
<totfact> 0.13706053E+01</totfact>
</mgrwt>
</event>
<event>
 5    1  0.4149151E-003  0.1041855E+03  0.7546771E-02  0.1453577E+00
          2   -1    0    0  501    0  0.00000000000E+00  0.00000000000E+00  0.18173467613E+04  0.18173467613E+04  0.00000000000E+00 0. -1.
          1   -1    0    0  502    0 -0.00000000000E+00 -0.00000000000E+00 -0.40363664293E+03  0.40363664293E+03  0.00000000000E+00 0. -1.
         25    1    1    2    0    0 -0.12018573680E+03 -0.33403005741E+02  0.11160972478E+03  0.20890692375E+03  0.12500000000E+03 0.  0.
          2    1    1    2  501    0  0.22580988810E+02 -0.21733816310E+00  0.16495043257E+04  0.16496588947E+04  0.00000000000E+00 0. -1.
          1    1    1    2  502    0  0.97604747992E+02  0.33620343904E+02 -0.34740393218E+03  0.36241758573E+03  0.00000000000E+00 0. -1.
<mgrwt>
<rscale>  0 0.48504856E+02</rscale>
<asrwt>0</asrwt>
<pdfrwt beam="1">  1        2 0.27959180E+00 0.22582035E+02</pdfrwt>
<pdfrwt beam="2">  1        1 0.62097946E-01 0.10418552E+03</pdfrwt>
<totfact> 0.99547574E+01</totfact>
</mgrwt>
</event>
<event>
 5    1  0.4149151E-003  0.8297257E+02  0.7546771E-02  0.1332777E+00
          1   -1    0    0  502    0 -0.00000000000E+00  0.00000000000E+00  0.25893618968E+04  0.25893618968E+04  0.00000000000E+00 0. -1.
          2   -1    0    0  501    0  0.00000000000E+00 -0.00000000000E+00 -0.65397363387E+03  0.65397363387E+03  0.00000000000E+00 0.  1.
         25    1    1    2    0    0  0.14016619977E+03 -0.66975494278E+02  0.83568205062E+03  0.85914013416E+03  0.12500000000E+03 0.  0.
          2    1    1    2  501    0 -0.79243165579E+02  0.23835745748E+02 -0.63877476037E+03  0.64411242540E+03  0.00000000000E+00 0.  1.
          1    1    1    2  502    0 -0.60923034187E+02  0.43139748530E+02  0.17384809726E+04  0.17400829711E+04  0.00000000000E+00 0. -1.
<mgrwt>
<rscale>  0 0.78701459E+02</rscale>
<asrwt>0</asrwt>
<pdfrwt beam="2">  1        2 0.10061133E+00 0.82972567E+02</pdfrwt>
<pdfrwt beam="1">  1        1 0.39836336E+00 0.74650211E+02</pdfrwt>
<totfact> 0.10785732E+01</totfact>
</mgrwt>
</event>
<event>
 5    1  0.4517735E-003  0.7862484E+02  0.7546771E-02  0.1366617E+00
          2   -1    0    0  502    0  0.00000000000E+00  0.00000000000E+00  0.92756693042E+03  0.92756693042E+03  0.00000000000E+00 0. -1.
         -1   -1    0    0    0  501 -0.00000000000E+00 -0.00000000000E+00 -0.25954919768E+02  0.25954919768E+02  0.00000000000E+00 0.  1.
         25    1    1    2    0    0  0.20634655562E+02  0.11063162550E+03  0.42322312069E+03  0.45542063574E+03  0.12500000000E+03 0.  0.
          2    1    1    2  502    0 -0.38793082082E+02 -0.44470543784E+02  0.32143823888E+03  0.32681045561E+03  0.00000000000E+00 0. -1.
         -1    1    1    2    0  501  0.18158426519E+02 -0.66161081721E+02  0.15695065108E+03  0.17129075883E+03  0.00000000000E+00 0.  1.
<mgrwt>
<rscale>  0 0.68116713E+02</rscale>
<asrwt>0</asrwt>
<pdfrwt beam="1">  1        2 0.14270258E+00 0.59012986E+02</pdfrwt>
<pdfrwt beam="2">  1       -1 0.39930653E-02 0.78624840E+02</pdfrwt>
<totfact> 0.77796476E+03</totfact>
</mgrwt>
</event>
<event>
 5    1  0.4149151E-003  0.3321009E+02  0.7546771E-02  0.1574793E+00
          1   -1    0    0  502    0  0.00000000000E+00  0.00000000000E+00  0.14020944099E+03  0.14020944099E+03  0.00000000000E+00 0. -1.
         -1   -1    0    0    0  501 -0.00000000000E+00 -0.00000000000E+00 -0.14279858390E+03  0.14279858390E+03  0.00000000000E+00 0.  1.
         25    1    1    2    0    0 -0.19842716133E+02  0.36295890683E+01 -0.92881938695E+02  0.15703172239E+03  0.12500000000E+03 0.  0.
          1    1    1    2  502    0 -0.17632708433E+02  0.28142456157E+02  0.59063692821E+02  0.67760091904E+02  0.00000000000E+00 0. -1.
         -1    1    1    2    0  501  0.37475424565E+02 -0.31772045225E+02  0.31229102965E+02  0.58216210596E+02  0.00000000000E+00 0.  1.
<mgrwt>
<rscale>  0 0.32217733E+02</rscale>
<asrwt>0</asrwt>
<pdfrwt beam="1">  1        1 0.21570683E-01 0.33210093E+02</pdfrwt>
<pdfrwt beam="2">  1       -1 0.21969013E-01 0.31255026E+02</pdfrwt>
<totfact> 0.34501744E+03</totfact>
</mgrwt>
</event>
<event>
 5    1  0.4149151E-003  0.6332211E+02  0.7546771E-02  0.1425356E+00
          1   -1    0    0  502    0  0.00000000000E+00  0.00000000000E+00  0.64225463928E+03  0.64225463928E+03  0.00000000000E+00 0. -1.
         -2   -1    0    0    0  501 -0.00000000000E+00 -0.00000000000E+00 -0.30018701582E+02  0.30018701582E+02  0.00000000000E+00 0.  1.
         25    1    1    2    0    0  0.72847991616E+02 -0.28587181944E+02  0.22571647921E+03  0.26962378575E+03  0.12500000000E+03 0.  0.
          1    1    1    2  502    0 -0.60424670622E+02 -0.15585235063E+02  0.16450967933E+03  0.17594736419E+03  0.00000000000E+00 0. -1.
         -2    1    1    2    0  501 -0.12423320994E+02  0.44172417007E+02  0.22200977916E+03  0.22670219093E+03  0.00000000000E+00 0.  1.
<mgrwt>
<rscale>  0 0.53903709E+02</rscale>
<asrwt>0</asrwt>
<pdfrwt beam="1">  1        1 0.98808396E-01 0.63322115E+02</pdfrwt>
<pdfrwt beam="2">  1       -2 0.46182623E-02 0.45886178E+02</pdfrwt>
<totfact> 0.54920407E+03</totfact>
</mgrwt>
</event>
<event>
 5    1  0.4149151E-003  0.6034194E+02  0.7546771E-02  0.1493568E+00
         -2   -1    0    0    0  501 -0.00000000000E+00  0.00000000000E+00  0.19594357651E+02  0.19594357651E+02  0.00000000000E+00 0.  1.
          1   -1    0    0  502    0  0.00000000000E+00 -0.00000000000E+00 -0.92904769299E+03  0.92904769299E+03  0.00000000000E+00 0. -1.
         25    1    1    2    0    0  0.47009585137E+01 -0.79788086719E+02 -0.39713052079E+03  0.42394090194E+03  0.12500000000E+03 0.  0.
          1    1    1    2  502    0 -0.13509302887E+02  0.26020999182E+02 -0.38622404568E+03  0.38733526450E+03  0.00000000000E+00 0. -1.
         -2    1    1    2    0  501  0.88083443736E+01  0.53767087537E+02 -0.12609876887E+03  0.13736588421E+03  0.00000000000E+00 0.  1.
<mgrwt>
<rscale>  0 0.42061324E+02</rscale>
<asrwt>0</asrwt>
<pdfrwt beam="2">  1        1 0.14293042E+00 0.29318828E+02</pdfrwt>
<pdfrwt beam="1">  1       -2 0.30145164E-02 0.60341942E+02</pdfrwt>
<totfact> 0.64805260E+03</totfact>
</mgrwt>
</event>
<event>
 5    1  0.4149151E-003  0.1308069E+03  0.7546771E-02  0.1356414E+00
          2   -1    0    0  502    0  0.00000000000E+00  0.00000000000E+00  0.31575216299E+04  0.31575216299E+04  0.00000000000E+00 0. -1.
         -2   -1    0    0    0  501 -0.00000000000E+00 -0.00000000000E+00 -0.23965271139E+02  0.23965271139E+02  0.00000000000E+00 0.  1.
         25    1    1    2    0    0  0.39386507939E+02  0.11834812441E+03  0.14556719041E+04  0.14663435027E+04  0.12500000000E+03 0.  0.
          2    1    1    2  502    0  0.37271285809E+02 -0.10189919588E+02  0.14571261365E+04  0.14576383505E+04  0.00000000000E+00 0. -1.
         -2    1    1    2    0  501 -0.76657793748E+02 -0.10815820482E+03  0.22075831814E+03  0.25750504779E+03  0.00000000000E+00 0.  1.
<mgrwt>
<rscale>  0 0.71093370E+02</rscale>
<asrwt>0</asrwt>
<pdfrwt beam="1">  1        2 0.48577223E+00 0.38639141E+02</pdfrwt>
<pdfrwt beam="2">  1       -2 0.36869673E-02 0.13080693E+03</pdfrwt>
<totfact> 0.67843412E+02</totfact>
</mgrwt>
</event>
<event>
 5    1  0.4149151E-003  0.3446243E+02  0.7546771E-02  0.1559239E+00
         -1   -1    0    0    0  501 -0.00000000000E+00  0.00000000000E+00  0.31355968450E+02  0.31355968450E+02  0.00000000000E+00 0.  1.
          2   -1    0    0  502    0  0.00000000000E+00 -0.00000000000E+00 -0.42891852648E+03  0.42891852648E+03  0.00000000000E+00 0. -1.
         25    1    1    2    0    0  0.15708715520E+01  0.68939014089E+01 -0.33719500206E+03  0.35968800776E+03  0.12500000000E+03 0.  0.
          2    1    1    2  502    0 -0.27581297314E+02  0.18497863622E+02 -0.54421058543E+02  0.63753827595E+02  0.00000000000E+00 0. -1.
         -1    1    1    2    0  501  0.26010425762E+02 -0.25391765031E+02 -0.59464974306E+01  0.36832659575E+02  0.00000000000E+00 0.  1.
<mgrwt>
<rscale>  0 0.33830382E+02</rscale>
<asrwt>0</asrwt>
<pdfrwt beam="2">  1        2 0.65987463E-01 0.33209922E+02</pdfrwt>
<pdfrwt beam="1">  1       -1 0.48239953E-02 0.34462435E+02</pdfrwt>
<totfact> 0.12853779E+04</totfact>
</mgrwt>
</event>
<event>
 5    1  0.4149151E-003  0.9495581E+02  0.7546771E-02  0.1350001E+00
         -1   -1    0    0    0  501 -0.00000000000E+00  0.00000000000E+00  0.16507073929E+03  0.16507073929E+03  0.00000000000E+00 0.  1.
          2   -1    0    0  502    0  0.00000000000E+00 -0.00000000000E+00 -0.13759933736E+04  0.13759933736E+04  0.00000000000E+00 0. -1.
         25    1    1    2    0    0 -0.62718962189E+02  0.32278494450E+02 -0.30161344433E+01  0.14356067180E+03  0.12500000000E+03 0.  0.
          2    1    1    2  502    0 -0.45265075306E+02 -0.33319097454E+02 -0.12711274114E+04  0.12723694374E+04  0.00000000000E+00 0. -1.
         -1    1    1    2    0  501  0.10798403750E+03  0.10406030036E+01  0.63220911547E+02  0.12513400363E+03  0.00000000000E+00 0.  1.
<mgrwt>
<rscale>  0 0.73055219E+02</rscale>
<asrwt>0</asrwt>
<pdfrwt beam="2">  1        2 0.21169128E+00 0.56205776E+02</pdfrwt>
<pdfrwt beam="1">  1       -1 0.25395499E-01 0.94955809E+02</pdfrwt>
<totfact> 0.27219336E+02</totfact>
</mgrwt>
</event>
<event>
 5    1  0.4149151E-003  0.1723421E+03  0.7546771E-02  0.1259852E+00
          2   -1    0    0  501    0  0.00000000000E+00  0.00000000000E+00  0.31210822925E+03  0.31210822925E+03  0.00000000000E+00 0. -1.
          1   -1    0    0  502    0 -0.00000000000E+00 -0.00000000000E+00 -0.76285201030E+03  0.76285201030E+03  0.00000000000E+00 0. -1.
         25    1    1    2    0    0  0.35549791045E+01  0.21156064766E+03 -0.69701988942E+02  0.25544845424E+03  0.12500000000E+03 0.  0.
          2    1    1    2  501    0 -0.50180340679E+02 -0.49812772172E+02  0.20128516806E+03  0.21334267680E+03  0.00000000000E+00 0. -1.
          1    1    1    2  502    0  0.46625361574E+02 -0.16174787548E+03 -0.58232696017E+03  0.60616910850E+03  0.00000000000E+00 0. -1.
<mgrwt>
<rscale>  0 0.11038871E+03</rscale>
<asrwt>0</asrwt>
<pdfrwt beam="1">  1        2 0.48016651E-01 0.70706286E+02</pdfrwt>
<pdfrwt beam="2">  1        1 0.11736185E+00 0.17234207E+03</pdfrwt>
<totfact> 0.35995288E+02</totfact>
</mgrwt>
</event>
<event>
 5    1  0.4149151E-003  0.5191399E+02  0.7546771E-02  0.1474932E+00
          2   -1    0    0  501    0  0.00000000000E+00  0.00000000000E+00  0.69138303147E+03  0.69138303147E+03  0.00000000000E+00 0. -1.
          1   -1    0    0  502    0 -0.00000000000E+00 -0.00000000000E+00 -0.75811683650E+03  0.75811683650E+03  0.00000000000E+00 0. -1.
         25    1    1    2    0    0 -0.41067351593E+02  0.52122367085E+02  0.42577503755E+03  0.44867878389E+03  0.12500000000E+03 0.  0.
          2    1    1    2  501    0 -0.88348919476E+01 -0.37825180808E+02  0.25176266635E+03  0.25474151564E+03  0.00000000000E+00 0. -1.
          1    1    1    2  502    0  0.49902243541E+02 -0.14297186277E+02 -0.74427150893E+03  0.74607956844E+03  0.00000000000E+00 0. -1.
<mgrwt>
<rscale>  0 0.44905557E+02</rscale>
<asrwt>0</asrwt>
<pdfrwt beam="1">  1        2 0.10636662E+00 0.38843270E+02</pdfrwt>
<pdfrwt beam="2">  1        1 0.11663336E+00 0.51913988E+02</pdfrwt>
<totfact> 0.16693380E+02</totfact>
</mgrwt>
</event>
<event>
 5    1  0.4149151E-003  0.2193418E+03  0.7546771E-02  0.1253534E+00
          2   -1    0    0  501    0  0.00000000000E+00  0.00000000000E+00  0.15230163392E+04  0.15230163392E+04  0.00000000000E+00 0.  1.
          2   -1    0    0  502    0 -0.00000000000E+00 -0.00000000000E+00 -0.46255739224E+03  0.46255739224E+03  0.00000000000E+00 0. -1.
         25    1    1    2    0    0  0.26130514593E+03 -0.60388089553E+01 -0.68852377088E+00  0.28972801137E+03  0.12500000000E+03 0.  0.
          2    1    1    2  501    0 -0.21324697339E+03  0.40495072151E+02  0.13671034404E+04  0.13842275605E+04  0.00000000000E+00 0.  1.
          2    1    1    2  502    0 -0.48058172547E+02 -0.34456263196E+02 -0.30595596965E+03  0.31161815959E+03  0.00000000000E+00 0. -1.
<mgrwt>
<rscale>  0 0.11388830E+03</rscale>
<asrwt>0</asrwt>
<pdfrwt beam="1">  1        2 0.23431020E+00 0.21934184E+03</pdfrwt>
<pdfrwt beam="2">  1        2 0.71162676E-01 0.59133933E+02</pdfrwt>
<totfact> 0.14540088E+02</totfact>
</mgrwt>
</event>
<event>
 5    1  0.4149151E-003  0.1405207E+03  0.7546771E-02  0.1236064E+00
          2   -1    0    0  501    0  0.00000000000E+00  0.00000000000E+00  0.26427536778E+04  0.26427536778E+04  0.00000000000E+00 0.  1.
          1   -1    0    0  502    0 -0.00000000000E+00 -0.00000000000E+00 -0.53396491754E+03  0.53396491754E+03  0.00000000000E+00 0. -1.
         25    1    1    2    0    0 -0.48960130253E+02  0.29522276424E+02  0.64012444594E+03  0.65471594256E+03  0.12500000000E+03 0.  0.
          2    1    1    2  501    0 -0.88398509246E+02 -0.65578695908E+02  0.19842073244E+04  0.19872578011E+04  0.00000000000E+00 0.  1.
          1    1    1    2  502    0  0.13735863950E+03  0.36056419483E+02 -0.51554301005E+03  0.53474485172E+03  0.00000000000E+00 0. -1.
<mgrwt>
<rscale>  0 0.12436547E+03</rscale>
<asrwt>0</asrwt>
<pdfrwt beam="1">  1        2 0.40657748E+00 0.11006753E+03</pdfrwt>
<pdfrwt beam="2">  1        1 0.82148450E-01 0.14052074E+03</pdfrwt>
<totfact> 0.21810536E+01</totfact>
</mgrwt>
</event>
<event>
 5    1  0.4149151E-003  0.9630491E+02  0.7546771E-02  0.1388339E+00
          2   -1    0    0  502    0  0.00000000000E+00  0.00000000000E+00  0.23697094500E+04  0.23697094500E+04  0.00000000000E+00 0. -1.
         -1   -1    0    0    0  501 -0.00000000000E+00 -0.00000000000E+00 -0.10225015514E+02  0.10225015514E+02  0.00000000000E+00 0.  1.
         25    1    1    2    0    0  0.11405106403E+03  0.17359400711E+01  0.13604168803E+04  0.13709010712E+04  0.12500000000E+03 0.  0.
          2    1    1    2  502    0 -0.28030700659E+02  0.28996771981E+02  0.50386458968E+03  0.50547607036E+03  0.00000000000E+00 0. -1.
         -1    1    1    2    0  501 -0.86020363367E+02 -0.30732712052E+02  0.49520296448E+03  0.50355732398E+03  0.00000000000E+00 0.  1.
<mgrwt>
<rscale>  0 0.62321791E+02</rscale>
<asrwt>0</asrwt>
<pdfrwt beam="1">  1        2 0.36457025E+00 0.40330298E+02</pdfrwt>
<pdfrwt beam="2">  1       -1 0.15730812E-02 0.96304907E+02</pdfrwt>
<totfact> 0.58654048E+03</totfact>
</mgrwt>
</event>
<event>
 5    1  0.4149151E-003  0.8591888E+02  0.7546771E-02  0.1441928E+00
          2   -1    0    0  501    0  0.00000000000E+00  0.00000000000E+00  0.16851704640E+03  0.16851704640E+03  0.00000000000E+00 0. -1.
          2   -1    0    0  502    0 -0.00000000000E+00 -0.00000000000E+00 -0.86451029814E+03  0.86451029814E+03  0.00000000000E+00 0. -1.
         25    1    1    2    0    0  0.72103567768E+02  0.64652871450E+01 -0.21429005896E+03  0.25842978503E+03  0.12500000000E+03 0.  0.
          2    1    1    2  501    0 -0.79310050082E+02 -0.35427257108E+02  0.13317295750E+03  0.15899751948E+03  0.00000000000E+00 0. -1.
          2    1    1    2  502    0  0.72064823146E+01  0.28961969963E+02 -0.61487615028E+03  0.61560004002E+03  0.00000000000E+00 0. -1.
<mgrwt>
<rscale>  0 0.50638487E+02</rscale>
<asrwt>0</asrwt>
<pdfrwt beam="1">  1        2 0.25925699E-01 0.85918884E+02</pdfrwt>
<pdfrwt beam="2">  1        2 0.13300159E+00 0.29845085E+02</pdfrwt>
<totfact> 0.10927343E+03</totfact>
</mgrwt>
</event>
<event>
 5    1  0.4149151E-003  0.2960255E+03  0.7546771E-02  0.1328236E+00
          2   -1    0    0  501    0  0.00000000000E+00  0.00000000000E+00  0.24302524121E+04  0.24302524121E+04  0.00000000000E+00 0. -1.
          3   -1    0    0  502    0 -0.00000000000E+00 -0.00000000000E+00 -0.82303186590E+02  0.82303186590E+02  0.00000000000E+00 0. -1.
         25    1    1    2    0    0  0.31154154619E+03  0.14519800847E+02  0.71470081995E+03  0.78974123715E+03  0.12500000000E+03 0.  0.
          2    1    1    2  501    0 -0.29057640838E+03 -0.86339820848E+01  0.16617275861E+04  0.16869640675E+04  0.00000000000E+00 0. -1.
          3    1    1    2  502    0 -0.20965137813E+02 -0.58858187621E+01 -0.28479180460E+02  0.35850294081E+02  0.00000000000E+00 0. -1.
<mgrwt>
<rscale>  0 0.80287949E+02</rscale>
<asrwt>0</asrwt>
<pdfrwt beam="1">  1        2 0.37388493E+00 0.29602553E+03</pdfrwt>
<pdfrwt beam="2">  1        3 0.12662031E-01 0.21775671E+02</pdfrwt>
<totfact> 0.99428931E+01</totfact>
</mgrwt>
</event>
<event>
 5    1  0.4149151E-003  0.4048090E+02  0.7546771E-02  0.1570543E+00
          1   -1    0    0  502    0  0.00000000000E+00  0.00000000000E+00  0.26902063659E+03  0.26902063659E+03  0.00000000000E+00 0. -1.
         -2   -1    0    0    0  501 -0.00000000000E+00 -0.00000000000E+00 -0.46149780462E+02  0.46149780462E+02  0.00000000000E+00 0.  1.
         25    1    1    2    0    0  0.29567654439E+02  0.12701795916E+02  0.94697998775E+02  0.16008839052E+03  0.12500000000E+03 0.  0.
          1    1    1    2  502    0 -0.61063166023E+01  0.25611874329E+02  0.96720419432E+02  0.10024018528E+03  0.00000000000E+00 0. -1.
         -2    1    1    2    0  501 -0.23461337837E+02 -0.38313670245E+02  0.31452437922E+02  0.54841841252E+02  0.00000000000E+00 0.  1.
<mgrwt>
<rscale>  0 0.32647383E+02</rscale>
<asrwt>0</asrwt>
<pdfrwt beam="1">  1        1 0.41387789E-01 0.26329740E+02</pdfrwt>
<pdfrwt beam="2">  1       -2 0.70999664E-02 0.40480903E+02</pdfrwt>
<totfact> 0.84393676E+03</totfact>
</mgrwt>
</event>
<event>
 5    1  0.4149151E-003  0.1232961E+03  0.7546771E-02  0.1389921E+00
          1   -1    0    0  502    0 -0.00000000000E+00  0.00000000000E+00  0.18727037655E+04  0.18727037655E+04  0.00000000000E+00 0. -1.
          2   -1    0    0  501    0  0.00000000000E+00 -0.00000000000E+00 -0.85979566876E+03  0.85979566876E+03  0.00000000000E+00 0.  1.
         25    1    1    2    0    0  0.38597193375E+02  0.10315407063E+03 -0.69045527924E+02  0.18034076231E+03  0.12500000000E+03 0.  0.
          2    1    1    2  501    0  0.31083428420E+02 -0.11034472421E+01 -0.73267131118E+03  0.73333119894E+03  0.00000000000E+00 0.  1.
          1    1    1    2  502    0 -0.69680621795E+02 -0.10205062339E+03  0.18146249358E+04  0.18188274730E+04  0.00000000000E+00 0. -1.
<mgrwt>
<rscale>  0 0.61926405E+02</rscale>
<asrwt>0</asrwt>
<pdfrwt beam="2">  1        2 0.13227626E+00 0.31103008E+02</pdfrwt>
<pdfrwt beam="1">  1        1 0.28810827E+00 0.12329610E+03</pdfrwt>
<totfact> 0.21635675E+01</totfact>
</mgrwt>
</event>
<event>
 5    1  0.4149151E-003  0.5383627E+02  0.7546771E-02  0.1496895E+00
          3   -1    0    0  502    0  0.00000000000E+00  0.00000000000E+00  0.10822020045E+04  0.10822020045E+04  0.00000000000E+00 0. -1.
         -3   -1    0    0    0  501 -0.00000000000E+00 -0.00000000000E+00 -0.15689029120E+02  0.15689029120E+02  0.00000000000E+00 0.  1.
         25    1    1    2    0    0 -0.49475387970E+02 -0.17621382958E+02  0.37476782150E+03  0.39854014501E+03  0.12500000000E+03 0.  0.
          3    1    1    2  502    0 -0.73572271494E+01  0.31260208612E+02  0.42820720957E+03  0.42940976207E+03  0.00000000000E+00 0. -1.
         -3    1    1    2    0  501  0.56832615120E+02 -0.13638825654E+02  0.26353794431E+03  0.26994112654E+03  0.00000000000E+00 0.  1.
<mgrwt>
<rscale>  0 0.41580225E+02</rscale>
<asrwt>0</asrwt>
<pdfrwt beam="1">  1        3 0.16649256E+00 0.32114318E+02</pdfrwt>
<pdfrwt beam="2">  1       -3 0.24136976E-02 0.53836269E+02</pdfrwt>
<totfact> 0.37579691E+02</totfact>
</mgrwt>
</event>
<event>
 5    1  0.4149151E-003  0.6178915E+02  0.7546771E-02  0.1417527E+00
          2   -1    0    0  501    0  0.00000000000E+00  0.00000000000E+00  0.74749283937E+03  0.74749283937E+03  0.00000000000E+00 0. -1.
          2   -1    0    0  502    0 -0.00000000000E+00 -0.00000000000E+00 -0.11984045878E+04  0.11984045878E+04  0.00000000000E+00 0. -1.
         25    1    1    2    0    0 -0.14715521562E+01  0.97665020456E+02  0.23608920848E+03  0.28443582061E+03  0.12500000000E+03 0.  0.
          2    1    1    2  501    0 -0.23918190604E+02 -0.54664941980E+02  0.48486976676E+03  0.48852740603E+03  0.00000000000E+00 0. -1.
          2    1    1    2  502    0  0.25389742760E+02 -0.43000078475E+02 -0.11718707237E+04  0.11729342005E+04  0.00000000000E+00 0. -1.
<mgrwt>
<rscale>  0 0.55547535E+02</rscale>
<asrwt>0</asrwt>
<pdfrwt beam="1">  1        2 0.11499890E+00 0.61789148E+02</pdfrwt>
<pdfrwt beam="2">  1        2 0.18436993E+00 0.49936417E+02</pdfrwt>
<totfact> 0.14141844E+02</totfact>
</mgrwt>
</event>
<event>
 5    1  0.4149151E-003  0.5791785E+02  0.7546771E-02  0.1519135E+00
          1   -1    0    0  502    0  0.00000000000E+00  0.00000000000E+00  0.17981813845E+03  0.17981813845E+03  0.00000000000E+00 0. -1.
         -1   -1    0    0    0  501 -0.00000000000E+00 -0.00000000000E+00 -0.93945507121E+02  0.93945507121E+02  0.00000000000E+00 0.  1.
         25    1    1    2    0    0  0.31999772746E+02 -0.47883877651E+02  0.99968475665E+02  0.17010451882E+03  0.12500000000E+03 0.  0.
          1    1    1    2  502    0 -0.23604540364E+02 -0.10071226618E+02  0.22897334446E+02  0.34393194910E+02  0.00000000000E+00 0. -1.
         -1    1    1    2    0  501 -0.83952323819E+01  0.57955104269E+02 -0.36993178784E+02  0.69265931843E+02  0.00000000000E+00 0.  1.
<mgrwt>
<rscale>  0 0.38553366E+02</rscale>
<asrwt>0</asrwt>
<pdfrwt beam="1">  1        1 0.27664329E-01 0.25663280E+02</pdfrwt>
<pdfrwt beam="2">  1       -1 0.14453155E-01 0.57917852E+02</pdfrwt>
<totfact> 0.49989943E+03</totfact>
</mgrwt>
</event>
<event>
 5    1  0.4149151E-003  0.1530693E+03  0.7546771E-02  0.1294296E+00
         -1   -1    0    0    0  501 -0.00000000000E+00  0.00000000000E+00  0.35875448059E+03  0.35875448059E+03  0.00000000000E+00 0.  1.
          2   -1    0    0  502    0  0.00000000000E+00 -0.00000000000E+00 -0.38570367892E+03  0.38570367892E+03  0.00000000000E+00 0. -1.
         25    1    1    2    0    0  0.46046051609E+02 -0.98314967251E+02 -0.12715446221E+03  0.20875662604E+03  0.12500000000E+03 0.  0.
          2    1    1    2  502    0 -0.10490429309E+02 -0.56300777887E+02 -0.19354817339E+03  0.20184331082E+03  0.00000000000E+00 0. -1.
         -1    1    1    2    0  501 -0.35555622300E+02  0.15461574514E+03  0.29375343728E+03  0.33385822266E+03  0.00000000000E+00 0.  1.
<mgrwt>
<rscale>  0 0.93628219E+02</rscale>
<asrwt>0</asrwt>
<pdfrwt beam="2">  1        2 0.59339027E-01 0.57269771E+02</pdfrwt>
<pdfrwt beam="1">  1       -1 0.55192997E-01 0.15306929E+03</pdfrwt>
<totfact> 0.32961580E+02</totfact>
</mgrwt>
</event>
<event>
 5    1  0.4149151E-003  0.5843203E+02  0.7546771E-02  0.1486610E+00
         -1   -1    0    0    0  501 -0.00000000000E+00  0.00000000000E+00  0.43659099472E+02  0.43659099472E+02  0.00000000000E+00 0.  1.
          2   -1    0    0  502    0  0.00000000000E+00 -0.00000000000E+00 -0.40801031420E+03  0.40801031420E+03  0.00000000000E+00 0. -1.
         25    1    1    2    0    0 -0.57885460144E+02 -0.30059384814E+02 -0.31473080295E+03  0.34486920917E+03  0.12500000000E+03 0.  0.
          2    1    1    2  502    0  0.56259182112E+02 -0.16796186242E+01 -0.49598559896E+02  0.75019556346E+02  0.00000000000E+00 0. -1.
         -1    1    1    2    0  501  0.16262780319E+01  0.31739003438E+02 -0.21851883749E-01  0.31780648152E+02  0.00000000000E+00 0.  1.
<mgrwt>
<rscale>  0 0.43093008E+02</rscale>
<asrwt>0</asrwt>
<pdfrwt beam="2">  1        2 0.62770817E-01 0.58432031E+02</pdfrwt>
<pdfrwt beam="1">  1       -1 0.67167846E-02 0.31780641E+02</pdfrwt>
<totfact> 0.83507549E+03</totfact>
</mgrwt>
</event>
<event>
 5    1  0.4149151E-003  0.8283082E+02  0.7546771E-02  0.1424272E+00
          2   -1    0    0  502    0  0.00000000000E+00  0.00000000000E+00  0.95540501078E+02  0.95540501078E+02  0.00000000000E+00 0. -1.
          2   -1    0    0  501    0 -0.00000000000E+00 -0.00000000000E+00 -0.80072917898E+03  0.80072917898E+03  0.00000000000E+00 0. -1.
         25    1    1    2    0    0 -0.34406610487E+02  0.46594183658E+02 -0.36818899797E+03  0.39311953783E+03  0.12500000000E+03 0.  0.
          2    1    1    2  501    0  0.54509019551E+02 -0.75696628832E+02 -0.41082884266E+03  0.42128559291E+03  0.00000000000E+00 0. -1.
          2    1    1    2  502    0 -0.20102409064E+02  0.29102445174E+02  0.73829162734E+02  0.81864549319E+02  0.00000000000E+00 0. -1.
<mgrwt>
<rscale>  0 0.54127185E+02</rscale>
<asrwt>0</asrwt>
<pdfrwt beam="1">  1        2 0.14698538E-01 0.35370315E+02</pdfrwt>
<pdfrwt beam="2">  1        2 0.12318911E+00 0.82830818E+02</pdfrwt>
<totfact> 0.20621759E+03</totfact>
</mgrwt>
</event>
<event>
 5    1  0.4149151E-003  0.1299551E+03  0.7546771E-02  0.1347293E+00
          3   -1    0    0  502    0 -0.00000000000E+00  0.00000000000E+00  0.14550821603E+03  0.14550821603E+03  0.00000000000E+00 0. -1.
          2   -1    0    0  501    0  0.00000000000E+00 -0.00000000000E+00 -0.52667373414E+03  0.52667373414E+03  0.00000000000E+00 0. -1.
         25    1    1    2    0    0 -0.12364685281E+03 -0.10785503726E+03 -0.92450076051E+02  0.22603820437E+03  0.12500000000E+03 0.  0.
          2    1    1    2  501    0  0.85192582890E+02  0.90889260523E+02 -0.35018251020E+03  0.37168054066E+03  0.00000000000E+00 0. -1.
          3    1    1    2  502    0  0.38454269919E+02  0.16965776739E+02  0.61467068138E+02  0.74463205147E+02  0.00000000000E+00 0. -1.
<mgrwt>
<rscale>  0 0.73905929E+02</rscale>
<asrwt>0</asrwt>
<pdfrwt beam="2">  1        2 0.81026728E-01 0.12995510E+03</pdfrwt>
<pdfrwt beam="1">  1        3 0.22385879E-01 0.42030566E+02</pdfrwt>
<totfact> 0.58324424E+02</totfact>
</mgrwt>
</event>
<event>
 5    1  0.4149151E-003  0.1285786E+03  0.7546771E-02  0.1256517E+00
         -3   -1    0    0    0  502 -0.00000000000E+00  0.00000000000E+00  0.71265460928E+03  0.71265460928E+03  0.00000000000E+00 0.  1.
         -2   -1    0    0    0  501  0.00000000000E+00 -0.00000000000E+00 -0.45691283119E+03  0.45691283119E+03  0.00000000000E+00 0.  1.
         25    1    1    2    0    0  0.16534949097E+03 -0.10476087827E+03 -0.59067124098E+01  0.23232560133E+03  0.12500000000E+03 0.  0.
         -2    1    1    2    0  501 -0.97928443312E+02 -0.14219051784E+01 -0.32387592936E+03  0.33836019187E+03  0.00000000000E+00 0.  1.
         -3    1    1    2    0  502 -0.67421047659E+02  0.10618278345E+03  0.58552441986E+03  0.59888164726E+03  0.00000000000E+00 0.  1.
<mgrwt>
<rscale>  0 0.11221777E+03</rscale>
<asrwt>0</asrwt>
<pdfrwt beam="2">  1       -2 0.70294282E-01 0.97938766E+02</pdfrwt>
<pdfrwt beam="1">  1       -3 0.10963917E+00 0.12857858E+03</pdfrwt>
<totfact> 0.56241278E+00</totfact>
</mgrwt>
</event>
<event>
 5    1  0.4149151E-003  0.7225008E+02  0.7546771E-02  0.1403408E+00
          1   -1    0    0  502    0 -0.00000000000E+00  0.00000000000E+00  0.55352442599E+03  0.55352442599E+03  0.00000000000E+00 0. -1.
          2   -1    0    0  501    0  0.00000000000E+00 -0.00000000000E+00 -0.73787334127E+03  0.73787334127E+03  0.00000000000E+00 0. -1.
         25    1    1    2    0    0  0.66276132710E+02 -0.47778404175E+02  0.32664215731E+03  0.35915929698E+03  0.12500000000E+03 0.  0.
          2    1    1    2  501    0 -0.72278024465E+02  0.48089730690E+00 -0.71707646446E+03  0.72071006651E+03  0.00000000000E+00 0. -1.
          1    1    1    2  502    0  0.60018917552E+01  0.47297506868E+02  0.20608539187E+03  0.21152840377E+03  0.00000000000E+00 0. -1.
<mgrwt>
<rscale>  0 0.58691161E+02</rscale>
<asrwt>0</asrwt>
<pdfrwt beam="2">  1        2 0.11351897E+00 0.72250082E+02</pdfrwt>
<pdfrwt beam="1">  1        1 0.85157604E-01 0.47676796E+02</pdfrwt>
<totfact> 0.23227841E+02</totfact>
</mgrwt>
</event>
<event>
 5    1  0.4149151E-003  0.6831493E+02  0.7546771E-02  0.1382216E+00
          2   -1    0    0  501    0  0.00000000000E+00  0.00000000000E+00  0.38551013958E+03  0.38551013958E+03  0.00000000000E+00 0. -1.
          2   -1    0    0  502    0 -0.00000000000E+00 -0.00000000000E+00 -0.88655298619E+03  0.88655298619E+03  0.00000000000E+00 0. -1.
         25    1    1    2    0    0  0.52821753268E+02  0.19816865165E+02 -0.18123396041E+03  0.22727427081E+03  0.12500000000E+03 0.  0.
          2    1    1    2  501    0 -0.16152215487E+02 -0.66980751211E+02  0.35788989929E+03  0.36446192547E+03  0.00000000000E+00 0. -1.
          2    1    1    2  502    0 -0.36669537780E+02  0.47163886045E+02 -0.67769878549E+03  0.68032692950E+03  0.00000000000E+00 0. -1.
<mgrwt>
<rscale>  0 0.63884735E+02</rscale>
<asrwt>0</asrwt>
<pdfrwt beam="1">  1        2 0.59309253E-01 0.68314929E+02</pdfrwt>
<pdfrwt beam="2">  1        2 0.13639277E+00 0.59741838E+02</pdfrwt>
<totfact> 0.42991860E+02</totfact>
</mgrwt>
</event>
<event>
 5    1  0.4149151E-003  0.4273766E+02  0.7546771E-02  0.1529556E+00
         -1   -1    0    0    0  501 -0.00000000000E+00  0.00000000000E+00  0.92848147766E+02  0.92848147766E+02  0.00000000000E+00 0.  1.
          2   -1    0    0  502    0  0.00000000000E+00 -0.00000000000E+00 -0.16913055903E+03  0.16913055903E+03  0.00000000000E+00 0. -1.
         25    1    1    2    0    0 -0.54734814244E+02 -0.44586717102E+02 -0.42212536502E+02  0.14963546862E+03  0.12500000000E+03 0.  0.
          2    1    1    2  502    0  0.25538493945E+02  0.30421779984E+02 -0.59206173910E+02  0.71295654843E+02  0.00000000000E+00 0. -1.
         -1    1    1    2    0  501  0.29196320299E+02  0.14164937119E+02  0.25136299146E+02  0.41047583331E+02  0.00000000000E+00 0.  1.
<mgrwt>
<rscale>  0 0.37240863E+02</rscale>
<asrwt>0</asrwt>
<pdfrwt beam="2">  1        2 0.26020086E-01 0.42737659E+02</pdfrwt>
<pdfrwt beam="1">  1       -1 0.14284331E-01 0.32451049E+02</pdfrwt>
<totfact> 0.68589786E+03</totfact>
</mgrwt>
</event>
<event>
 5    1  0.4149151E-003  0.5494734E+02  0.7546771E-02  0.1461656E+00
          1   -1    0    0  502    0 -0.00000000000E+00  0.00000000000E+00  0.48451145090E+02  0.48451145090E+02  0.00000000000E+00 0. -1.
          2   -1    0    0  501    0  0.00000000000E+00 -0.00000000000E+00 -0.25666467369E+04  0.25666467369E+04  0.00000000000E+00 0. -1.
         25    1    1    2    0    0  0.12120437481E+02  0.38176947687E+02 -0.47421995168E+03  0.49205075643E+03  0.12500000000E+03 0.  0.
          2    1    1    2  501    0 -0.50249928333E+02 -0.24917385802E+02 -0.20727270982E+04  0.20734858463E+04  0.00000000000E+00 0. -1.
          1    1    1    2  502    0  0.38129490851E+02 -0.13259561886E+02  0.28751458074E+02  0.49561279194E+02  0.00000000000E+00 0. -1.
<mgrwt>
<rscale>  0 0.47097573E+02</rscale>
<asrwt>0</asrwt>
<pdfrwt beam="2">  1        2 0.39486869E+00 0.54947341E+02</pdfrwt>
<pdfrwt beam="1">  1        1 0.74540231E-02 0.40369222E+02</pdfrwt>
<totfact> 0.51587721E+02</totfact>
</mgrwt>
</event>
<event>
 5    1  0.6280080E-003  0.1122402E+03  0.7546771E-02  0.1343807E+00
          1   -1    0    0  502    0  0.00000000000E+00  0.00000000000E+00  0.34207388494E+03  0.34207388494E+03  0.00000000000E+00 0. -1.
         -2   -1    0    0    0  501 -0.00000000000E+00 -0.00000000000E+00 -0.98367890978E+02  0.98367890978E+02  0.00000000000E+00 0.  1.
         25    1    1    2    0    0 -0.13408651579E+02 -0.14941217722E+03  0.11249960803E+03  0.22535516956E+03  0.12500000000E+03 0.  0.
          1    1    1    2  502    0  0.16928343328E+02  0.99392623003E+02  0.13053493959E+03  0.16493887586E+03  0.00000000000E+00 0. -1.
         -2    1    1    2    0  501 -0.35196917490E+01  0.50019554217E+02  0.67144633846E+00  0.50147730500E+02  0.00000000000E+00 0.  1.
<mgrwt>
<rscale>  0 0.75020568E+02</rscale>
<asrwt>0</asrwt>
<pdfrwt beam="1">  1        1 0.52626751E-01 0.11224018E+03</pdfrwt>
<pdfrwt beam="2">  1       -2 0.15133522E-01 0.50143235E+02</pdfrwt>
<totfact> 0.20336948E+03</totfact>
</mgrwt>
</event>
<event>
 5    1  0.4149151E-003  0.8922727E+02  0.7546771E-02  0.1407553E+00
          1   -1    0    0  501    0  0.00000000000E+00  0.00000000000E+00  0.32147737998E+03  0.32147737998E+03  0.00000000000E+00 0. -1.
          1   -1    0    0  502    0 -0.00000000000E+00 -0.00000000000E+00 -0.21212750829E+03  0.21212750829E+03  0.00000000000E+00 0. -1.
         25    1    1    2    0    0 -0.34475254720E+02  0.41388642254E+02 -0.11070365092E+03  0.17544760250E+03  0.12500000000E+03 0.  0.
          1    1    1    2  501    0  0.54352261705E+02 -0.73032380727E+02  0.27614133873E+03  0.29076096014E+03  0.00000000000E+00 0. -1.
          1    1    1    2  502    0 -0.19877006985E+02  0.31643738472E+02 -0.56087816121E+02  0.67396325630E+02  0.00000000000E+00 0. -1.
<mgrwt>
<rscale>  0 0.57743478E+02</rscale>
<asrwt>0</asrwt>
<pdfrwt beam="1">  1        1 0.49458059E-01 0.89227270E+02</pdfrwt>
<pdfrwt beam="2">  1        1 0.32635001E-01 0.37368725E+02</pdfrwt>
<totfact> 0.12680025E+03</totfact>
</mgrwt>
</event>
<event>
 5    1  0.4149151E-003  0.8942041E+02  0.7546771E-02  0.1354893E+00
          3   -1    0    0  502    0 -0.00000000000E+00  0.00000000000E+00  0.27157691168E+03  0.27157691168E+03  0.00000000000E+00 0. -1.
          1   -1    0    0  501    0  0.00000000000E+00 -0.00000000000E+00 -0.25114368806E+04  0.25114368806E+04  0.00000000000E+00 0. -1.
         25    1    1    2    0    0  0.13713948089E+03 -0.46918694216E+02  0.16824599562E+03  0.25483389909E+03  0.12500000000E+03 0.  0.
          1    1    1    2  501    0 -0.87171614022E+02  0.18967501037E+02 -0.24534952429E+04  0.24551166089E+04  0.00000000000E+00 0. -1.
          3    1    1    2  502    0 -0.49967866869E+02  0.27951193179E+02  0.45389278356E+02  0.73063284276E+02  0.00000000000E+00 0. -1.
<mgrwt>
<rscale>  0 0.71552111E+02</rscale>
<asrwt>0</asrwt>
<pdfrwt beam="2">  1        1 0.38637491E+00 0.89420411E+02</pdfrwt>
<pdfrwt beam="1">  1        3 0.41781063E-01 0.57254318E+02</pdfrwt>
<totfact> 0.52675208E+00</totfact>
</mgrwt>
</event>
<event>
 5    1  0.4149151E-003  0.9200607E+02  0.7546771E-02  0.1420920E+00
          1   -1    0    0  502    0 -0.00000000000E+00  0.00000000000E+00  0.12478857700E+03  0.12478857700E+03  0.00000000000E+00 0. -1.
          2   -1    0    0  501    0  0.00000000000E+00 -0.00000000000E+00 -0.11928716995E+04  0.11928716995E+04  0.00000000000E+00 0. -1.
         25    1    1    2    0    0 -0.22094609942E+02  0.82220464311E+02 -0.20481629589E+02  0.15262003044E+03  0.12500000000E+03 0.  0.
          2    1    1    2  501    0  0.29384969559E+02  0.14281286764E+02 -0.10660249314E+04  0.10665254737E+04  0.00000000000E+00 0. -1.
          1    1    1    2  502    0 -0.72903596176E+01 -0.96501751076E+02  0.18423438458E+02  0.98514772438E+02  0.00000000000E+00 0. -1.
<mgrwt>
<rscale>  0 0.54826843E+02</rscale>
<asrwt>0</asrwt>
<pdfrwt beam="2">  1        2 0.18351872E+00 0.32671572E+02</pdfrwt>
<pdfrwt beam="1">  1        1 0.19198243E-01 0.92006065E+02</pdfrwt>
<totfact> 0.81680680E+02</totfact>
</mgrwt>
</event>
<event>
 5    1  0.4149151E-003  0.9567427E+02  0.7546771E-02  0.1316668E+00
          1   -1    0    0  502    0  0.00000000000E+00  0.00000000000E+00  0.14388421270E+04  0.14388421270E+04  0.00000000000E+00 0. -1.
          1   -1    0    0  501    0 -0.00000000000E+00 -0.00000000000E+00 -0.32655323344E+03  0.32655323344E+03  0.00000000000E+00 0. -1.
         25    1    1    2    0    0  0.12413385913E+03  0.32962442635E+02  0.54739231259E+03  0.57598531360E+03  0.12500000000E+03 0.  0.
          1    1    1    2  501    0 -0.89578559228E+02  0.33244881370E+02 -0.30330661131E+03  0.31800069320E+03  0.00000000000E+00 0. -1.
          1    1    1    2  502    0 -0.34555299902E+02 -0.66207324005E+02  0.86820319226E+03  0.87140935361E+03  0.00000000000E+00 0. -1.
<mgrwt>
<rscale>  0 0.84529256E+02</rscale>
<asrwt>0</asrwt>
<pdfrwt beam="1">  1        1 0.22136032E+00 0.74682518E+02</pdfrwt>
<pdfrwt beam="2">  1        1 0.50238960E-01 0.95674265E+02</pdfrwt>
<totfact> 0.83956693E+01</totfact>
</mgrwt>
</event>
<event>
 5    1  0.4149151E-003  0.5989214E+02  0.7546771E-02  0.1399772E+00
          1   -1    0    0  502    0  0.00000000000E+00  0.00000000000E+00  0.51664100378E+03  0.51664100378E+03  0.00000000000E+00 0. -1.
         -3   -1    0    0    0  501 -0.00000000000E+00 -0.00000000000E+00 -0.27447715257E+03  0.27447715257E+03  0.00000000000E+00 0.  1.
         25    1    1    2    0    0 -0.34458726823E+02 -0.15300988958E+02 -0.82283248303E+02  0.15432775858E+03  0.12500000000E+03 0.  0.
          1    1    1    2  502    0  0.27369780599E+02 -0.52482118536E+02  0.47124276989E+03  0.47494549775E+03  0.00000000000E+00 0. -1.
         -3    1    1    2    0  501  0.70889462240E+01  0.67783107494E+02 -0.14679567038E+03  0.16184490002E+03  0.00000000000E+00 0.  1.
<mgrwt>
<rscale>  0 0.59540127E+02</rscale>
<asrwt>0</asrwt>
<pdfrwt beam="1">  1        1 0.79483231E-01 0.59190182E+02</pdfrwt>
<pdfrwt beam="2">  1       -3 0.42227254E-01 0.59892142E+02</pdfrwt>
<totfact> 0.12699903E+02</totfact>
</mgrwt>
</event>
<event>
 5    1  0.5127480E-003  0.8159010E+02  0.7546771E-02  0.1341041E+00
         -1   -1    0    0    0  501 -0.00000000000E+00  0.00000000000E+00  0.33993024946E+03  0.33993024946E+03  0.00000000000E+00 0.  1.
          2   -1    0    0  502    0  0.00000000000E+00 -0.00000000000E+00 -0.78058375373E+02  0.78058375373E+02  0.00000000000E+00 0. -1.
         25    1    1    2    0    0  0.86874318192E+02 -0.90154510108E+02  0.12999106661E+03  0.21953965531E+03  0.12500000000E+03 0.  0.
          2    1    1    2  502    0 -0.67641568138E+02  0.20385179773E+02  0.38984386259E+02  0.80689030646E+02  0.00000000000E+00 0. -1.
         -1    1    1    2    0  501 -0.19232750054E+02  0.69769330336E+02  0.92896421224E+02  0.11775993889E+03  0.00000000000E+00 0.  1.
<mgrwt>
<rscale>  0 0.75921409E+02</rscale>
<asrwt>0</asrwt>
<pdfrwt beam="2">  1        2 0.12008981E-01 0.70646566E+02</pdfrwt>
<pdfrwt beam="1">  1       -1 0.52296960E-01 0.81590099E+02</pdfrwt>
<totfact> 0.20706279E+03</totfact>
</mgrwt>
</event>
<event>
 5    1  0.4149151E-003  0.3137520E+02  0.7546771E-02  0.1604836E+00
          2   -1    0    0  502    0  0.00000000000E+00  0.00000000000E+00  0.82197083205E+03  0.82197083205E+03  0.00000000000E+00 0. -1.
         -1   -1    0    0    0  501 -0.00000000000E+00 -0.00000000000E+00 -0.13300833583E+02  0.13300833583E+02  0.00000000000E+00 0.  1.
         25    1    1    2    0    0 -0.21899737447E+01 -0.24567994946E+01  0.57914391595E+03  0.59248924651E+03  0.12500000000E+03 0.  0.
          2    1    1    2  502    0  0.32906153329E+02 -0.39400202818E+01  0.18711517014E+03  0.19002743376E+03  0.00000000000E+00 0. -1.
         -1    1    1    2    0  501 -0.30716179584E+02  0.63968197765E+01  0.42410912376E+02  0.52754985358E+02  0.00000000000E+00 0.  1.
<mgrwt>
<rscale>  0 0.29398301E+02</rscale>
<asrwt>0</asrwt>
<pdfrwt beam="1">  1        2 0.12645701E+00 0.27545966E+02</pdfrwt>
<pdfrwt beam="2">  1       -1 0.20462827E-02 0.31375197E+02</pdfrwt>
<totfact> 0.21047323E+04</totfact>
</mgrwt>
</event>
<event>
 5    1  0.4149151E-003  0.2562771E+03  0.7546771E-02  0.1251413E+00
          2   -1    0    0  502    0  0.00000000000E+00  0.00000000000E+00  0.17426302643E+03  0.17426302643E+03  0.00000000000E+00 0. -1.
          2   -1    0    0  501    0 -0.00000000000E+00 -0.00000000000E+00 -0.15357378048E+04  0.15357378048E+04  0.00000000000E+00 0. -1.
         25    1    1    2    0    0 -0.47050294132E+01  0.21790494743E+03 -0.13523829978E+03  0.28534032513E+03  0.12500000000E+03 0.  0.
          2    1    1    2  501    0  0.33136484601E+02 -0.26107437656E+03 -0.13045476629E+04  0.13308277355E+04  0.00000000000E+00 0. -1.
          2    1    1    2  502    0 -0.28431455188E+02  0.43169429133E+02  0.78311184319E+02  0.93832770636E+02  0.00000000000E+00 0. -1.
<mgrwt>
<rscale>  0 0.11509643E+03</rscale>
<asrwt>0</asrwt>
<pdfrwt beam="1">  1        2 0.26809697E-01 0.51690882E+02</pdfrwt>
<pdfrwt beam="2">  1        2 0.23626735E+00 0.25627710E+03</pdfrwt>
<totfact> 0.38811788E+02</totfact>
</mgrwt>
</event>
<event>
 5    1  0.4149151E-003  0.6072833E+02  0.7546771E-02  0.1541690E+00
          2   -1    0    0  502    0  0.00000000000E+00  0.00000000000E+00  0.74022097147E+03  0.74022097147E+03  0.00000000000E+00 0. -1.
         -1   -1    0    0    0  501 -0.00000000000E+00 -0.00000000000E+00 -0.17505227929E+02  0.17505227929E+02  0.00000000000E+00 0.  1.
         25    1    1    2    0    0  0.31382260559E+02 -0.38586142559E+02  0.42068707201E+03  0.44167448334E+03  0.12500000000E+03 0.  0.
          2    1    1    2  502    0  0.21076964106E+02 -0.83073092533E+00  0.13426882013E+03  0.13591557890E+03  0.00000000000E+00 0. -1.
         -1    1    1    2    0  501 -0.52459224665E+02  0.39416873485E+02  0.16775985141E+03  0.18013613716E+03  0.00000000000E+00 0.  1.
<mgrwt>
<rscale>  0 0.35790538E+02</rscale>
<asrwt>0</asrwt>
<pdfrwt beam="1">  1        2 0.11388013E+00 0.21093329E+02</pdfrwt>
<pdfrwt beam="2">  1       -1 0.26931126E-02 0.60728329E+02</pdfrwt>
<totfact> 0.18029606E+04</totfact>
</mgrwt>
</event>
<event>
 5    1  0.4149151E-003  0.4158530E+02  0.7546771E-02  0.1564870E+00
         -2   -1    0    0    0  501 -0.00000000000E+00  0.00000000000E+00  0.18487228532E+02  0.18487228532E+02  0.00000000000E+00 0.  1.
          1   -1    0    0  502    0  0.00000000000E+00 -0.00000000000E+00 -0.78764122755E+03  0.78764122755E+03  0.00000000000E+00 0. -1.
         25    1    1    2    0    0  0.42092249649E+02  0.37663489644E+02 -0.56751873182E+03  0.58386026316E+03  0.12500000000E+03 0.  0.
          1    1    1    2  502    0 -0.15611579774E+02 -0.35621984664E+02 -0.18881058949E+03  0.19277470248E+03  0.00000000000E+00 0. -1.
         -2    1    1    2    0  501 -0.26480669875E+02 -0.20415049804E+01 -0.12824677702E+02  0.29493490431E+02  0.00000000000E+00 0.  1.
<mgrwt>
<rscale>  0 0.33233630E+02</rscale>
<asrwt>0</asrwt>
<pdfrwt beam="2">  1        1 0.12117560E+00 0.41585295E+02</pdfrwt>
<pdfrwt beam="1">  1       -2 0.28441884E-02 0.26559247E+02</pdfrwt>
<totfact> 0.77732020E+03</totfact>
</mgrwt>
</event>
<event>
 5    1  0.4149151E-003  0.1112252E+03  0.7546771E-02  0.1357072E+00
          2   -1    0    0  502    0  0.00000000000E+00  0.00000000000E+00  0.18920610240E+04  0.18920610240E+04  0.00000000000E+00 0. -1.
          2   -1    0    0  501    0 -0.00000000000E+00 -0.00000000000E+00 -0.70058031256E+03  0.70058031256E+03  0.00000000000E+00 0. -1.
         25    1    1    2    0    0  0.10190624523E+03 -0.10958839295E+03 -0.41265552714E+03  0.45640342107E+03  0.12500000000E+03 0.  0.
          2    1    1    2  501    0 -0.42327383147E+02  0.15827814542E+02 -0.26246856337E+03  0.26633038474E+03  0.00000000000E+00 0. -1.
          2    1    1    2  502    0 -0.59578862082E+02  0.93760578411E+02  0.18666048020E+04  0.18699075308E+04  0.00000000000E+00 0. -1.
<mgrwt>
<rscale>  0 0.70896095E+02</rscale>
<asrwt>0</asrwt>
<pdfrwt beam="1">  1        2 0.29108631E+00 0.11122521E+03</pdfrwt>
<pdfrwt beam="2">  1        2 0.10778159E+00 0.45189900E+02</pdfrwt>
<totfact> 0.63875972E+01</totfact>
</mgrwt>
</event>
<event>
 5    1  0.4149151E-003  0.7304289E+02  0.7546771E-02  0.1494023E+00
          1   -1    0    0  502    0 -0.00000000000E+00  0.00000000000E+00  0.18084966418E+03  0.18084966418E+03  0.00000000000E+00 0. -1.
          2   -1    0    0  501    0  0.00000000000E+00 -0.00000000000E+00 -0.34613636243E+04  0.34613636243E+04  0.00000000000E+00 0.  1.
         25    1    1    2    0    0  0.41914309186E+02  0.75502364619E+02 -0.16849036771E+04  0.16917395832E+04  0.12500000000E+03 0.  0.
          2    1    1    2  501    0 -0.23657114759E+02 -0.48264933201E+01 -0.17654482705E+04  0.17656133636E+04  0.00000000000E+00 0.  1.
          1    1    1    2  502    0 -0.18257194427E+02 -0.70675871299E+02  0.16983798743E+03  0.18486034163E+03  0.00000000000E+00 0. -1.
<mgrwt>
<rscale>  0 0.41994997E+02</rscale>
<asrwt>0</asrwt>
<pdfrwt beam="2">  1        2 0.53251744E+00 0.24144443E+02</pdfrwt>
<pdfrwt beam="1">  1        1 0.27823028E-01 0.73042886E+02</pdfrwt>
<totfact> 0.38175147E+01</totfact>
</mgrwt>
</event>
<event>
 5    1  0.4149151E-003  0.7339246E+02  0.7546771E-02  0.1487262E+00
          2   -1    0    0  502    0  0.00000000000E+00  0.00000000000E+00  0.12706176037E+03  0.12706176037E+03  0.00000000000E+00 0. -1.
          2   -1    0    0  501    0 -0.00000000000E+00 -0.00000000000E+00 -0.94495598270E+03  0.94495598270E+03  0.00000000000E+00 0. -1.
         25    1    1    2    0    0 -0.59615384706E+02 -0.19788183411E+02 -0.23403540309E+02  0.14183896501E+03  0.12500000000E+03 0.  0.
          2    1    1    2  501    0 -0.17177646549E+02  0.18420774821E+02 -0.84034791905E+03  0.84072529493E+03  0.00000000000E+00 0. -1.
          2    1    1    2  502    0  0.76793031255E+02  0.13674085898E+01  0.45857237030E+02  0.89453483127E+02  0.00000000000E+00 0. -1.
<mgrwt>
<rscale>  0 0.42994799E+02</rscale>
<asrwt>0</asrwt>
<pdfrwt beam="1">  1        2 0.19547962E-01 0.73392463E+02</pdfrwt>
<pdfrwt beam="2">  1        2 0.14537785E+00 0.25187229E+02</pdfrwt>
<totfact> 0.13416218E+03</totfact>
</mgrwt>
</event>
<event>
 5    1  0.4149151E-003  0.2856504E+02  0.7546771E-02  0.1651105E+00
          2   -1    0    0  502    0  0.00000000000E+00  0.00000000000E+00  0.17183954908E+04  0.17183954908E+04  0.00000000000E+00 0. -1.
         -1   -1    0    0    0  501 -0.00000000000E+00 -0.00000000000E+00 -0.79079705003E+01  0.79079705003E+01  0.00000000000E+00 0.  1.
         25    1    1    2    0    0 -0.28094477895E+02 -0.15564575764E+02  0.13186973460E+04  0.13249978287E+04  0.12500000000E+03 0.  0.
          2    1    1    2  502    0  0.86143638357E+01  0.28031153869E+02  0.36387374196E+03  0.36505349325E+03  0.00000000000E+00 0. -1.
         -1    1    1    2    0  501  0.19480114059E+02 -0.12466578105E+02  0.27916432394E+02  0.36252139399E+02  0.00000000000E+00 0.  1.
<mgrwt>
<rscale>  0 0.25702990E+02</rscale>
<asrwt>0</asrwt>
<pdfrwt beam="1">  1        2 0.26436824E+00 0.28565043E+02</pdfrwt>
<pdfrwt beam="2">  1       -1 0.12166122E-02 0.23127698E+02</pdfrwt>
<totfact> 0.13971632E+04</totfact>
</mgrwt>
</event>
<event>
 5    1  0.4149151E-003  0.5604115E+02  0.7546771E-02  0.1470763E+00
          2   -1    0    0  502    0  0.00000000000E+00  0.00000000000E+00  0.24275780053E+04  0.24275780053E+04  0.00000000000E+00 0. -1.
          2   -1    0    0  501    0 -0.00000000000E+00 -0.00000000000E+00 -0.39435325277E+03  0.39435325277E+03  0.00000000000E+00 0.  1.
         25    1    1    2    0    0 -0.62133846593E+01 -0.18433767976E+02  0.37595251885E+03  0.39666573633E+03  0.12500000000E+03 0.  0.
          2    1    1    2  501    0  0.25157514355E+02  0.50296388558E+02 -0.38176825949E+03  0.38588810708E+03  0.00000000000E+00 0.  1.
          2    1    1    2  502    0 -0.18944129696E+02 -0.31862620582E+02  0.20390404932E+04  0.20393774147E+04  0.00000000000E+00 0. -1.
<mgrwt>
<rscale>  0 0.45578351E+02</rscale>
<asrwt>0</asrwt>
<pdfrwt beam="1">  1        2 0.37347353E+00 0.37068944E+02</pdfrwt>
<pdfrwt beam="2">  1        2 0.60669733E-01 0.56041145E+02</pdfrwt>
<totfact> 0.72775255E+01</totfact>
</mgrwt>
</event>
<event>
 5    1  0.4149151E-003  0.1240204E+03  0.7546771E-02  0.1333119E+00
          2   -1    0    0  501    0  0.00000000000E+00  0.00000000000E+00  0.18954147622E+04  0.18954147622E+04  0.00000000000E+00 0. -1.
          1   -1    0    0  502    0 -0.00000000000E+00 -0.00000000000E+00 -0.12581020521E+03  0.12581020521E+03  0.00000000000E+00 0. -1.
         25    1    1    2    0    0 -0.12988335105E+03  0.73025560575E+02  0.11238702190E+03  0.22462916122E+03  0.12500000000E+03 0.  0.
          2    1    1    2  501    0  0.83387292495E+02 -0.90844262104E+02  0.17155073565E+04  0.17199336065E+04  0.00000000000E+00 0. -1.
          1    1    1    2  502    0  0.46496058560E+02  0.17818701528E+02 -0.58289821410E+02  0.76662199719E+02  0.00000000000E+00 0. -1.
<mgrwt>
<rscale>  0 0.78583745E+02</rscale>
<asrwt>0</asrwt>
<pdfrwt beam="1">  1        2 0.29160225E+00 0.12402038E+03</pdfrwt>
<pdfrwt beam="2">  1        1 0.19355418E-01 0.49793469E+02</pdfrwt>
<totfact> 0.31129854E+02</totfact>
</mgrwt>
</event>
<event>
 5    1  0.4149151E-003  0.1301790E+03  0.7546771E-02  0.1329512E+00
         -1   -1    0    0    0  501 -0.00000000000E+00  0.00000000000E+00  0.19685805134E+03  0.19685805134E+03  0.00000000000E+00 0.  1.
          2   -1    0    0  502    0  0.00000000000E+00 -0.00000000000E+00 -0.13656912763E+04  0.13656912763E+04  0.00000000000E+00 0. -1.
         25    1    1    2    0    0 -0.68674986276E+02  0.12818824802E+03 -0.18265703839E+03  0.26483405057E+03  0.12500000000E+03 0.  0.
          2    1    1    2  502    0  0.48961742899E+02 -0.47706657457E+00 -0.11145149816E+04  0.11155900341E+04  0.00000000000E+00 0. -1.
         -1    1    1    2    0  501  0.19713243377E+02 -0.12771118144E+03  0.12833879504E+03  0.18212524301E+03  0.00000000000E+00 0.  1.
<mgrwt>
<rscale>  0 0.79837908E+02</rscale>
<asrwt>0</asrwt>
<pdfrwt beam="2">  1        2 0.21010634E+00 0.48964067E+02</pdfrwt>
<pdfrwt beam="1">  1       -1 0.30285855E-01 0.13017897E+03</pdfrwt>
<totfact> 0.20941410E+02</totfact>
</mgrwt>
</event>
<event>
 5    1  0.4149151E-003  0.3894196E+02  0.7546771E-02  0.1597788E+00
          2   -1    0    0  501    0  0.00000000000E+00  0.00000000000E+00  0.90732576591E+03  0.90732576591E+03  0.00000000000E+00 0. -1.
          1   -1    0    0  502    0 -0.00000000000E+00 -0.00000000000E+00 -0.11975002672E+04  0.11975002672E+04  0.00000000000E+00 0.  1.
         25    1    1    2    0    0 -0.29458545371E+02 -0.21163767452E+02 -0.16766691812E+03  0.21225669926E+03  0.12500000000E+03 0.  0.
          2    1    1    2  501    0  0.16872138731E+02 -0.15855759175E+02  0.88449996927E+03  0.88480295535E+03  0.00000000000E+00 0. -1.
          1    1    1    2  502    0  0.12586406641E+02  0.37019526628E+02 -0.10070075524E+04  0.10077663785E+04  0.00000000000E+00 0.  1.
<mgrwt>
<rscale>  0 0.30027219E+02</rscale>
<asrwt>0</asrwt>
<pdfrwt beam="1">  1        2 0.13958858E+00 0.23153275E+02</pdfrwt>
<pdfrwt beam="2">  1        1 0.18423081E+00 0.38941959E+02</pdfrwt>
<totfact> 0.61782542E+01</totfact>
</mgrwt>
</event>
<event>
 5    1  0.4149151E-003  0.1244798E+03  0.7546771E-02  0.1238850E+00
         -3   -1    0    0    0  501 -0.00000000000E+00  0.00000000000E+00  0.93220712500E+02  0.93220712500E+02  0.00000000000E+00 0.  1.
          1   -1    0    0  502    0  0.00000000000E+00 -0.00000000000E+00 -0.93532574454E+03  0.93532574454E+03  0.00000000000E+00 0. -1.
         25    1    1    2    0    0 -0.66203535905E+01 -0.38040655290E+02 -0.63305561641E+02  0.14533930876E+03  0.12500000000E+03 0.  0.
          1    1    1    2  502    0 -0.11060357468E+03  0.79918803358E+02 -0.74050125676E+03  0.75296897487E+03  0.00000000000E+00 0. -1.
         -3    1    1    2    0  501  0.11722392827E+03 -0.41878148068E+02 -0.38298213644E+02  0.13023817341E+03  0.00000000000E+00 0.  1.
<mgrwt>
<rscale>  0 0.12261149E+03</rscale>
<asrwt>0</asrwt>
<pdfrwt beam="2">  1        1 0.14389626E+00 0.12077119E+03</pdfrwt>
<pdfrwt beam="1">  1       -3 0.14341649E-01 0.12447983E+03</pdfrwt>
<totfact> 0.39226470E+02</totfact>
</mgrwt>
</event>
<event>
 5    1  0.4149151E-003  0.8135034E+02  0.7546771E-02  0.1373464E+00
          2   -1    0    0  501    0  0.00000000000E+00  0.00000000000E+00  0.75857697069E+02  0.75857697069E+02  0.00000000000E+00 0. -1.
          1   -1    0    0  502    0 -0.00000000000E+00 -0.00000000000E+00 -0.23125599555E+04  0.23125599555E+04  0.00000000000E+00 0. -1.
         25    1    1    2    0    0  0.63104361447E+02 -0.67717503887E+02 -0.68480588764E+03  0.70224776576E+03  0.12500000000E+03 0.  0.
          2    1    1    2  501    0  0.17019719624E+02  0.51135209050E+02  0.55110070901E+02  0.77081777194E+02  0.00000000000E+00 0. -1.
          1    1    1    2  502    0 -0.80124081072E+02  0.16582294837E+02 -0.16070064417E+04  0.16090881096E+04  0.00000000000E+00 0. -1.
<mgrwt>
<rscale>  0 0.66213541E+02</rscale>
<asrwt>0</asrwt>
<pdfrwt beam="1">  1        2 0.11670415E-01 0.53893232E+02</pdfrwt>
<pdfrwt beam="2">  1        1 0.35577844E+00 0.81350344E+02</pdfrwt>
<totfact> 0.16279155E+02</totfact>
</mgrwt>
</event>
<event>
 5    1  0.4149151E-003  0.5393860E+02  0.7546771E-02  0.1441825E+00
         -1   -1    0    0    0  501 -0.00000000000E+00  0.00000000000E+00  0.83319220173E+02  0.83319220173E+02  0.00000000000E+00 0.  1.
          1   -1    0    0  502    0  0.00000000000E+00 -0.00000000000E+00 -0.13796855657E+04  0.13796855657E+04  0.00000000000E+00 0. -1.
         25    1    1    2    0    0  0.36714869357E+02 -0.92037260708E+02 -0.37112200705E+03  0.40394972845E+03  0.12500000000E+03 0.  0.
          1    1    1    2  502    0 -0.24657343969E+02  0.40688766997E+02 -0.98108741729E+03  0.98224033757E+03  0.00000000000E+00 0. -1.
         -1    1    1    2    0  501 -0.12057525387E+02  0.51348493711E+02  0.55843078860E+02  0.76814719823E+02  0.00000000000E+00 0.  1.
<mgrwt>
<rscale>  0 0.50657979E+02</rscale>
<asrwt>0</asrwt>
<pdfrwt beam="2">  1        1 0.21225933E+00 0.47576889E+02</pdfrwt>
<pdfrwt beam="1">  1       -1 0.12818341E-01 0.53938601E+02</pdfrwt>
<totfact> 0.38213699E+02</totfact>
</mgrwt>
</event>
<event>
 5    1  0.4565541E-003  0.1536434E+03  0.7546771E-02  0.1336341E+00
         -1   -1    0    0    0  501 -0.00000000000E+00  0.00000000000E+00  0.69416612630E+02  0.69416612630E+02  0.00000000000E+00 0.  1.
          2   -1    0    0  502    0  0.00000000000E+00 -0.00000000000E+00 -0.73760752871E+03  0.73760752871E+03  0.00000000000E+00 0. -1.
         25    1    1    2    0    0  0.18441397042E+03 -0.12240108995E+02 -0.20931285929E+03  0.30593333557E+03  0.12500000000E+03 0.  0.
          2    1    1    2  502    0 -0.14560103155E+03  0.76967346042E+01 -0.42519635386E+03  0.44950065566E+03  0.00000000000E+00 0. -1.
         -1    1    1    2    0  501 -0.38812938872E+02  0.45433743907E+01 -0.33681702939E+02  0.51590150102E+02  0.00000000000E+00 0.  1.
<mgrwt>
<rscale>  0 0.77485921E+02</rscale>
<asrwt>0</asrwt>
<pdfrwt beam="2">  1        2 0.11347809E+00 0.15364336E+03</pdfrwt>
<pdfrwt beam="1">  1       -1 0.10679478E-01 0.39077954E+02</pdfrwt>
<totfact> 0.22151946E+03</totfact>
</mgrwt>
</event>
<event>
 5    1  0.4149151E-003  0.5059879E+02  0.7546771E-02  0.1502486E+00
          2   -1    0    0  502    0  0.00000000000E+00  0.00000000000E+00  0.72918056946E+03  0.72918056946E+03  0.00000000000E+00 0. -1.
         -2   -1    0    0    0  501 -0.00000000000E+00 -0.00000000000E+00 -0.77220181717E+03  0.77220181717E+03  0.00000000000E+00 0.  1.
         25    1    1    2    0    0  0.59388130430E+02 -0.20471165683E+02 -0.14455663998E+03  0.20116570489E+03  0.12500000000E+03 0.  0.
          2    1    1    2  502    0 -0.10091132893E+02  0.31293803622E+02  0.69942657715E+03  0.70019902165E+03  0.00000000000E+00 0. -1.
         -2    1    1    2    0  501 -0.49296997537E+02 -0.10822637939E+02 -0.59789118487E+03  0.60001766008E+03  0.00000000000E+00 0.  1.
<mgrwt>
<rscale>  0 0.40788700E+02</rscale>
<asrwt>0</asrwt>
<pdfrwt beam="1">  1        2 0.11218163E+00 0.32880589E+02</pdfrwt>
<pdfrwt beam="2">  1       -2 0.11880028E+00 0.50598791E+02</pdfrwt>
<totfact> 0.26160051E+01</totfact>
</mgrwt>
</event>
<event>
 5    1  0.4149151E-003  0.1275792E+03  0.7546771E-02  0.1262998E+00
          1   -1    0    0  502    0 -0.00000000000E+00  0.00000000000E+00  0.56374271212E+03  0.56374271212E+03  0.00000000000E+00 0. -1.
          2   -1    0    0  501    0  0.00000000000E+00 -0.00000000000E+00 -0.28233994023E+04  0.28233994023E+04  0.00000000000E+00 0. -1.
         25    1    1    2    0    0  0.38434022107E+02 -0.45139544210E+01  0.32798674730E+03  0.35312583627E+03  0.12500000000E+03 0.  0.
          2    1    1    2  501    0 -0.12444775836E+03 -0.29821066464E+02 -0.27996972118E+04  0.28026203843E+04  0.00000000000E+00 0. -1.
          1    1    1    2  502    0  0.86013736255E+02  0.34335020885E+02  0.21205377433E+03  0.23139589386E+03  0.00000000000E+00 0. -1.
<mgrwt>
<rscale>  0 0.10869938E+03</rscale>
<asrwt>0</asrwt>
<pdfrwt beam="2">  1        2 0.43436915E+00 0.12757923E+03</pdfrwt>
<pdfrwt beam="1">  1        1 0.86729647E-01 0.92613479E+02</pdfrwt>
<totfact> 0.16003525E+01</totfact>
</mgrwt>
</event>
<event>
 5    1  0.4149151E-003  0.3777411E+02  0.7546771E-02  0.1600054E+00
          2   -1    0    0  501    0  0.00000000000E+00  0.00000000000E+00  0.50625308181E+02  0.50625308181E+02  0.00000000000E+00 0.  1.
          2   -1    0    0  502    0 -0.00000000000E+00 -0.00000000000E+00 -0.74538599147E+03  0.74538599147E+03  0.00000000000E+00 0. -1.
         25    1    1    2    0    0 -0.14811717597E+02  0.11533644200E+02 -0.33972206462E+03  0.36247550692E+03  0.12500000000E+03 0.  0.
          2    1    1    2  501    0  0.15508949314E+02 -0.35068747303E+02  0.29436117043E+02  0.48340764711E+02  0.00000000000E+00 0.  1.
          2    1    1    2  502    0 -0.69723171776E+00  0.23535103104E+02 -0.38447473571E+03  0.38519502802E+03  0.00000000000E+00 0. -1.
<mgrwt>
<rscale>  0 0.29822938E+02</rscale>
<asrwt>0</asrwt>
<pdfrwt beam="1">  1        2 0.77885091E-02 0.37774112E+02</pdfrwt>
<pdfrwt beam="2">  1        2 0.11467477E+00 0.23545429E+02</pdfrwt>
<totfact> 0.49339891E+03</totfact>
</mgrwt>
</event>
<event>
 5    1  0.4149151E-003  0.1929913E+03  0.7546771E-02  0.1268154E+00
          2   -1    0    0  501    0  0.00000000000E+00  0.00000000000E+00  0.38113894400E+03  0.38113894400E+03  0.00000000000E+00 0.  1.
          1   -1    0    0  502    0 -0.00000000000E+00 -0.00000000000E+00 -0.13479832200E+04  0.13479832200E+04  0.00000000000E+00 0. -1.
         25    1    1    2    0    0  0.15574761557E+03 -0.15378779242E+03 -0.65342119044E+03  0.70035152385E+03  0.12500000000E+03 0.  0.
          2    1    1    2  501    0 -0.58214578897E+02  0.10810193659E+01  0.34294438413E+03  0.34785191735E+03  0.00000000000E+00 0.  1.
          1    1    1    2  502    0 -0.97533036676E+02  0.15270677305E+03 -0.65636746969E+03  0.68091872279E+03  0.00000000000E+00 0. -1.
<mgrwt>
<rscale>  0 0.10600397E+03</rscale>
<asrwt>0</asrwt>
<pdfrwt beam="1">  1        2 0.58636761E-01 0.58224615E+02</pdfrwt>
<pdfrwt beam="2">  1        1 0.20738203E+00 0.19299125E+03</pdfrwt>
<totfact> 0.10786430E+02</totfact>
</mgrwt>
</event>
<event>
 5    1  0.4514517E-003  0.1498632E+03  0.7546771E-02  0.1373799E+00
         -1   -1    0    0    0  501 -0.00000000000E+00  0.00000000000E+00  0.87494265273E+02  0.87494265273E+02  0.00000000000E+00 0.  1.
          2   -1    0    0  502    0  0.00000000000E+00 -0.00000000000E+00 -0.47054884053E+03  0.47054884053E+03  0.00000000000E+00 0. -1.
         25    1    1    2    0    0  0.15248571501E+03  0.41116668884E+02 -0.10194212528E+03  0.22574248747E+03  0.12500000000E+03 0.  0.
          2    1    1    2  502    0 -0.14725131341E+03 -0.12415897909E+02 -0.24106583040E+03  0.28275402457E+03  0.00000000000E+00 0. -1.
         -1    1    1    2    0  501 -0.52344016032E+01 -0.28700770975E+02 -0.40046619575E+02  0.49546593769E+02  0.00000000000E+00 0.  1.
<mgrwt>
<rscale>  0 0.66122139E+02</rscale>
<asrwt>0</asrwt>
<pdfrwt beam="2">  1        2 0.72392128E-01 0.14986320E+03</pdfrwt>
<pdfrwt beam="1">  1       -1 0.13460656E-01 0.29174187E+02</pdfrwt>
<totfact> 0.25687854E+03</totfact>
</mgrwt>
</event>
<event>
 5    1  0.4149151E-003  0.4258700E+02  0.7546771E-02  0.1523820E+00
         -2   -1    0    0    0  501 -0.00000000000E+00  0.00000000000E+00  0.79893868958E+02  0.79893868958E+02  0.00000000000E+00 0.  1.
          1   -1    0    0  502    0  0.00000000000E+00 -0.00000000000E+00 -0.23471962345E+03  0.23471962345E+03  0.00000000000E+00 0. -1.
         25    1    1    2    0    0  0.29498017644E+02 -0.41257970063E+02 -0.16925115075E+03  0.21643314250E+03  0.12500000000E+03 0.  0.
          1    1    1    2  502    0  0.43147203188E+01  0.42262419755E+02 -0.22524730354E+02  0.48084222075E+02  0.00000000000E+00 0. -1.
         -2    1    1    2    0  501 -0.33812737963E+02 -0.10044496919E+01  0.36950126614E+02  0.50096127840E+02  0.00000000000E+00 0.  1.
<mgrwt>
<rscale>  0 0.37955476E+02</rscale>
<asrwt>0</asrwt>
<pdfrwt beam="2">  1        1 0.36110711E-01 0.42586995E+02</pdfrwt>
<pdfrwt beam="1">  1       -2 0.12291365E-01 0.33827654E+02</pdfrwt>
<totfact> 0.42957082E+03</totfact>
</mgrwt>
</event>
<event>
 5    1  0.4149151E-003  0.6508908E+02  0.7546771E-02  0.1428783E+00
          1   -1    0    0  502    0  0.00000000000E+00  0.00000000000E+00  0.11534641714E+04  0.11534641714E+04  0.00000000000E+00 0. -1.
          1   -1    0    0  501    0 -0.00000000000E+00 -0.00000000000E+00 -0.27804365564E+03  0.27804365564E+03  0.00000000000E+00 0. -1.
         25    1    1    2    0    0 -0.52788661999E+02  0.18156333638E+02 -0.84136219453E+02  0.16068664758E+03  0.12500000000E+03 0.  0.
          1    1    1    2  501    0  0.20309404821E+02  0.38457551491E+02 -0.15161744180E+03  0.15773174649E+03  0.00000000000E+00 0. -1.
          1    1    1    2  502    0  0.32479257178E+02 -0.56613885129E+02  0.11111741770E+04  0.11130894330E+04  0.00000000000E+00 0. -1.
<mgrwt>
<rscale>  0 0.53205077E+02</rscale>
<asrwt>0</asrwt>
<pdfrwt beam="1">  1        1 0.17745602E+00 0.65089077E+02</pdfrwt>
<pdfrwt beam="2">  1        1 0.42775948E-01 0.43490863E+02</pdfrwt>
<totfact> 0.15800826E+02</totfact>
</mgrwt>
</event>
<event>
 5    1  0.4149151E-003  0.4599376E+02  0.7546771E-02  0.1522317E+00
         -2   -1    0    0    0  501 -0.00000000000E+00  0.00000000000E+00  0.71071870499E+02  0.71071870499E+02  0.00000000000E+00 0.  1.
          1   -1    0    0  502    0  0.00000000000E+00 -0.00000000000E+00 -0.11290900766E+04  0.11290900766E+04  0.00000000000E+00 0. -1.
         25    1    1    2    0    0  0.19593936609E+02 -0.11583826320E+01 -0.55207043662E+03  0.56638505559E+03  0.12500000000E+03 0.  0.
          1    1    1    2  502    0 -0.47640282600E+02  0.15797351059E+02 -0.56476503114E+03  0.56699091107E+03  0.00000000000E+00 0. -1.
         -2    1    1    2    0  501  0.28046345991E+02 -0.14638968427E+02  0.58817261643E+02  0.66785980469E+02  0.00000000000E+00 0.  1.
<mgrwt>
<rscale>  0 0.38145805E+02</rscale>
<asrwt>0</asrwt>
<pdfrwt beam="2">  1        1 0.17370618E+00 0.45993758E+02</pdfrwt>
<pdfrwt beam="1">  1       -2 0.10934133E-01 0.31636955E+02</pdfrwt>
<totfact> 0.64242858E+02</totfact>
</mgrwt>
</event>
<event>
 5    1  0.4149151E-003  0.7706740E+02  0.7546771E-02  0.1491511E+00
         -3   -1    0    0    0  501 -0.00000000000E+00  0.00000000000E+00  0.11546664995E+03  0.11546664995E+03  0.00000000000E+00 0.  1.
          2   -1    0    0  502    0  0.00000000000E+00 -0.00000000000E+00 -0.12956077108E+04  0.12956077108E+04  0.00000000000E+00 0.  1.
         25    1    1    2    0    0  0.50375589770E+02 -0.22793446831E+02 -0.36694355151E+02  0.14152284961E+03  0.12500000000E+03 0.  0.
          2    1    1    2  502    0 -0.73591659408E+02  0.24596874683E+02 -0.12030558431E+04  0.12055555152E+04  0.00000000000E+00 0.  1.
         -3    1    1    2    0  501  0.23216069637E+02 -0.18034278518E+01  0.59609137383E+02  0.63995995976E+02  0.00000000000E+00 0.  1.
<mgrwt>
<rscale>  0 0.42362628E+02</rscale>
<asrwt>0</asrwt>
<pdfrwt beam="2">  1        2 0.19932426E+00 0.77067400E+02</pdfrwt>
<pdfrwt beam="1">  1       -3 0.17764101E-01 0.23286010E+02</pdfrwt>
<totfact> 0.25700342E+02</totfact>
</mgrwt>
</event>
<event>
 5    1  0.4149151E-003  0.1019925E+03  0.7546771E-02  0.1436017E+00
         -2   -1    0    0    0  501 -0.00000000000E+00  0.00000000000E+00  0.26084331852E+03  0.26084331852E+03  0.00000000000E+00 0.  1.
          2   -1    0    0  502    0  0.00000000000E+00 -0.00000000000E+00 -0.97192032880E+02  0.97192032880E+02  0.00000000000E+00 0. -1.
         25    1    1    2    0    0 -0.72536785746E+02 -0.89014237026E+02  0.10424743703E+03  0.19919248933E+03  0.12500000000E+03 0.  0.
          2    1    1    2  502    0  0.25868064194E+02  0.46271922413E+01 -0.20722249850E+02  0.33466091675E+02  0.00000000000E+00 0. -1.
         -2    1    1    2    0  501  0.46668721553E+02  0.84387044785E+02  0.80126098461E+02  0.12537677039E+03  0.00000000000E+00 0.  1.
<mgrwt>
<rscale>  0 0.51770884E+02</rscale>
<asrwt>0</asrwt>
<pdfrwt beam="2">  1        2 0.14952621E-01 0.26278654E+02</pdfrwt>
<pdfrwt beam="1">  1       -2 0.40129741E-01 0.10199246E+03</pdfrwt>
<totfact> 0.20399235E+03</totfact>
</mgrwt>
</event>
<event>
 5    1  0.4149151E-003  0.1696626E+03  0.7546771E-02  0.1241323E+00
          1   -1    0    0  502    0  0.00000000000E+00  0.00000000000E+00  0.17631607587E+04  0.17631607587E+04  0.00000000000E+00 0. -1.
         -3   -1    0    0    0  501 -0.00000000000E+00 -0.00000000000E+00 -0.56803184375E+03  0.56803184375E+03  0.00000000000E+00 0.  1.
         25    1    1    2    0    0  0.12206533950E+03 -0.95292357198E+02 -0.22815969190E+03  0.30275803120E+03  0.12500000000E+03 0.  0.
          1    1    1    2  502    0  0.63856367380E+02  0.58218460848E+02  0.16949560910E+04  0.16971573808E+04  0.00000000000E+00 0. -1.
         -3    1    1    2    0  501 -0.18592170688E+03  0.37073896350E+02 -0.27166748422E+03  0.33127719037E+03  0.00000000000E+00 0.  1.
<mgrwt>
<rscale>  0 0.12108210E+03</rscale>
<asrwt>0</asrwt>
<pdfrwt beam="1">  1        1 0.27125550E+00 0.86411948E+02</pdfrwt>
<pdfrwt beam="2">  1       -3 0.87389515E-01 0.16966260E+03</pdfrwt>
<totfact> 0.36171631E+00</totfact>
</mgrwt>
</event>
<event>
 5    1  0.4149151E-003  0.1020691E+03  0.7546771E-02  0.1459997E+00
          2   -1    0    0  502    0  0.00000000000E+00  0.00000000000E+00  0.17507802006E+04  0.17507802006E+04  0.00000000000E+00 0. -1.
         -1   -1    0    0    0  501 -0.00000000000E+00 -0.00000000000E+00 -0.26985266725E+02  0.26985266725E+02  0.00000000000E+00 0.  1.
         25    1    1    2    0    0 -0.21649886756E+02  0.11565072368E+03  0.52337954384E+03  0.55081299404E+03  0.12500000000E+03 0.  0.
          2    1    1    2  502    0  0.66081382344E+01 -0.99602589196E+02  0.12008116619E+04  0.12049535222E+04  0.00000000000E+00 0. -1.
         -1    1    1    2    0  501  0.15041748522E+02 -0.16048134486E+02 -0.39627185408E+00  0.21998951121E+02  0.00000000000E+00 0.  1.
<mgrwt>
<rscale>  0 0.47381935E+02</rscale>
<asrwt>0</asrwt>
<pdfrwt beam="1">  1        2 0.26935071E+00 0.10206905E+03</pdfrwt>
<pdfrwt beam="2">  1       -1 0.41515809E-02 0.21995382E+02</pdfrwt>
<totfact> 0.21952599E+03</totfact>
</mgrwt>
</event>
<event>
 5    1  0.4149151E-003  0.7805793E+02  0.7546771E-02  0.1344420E+00
          3   -1    0    0  502    0  0.00000000000E+00  0.00000000000E+00  0.39870430570E+03  0.39870430570E+03  0.00000000000E+00 0. -1.
         -3   -1    0    0    0  501 -0.00000000000E+00 -0.00000000000E+00 -0.13352861782E+03  0.13352861782E+03  0.00000000000E+00 0.  1.
         25    1    1    2    0    0 -0.69147977917E+01 -0.10955784279E+02  0.15340921909E+03  0.19831094811E+03  0.12500000000E+03 0.  0.
          3    1    1    2  502    0 -0.22873719275E+02 -0.67977164402E+02  0.19962304403E+03  0.21211662269E+03  0.00000000000E+00 0. -1.
         -3    1    1    2    0  501  0.29788517067E+02  0.78932948682E+02 -0.87856575248E+02  0.12180535272E+03  0.00000000000E+00 0.  1.
<mgrwt>
<rscale>  0 0.74823136E+02</rscale>
<asrwt>0</asrwt>
<pdfrwt beam="1">  1        3 0.61339123E-01 0.71722395E+02</pdfrwt>
<pdfrwt beam="2">  1       -3 0.20542865E-01 0.78057930E+02</pdfrwt>
<totfact> 0.12249188E+02</totfact>
</mgrwt>
</event>
<event>
 5    1  0.4149151E-003  0.7283055E+02  0.7546771E-02  0.1448221E+00
          2   -1    0    0  502    0  0.00000000000E+00  0.00000000000E+00  0.63737434980E+03  0.63737434980E+03  0.00000000000E+00 0. -1.
         -2   -1    0    0    0  501 -0.00000000000E+00 -0.00000000000E+00 -0.26945784676E+02  0.26945784676E+02  0.00000000000E+00 0.  1.
         25    1    1    2    0    0  0.66954652068E+02 -0.35784879411E+01  0.39496028195E+03  0.41965980905E+03  0.12500000000E+03 0.  0.
          2    1    1    2  502    0 -0.70514449480E+02  0.36991896546E+02  0.17347617325E+03  0.19087868053E+03  0.00000000000E+00 0. -1.
         -2    1    1    2    0  501  0.35597974126E+01 -0.33413408605E+02  0.41992109915E+02  0.53781644892E+02  0.00000000000E+00 0.  1.
<mgrwt>
<rscale>  0 0.49470077E+02</rscale>
<asrwt>0</asrwt>
<pdfrwt beam="1">  1        2 0.98057581E-01 0.72830547E+02</pdfrwt>
<pdfrwt beam="2">  1       -2 0.41455058E-02 0.33602500E+02</pdfrwt>
<totfact> 0.10102045E+04</totfact>
</mgrwt>
</event>
<event>
 5    1  0.4149151E-003  0.6991689E+02  0.7546771E-02  0.1446339E+00
         -1   -1    0    0    0  501 -0.00000000000E+00  0.00000000000E+00  0.23236947926E+02  0.23236947926E+02  0.00000000000E+00 0.  1.
          2   -1    0    0  502    0  0.00000000000E+00 -0.00000000000E+00 -0.73790354429E+03  0.73790354429E+03  0.00000000000E+00 0. -1.
         25    1    1    2    0    0 -0.29967347826E+02 -0.69240468672E+02 -0.48904275819E+03  0.51037251471E+03  0.12500000000E+03 0.  0.
          2    1    1    2  502    0  0.54517766886E+02  0.43607197404E+02 -0.17928564659E+03  0.19239833067E+03  0.00000000000E+00 0. -1.
         -1    1    1    2    0  501 -0.24550419059E+02  0.25633271269E+02 -0.46338191587E+02  0.58369646834E+02  0.00000000000E+00 0.  1.
<mgrwt>
<rscale>  0 0.49815601E+02</rscale>
<asrwt>0</asrwt>
<pdfrwt beam="2">  1        2 0.11352360E+00 0.69916886E+02</pdfrwt>
<pdfrwt beam="1">  1       -1 0.35749156E-02 0.35493488E+02</pdfrwt>
<totfact> 0.10827249E+04</totfact>
</mgrwt>
</event>
<event>
 5    1  0.4149151E-003  0.6543958E+02  0.7546771E-02  0.1414565E+00
          2   -1    0    0  502    0  0.00000000000E+00  0.00000000000E+00  0.36177917116E+03  0.36177917116E+03  0.00000000000E+00 0. -1.
         -3   -1    0    0    0  501 -0.00000000000E+00 -0.00000000000E+00 -0.16900606363E+03  0.16900606363E+03  0.00000000000E+00 0.  1.
         25    1    1    2    0    0 -0.10636551402E+02 -0.41069127871E+02 -0.65916972692E+01  0.13216754504E+03  0.12500000000E+03 0.  0.
          2    1    1    2  502    0 -0.34590429447E+02  0.57860573585E+02  0.28903570434E+03  0.29679282701E+03  0.00000000000E+00 0. -1.
         -3    1    1    2    0  501  0.45226980849E+02 -0.16791445713E+02 -0.89670899545E+02  0.10182486274E+03  0.00000000000E+00 0.  1.
<mgrwt>
<rscale>  0 0.56187477E+02</rscale>
<asrwt>0</asrwt>
<pdfrwt beam="1">  1        2 0.55658334E-01 0.65439582E+02</pdfrwt>
<pdfrwt beam="2">  1       -3 0.26000933E-01 0.48243470E+02</pdfrwt>
<totfact> 0.68386974E+02</totfact>
</mgrwt>
</event>
<event>
 5    1  0.4149151E-003  0.5321059E+02  0.7546771E-02  0.1461871E+00
         -3   -1    0    0    0  501 -0.00000000000E+00  0.00000000000E+00  0.54763761353E+03  0.54763761353E+03  0.00000000000E+00 0.  1.
          1   -1    0    0  502    0  0.00000000000E+00 -0.00000000000E+00 -0.44280432005E+03  0.44280432005E+03  0.00000000000E+00 0. -1.
         25    1    1    2    0    0  0.15019941463E+01 -0.15497463762E+02 -0.11499120685E+03  0.17055909539E+03  0.12500000000E+03 0.  0.
          1    1    1    2  502    0  0.39912007705E+01  0.56755369811E+02 -0.29648682460E+03  0.30189656978E+03  0.00000000000E+00 0. -1.
         -3    1    1    2    0  501 -0.54931949168E+01 -0.41257906049E+02  0.51631132493E+03  0.51798626840E+03  0.00000000000E+00 0.  1.
<mgrwt>
<rscale>  0 0.47060922E+02</rscale>
<asrwt>0</asrwt>
<pdfrwt beam="2">  1        1 0.68123741E-01 0.53210585E+02</pdfrwt>
<pdfrwt beam="1">  1       -3 0.84251941E-01 0.41621989E+02</pdfrwt>
<totfact> 0.37603981E+01</totfact>
</mgrwt>
</event>
<event>
 5    1  0.4149151E-003  0.2135939E+03  0.7546771E-02  0.1301349E+00
         -3   -1    0    0    0  501 -0.00000000000E+00  0.00000000000E+00  0.17298275478E+03  0.17298275478E+03  0.00000000000E+00 0.  1.
          1   -1    0    0  502    0  0.00000000000E+00 -0.00000000000E+00 -0.13943472256E+04  0.13943472256E+04  0.00000000000E+00 0. -1.
         25    1    1    2    0    0  0.21859369435E+03  0.57207472948E+02 -0.67144543219E+03  0.71938853659E+03  0.12500000000E+03 0.  0.
          1    1    1    2  502    0 -0.20562167541E+03 -0.21012063035E+02 -0.68082342102E+03  0.71150707010E+03  0.00000000000E+00 0. -1.
         -3    1    1    2    0  501 -0.12972018942E+02 -0.36195409913E+02  0.13090438243E+03  0.13643437365E+03  0.00000000000E+00 0.  1.
<mgrwt>
<rscale>  0 0.90623529E+02</rscale>
<asrwt>0</asrwt>
<pdfrwt beam="2">  1        1 0.21451496E+00 0.21359386E+03</pdfrwt>
<pdfrwt beam="1">  1       -3 0.26612731E-01 0.38449720E+02</pdfrwt>
<totfact> 0.54532324E+01</totfact>
</mgrwt>
</event>
<event>
 5    1  0.4149151E-003  0.1813817E+03  0.7546771E-02  0.1278219E+00
          1   -1    0    0  502    0  0.00000000000E+00  0.00000000000E+00  0.22121319549E+04  0.22121319549E+04  0.00000000000E+00 0. -1.
          1   -1    0    0  501    0 -0.00000000000E+00 -0.00000000000E+00 -0.21057036850E+04  0.21057036850E+04  0.00000000000E+00 0. -1.
         25    1    1    2    0    0 -0.85742317556E+02 -0.99287304177E+02  0.20977760666E+03  0.27720273817E+03  0.12500000000E+03 0.  0.
          1    1    1    2  501    0  0.96738088258E+02  0.15443613735E+03 -0.20675810699E+04  0.20755963622E+04  0.00000000000E+00 0. -1.
          1    1    1    2  502    0 -0.10995770702E+02 -0.55148833176E+02  0.19642317331E+04  0.19650365396E+04  0.00000000000E+00 0. -1.
<mgrwt>
<rscale>  0 0.10099446E+03</rscale>
<asrwt>0</asrwt>
<pdfrwt beam="1">  1        1 0.34032799E+00 0.56234338E+02</pdfrwt>
<pdfrwt beam="2">  1        1 0.32395441E+00 0.18138174E+03</pdfrwt>
<totfact> 0.11052413E+00</totfact>
</mgrwt>
</event>
<event>
 5    1  0.4149151E-003  0.1024916E+03  0.7546771E-02  0.1372023E+00
          2   -1    0    0  502    0  0.00000000000E+00  0.00000000000E+00  0.18178965939E+03  0.18178965939E+03  0.00000000000E+00 0.  1.
         -1   -1    0    0    0  501 -0.00000000000E+00 -0.00000000000E+00 -0.20637480286E+03  0.20637480286E+03  0.00000000000E+00 0.  1.
         25    1    1    2    0    0  0.67756969404E+01  0.88540295361E+02  0.11476816901E+02  0.15375958929E+03  0.12500000000E+03 0.  0.
          2    1    1    2  502    0 -0.41080778589E+02  0.13645230722E+02  0.70566624188E+02  0.82785694055E+02  0.00000000000E+00 0.  1.
         -1    1    1    2    0  501  0.34305081648E+02 -0.10218552608E+03 -0.10662858456E+03  0.15161917891E+03  0.00000000000E+00 0.  1.
<mgrwt>
<rscale>  0 0.66607993E+02</rscale>
<asrwt>0</asrwt>
<pdfrwt beam="1">  1        2 0.27967640E-01 0.43287674E+02</pdfrwt>
<pdfrwt beam="2">  1       -1 0.31749970E-01 0.10249164E+03</pdfrwt>
<totfact> 0.18895064E+03</totfact>
</mgrwt>
</event>
<event>
 5    1  0.4149151E-003  0.7326278E+02  0.7546771E-02  0.1404649E+00
          2   -1    0    0  501    0  0.00000000000E+00  0.00000000000E+00  0.24294230070E+03  0.24294230070E+03  0.00000000000E+00 0. -1.
          1   -1    0    0  502    0 -0.00000000000E+00 -0.00000000000E+00 -0.14344893761E+04  0.14344893761E+04  0.00000000000E+00 0. -1.
         25    1    1    2    0    0  0.46879166102E+02  0.48571155796E+02 -0.15231545697E+03  0.20828300896E+03  0.12500000000E+03 0.  0.
          2    1    1    2  501    0 -0.39238040705E+02  0.25065609816E+02  0.21132960672E+03  0.21639803907E+03  0.00000000000E+00 0. -1.
          1    1    1    2  502    0 -0.76411253974E+01 -0.73636765613E+02 -0.12505612252E+04  0.12527506288E+04  0.00000000000E+00 0. -1.
<mgrwt>
<rscale>  0 0.58405258E+02</rscale>
<asrwt>0</asrwt>
<pdfrwt beam="1">  1        2 0.37375738E-01 0.46560806E+02</pdfrwt>
<pdfrwt beam="2">  1        1 0.22069067E+00 0.73262781E+02</pdfrwt>
<totfact> 0.16310108E+02</totfact>
</mgrwt>
</event>
<event>
 5    1  0.4149151E-003  0.1677886E+03  0.7546771E-02  0.1322366E+00
         -2   -1    0    0    0  501 -0.00000000000E+00  0.00000000000E+00  0.24270946243E+03  0.24270946243E+03  0.00000000000E+00 0. -1.
          2   -1    0    0  502    0  0.00000000000E+00 -0.00000000000E+00 -0.32276831413E+03  0.32276831413E+03  0.00000000000E+00 0.  1.
         25    1    1    2    0    0  0.79561113869E+02 -0.15517261862E+03  0.15070185730E+03  0.26219184237E+03  0.12500000000E+03 0.  0.
          2    1    1    2  502    0 -0.38798725110E+02  0.11507657605E+02 -0.87215245743E+02  0.96147107828E+02  0.00000000000E+00 0.  1.
         -2    1    1    2    0  501 -0.40762388759E+02  0.14366496102E+03 -0.14354546327E+03  0.20713882636E+03  0.00000000000E+00 0. -1.
<mgrwt>
<rscale>  0 0.82403238E+02</rscale>
<asrwt>0</asrwt>
<pdfrwt beam="2">  1        2 0.49656664E-01 0.40469337E+02</pdfrwt>
<pdfrwt beam="1">  1       -2 0.37339917E-01 0.16778861E+03</pdfrwt>
<totfact> 0.68124162E+02</totfact>
</mgrwt>
</event>
<event>
 5    1  0.4149151E-003  0.1480666E+03  0.7546771E-02  0.1258648E+00
          2   -1    0    0  502    0  0.00000000000E+00  0.00000000000E+00  0.20115743362E+03  0.20115743362E+03  0.00000000000E+00 0. -1.
         -1   -1    0    0    0  501 -0.00000000000E+00 -0.00000000000E+00 -0.29545688078E+03  0.29545688078E+03  0.00000000000E+00 0.  1.
         25    1    1    2    0    0 -0.19341849306E+03  0.33222266307E+02  0.43160017513E+02  0.23664788092E+03  0.12500000000E+03 0.  0.
          2    1    1    2  502    0  0.11017274481E+03 -0.30870441772E+02 -0.20266142733E+02  0.11619696388E+03  0.00000000000E+00 0. -1.
         -1    1    1    2    0  501  0.83245748243E+02 -0.23518245344E+01 -0.11719332194E+03  0.14376946959E+03  0.00000000000E+00 0.  1.
<mgrwt>
<rscale>  0 0.11104430E+03</rscale>
<asrwt>0</asrwt>
<pdfrwt beam="1">  1        2 0.30947298E-01 0.14806664E+03</pdfrwt>
<pdfrwt beam="2">  1       -1 0.45454905E-01 0.83278963E+02</pdfrwt>
<totfact> 0.94168305E+02</totfact>
</mgrwt>
</event>
<event>
 5    1  0.4149151E-003  0.9052836E+02  0.7546771E-02  0.1400997E+00
          1   -1    0    0  502    0  0.00000000000E+00  0.00000000000E+00  0.32654384993E+03  0.32654384993E+03  0.00000000000E+00 0. -1.
         -3   -1    0    0    0  501 -0.00000000000E+00 -0.00000000000E+00 -0.21780626379E+03  0.21780626379E+03  0.00000000000E+00 0.  1.
         25    1    1    2    0    0 -0.44069812285E+02 -0.10955718059E+03  0.44282868807E+02  0.17756941359E+03  0.12500000000E+03 0.  0.
          1    1    1    2  502    0  0.13107706246E+02  0.86204541904E+02  0.20404943040E+03  0.22189908755E+03  0.00000000000E+00 0. -1.
         -3    1    1    2    0  501  0.30962106039E+02  0.23352638685E+02 -0.13959471307E+03  0.14488161257E+03  0.00000000000E+00 0.  1.
<mgrwt>
<rscale>  0 0.59252150E+02</rscale>
<asrwt>0</asrwt>
<pdfrwt beam="1">  1        1 0.50237516E-01 0.90528357E+02</pdfrwt>
<pdfrwt beam="2">  1       -3 0.33508656E-01 0.38781410E+02</pdfrwt>
<totfact> 0.33002809E+02</totfact>
</mgrwt>
</event>
<event>
 5    1  0.4149151E-003  0.4410935E+02  0.7546771E-02  0.1508962E+00
          1   -1    0    0  502    0 -0.00000000000E+00  0.00000000000E+00  0.63154592627E+03  0.63154592627E+03  0.00000000000E+00 0. -1.
          2   -1    0    0  501    0  0.00000000000E+00 -0.00000000000E+00 -0.86205390727E+03  0.86205390727E+03  0.00000000000E+00 0. -1.
         25    1    1    2    0    0  0.87221553397E+01 -0.16433969480E+02  0.46389293620E+03  0.48079913436E+03  0.12500000000E+03 0.  0.
          2    1    1    2  501    0  0.18559817128E+02  0.40058479269E+02 -0.85097592892E+03  0.85212040239E+03  0.00000000000E+00 0. -1.
          1    1    1    2  502    0 -0.27281972467E+02 -0.23624509789E+02  0.15657501171E+03  0.16068029679E+03  0.00000000000E+00 0. -1.
<mgrwt>
<rscale>  0 0.39898208E+02</rscale>
<asrwt>0</asrwt>
<pdfrwt beam="2">  1        2 0.13262368E+00 0.44109351E+02</pdfrwt>
<pdfrwt beam="1">  1        1 0.97160911E-01 0.36089105E+02</pdfrwt>
<totfact> 0.16732626E+02</totfact>
</mgrwt>
</event>
<event>
 5    1  0.4149151E-003  0.9539497E+02  0.7546771E-02  0.1418968E+00
          2   -1    0    0  502    0  0.00000000000E+00  0.00000000000E+00  0.71868126665E+02  0.71868126665E+02  0.00000000000E+00 0. -1.
         -2   -1    0    0    0  501 -0.00000000000E+00 -0.00000000000E+00 -0.19902949066E+04  0.19902949066E+04  0.00000000000E+00 0.  1.
         25    1    1    2    0    0  0.61810077653E+02 -0.24460728645E+02 -0.55645635287E+03  0.57418419134E+03  0.12500000000E+03 0.  0.
          2    1    1    2  502    0 -0.86305451916E+02  0.45031737113E+02  0.25106843871E+02  0.10053279061E+03  0.00000000000E+00 0. -1.
         -2    1    1    2    0  501  0.24495374263E+02 -0.20571008468E+02 -0.13870772709E+04  0.13874460513E+04  0.00000000000E+00 0.  1.
<mgrwt>
<rscale>  0 0.55239760E+02</rscale>
<asrwt>0</asrwt>
<pdfrwt beam="1">  1        2 0.11056637E-01 0.95394969E+02</pdfrwt>
<pdfrwt beam="2">  1       -2 0.30619917E+00 0.31987337E+02</pdfrwt>
<totfact> 0.23174702E+01</totfact>
</mgrwt>
</event>
<event>
 5    1  0.4149151E-003  0.1721269E+03  0.7546771E-02  0.1276140E+00
          2   -1    0    0  502    0  0.00000000000E+00  0.00000000000E+00  0.41724050722E+03  0.41724050722E+03  0.00000000000E+00 0. -1.
         -2   -1    0    0    0  501 -0.00000000000E+00 -0.00000000000E+00 -0.35628171632E+03  0.35628171632E+03  0.00000000000E+00 0.  1.
         25    1    1    2    0    0 -0.20130446311E+03 -0.36545225365E+02  0.38055208399E+02  0.24275963267E+03  0.12500000000E+03 0.  0.
          2    1    1    2  502    0  0.50106179180E+02 -0.33811817344E+02  0.24538334687E+03  0.25271892510E+03  0.00000000000E+00 0. -1.
         -2    1    1    2    0  501  0.15119828393E+03  0.70357042709E+02 -0.22247976437E+03  0.27804366578E+03  0.00000000000E+00 0.  1.
<mgrwt>
<rscale>  0 0.10200291E+03</rscale>
<asrwt>0</asrwt>
<pdfrwt beam="1">  1        2 0.64190847E-01 0.60447235E+02</pdfrwt>
<pdfrwt beam="2">  1       -2 0.54812572E-01 0.17212688E+03</pdfrwt>
<totfact> 0.24831711E+02</totfact>
</mgrwt>
</event>
<event>
 5    1  0.4149151E-003  0.7366809E+02  0.7546771E-02  0.1492099E+00
         -2   -1    0    0    0  501 -0.00000000000E+00  0.00000000000E+00  0.41679054932E+03  0.41679054932E+03  0.00000000000E+00 0.  1.
          1   -1    0    0  502    0  0.00000000000E+00 -0.00000000000E+00 -0.23736788720E+03  0.23736788720E+03  0.00000000000E+00 0. -1.
         25    1    1    2    0    0 -0.52810881308E+02  0.49840102637E+02  0.30241754064E+02  0.14769085518E+03  0.12500000000E+03 0.  0.
          1    1    1    2  502    0 -0.14627049688E+02 -0.19356133249E+02 -0.17361217314E+03  0.17529916468E+03  0.00000000000E+00 0. -1.
         -2    1    1    2    0  501  0.67437930996E+02 -0.30483969388E+02  0.32279308119E+03  0.33116841665E+03  0.00000000000E+00 0.  1.
<mgrwt>
<rscale>  0 0.42276274E+02</rscale>
<asrwt>0</asrwt>
<pdfrwt beam="2">  1        1 0.36518136E-01 0.24261296E+02</pdfrwt>
<pdfrwt beam="1">  1       -2 0.64121623E-01 0.73668092E+02</pdfrwt>
<totfact> 0.23612918E+02</totfact>
</mgrwt>
</event>
<event>
 5    1  0.4149151E-003  0.5266178E+02  0.7546771E-02  0.1499108E+00
         -2   -1    0    0    0  501 -0.00000000000E+00  0.00000000000E+00  0.16965443490E+02  0.16965443490E+02  0.00000000000E+00 0.  1.
          1   -1    0    0  502    0  0.00000000000E+00 -0.00000000000E+00 -0.91825237446E+03  0.91825237446E+03  0.00000000000E+00 0. -1.
         25    1    1    2    0    0  0.12529581495E+02  0.68432842752E+02 -0.48291784668E+03  0.50366128601E+03  0.12500000000E+03 0.  0.
          1    1    1    2  502    0  0.16626676444E+02 -0.27731057016E+02 -0.31547766709E+03  0.31713028289E+03  0.00000000000E+00 0. -1.
         -2    1    1    2    0  501 -0.29156257939E+02 -0.40701785737E+02 -0.10289141720E+03  0.11442624905E+03  0.00000000000E+00 0.  1.
<mgrwt>
<rscale>  0 0.41264293E+02</rscale>
<asrwt>0</asrwt>
<pdfrwt beam="2">  1        1 0.14126963E+00 0.32333541E+02</pdfrwt>
<pdfrwt beam="1">  1       -2 0.26100676E-02 0.52661781E+02</pdfrwt>
<totfact> 0.79062031E+03</totfact>
</mgrwt>
</event>
<event>
 5    1  0.4149151E-003  0.8623588E+02  0.7546771E-02  0.1422920E+00
         -2   -1    0    0    0  501 -0.00000000000E+00  0.00000000000E+00  0.54436775399E+02  0.54436775399E+02  0.00000000000E+00 0.  1.
          1   -1    0    0  502    0  0.00000000000E+00 -0.00000000000E+00 -0.12338070336E+04  0.12338070336E+04  0.00000000000E+00 0. -1.
         25    1    1    2    0    0 -0.31420088925E+01  0.76388855160E+02 -0.61460527768E+03  0.63183049686E+03  0.12500000000E+03 0.  0.
          1    1    1    2  502    0 -0.34236806623E+02  0.24861493149E+01 -0.56803222799E+03  0.56906849492E+03  0.00000000000E+00 0. -1.
         -2    1    1    2    0  501  0.37378815516E+02 -0.78875004475E+02  0.32672475218E+01  0.87344817171E+02  0.00000000000E+00 0.  1.
<mgrwt>
<rscale>  0 0.54407860E+02</rscale>
<asrwt>0</asrwt>
<pdfrwt beam="2">  1        1 0.18981646E+00 0.34326955E+02</pdfrwt>
<pdfrwt beam="1">  1       -2 0.83748890E-02 0.86235881E+02</pdfrwt>
<totfact> 0.91858407E+02</totfact>
</mgrwt>
</event>
<event>
 5    1  0.4149151E-003  0.9153084E+02  0.7546771E-02  0.1350246E+00
          1   -1    0    0  502    0 -0.00000000000E+00  0.00000000000E+00  0.23229044255E+03  0.23229044255E+03  0.00000000000E+00 0. -1.
          2   -1    0    0  501    0  0.00000000000E+00 -0.00000000000E+00 -0.18211631752E+04  0.18211631752E+04  0.00000000000E+00 0. -1.
         25    1    1    2    0    0  0.54160251907E+02 -0.13450448934E+03 -0.74117108898E+03  0.76549616177E+03  0.12500000000E+03 0.  0.
          2    1    1    2  501    0 -0.36454171316E+02  0.45352373138E+02 -0.10576128834E+04  0.10592123279E+04  0.00000000000E+00 0. -1.
          1    1    1    2  502    0 -0.17706080591E+02  0.89152116198E+02  0.20991123969E+03  0.22874512816E+03  0.00000000000E+00 0. -1.
<mgrwt>
<rscale>  0 0.72978893E+02</rscale>
<asrwt>0</asrwt>
<pdfrwt beam="2">  1        2 0.28017895E+00 0.58187149E+02</pdfrwt>
<pdfrwt beam="1">  1        1 0.35736991E-01 0.91530844E+02</pdfrwt>
<totfact> 0.17587043E+02</totfact>
</mgrwt>
</event>
<event>
 5    1  0.4149151E-003  0.5550183E+02  0.7546771E-02  0.1477015E+00
         -2   -1    0    0    0  501 -0.00000000000E+00  0.00000000000E+00  0.10199835602E+02  0.10199835602E+02  0.00000000000E+00 0.  1.
          1   -1    0    0  502    0  0.00000000000E+00 -0.00000000000E+00 -0.13473800004E+04  0.13473800004E+04  0.00000000000E+00 0. -1.
         25    1    1    2    0    0  0.53310164027E+02 -0.34275089242E+01 -0.87808114730E+03  0.88854106413E+03  0.12500000000E+03 0.  0.
          1    1    1    2  502    0 -0.81562722046E+01 -0.34857139842E+02 -0.14067896595E+03  0.14516237955E+03  0.00000000000E+00 0. -1.
         -2    1    1    2    0  501 -0.45153891823E+02  0.38284648767E+02 -0.31842005153E+03  0.32387639231E+03  0.00000000000E+00 0.  1.
<mgrwt>
<rscale>  0 0.44574565E+02</rscale>
<asrwt>0</asrwt>
<pdfrwt beam="2">  1        1 0.20728916E+00 0.35798673E+02</pdfrwt>
<pdfrwt beam="1">  1       -2 0.15692060E-02 0.55501829E+02</pdfrwt>
<totfact> 0.84642249E+03</totfact>
</mgrwt>
</event>
<event>
 5    1  0.4149151E-003  0.7631630E+02  0.7546771E-02  0.1377967E+00
          1   -1    0    0  502    0  0.00000000000E+00  0.00000000000E+00  0.68993136030E+02  0.68993136030E+02  0.00000000000E+00 0. -1.
          1   -1    0    0  501    0 -0.00000000000E+00 -0.00000000000E+00 -0.19834367757E+04  0.19834367757E+04  0.00000000000E+00 0. -1.
         25    1    1    2    0    0 -0.11253439754E+03 -0.19863512268E+02 -0.45677256052E+03  0.48715985240E+03  0.12500000000E+03 0.  0.
          1    1    1    2  501    0  0.72307264918E+02 -0.18174632840E+02 -0.14960489016E+04  0.14979055290E+04  0.00000000000E+00 0. -1.
          1    1    1    2  502    0  0.40227132621E+02  0.38038145108E+02  0.38377822486E+02  0.67364530288E+02  0.00000000000E+00 0. -1.
<mgrwt>
<rscale>  0 0.65001086E+02</rscale>
<asrwt>0</asrwt>
<pdfrwt beam="1">  1        1 0.10614329E-01 0.55363550E+02</pdfrwt>
<pdfrwt beam="2">  1        1 0.30514409E+00 0.76316299E+02</pdfrwt>
<totfact> 0.25863995E+02</totfact>
</mgrwt>
</event>
<event>
 5    1  0.4149151E-003  0.2656062E+03  0.7546771E-02  0.1333080E+00
         -1   -1    0    0    0  501 -0.00000000000E+00  0.00000000000E+00  0.75605762023E+02  0.75605762023E+02  0.00000000000E+00 0.  1.
          2   -1    0    0  502    0  0.00000000000E+00 -0.00000000000E+00 -0.11735023739E+04  0.11735023739E+04  0.00000000000E+00 0. -1.
         25    1    1    2    0    0 -0.25384625404E+03  0.11382425282E+03 -0.52919539561E+03  0.61079182047E+03  0.12500000000E+03 0.  0.
          2    1    1    2  502    0  0.23800103410E+03 -0.96798461201E+02 -0.55432091972E+03  0.61097145298E+03  0.00000000000E+00 0. -1.
         -1    1    1    2    0  501  0.15845219941E+02 -0.17025791624E+02 -0.14380296581E+02  0.27344862500E+02  0.00000000000E+00 0.  1.
<mgrwt>
<rscale>  0 0.78597383E+02</rscale>
<asrwt>0</asrwt>
<pdfrwt beam="2">  1        2 0.18053882E+00 0.26560618E+03</pdfrwt>
<pdfrwt beam="1">  1       -1 0.11631656E-01 0.23258301E+02</pdfrwt>
<totfact> 0.96824369E+02</totfact>
</mgrwt>
</event>
<event>
 5    1  0.4149151E-003  0.4272726E+02  0.7546771E-02  0.1492473E+00
         -2   -1    0    0    0  501 -0.00000000000E+00  0.00000000000E+00  0.13673207268E+02  0.13673207268E+02  0.00000000000E+00 0. -1.
          2   -1    0    0  502    0  0.00000000000E+00 -0.00000000000E+00 -0.90226800690E+03  0.90226800690E+03  0.00000000000E+00 0.  1.
         25    1    1    2    0    0 -0.30204485025E+02 -0.83134619402E+00 -0.47668605363E+03  0.49372826107E+03  0.12500000000E+03 0.  0.
          2    1    1    2  502    0  0.30287873982E+02 -0.40889992172E+02 -0.21644001724E+03  0.22234124186E+03  0.00000000000E+00 0. -1.
         -2    1    1    2    0  501 -0.83388956733E-01  0.41721338367E+02 -0.19546872877E+03  0.19987171124E+03  0.00000000000E+00 0.  1.
<mgrwt>
<rscale>  0 0.42221345E+02</rscale>
<asrwt>0</asrwt>
<pdfrwt beam="2">  1        2 0.13881052E+00 0.42727259E+02</pdfrwt>
<pdfrwt beam="1">  1       -2 0.21035695E-02 0.41721422E+02</pdfrwt>
<totfact> 0.18461017E+04</totfact>
</mgrwt>
</event>
<event>
 5    1  0.4149151E-003  0.2547343E+03  0.7546771E-02  0.1266316E+00
          2   -1    0    0  502    0  0.00000000000E+00  0.00000000000E+00  0.85411519499E+03  0.85411519499E+03  0.00000000000E+00 0. -1.
          2   -1    0    0  501    0 -0.00000000000E+00 -0.00000000000E+00 -0.83619802299E+03  0.83619802299E+03  0.00000000000E+00 0. -1.
         25    1    1    2    0    0 -0.96447864742E+02  0.19495895085E+03  0.37671253563E+03  0.45260194170E+03  0.12500000000E+03 0.  0.
          2    1    1    2  501    0  0.13474051349E+03 -0.21841705144E+03 -0.77639176346E+03  0.81770727324E+03  0.00000000000E+00 0. -1.
          2    1    1    2  502    0 -0.38292648744E+02  0.23458100591E+02  0.41759639982E+03  0.42000400305E+03  0.00000000000E+00 0. -1.
<mgrwt>
<rscale>  0 0.10695453E+03</rscale>
<asrwt>0</asrwt>
<pdfrwt beam="1">  1        2 0.13140234E+00 0.44906675E+02</pdfrwt>
<pdfrwt beam="2">  1        2 0.12864585E+00 0.25473433E+03</pdfrwt>
<totfact> 0.18388498E+02</totfact>
</mgrwt>
</event>
<event>
 5    1  0.4149151E-003  0.8647209E+02  0.7546771E-02  0.1419099E+00
         -1   -1    0    0    0  501 -0.00000000000E+00  0.00000000000E+00  0.16778457612E+02  0.16778457612E+02  0.00000000000E+00 0.  1.
          2   -1    0    0  502    0  0.00000000000E+00 -0.00000000000E+00 -0.13612191715E+04  0.13612191715E+04  0.00000000000E+00 0. -1.
         25    1    1    2    0    0  0.50881531012E+02 -0.28255111026E+02 -0.36540971073E+03  0.39055926336E+03  0.12500000000E+03 0.  0.
          2    1    1    2  502    0 -0.78106146611E+02  0.50650958235E+02 -0.73598475578E+03  0.74184880565E+03  0.00000000000E+00 0. -1.
         -1    1    1    2    0  501  0.27224615598E+02 -0.22395847210E+02 -0.24304624736E+03  0.24558956008E+03  0.00000000000E+00 0.  1.
<mgrwt>
<rscale>  0 0.55212098E+02</rscale>
<asrwt>0</asrwt>
<pdfrwt beam="2">  1        2 0.20941836E+00 0.86472095E+02</pdfrwt>
<pdfrwt beam="1">  1       -1 0.25813009E-02 0.35252711E+02</pdfrwt>
<totfact> 0.73276702E+03</totfact>
</mgrwt>
</event>
<event>
 5    1  0.4149151E-003  0.1157636E+03  0.7546771E-02  0.1324828E+00
          1   -1    0    0  502    0  0.00000000000E+00  0.00000000000E+00  0.49641855354E+03  0.49641855354E+03  0.00000000000E+00 0. -1.
         -2   -1    0    0    0  501 -0.00000000000E+00 -0.00000000000E+00 -0.12474259061E+04  0.12474259061E+04  0.00000000000E+00 0.  1.
         25    1    1    2    0    0  0.41574022541E+02  0.42853228887E+02 -0.41268831375E+03  0.43531763447E+03  0.12500000000E+03 0.  0.
          1    1    1    2  502    0 -0.74234100928E+02 -0.90041138762E+02  0.47706261325E+03  0.49112813539E+03  0.00000000000E+00 0. -1.
         -2    1    1    2    0  501  0.32660078387E+02  0.47187909876E+02 -0.81538165204E+03  0.81739868978E+03  0.00000000000E+00 0.  1.
<mgrwt>
<rscale>  0 0.81507306E+02</rscale>
<asrwt>0</asrwt>
<pdfrwt beam="1">  1        1 0.76372086E-01 0.11576364E+03</pdfrwt>
<pdfrwt beam="2">  1       -2 0.19191168E+00 0.57387974E+02</pdfrwt>
<totfact> 0.74427895E+00</totfact>
</mgrwt>
</event>
<event>
 5    1  0.4149151E-003  0.6975605E+02  0.7546771E-02  0.1376462E+00
         -1   -1    0    0    0  501 -0.00000000000E+00  0.00000000000E+00  0.45606209581E+02  0.45606209581E+02  0.00000000000E+00 0.  1.
          2   -1    0    0  502    0  0.00000000000E+00 -0.00000000000E+00 -0.51661481007E+03  0.51661481007E+03  0.00000000000E+00 0. -1.
         25    1    1    2    0    0 -0.84757292100E+02 -0.50182253508E+02 -0.16313031245E+03  0.22790032026E+03  0.12500000000E+03 0.  0.
          2    1    1    2  502    0  0.24756084396E+02  0.62839592048E+02 -0.18604537089E+03  0.19792563774E+03  0.00000000000E+00 0. -1.
         -1    1    1    2    0  501  0.60001207705E+02 -0.12657338540E+02 -0.12183291714E+03  0.13639506166E+03  0.00000000000E+00 0.  1.
<mgrwt>
<rscale>  0 0.65403066E+02</rscale>
<asrwt>0</asrwt>
<pdfrwt beam="2">  1        2 0.79479198E-01 0.69756054E+02</pdfrwt>
<pdfrwt beam="1">  1       -1 0.70163403E-02 0.61321718E+02</pdfrwt>
<totfact> 0.65293141E+03</totfact>
</mgrwt>
</event>
<event>
 5    1  0.4149151E-003  0.6140819E+02  0.7546771E-02  0.1444800E+00
          2   -1    0    0  502    0  0.00000000000E+00  0.00000000000E+00  0.31074152566E+02  0.31074152566E+02  0.00000000000E+00 0. -1.
         -1   -1    0    0    0  501 -0.00000000000E+00 -0.00000000000E+00 -0.62238988704E+03  0.62238988704E+03  0.00000000000E+00 0.  1.
         25    1    1    2    0    0  0.88468140520E+02  0.30516747350E+02 -0.34068800827E+03  0.37476819867E+03  0.12500000000E+03 0.  0.
          2    1    1    2  502    0 -0.47615119824E+02 -0.29177615507E+02 -0.53363043779E+02  0.77240839741E+02  0.00000000000E+00 0. -1.
         -1    1    1    2    0  501 -0.40853020696E+02 -0.13391318433E+01 -0.19726468243E+03  0.20145500120E+03  0.00000000000E+00 0.  1.
<mgrwt>
<rscale>  0 0.50100473E+02</rscale>
<asrwt>0</asrwt>
<pdfrwt beam="1">  1        2 0.47806387E-02 0.61408188E+02</pdfrwt>
<pdfrwt beam="2">  1       -1 0.95752293E-01 0.40874963E+02</pdfrwt>
<totfact> 0.19962929E+03</totfact>
</mgrwt>
</event>
<event>
 5    1  0.4149151E-003  0.8774843E+02  0.7546771E-02  0.1363424E+00
         -2   -1    0    0    0  501 -0.00000000000E+00  0.00000000000E+00  0.74184474376E+03  0.74184474376E+03  0.00000000000E+00 0.  1.
          1   -1    0    0  502    0  0.00000000000E+00 -0.00000000000E+00 -0.18516644298E+04  0.18516644298E+04  0.00000000000E+00 0. -1.
         25    1    1    2    0    0  0.13717028970E+03 -0.95877055923E+01 -0.35634409073E+03  0.40188770008E+03  0.12500000000E+03 0.  0.
          1    1    1    2  502    0 -0.50401650685E+02  0.20214531157E+02 -0.14693883216E+04  0.14703914422E+04  0.00000000000E+00 0. -1.
         -2    1    1    2    0  501 -0.86768639015E+02 -0.10626825565E+02  0.71591272636E+03  0.72123003120E+03  0.00000000000E+00 0.  1.
<mgrwt>
<rscale>  0 0.69029810E+02</rscale>
<asrwt>0</asrwt>
<pdfrwt beam="2">  1        1 0.28487145E+00 0.54304269E+02</pdfrwt>
<pdfrwt beam="1">  1       -2 0.11412996E+00 0.87748434E+02</pdfrwt>
<totfact> 0.29489654E+00</totfact>
</mgrwt>
</event>
<event>
 5    1  0.4149151E-003  0.4727077E+02  0.7546771E-02  0.1501238E+00
         -1   -1    0    0    0  501  0.00000000000E+00  0.00000000000E+00  0.88370536256E+02  0.88370536256E+02  0.00000000000E+00 0.  1.
         -3   -1    0    0    0  502 -0.00000000000E+00 -0.00000000000E+00 -0.34564071615E+03  0.34564071615E+03  0.00000000000E+00 0.  1.
         25    1    1    2    0    0 -0.34286030532E+02 -0.86647341834E+01 -0.18822048736E+02  0.13126263378E+03  0.12500000000E+03 0.  0.
         -1    1    1    2    0  501  0.30030407154E+02  0.43906674209E+02  0.79689770336E+01  0.53787786615E+02  0.00000000000E+00 0.  1.
         -3    1    1    2    0  502  0.42556233778E+01 -0.35241940026E+02 -0.24641710819E+03  0.24896083202E+03  0.00000000000E+00 0.  1.
<mgrwt>
<rscale>  0 0.40963590E+02</rscale>
<asrwt>0</asrwt>
<pdfrwt beam="1">  1       -1 0.13595467E-01 0.47270773E+02</pdfrwt>
<pdfrwt beam="2">  1       -3 0.53175495E-01 0.35497953E+02</pdfrwt>
<totfact> 0.49784670E+02</totfact>
</mgrwt>
</event>
<event>
 5    1  0.4149151E-003  0.1423061E+03  0.7546771E-02  0.1233697E+00
         -2   -1    0    0    0  501 -0.00000000000E+00  0.00000000000E+00  0.16275882577E+03  0.16275882577E+03  0.00000000000E+00 0.  1.
          2   -1    0    0  502    0  0.00000000000E+00 -0.00000000000E+00 -0.13172301067E+04  0.13172301067E+04  0.00000000000E+00 0. -1.
         25    1    1    2    0    0  0.42566756410E+02  0.41306625468E+01 -0.83698140503E+02  0.15639491631E+03  0.12500000000E+03 0.  0.
          2    1    1    2  502    0  0.10924908615E+02 -0.14188612413E+03 -0.11480470231E+04  0.11568331743E+04  0.00000000000E+00 0. -1.
         -2    1    1    2    0  501 -0.53491665026E+02  0.13775546159E+03  0.77273882706E+02  0.16676084185E+03  0.00000000000E+00 0.  1.
<mgrwt>
<rscale>  0 0.12588192E+03</rscale>
<asrwt>0</asrwt>
<pdfrwt beam="2">  1        2 0.20265078E+00 0.14230610E+03</pdfrwt>
<pdfrwt beam="1">  1       -2 0.25039820E-01 0.11135333E+03</pdfrwt>
<totfact> 0.25096244E+02</totfact>
</mgrwt>
</event>
<event>
 5    1  0.4149151E-003  0.1093717E+03  0.7546771E-02  0.1287422E+00
         -2   -1    0    0    0  501  0.00000000000E+00  0.00000000000E+00  0.78741181714E+03  0.78741181714E+03  0.00000000000E+00 0.  1.
         -1   -1    0    0    0  502 -0.00000000000E+00 -0.00000000000E+00 -0.60518217252E+02  0.60518217252E+02  0.00000000000E+00 0.  1.
         25    1    1    2    0    0  0.46266564421E+02 -0.71868169325E+02  0.29647275293E+03  0.33290647632E+03  0.12500000000E+03 0.  0.
         -2    1    1    2    0  501  0.15971225003E+02  0.13045169515E+03  0.40509006551E+03  0.42587637405E+03  0.00000000000E+00 0.  1.
         -1    1    1    2    0  502 -0.62237789423E+02 -0.58583525828E+02  0.25330781445E+02  0.89147184023E+02  0.00000000000E+00 0.  1.
<mgrwt>
<rscale>  0 0.96686538E+02</rscale>
<asrwt>0</asrwt>
<pdfrwt beam="1">  1       -2 0.12114027E+00 0.10937169E+03</pdfrwt>
<pdfrwt beam="2">  1       -1 0.93104955E-02 0.85472638E+02</pdfrwt>
<totfact> 0.26351551E+02</totfact>
</mgrwt>
</event>
<event>
 5    1  0.4149151E-003  0.6782222E+02  0.7546771E-02  0.1486317E+00
          1   -1    0    0  502    0  0.00000000000E+00  0.00000000000E+00  0.20165167669E+03  0.20165167669E+03  0.00000000000E+00 0. -1.
         -2   -1    0    0    0  501 -0.00000000000E+00 -0.00000000000E+00 -0.93775773431E+02  0.93775773431E+02  0.00000000000E+00 0.  1.
         25    1    1    2    0    0  0.62037142582E+02  0.53278959301E+02  0.10143479515E+03  0.18055822393E+03  0.12500000000E+03 0.  0.
          1    1    1    2  502    0 -0.34629878434E+02 -0.52006463086E+02  0.37938707441E+02  0.73097511622E+02  0.00000000000E+00 0. -1.
         -2    1    1    2    0  501 -0.27407264148E+02 -0.12724962152E+01 -0.31497599325E+02  0.41771714567E+02  0.00000000000E+00 0.  1.
<mgrwt>
<rscale>  0 0.43137270E+02</rscale>
<asrwt>0</asrwt>
<pdfrwt beam="1">  1        1 0.31023335E-01 0.67822224E+02</pdfrwt>
<pdfrwt beam="2">  1       -2 0.14427042E-01 0.27436789E+02</pdfrwt>
<totfact> 0.39904819E+03</totfact>
</mgrwt>
</event>
<event>
 5    1  0.4149151E-003  0.7645445E+02  0.7546771E-02  0.1387716E+00
          2   -1    0    0  502    0  0.00000000000E+00  0.00000000000E+00  0.59279288698E+03  0.59279288698E+03  0.00000000000E+00 0. -1.
          2   -1    0    0  501    0 -0.00000000000E+00 -0.00000000000E+00 -0.53674845431E+03  0.53674845431E+03  0.00000000000E+00 0. -1.
         25    1    1    2    0    0 -0.86346462070E+02  0.59025501882E+01 -0.75698388927E+02  0.16984050664E+03  0.12500000000E+03 0.  0.
          2    1    1    2  501    0  0.21336402865E+02 -0.46385287742E+02 -0.40969972929E+03  0.41286887166E+03  0.00000000000E+00 0. -1.
          2    1    1    2  502    0  0.65010059205E+02  0.40482737554E+02  0.54144255088E+03  0.54683196298E+03  0.00000000000E+00 0. -1.
<mgrwt>
<rscale>  0 0.62478394E+02</rscale>
<asrwt>0</asrwt>
<pdfrwt beam="1">  1        2 0.91198906E-01 0.76454450E+02</pdfrwt>
<pdfrwt beam="2">  1        2 0.82576685E-01 0.51057193E+02</pdfrwt>
<totfact> 0.48347388E+02</totfact>
</mgrwt>
</event>
<event>
 5    1  0.4149151E-003  0.9660852E+02  0.7546771E-02  0.1380002E+00
          1   -1    0    0  501    0  0.00000000000E+00  0.00000000000E+00  0.36501546740E+03  0.36501546740E+03  0.00000000000E+00 0. -1.
          3   -1    0    0  502    0 -0.00000000000E+00 -0.00000000000E+00 -0.18984344451E+03  0.18984344451E+03  0.00000000000E+00 0. -1.
         25    1    1    2    0    0  0.33007197302E+01 -0.10331992606E+03 -0.80539760147E+02  0.18110095206E+03  0.12500000000E+03 0.  0.
          1    1    1    2  501    0  0.39085242892E+02  0.17959267091E+02  0.27345347598E+03  0.27681581424E+03  0.00000000000E+00 0. -1.
          3    1    1    2  502    0 -0.42385962622E+02  0.85360658967E+02 -0.17741692947E+02  0.96942145610E+02  0.00000000000E+00 0. -1.
<mgrwt>
<rscale>  0 0.64463203E+02</rscale>
<asrwt>0</asrwt>
<pdfrwt beam="1">  1        1 0.56156226E-01 0.43013852E+02</pdfrwt>
<pdfrwt beam="2">  1        3 0.29206684E-01 0.96608520E+02</pdfrwt>
<totfact> 0.40287685E+02</totfact>
</mgrwt>
</event>
<event>
 5    1  0.4149151E-003  0.1029541E+03  0.7546771E-02  0.1276223E+00
         -3   -1    0    0    0  502 -0.00000000000E+00  0.00000000000E+00  0.24767124130E+03  0.24767124130E+03  0.00000000000E+00 0.  1.
         -1   -1    0    0    0  501  0.00000000000E+00 -0.00000000000E+00 -0.41690229626E+03  0.41690229626E+03  0.00000000000E+00 0.  1.
         25    1    1    2    0    0 -0.63173675185E+02  0.47320244750E+02 -0.10624534931E+02  0.14821605696E+03  0.12500000000E+03 0.  0.
         -1    1    1    2    0  501  0.97615578353E+02  0.49701920415E+02 -0.31253324415E+03  0.33117383763E+03  0.00000000000E+00 0.  1.
         -3    1    1    2    0  502 -0.34441903168E+02 -0.97022165165E+02  0.15392672411E+03  0.18518364297E+03  0.00000000000E+00 0.  1.
<mgrwt>
<rscale>  0 0.10196234E+03</rscale>
<asrwt>0</asrwt>
<pdfrwt beam="2">  1       -1 0.64138814E-01 0.10098015E+03</pdfrwt>
<pdfrwt beam="1">  1       -3 0.38103269E-01 0.10295409E+03</pdfrwt>
<totfact> 0.78183531E+01</totfact>
</mgrwt>
</event>
<event>
 5    1  0.4149151E-003  0.7578411E+02  0.7546771E-02  0.1411430E+00
          2   -1    0    0  501    0  0.00000000000E+00  0.00000000000E+00  0.69958534554E+03  0.69958534554E+03  0.00000000000E+00 0. -1.
          1   -1    0    0  502    0 -0.00000000000E+00 -0.00000000000E+00 -0.42033979121E+03  0.42033979121E+03  0.00000000000E+00 0. -1.
         25    1    1    2    0    0 -0.10621629502E+03 -0.13753551766E+02 -0.27216841844E+03  0.31807500611E+03  0.12500000000E+03 0.  0.
          2    1    1    2  501    0  0.42344160660E+02  0.53862226692E+01  0.66762024588E+03  0.66898343182E+03  0.00000000000E+00 0. -1.
          1    1    1    2  502    0  0.63872134360E+02  0.83673290965E+01 -0.11620627311E+03  0.13286669882E+03  0.00000000000E+00 0. -1.
<mgrwt>
<rscale>  0 0.56875931E+02</rscale>
<asrwt>0</asrwt>
<pdfrwt beam="1">  1        2 0.10762851E+00 0.42685353E+02</pdfrwt>
<pdfrwt beam="2">  1        1 0.64667661E-01 0.75784112E+02</pdfrwt>
<totfact> 0.35137587E+02</totfact>
</mgrwt>
</event>
<event>
 5    1  0.4149151E-003  0.6955109E+02  0.7546771E-02  0.1366460E+00
         -2   -1    0    0    0  501 -0.00000000000E+00  0.00000000000E+00  0.50301758509E+02  0.50301758509E+02  0.00000000000E+00 0.  1.
          2   -1    0    0  502    0  0.00000000000E+00 -0.00000000000E+00 -0.45284171490E+03  0.45284171490E+03  0.00000000000E+00 0. -1.
         25    1    1    2    0    0  0.85266083609E+02 -0.22551716594E+02 -0.25173349876E+03  0.29457365689E+03  0.12500000000E+03 0.  0.
          2    1    1    2  502    0 -0.53181195558E+02 -0.40421487096E+02 -0.10466715332E+03  0.12416661856E+03  0.00000000000E+00 0. -1.
         -2    1    1    2    0  501 -0.32084888052E+02  0.62973203690E+02 -0.46139304316E+02  0.84403197966E+02  0.00000000000E+00 0.  1.
<mgrwt>
<rscale>  0 0.68161269E+02</rscale>
<asrwt>0</asrwt>
<pdfrwt beam="2">  1        2 0.69667958E-01 0.66799223E+02</pdfrwt>
<pdfrwt beam="1">  1       -2 0.77387318E-02 0.69551088E+02</pdfrwt>
<totfact> 0.63466999E+03</totfact>
</mgrwt>
</event>
<event>
 5    1  0.4149151E-003  0.2918365E+02  0.7546771E-02  0.1639788E+00
          1   -1    0    0  502    0  0.00000000000E+00  0.00000000000E+00  0.13398203363E+04  0.13398203363E+04  0.00000000000E+00 0. -1.
         -1   -1    0    0    0  501 -0.00000000000E+00 -0.00000000000E+00 -0.11355361775E+03  0.11355361775E+03  0.00000000000E+00 0.  1.
         25    1    1    2    0    0 -0.84860400760E+01 -0.46577625837E+00  0.10628881718E+02  0.12573862951E+03  0.12500000000E+03 0.  0.
          1    1    1    2  502    0  0.19121708885E+02  0.22136635384E+02  0.12688585653E+04  0.12691957016E+04  0.00000000000E+00 0. -1.
         -1    1    1    2    0  501 -0.10635668809E+02 -0.21670859126E+02 -0.53220728453E+02  0.58439622889E+02  0.00000000000E+00 0.  1.
<mgrwt>
<rscale>  0 0.26542341E+02</rscale>
<asrwt>0</asrwt>
<pdfrwt beam="1">  1        1 0.20612619E+00 0.29183655E+02</pdfrwt>
<pdfrwt beam="2">  1       -1 0.17469788E-01 0.24140083E+02</pdfrwt>
<totfact> 0.25199882E+02</totfact>
</mgrwt>
</event>
<event>
 5    1  0.4149151E-003  0.1356719E+03  0.7546771E-02  0.1283472E+00
          1   -1    0    0  502    0  0.00000000000E+00  0.00000000000E+00  0.11945078693E+03  0.11945078693E+03  0.00000000000E+00 0. -1.
          1   -1    0    0  501    0 -0.00000000000E+00 -0.00000000000E+00 -0.11977236772E+04  0.11977236772E+04  0.00000000000E+00 0. -1.
         25    1    1    2    0    0  0.19136429539E+03  0.22489362459E+02 -0.20123489312E+03  0.30536297612E+03  0.12500000000E+03 0.  0.
          1    1    1    2  501    0 -0.71386217223E+02  0.43610169406E+01 -0.88567939837E+03  0.88856232599E+03  0.00000000000E+00 0. -1.
          1    1    1    2  502    0 -0.11997807817E+03 -0.26850379399E+02  0.86414012492E+01  0.12324916199E+03  0.00000000000E+00 0. -1.
<mgrwt>
<rscale>  0 0.98504602E+02</rscale>
<asrwt>0</asrwt>
<pdfrwt beam="1">  1        1 0.18377043E-01 0.13567186E+03</pdfrwt>
<pdfrwt beam="2">  1        1 0.18426519E+00 0.71519301E+02</pdfrwt>
<totfact> 0.42392064E+02</totfact>
</mgrwt>
</event>
<event>
 5    1  0.4149151E-003  0.1510418E+03  0.7546771E-02  0.1305267E+00
          1   -1    0    0  502    0 -0.00000000000E+00  0.00000000000E+00  0.66903225216E+03  0.66903225216E+03  0.00000000000E+00 0. -1.
          2   -1    0    0  501    0  0.00000000000E+00 -0.00000000000E+00 -0.21067085462E+04  0.21067085462E+04  0.00000000000E+00 0.  1.
         25    1    1    2    0    0  0.14647567216E+03 -0.46289569421E+02 -0.38926451880E+03  0.43674902676E+03  0.12500000000E+03 0.  0.
          2    1    1    2  501    0 -0.12075365447E+03  0.92004134029E+02 -0.16892262443E+04  0.16960340534E+04  0.00000000000E+00 0.  1.
          1    1    1    2  502    0 -0.25722017692E+02 -0.45714564608E+02  0.64081446909E+03  0.64295771821E+03  0.00000000000E+00 0. -1.
<mgrwt>
<rscale>  0 0.89009990E+02</rscale>
<asrwt>0</asrwt>
<pdfrwt beam="2">  1        2 0.32410900E+00 0.15104181E+03</pdfrwt>
<pdfrwt beam="1">  1        1 0.10292804E+00 0.52454205E+02</pdfrwt>
<totfact> 0.30673399E+01</totfact>
</mgrwt>
</event>
<event>
 5    1  0.4149151E-003  0.8550676E+02  0.7546771E-02  0.1432511E+00
          2   -1    0    0  501    0  0.00000000000E+00  0.00000000000E+00  0.17970126518E+04  0.17970126518E+04  0.00000000000E+00 0. -1.
          1   -1    0    0  502    0 -0.00000000000E+00 -0.00000000000E+00 -0.52671579574E+03  0.52671579574E+03  0.00000000000E+00 0. -1.
         25    1    1    2    0    0  0.73541674657E+02  0.56720477701E+02  0.35241418796E+03  0.38528736078E+03  0.12500000000E+03 0.  0.
          2    1    1    2  501    0 -0.28099386198E+02  0.15692255956E+02  0.14243981352E+04  0.14247616888E+04  0.00000000000E+00 0. -1.
          1    1    1    2  502    0 -0.45442288459E+02 -0.72412733657E+02 -0.50651546703E+03  0.51367939799E+03  0.00000000000E+00 0. -1.
<mgrwt>
<rscale>  0 0.52459185E+02</rscale>
<asrwt>0</asrwt>
<pdfrwt beam="1">  1        2 0.27646348E+00 0.32184195E+02</pdfrwt>
<pdfrwt beam="2">  1        1 0.81033200E-01 0.85506757E+02</pdfrwt>
<totfact> 0.69940433E+01</totfact>
</mgrwt>
</event>
<event>
 5    1  0.4149151E-003  0.1724059E+03  0.7546771E-02  0.1283753E+00
         -1   -1    0    0    0  501 -0.00000000000E+00  0.00000000000E+00  0.27985033077E+03  0.27985033077E+03  0.00000000000E+00 0.  1.
          1   -1    0    0  502    0  0.00000000000E+00 -0.00000000000E+00 -0.29961888017E+04  0.29961888017E+04  0.00000000000E+00 0. -1.
         25    1    1    2    0    0  0.15968853867E+03  0.11062024978E+02 -0.33397185420E+03  0.39087721496E+03  0.12500000000E+03 0.  0.
          1    1    1    2  502    0  0.91485848383E+00  0.56124012912E+02 -0.26032864950E+04  0.26038915717E+04  0.00000000000E+00 0. -1.
         -1    1    1    2    0  501 -0.16060339715E+03 -0.67186037891E+02  0.22091987825E+03  0.28127034588E+03  0.00000000000E+00 0.  1.
<mgrwt>
<rscale>  0 0.98373765E+02</rscale>
<asrwt>0</asrwt>
<pdfrwt beam="2">  1        1 0.46095214E+00 0.56131469E+02</pdfrwt>
<pdfrwt beam="1">  1       -1 0.43053895E-01 0.17240592E+03</pdfrwt>
<totfact> 0.52106266E+00</totfact>
</mgrwt>
</event>
<event>
 5    1  0.4149151E-003  0.6970859E+02  0.7546771E-02  0.1419173E+00
          1   -1    0    0  502    0 -0.00000000000E+00  0.00000000000E+00  0.24458641848E+03  0.24458641848E+03  0.00000000000E+00 0. -1.
          2   -1    0    0  501    0  0.00000000000E+00 -0.00000000000E+00 -0.74606438811E+03  0.74606438811E+03  0.00000000000E+00 0. -1.
         25    1    1    2    0    0 -0.56137242236E+02 -0.73330667913E+02 -0.44455691984E+03  0.47094015734E+03  0.12500000000E+03 0.  0.
          2    1    1    2  501    0  0.58022610627E+02  0.29666097704E+02 -0.28250917717E+03  0.28992781151E+03  0.00000000000E+00 0. -1.
          1    1    1    2  502    0 -0.18853683907E+01  0.43664570209E+02  0.22558812738E+03  0.22978283774E+03  0.00000000000E+00 0. -1.
<mgrwt>
<rscale>  0 0.55196300E+02</rscale>
<asrwt>0</asrwt>
<pdfrwt beam="2">  1        2 0.11477914E+00 0.69708585E+02</pdfrwt>
<pdfrwt beam="1">  1        1 0.37628680E-01 0.43705255E+02</pdfrwt>
<totfact> 0.61739236E+02</totfact>
</mgrwt>
</event>
<event>
 5    1  0.4149151E-003  0.1314975E+03  0.7546771E-02  0.1243745E+00
          2   -1    0    0  501    0  0.00000000000E+00  0.00000000000E+00  0.28159940072E+04  0.28159940072E+04  0.00000000000E+00 0. -1.
          1   -1    0    0  502    0 -0.00000000000E+00 -0.00000000000E+00 -0.22710404321E+03  0.22710404321E+03  0.00000000000E+00 0. -1.
         25    1    1    2    0    0  0.97145836534E+02 -0.55978188476E+02  0.65692280424E+03  0.67804383477E+03  0.12500000000E+03 0.  0.
          2    1    1    2  501    0 -0.13594668520E+03 -0.45661197742E+02  0.21322836190E+04  0.21371008114E+04  0.00000000000E+00 0. -1.
          1    1    1    2  502    0  0.38800848667E+02  0.10163938622E+03 -0.20031645922E+03  0.22795340428E+03  0.00000000000E+00 0. -1.
<mgrwt>
<rscale>  0 0.11960811E+03</rscale>
<asrwt>0</asrwt>
<pdfrwt beam="1">  1        2 0.43322982E+00 0.13149751E+03</pdfrwt>
<pdfrwt beam="2">  1        1 0.34939085E-01 0.10879371E+03</pdfrwt>
<totfact> 0.49977058E+01</totfact>
</mgrwt>
</event>
<event>
 5    1  0.4149151E-003  0.8024206E+02  0.7546771E-02  0.1462467E+00
          2   -1    0    0  502    0  0.00000000000E+00  0.00000000000E+00  0.37886562758E+03  0.37886562758E+03  0.00000000000E+00 0. -1.
          2   -1    0    0  501    0 -0.00000000000E+00 -0.00000000000E+00 -0.56188639868E+03  0.56188639868E+03  0.00000000000E+00 0. -1.
         25    1    1    2    0    0 -0.25884982736E+02 -0.78823664512E+02 -0.15992493416E+03  0.21928106846E+03  0.12500000000E+03 0.  0.
          2    1    1    2  501    0  0.27443684373E+02 -0.14477351743E+01 -0.36714810321E+03  0.36817520482E+03  0.00000000000E+00 0. -1.
          2    1    1    2  502    0 -0.15587016366E+01  0.80271399686E+02  0.34405226627E+03  0.35329575299E+03  0.00000000000E+00 0. -1.
<mgrwt>
<rscale>  0 0.46959555E+02</rscale>
<asrwt>0</asrwt>
<pdfrwt beam="1">  1        2 0.58287020E-01 0.80242061E+02</pdfrwt>
<pdfrwt beam="2">  1        2 0.86444060E-01 0.27481844E+02</pdfrwt>
<totfact> 0.75015187E+02</totfact>
</mgrwt>
</event>
<event>
 5    1  0.4149151E-003  0.8827879E+02  0.7546771E-02  0.1404314E+00
         -2   -1    0    0    0  501 -0.00000000000E+00  0.00000000000E+00  0.49258805235E+02  0.49258805235E+02  0.00000000000E+00 0.  1.
          1   -1    0    0  502    0  0.00000000000E+00 -0.00000000000E+00 -0.55094295215E+03  0.55094295215E+03  0.00000000000E+00 0. -1.
         25    1    1    2    0    0 -0.90214331249E+02 -0.58698126828E+02 -0.14775908938E+03  0.22145393234E+03  0.12500000000E+03 0.  0.
          1    1    1    2  502    0  0.38580432551E+02  0.35433720726E+01 -0.23272491549E+03  0.23592772527E+03  0.00000000000E+00 0. -1.
         -2    1    1    2    0  501  0.51633898697E+02  0.55154754756E+02 -0.12120014204E+03  0.14282009977E+03  0.00000000000E+00 0.  1.
<mgrwt>
<rscale>  0 0.58482206E+02</rscale>
<asrwt>0</asrwt>
<pdfrwt beam="2">  1        1 0.84760460E-01 0.38742809E+02</pdfrwt>
<pdfrwt beam="1">  1       -2 0.75782772E-02 0.88278792E+02</pdfrwt>
<totfact> 0.34866821E+03</totfact>
</mgrwt>
</event>
<event>
 5    1  0.4149151E-003  0.1303590E+03  0.7546771E-02  0.1271995E+00
          2   -1    0    0  501    0  0.00000000000E+00  0.00000000000E+00  0.12661474414E+03  0.12661474414E+03  0.00000000000E+00 0.  1.
          2   -1    0    0  502    0 -0.00000000000E+00 -0.00000000000E+00 -0.42604364964E+03  0.42604364964E+03  0.00000000000E+00 0. -1.
         25    1    1    2    0    0  0.38000478684E+02 -0.92047694891E+02 -0.64672300258E+02  0.17240742715E+03  0.12500000000E+03 0.  0.
          2    1    1    2  501    0  0.82532380524E+02  0.93190816540E+01  0.20990853642E+02  0.85668284998E+02  0.00000000000E+00 0.  1.
          2    1    1    2  502    0 -0.12053285921E+03  0.82728613237E+02 -0.25574745888E+03  0.29458268163E+03  0.00000000000E+00 0. -1.
<mgrwt>
<rscale>  0 0.10405386E+03</rscale>
<asrwt>0</asrwt>
<pdfrwt beam="1">  1        2 0.19479192E-01 0.83056843E+02</pdfrwt>
<pdfrwt beam="2">  1        2 0.65545176E-01 0.13035900E+03</pdfrwt>
<totfact> 0.31714371E+03</totfact>
</mgrwt>
</event>
<event>
 5    1  0.4149151E-003  0.1712664E+03  0.7546771E-02  0.1264318E+00
          1   -1    0    0  502    0  0.00000000000E+00  0.00000000000E+00  0.92129606199E+03  0.92129606199E+03  0.00000000000E+00 0. -1.
          1   -1    0    0  501    0 -0.00000000000E+00 -0.00000000000E+00 -0.58752280448E+03  0.58752280448E+03  0.00000000000E+00 0. -1.
         25    1    1    2    0    0 -0.21670201993E+03  0.11371673562E+02 -0.23321097755E+03  0.34220087734E+03  0.12500000000E+03 0.  0.
          1    1    1    2  501    0  0.15171563927E+03 -0.31745623121E+02 -0.27832196210E+03  0.31857265164E+03  0.00000000000E+00 0. -1.
          1    1    1    2  502    0  0.64986380666E+02  0.20373949559E+02  0.84530619716E+03  0.84804533750E+03  0.00000000000E+00 0. -1.
<mgrwt>
<rscale>  0 0.10800067E+03</rscale>
<asrwt>0</asrwt>
<pdfrwt beam="1">  1        1 0.14173786E+00 0.68105268E+02</pdfrwt>
<pdfrwt beam="2">  1        1 0.90388124E-01 0.17126642E+03</pdfrwt>
<totfact> 0.88256328E+01</totfact>
</mgrwt>
</event>
<event>
 5    1  0.4149151E-003  0.6984237E+02  0.7546771E-02  0.1388684E+00
          1   -1    0    0  501    0  0.00000000000E+00  0.00000000000E+00  0.13945382443E+04  0.13945382443E+04  0.00000000000E+00 0. -1.
          3   -1    0    0  502    0 -0.00000000000E+00 -0.00000000000E+00 -0.65282895006E+02  0.65282895006E+02  0.00000000000E+00 0. -1.
         25    1    1    2    0    0  0.29953035396E+02 -0.18659452217E+02  0.19463645709E+03  0.23399510660E+03  0.12500000000E+03 0.  0.
          1    1    1    2  501    0  0.45226122615E+02  0.32094343131E+02  0.11471025431E+04  0.11484422900E+04  0.00000000000E+00 0. -1.
          3    1    1    2  502    0 -0.75179158011E+02 -0.13434890914E+02 -0.12483650922E+02  0.77383742695E+02  0.00000000000E+00 0. -1.
<mgrwt>
<rscale>  0 0.62235275E+02</rscale>
<asrwt>0</asrwt>
<pdfrwt beam="1">  1        1 0.21454432E+00 0.55456731E+02</pdfrwt>
<pdfrwt beam="2">  1        3 0.10043523E-01 0.69842369E+02</pdfrwt>
<totfact> 0.34276443E+02</totfact>
</mgrwt>
</event>
<event>
 5    1  0.4149151E-003  0.5431838E+02  0.7546771E-02  0.1442680E+00
          2   -1    0    0  502    0  0.00000000000E+00  0.00000000000E+00  0.29801649881E+03  0.29801649881E+03  0.00000000000E+00 0. -1.
         -1   -1    0    0    0  501 -0.00000000000E+00 -0.00000000000E+00 -0.71705291378E+02  0.71705291378E+02  0.00000000000E+00 0.  1.
         25    1    1    2    0    0 -0.66907641520E+02 -0.11623025593E+02  0.22347930356E+03  0.26491456422E+03  0.12500000000E+03 0.  0.
          2    1    1    2  502    0  0.34221423134E+02 -0.32134794003E+02  0.14146847098E+02  0.49029420451E+02  0.00000000000E+00 0. -1.
         -1    1    1    2    0  501  0.32686218386E+02  0.43757819596E+02 -0.11314943223E+02  0.55777805517E+02  0.00000000000E+00 0.  1.
<mgrwt>
<rscale>  0 0.50496821E+02</rscale>
<asrwt>0</asrwt>
<pdfrwt beam="1">  1        2 0.45848691E-01 0.46944124E+02</pdfrwt>
<pdfrwt beam="2">  1       -1 0.11031583E-01 0.54318384E+02</pdfrwt>
<totfact> 0.58562154E+03</totfact>
</mgrwt>
</event>
<event>
 5    1  0.4149151E-003  0.6306602E+02  0.7546771E-02  0.1411289E+00
          2   -1    0    0  501    0  0.00000000000E+00  0.00000000000E+00  0.23531500354E+04  0.23531500354E+04  0.00000000000E+00 0. -1.
          3   -1    0    0  502    0 -0.00000000000E+00 -0.00000000000E+00 -0.69684248165E+02  0.69684248165E+02  0.00000000000E+00 0. -1.
         25    1    1    2    0    0 -0.85985490028E+02 -0.42463456328E+02  0.36217776791E+03  0.39496124517E+03  0.12500000000E+03 0.  0.
          2    1    1    2  501    0  0.62345881635E+02 -0.31211270694E+01  0.19615983015E+04  0.19625913092E+04  0.00000000000E+00 0. -1.
          3    1    1    2  502    0  0.23639608393E+02  0.45584583397E+02 -0.40310282141E+02  0.65281729256E+02  0.00000000000E+00 0. -1.
<mgrwt>
<rscale>  0 0.56907095E+02</rscale>
<asrwt>0</asrwt>
<pdfrwt beam="1">  1        2 0.36202302E+00 0.63066024E+02</pdfrwt>
<pdfrwt beam="2">  1        3 0.10720655E-01 0.51349638E+02</pdfrwt>
<totfact> 0.20047538E+02</totfact>
</mgrwt>
</event>
<event>
 5    1  0.4149151E-003  0.1686192E+03  0.7546771E-02  0.1347501E+00
         -1   -1    0    0    0  501 -0.00000000000E+00  0.00000000000E+00  0.59386792732E+02  0.59386792732E+02  0.00000000000E+00 0.  1.
          2   -1    0    0  502    0  0.00000000000E+00 -0.00000000000E+00 -0.74872724956E+03  0.74872724956E+03  0.00000000000E+00 0. -1.
         25    1    1    2    0    0 -0.12949632249E+03  0.11831696360E+03 -0.26479930656E+03  0.34133835731E+03  0.12500000000E+03 0.  0.
          2    1    1    2  502    0  0.30824381893E+02  0.97687556744E+01 -0.70187294683E+02  0.77277599869E+02  0.00000000000E+00 0. -1.
         -1    1    1    2    0  501  0.98671940597E+02 -0.12808571927E+03 -0.35435385559E+03  0.38949808512E+03  0.00000000000E+00 0.  1.
<mgrwt>
<rscale>  0 0.73840039E+02</rscale>
<asrwt>0</asrwt>
<pdfrwt beam="2">  1        2 0.11518881E+00 0.32335292E+02</pdfrwt>
<pdfrwt beam="1">  1       -1 0.91364295E-02 0.16861921E+03</pdfrwt>
<totfact> 0.32133434E+03</totfact>
</mgrwt>
</event>
<event>
 5    1  0.4149151E-003  0.1282798E+03  0.7546771E-02  0.1394537E+00
          2   -1    0    0  502    0  0.00000000000E+00  0.00000000000E+00  0.24140185521E+04  0.24140185521E+04  0.00000000000E+00 0. -1.
          2   -1    0    0  501    0 -0.00000000000E+00 -0.00000000000E+00 -0.16428024341E+03  0.16428024341E+03  0.00000000000E+00 0. -1.
         25    1    1    2    0    0 -0.89963177849E+02 -0.10952586646E+03  0.55582333748E+03  0.58707228795E+03  0.12500000000E+03 0.  0.
          2    1    1    2  501    0  0.98057761776E+02  0.81876784353E+02 -0.12107583001E+03  0.17600707109E+03  0.00000000000E+00 0. -1.
          2    1    1    2  502    0 -0.80945839276E+01  0.27649082111E+02  0.18149908012E+04  0.18152194365E+04  0.00000000000E+00 0. -1.
<mgrwt>
<rscale>  0 0.60792206E+02</rscale>
<asrwt>0</asrwt>
<pdfrwt beam="1">  1        2 0.37138744E+00 0.28809617E+02</pdfrwt>
<pdfrwt beam="2">  1        2 0.25273885E-01 0.12827982E+03</pdfrwt>
<totfact> 0.19532074E+02</totfact>
</mgrwt>
</event>
<event>
 5    1  0.4149151E-003  0.6274654E+02  0.7546771E-02  0.1482034E+00
          1   -1    0    0  502    0  0.00000000000E+00  0.00000000000E+00  0.26943391106E+03  0.26943391106E+03  0.00000000000E+00 0. -1.
         -2   -1    0    0    0  501 -0.00000000000E+00 -0.00000000000E+00 -0.91469366083E+02  0.91469366083E+02  0.00000000000E+00 0.  1.
         25    1    1    2    0    0  0.43217369091E+02  0.78986174720E+02  0.10578958748E+02  0.15441331276E+03  0.12500000000E+03 0.  0.
          1    1    1    2  502    0 -0.35200279184E+02 -0.49494603709E+02  0.16501395744E+03  0.17583623518E+03  0.00000000000E+00 0. -1.
         -2    1    1    2    0  501 -0.80170899076E+01 -0.29491571010E+02  0.23716287852E+01  0.30653729208E+02  0.00000000000E+00 0.  1.
<mgrwt>
<rscale>  0 0.43790984E+02</rscale>
<asrwt>0</asrwt>
<pdfrwt beam="1">  1        1 0.41451370E-01 0.62746545E+02</pdfrwt>
<pdfrwt beam="2">  1       -2 0.14072210E-01 0.30561847E+02</pdfrwt>
<totfact> 0.29451798E+03</totfact>
</mgrwt>
</event>
<event>
 5    1  0.4149151E-003  0.1462935E+03  0.7546771E-02  0.1254736E+00
          2   -1    0    0  502    0  0.00000000000E+00  0.00000000000E+00  0.37926131023E+03  0.37926131023E+03  0.00000000000E+00 0. -1.
          2   -1    0    0  501    0 -0.00000000000E+00 -0.00000000000E+00 -0.89011721571E+03  0.89011721571E+03  0.00000000000E+00 0.  1.
         25    1    1    2    0    0  0.19341175619E+02  0.13613419990E+03 -0.30667624492E+03  0.35858321301E+03  0.12500000000E+03 0.  0.
          2    1    1    2  501    0 -0.87473173306E+02 -0.49036388192E+01 -0.53831900701E+03  0.54540164561E+03  0.00000000000E+00 0.  1.
          2    1    1    2  502    0  0.68131997687E+02 -0.13123056108E+03  0.33413934645E+03  0.36539366732E+03  0.00000000000E+00 0. -1.
<mgrwt>
<rscale>  0 0.11321151E+03</rscale>
<asrwt>0</asrwt>
<pdfrwt beam="1">  1        2 0.58347894E-01 0.14629347E+03</pdfrwt>
<pdfrwt beam="2">  1        2 0.13694111E+00 0.87610511E+02</pdfrwt>
<totfact> 0.42697952E+02</totfact>
</mgrwt>
</event>
<event>
 5    1  0.4149151E-003  0.8074569E+02  0.7546771E-02  0.1426974E+00
          2   -1    0    0  501    0  0.00000000000E+00  0.00000000000E+00  0.23045528072E+03  0.23045528072E+03  0.00000000000E+00 0. -1.
          1   -1    0    0  502    0 -0.00000000000E+00 -0.00000000000E+00 -0.16896711522E+03  0.16896711522E+03  0.00000000000E+00 0. -1.
         25    1    1    2    0    0  0.10053635344E+03  0.20491966606E+01  0.26520162349E+02  0.16260404848E+03  0.12500000000E+03 0.  0.
          2    1    1    2  501    0 -0.26673519980E+02  0.23491873667E+02  0.11773498334E+03  0.12298321470E+03  0.00000000000E+00 0. -1.
          1    1    1    2  502    0 -0.73862833458E+02 -0.25541070328E+02 -0.82766980190E+02  0.11383513276E+03  0.00000000000E+00 0. -1.
<mgrwt>
<rscale>  0 0.53572281E+02</rscale>
<asrwt>0</asrwt>
<pdfrwt beam="1">  1        2 0.35454659E-01 0.35543562E+02</pdfrwt>
<pdfrwt beam="2">  1        1 0.25994941E-01 0.80745686E+02</pdfrwt>
<totfact> 0.33721331E+03</totfact>
</mgrwt>
</event>
<event>
 5    1  0.4149151E-003  0.7352281E+02  0.7546771E-02  0.1421210E+00
          2   -1    0    0  502    0  0.00000000000E+00  0.00000000000E+00  0.19796189552E+03  0.19796189552E+03  0.00000000000E+00 0. -1.
          2   -1    0    0  501    0 -0.00000000000E+00 -0.00000000000E+00 -0.28128326750E+03  0.28128326750E+03  0.00000000000E+00 0. -1.
         25    1    1    2    0    0  0.80765826265E+01 -0.10866351749E+03 -0.75946967831E+02  0.18238950941E+03  0.12500000000E+03 0.  0.
          2    1    1    2  501    0 -0.22855222882E+01  0.68282752871E+02 -0.14124854077E+03  0.15690413704E+03  0.00000000000E+00 0. -1.
          2    1    1    2  502    0 -0.57910603384E+01  0.40380764616E+02  0.13387413662E+03  0.13995151656E+03  0.00000000000E+00 0. -1.
<mgrwt>
<rscale>  0 0.54765706E+02</rscale>
<asrwt>0</asrwt>
<pdfrwt beam="1">  1        2 0.30455676E-01 0.40793903E+02</pdfrwt>
<pdfrwt beam="2">  1        2 0.43274349E-01 0.73522814E+02</pdfrwt>
<totfact> 0.29557762E+03</totfact>
</mgrwt>
</event>
<event>
 5    1  0.4149151E-003  0.1630996E+03  0.7546771E-02  0.1272888E+00
          1   -1    0    0  502    0 -0.00000000000E+00  0.00000000000E+00  0.27277455389E+04  0.27277455389E+04  0.00000000000E+00 0. -1.
          2   -1    0    0  501    0  0.00000000000E+00 -0.00000000000E+00 -0.68105064165E+03  0.68105064165E+03  0.00000000000E+00 0. -1.
         25    1    1    2    0    0  0.10341538228E+03 -0.54503027753E+02  0.62439753837E+03  0.64742768496E+03  0.12500000000E+03 0.  0.
          2    1    1    2  501    0 -0.11193533966E+03  0.11976467493E+03 -0.65897334976E+03  0.67905741534E+03  0.00000000000E+00 0. -1.
          1    1    1    2  502    0  0.85199573817E+01 -0.65261647179E+02  0.20812707087E+04  0.20823110803E+04  0.00000000000E+00 0. -1.
<mgrwt>
<rscale>  0 0.10360729E+03</rscale>
<asrwt>0</asrwt>
<pdfrwt beam="2">  1        2 0.10477702E+00 0.16309959E+03</pdfrwt>
<pdfrwt beam="1">  1        1 0.41965315E+00 0.65815441E+02</pdfrwt>
<totfact> 0.83872376E+00</totfact>
</mgrwt>
</event>
<event>
 5    1  0.4149151E-003  0.5762823E+02  0.7546771E-02  0.1420789E+00
          2   -1    0    0  502    0  0.00000000000E+00  0.00000000000E+00  0.11136528288E+04  0.11136528288E+04  0.00000000000E+00 0. -1.
         -1   -1    0    0    0  501 -0.00000000000E+00 -0.00000000000E+00 -0.27093630764E+03  0.27093630764E+03  0.00000000000E+00 0.  1.
         25    1    1    2    0    0 -0.10336536656E+03 -0.89108297073E+01  0.76023019586E+02  0.17935523800E+03  0.12500000000E+03 0.  0.
          2    1    1    2  502    0  0.48099842582E+02  0.20314666906E+02  0.98162774365E+03  0.98301541577E+03  0.00000000000E+00 0. -1.
         -1    1    1    2    0  501  0.55265523978E+02 -0.11403837199E+02 -0.21493424205E+03  0.22221848269E+03  0.00000000000E+00 0.  1.
<mgrwt>
<rscale>  0 0.54854249E+02</rscale>
<asrwt>0</asrwt>
<pdfrwt beam="1">  1        2 0.17133120E+00 0.52213797E+02</pdfrwt>
<pdfrwt beam="2">  1       -1 0.41682510E-01 0.57628229E+02</pdfrwt>
<totfact> 0.16242215E+02</totfact>
</mgrwt>
</event>
<event>
 5    1  0.4149151E-003  0.2404097E+02  0.7546771E-02  0.1686835E+00
         -1   -1    0    0    0  501 -0.00000000000E+00  0.00000000000E+00  0.12140488111E+02  0.12140488111E+02  0.00000000000E+00 0.  1.
          2   -1    0    0  502    0  0.00000000000E+00 -0.00000000000E+00 -0.11435396059E+04  0.11435396059E+04  0.00000000000E+00 0. -1.
         25    1    1    2    0    0  0.38501327770E+00 -0.93803981889E+01 -0.93362621016E+03  0.94200373694E+03  0.12500000000E+03 0.  0.
          2    1    1    2  502    0 -0.20388172077E+02  0.19822351133E+02 -0.18612139582E+03  0.18828111203E+03  0.00000000000E+00 0. -1.
         -1    1    1    2    0  501  0.20003158799E+02 -0.10441952944E+02 -0.11651511801E+02  0.25395245036E+02  0.00000000000E+00 0.  1.
<mgrwt>
<rscale>  0 0.23291086E+02</rscale>
<asrwt>0</asrwt>
<pdfrwt beam="2">  1        2 0.17592918E+00 0.24040972E+02</pdfrwt>
<pdfrwt beam="1">  1       -1 0.18677673E-02 0.22564590E+02</pdfrwt>
<totfact> 0.14985373E+04</totfact>
</mgrwt>
</event>
<event>
 5    1  0.4149151E-003  0.1215786E+03  0.7546771E-02  0.1279266E+00
          2   -1    0    0  501    0  0.00000000000E+00  0.00000000000E+00  0.39850607993E+03  0.39850607993E+03  0.00000000000E+00 0.  1.
          1   -1    0    0  502    0 -0.00000000000E+00 -0.00000000000E+00 -0.12410762614E+04  0.12410762614E+04  0.00000000000E+00 0. -1.
         25    1    1    2    0    0 -0.87492290882E+02  0.17590441199E+03 -0.22640091292E+03  0.32477628684E+03  0.12500000000E+03 0.  0.
          2    1    1    2  501    0  0.51291637155E+02 -0.65332799701E+02  0.34080714881E+03  0.35078300905E+03  0.00000000000E+00 0.  1.
          1    1    1    2  502    0  0.36200653726E+02 -0.11057161229E+03 -0.95697641734E+03  0.96402304543E+03  0.00000000000E+00 0. -1.
<mgrwt>
<rscale>  0 0.10049126E+03</rscale>
<asrwt>0</asrwt>
<pdfrwt beam="1">  1        2 0.61308628E-01 0.83061464E+02</pdfrwt>
<pdfrwt beam="2">  1        1 0.19093481E+00 0.12157856E+03</pdfrwt>
<totfact> 0.12598747E+02</totfact>
</mgrwt>
</event>
<event>
 5    1  0.4149151E-003  0.1643474E+03  0.7546771E-02  0.1244629E+00
          1   -1    0    0  502    0 -0.00000000000E+00  0.00000000000E+00  0.73456743166E+03  0.73456743166E+03  0.00000000000E+00 0. -1.
          2   -1    0    0  501    0  0.00000000000E+00 -0.00000000000E+00 -0.48903506184E+03  0.48903506184E+03  0.00000000000E+00 0. -1.
         25    1    1    2    0    0 -0.47775915799E+02  0.95778922077E+02 -0.77889399584E+02  0.18206564369E+03  0.12500000000E+03 0.  0.
          2    1    1    2  501    0  0.91640506073E+02 -0.17007093347E+03 -0.33002911313E+03  0.38241511513E+03  0.00000000000E+00 0. -1.
          1    1    1    2  502    0 -0.43864590274E+02  0.74292011397E+02  0.65345088254E+03  0.65912173468E+03  0.00000000000E+00 0. -1.
<mgrwt>
<rscale>  0 0.11907604E+03</rscale>
<asrwt>0</asrwt>
<pdfrwt beam="2">  1        2 0.75236163E-01 0.16434744E+03</pdfrwt>
<pdfrwt beam="1">  1        1 0.11301037E+00 0.86275172E+02</pdfrwt>
<totfact> 0.24271303E+02</totfact>
</mgrwt>
</event>
<event>
 5    1  0.4149151E-003  0.4476218E+02  0.7546771E-02  0.1486301E+00
          1   -1    0    0  502    0  0.00000000000E+00  0.00000000000E+00  0.45445920665E+03  0.45445920665E+03  0.00000000000E+00 0. -1.
         -1   -1    0    0    0  501 -0.00000000000E+00 -0.00000000000E+00 -0.35259400195E+02  0.35259400195E+02  0.00000000000E+00 0.  1.
         25    1    1    2    0    0  0.76605911598E+01 -0.37404072804E+02  0.33933720678E+03  0.36363785450E+03  0.12500000000E+03 0.  0.
          1    1    1    2  502    0 -0.41306231290E+02  0.47288219887E+01  0.64479601630E+02  0.76721480220E+02  0.00000000000E+00 0. -1.
         -1    1    1    2    0  501  0.33645640130E+02  0.32675250815E+02  0.15382998039E+02  0.49359272121E+02  0.00000000000E+00 0.  1.
<mgrwt>
<rscale>  0 0.43139704E+02</rscale>
<asrwt>0</asrwt>
<pdfrwt beam="1">  1        1 0.69916797E-01 0.41576033E+02</pdfrwt>
<pdfrwt beam="2">  1       -1 0.54245234E-02 0.44762185E+02</pdfrwt>
<totfact> 0.69928959E+03</totfact>
</mgrwt>
</event>
<event>
 5    1  0.4149151E-003  0.7875959E+02  0.7546771E-02  0.1456950E+00
          1   -1    0    0  501    0  0.00000000000E+00  0.00000000000E+00  0.17165267423E+04  0.17165267423E+04  0.00000000000E+00 0. -1.
          1   -1    0    0  502    0 -0.00000000000E+00 -0.00000000000E+00 -0.21886442313E+03  0.21886442313E+03  0.00000000000E+00 0. -1.
         25    1    1    2    0    0 -0.27325394706E+02 -0.59632772714E+02  0.23253393464E+03  0.27202899760E+03  0.12500000000E+03 0.  0.
          1    1    1    2  501    0  0.56291866998E+02  0.56417949374E+02  0.14620877119E+04  0.14642582547E+04  0.00000000000E+00 0. -1.
          1    1    1    2  502    0 -0.28966472292E+02  0.32148233400E+01 -0.19695932732E+03  0.19910391313E+03  0.00000000000E+00 0. -1.
<mgrwt>
<rscale>  0 0.47910282E+02</rscale>
<asrwt>0</asrwt>
<pdfrwt beam="1">  1        1 0.26408103E+00 0.78759595E+02</pdfrwt>
<pdfrwt beam="2">  1        1 0.33671451E-01 0.29144324E+02</pdfrwt>
<totfact> 0.89011554E+01</totfact>
</mgrwt>
</event>
<event>
 5    1  0.4149151E-003  0.5254070E+02  0.7546771E-02  0.1570016E+00
          2   -1    0    0  502    0  0.00000000000E+00  0.00000000000E+00  0.29338505241E+03  0.29338505241E+03  0.00000000000E+00 0. -1.
         -1   -1    0    0    0  501 -0.00000000000E+00 -0.00000000000E+00 -0.40590802028E+02  0.40590802028E+02  0.00000000000E+00 0.  1.
         25    1    1    2    0    0  0.16895090468E+02  0.36670697755E+02  0.16291531645E+03  0.20927633524E+03  0.12500000000E+03 0.  0.
          2    1    1    2  502    0  0.19372674914E+02  0.62412565886E+01  0.54812406187E+02  0.58469254220E+02  0.00000000000E+00 0. -1.
         -1    1    1    2    0  501 -0.36267765382E+02 -0.42911954344E+02  0.35066527745E+02  0.66230264982E+02  0.00000000000E+00 0.  1.
<mgrwt>
<rscale>  0 0.32701266E+02</rscale>
<asrwt>0</asrwt>
<pdfrwt beam="1">  1        2 0.45136161E-01 0.20353226E+02</pdfrwt>
<pdfrwt beam="2">  1       -1 0.62447390E-02 0.52540701E+02</pdfrwt>
<totfact> 0.13511395E+04</totfact>
</mgrwt>
</event>
<event>
 5    1  0.4149151E-003  0.1047115E+03  0.7546771E-02  0.1303988E+00
          1   -1    0    0  502    0  0.00000000000E+00  0.00000000000E+00  0.28739971217E+04  0.28739971217E+04  0.00000000000E+00 0. -1.
         -1   -1    0    0    0  501 -0.00000000000E+00 -0.00000000000E+00 -0.14087030505E+02  0.14087030505E+02  0.00000000000E+00 0.  1.
         25    1    1    2    0    0 -0.62449333731E+02 -0.14850893505E+03  0.12752183436E+04  0.12914184631E+04  0.12500000000E+03 0.  0.
          1    1    1    2  502    0  0.96621855513E+01  0.93065683113E+02  0.12423781168E+04  0.12458964501E+04  0.00000000000E+00 0. -1.
         -1    1    1    2    0  501  0.52787148179E+02  0.55443251942E+02  0.34231363087E+03  0.35076923907E+03  0.00000000000E+00 0.  1.
<mgrwt>
<rscale>  0 0.89532295E+02</rscale>
<asrwt>0</asrwt>
<pdfrwt beam="1">  1        1 0.44215294E+00 0.10471151E+03</pdfrwt>
<pdfrwt beam="2">  1       -1 0.21672378E-02 0.76553492E+02</pdfrwt>
<totfact> 0.53891625E+02</totfact>
</mgrwt>
</event>
<event>
 5    1  0.4149151E-003  0.6222766E+02  0.7546771E-02  0.1517288E+00
          1   -1    0    0  501    0  0.00000000000E+00  0.00000000000E+00  0.57287675839E+03  0.57287675839E+03  0.00000000000E+00 0. -1.
          1   -1    0    0  502    0 -0.00000000000E+00 -0.00000000000E+00 -0.27846397205E+03  0.27846397205E+03  0.00000000000E+00 0. -1.
         25    1    1    2    0    0  0.24019979212E+02  0.53021774163E+02 -0.68330658175E+02  0.15389069752E+03  0.12500000000E+03 0.  0.
          1    1    1    2  501    0 -0.17059194392E+01 -0.62344938116E+02  0.52737584148E+03  0.53105092001E+03  0.00000000000E+00 0. -1.
          1    1    1    2  502    0 -0.22314059772E+02  0.93231639529E+01 -0.16463239696E+03  0.16639911292E+03  0.00000000000E+00 0. -1.
<mgrwt>
<rscale>  0 0.38792768E+02</rscale>
<asrwt>0</asrwt>
<pdfrwt beam="1">  1        1 0.88134886E-01 0.62227664E+02</pdfrwt>
<pdfrwt beam="2">  1        1 0.42840611E-01 0.24183438E+02</pdfrwt>
<totfact> 0.44651534E+02</totfact>
</mgrwt>
</event>
<event>
 5    1  0.4149151E-003  0.1331467E+03  0.7546771E-02  0.1224730E+00
          1   -1    0    0  502    0 -0.00000000000E+00  0.00000000000E+00  0.41089495603E+02  0.41089495603E+02  0.00000000000E+00 0. -1.
          2   -1    0    0  501    0  0.00000000000E+00 -0.00000000000E+00 -0.17921654403E+04  0.17921654403E+04  0.00000000000E+00 0. -1.
         25    1    1    2    0    0  0.53364625109E+02 -0.61628725309E+02 -0.77974210694E+03  0.79389460027E+03  0.12500000000E+03 0.  0.
          2    1    1    2  501    0  0.96853821728E+02  0.91363967604E+02 -0.79388123761E+03  0.80496922723E+03  0.00000000000E+00 0. -1.
          1    1    1    2  502    0 -0.15021844684E+03 -0.29735242294E+02 -0.17745260018E+03  0.23439110844E+03  0.00000000000E+00 0. -1.
<mgrwt>
<rscale>  0 0.13185424E+03</rscale>
<asrwt>0</asrwt>
<pdfrwt beam="2">  1        2 0.27571781E+00 0.13314668E+03</pdfrwt>
<pdfrwt beam="1">  1        1 0.63214597E-02 0.13057434E+03</pdfrwt>
<totfact> 0.15774684E+03</totfact>
</mgrwt>
</event>
<event>
 5    1  0.4149151E-003  0.2464273E+03  0.7546771E-02  0.1345367E+00
          2   -1    0    0  502    0  0.00000000000E+00  0.00000000000E+00  0.11665855097E+04  0.11665855097E+04  0.00000000000E+00 0. -1.
          2   -1    0    0  501    0 -0.00000000000E+00 -0.00000000000E+00 -0.20809160636E+03  0.20809160636E+03  0.00000000000E+00 0. -1.
         25    1    1    2    0    0  0.28623044853E+02  0.23339423815E+03  0.43618148885E+03  0.51104935213E+03  0.12500000000E+03 0.  0.
          2    1    1    2  501    0 -0.48553950776E+02 -0.24390869106E+03 -0.79731036543E+02  0.26116273451E+03  0.00000000000E+00 0. -1.
          2    1    1    2  502    0  0.19930905923E+02  0.10514452907E+02  0.60204345099E+03  0.60246502937E+03  0.00000000000E+00 0. -1.
<mgrwt>
<rscale>  0 0.74518909E+02</rscale>
<asrwt>0</asrwt>
<pdfrwt beam="1">  1        2 0.17947469E+00 0.22534301E+02</pdfrwt>
<pdfrwt beam="2">  1        2 0.32014094E-01 0.24642733E+03</pdfrwt>
<totfact> 0.61696811E+02</totfact>
</mgrwt>
</event>
<event>
 5    1  0.4149151E-003  0.4047197E+02  0.7546771E-02  0.1519485E+00
         -1   -1    0    0    0  501 -0.00000000000E+00  0.00000000000E+00  0.18712947497E+02  0.18712947497E+02  0.00000000000E+00 0.  1.
          2   -1    0    0  502    0  0.00000000000E+00 -0.00000000000E+00 -0.86082921217E+03  0.86082921217E+03  0.00000000000E+00 0. -1.
         25    1    1    2    0    0 -0.11684098448E+02  0.65125732448E+01 -0.23027102996E+03  0.26235220411E+03  0.12500000000E+03 0.  0.
          2    1    1    2  502    0  0.38873839929E+02  0.18047637835E+02 -0.38882498420E+03  0.39117995987E+03  0.00000000000E+00 0. -1.
         -1    1    1    2    0  501 -0.27189741481E+02 -0.24560211080E+02 -0.22302025052E+03  0.22600999569E+03  0.00000000000E+00 0.  1.
<mgrwt>
<rscale>  0 0.38508324E+02</rscale>
<asrwt>0</asrwt>
<pdfrwt beam="2">  1        2 0.13243525E+00 0.40471970E+02</pdfrwt>
<pdfrwt beam="1">  1       -1 0.28789154E-02 0.36639951E+02</pdfrwt>
<totfact> 0.12523816E+04</totfact>
</mgrwt>
</event>
<event>
 5    1  0.4149151E-003  0.9010628E+02  0.7546771E-02  0.1357514E+00
          3   -1    0    0  502    0 -0.00000000000E+00  0.00000000000E+00  0.20302516178E+03  0.20302516178E+03  0.00000000000E+00 0. -1.
          2   -1    0    0  501    0  0.00000000000E+00 -0.00000000000E+00 -0.39127211103E+03  0.39127211103E+03  0.00000000000E+00 0. -1.
         25    1    1    2    0    0  0.20905128571E+02  0.11937729710E+03  0.67685412416E+02  0.18680010310E+03  0.12500000000E+03 0.  0.
          2    1    1    2  501    0 -0.51318292161E+02 -0.72864229098E+02 -0.31442625272E+03  0.32681283848E+03  0.00000000000E+00 0. -1.
          3    1    1    2  502    0  0.30413163589E+02 -0.46513068002E+02  0.58493891061E+02  0.80684331230E+02  0.00000000000E+00 0. -1.
<mgrwt>
<rscale>  0 0.70763911E+02</rscale>
<asrwt>0</asrwt>
<pdfrwt beam="2">  1        2 0.60195710E-01 0.90106279E+02</pdfrwt>
<pdfrwt beam="1">  1        3 0.31234640E-01 0.55573609E+02</pdfrwt>
<totfact> 0.45986183E+02</totfact>
</mgrwt>
</event>
<event>
 5    1  0.4149151E-003  0.1732133E+03  0.7546771E-02  0.1321126E+00
          1   -1    0    0  502    0 -0.00000000000E+00  0.00000000000E+00  0.73199251522E+02  0.73199251522E+02  0.00000000000E+00 0. -1.
          2   -1    0    0  501    0  0.00000000000E+00 -0.00000000000E+00 -0.12548684895E+04  0.12548684895E+04  0.00000000000E+00 0. -1.
         25    1    1    2    0    0 -0.17010519207E+03  0.21540760410E+02 -0.38093177881E+03  0.43604334743E+03  0.12500000000E+03 0.  0.
          2    1    1    2  501    0  0.57134349076E+01  0.39223547199E+02 -0.67538643890E+03  0.67654857316E+03  0.00000000000E+00 0. -1.
          1    1    1    2  502    0  0.16439175716E+03 -0.60764307609E+02 -0.12535102023E+03  0.21547582040E+03  0.00000000000E+00 0. -1.
<mgrwt>
<rscale>  0 0.82859763E+02</rscale>
<asrwt>0</asrwt>
<pdfrwt beam="2">  1        2 0.19305668E+00 0.39637482E+02</pdfrwt>
<pdfrwt beam="1">  1        1 0.11261424E-01 0.17321333E+03</pdfrwt>
<totfact> 0.15334188E+03</totfact>
</mgrwt>
</event>
<event>
 5    1  0.4149151E-003  0.7721686E+02  0.7546771E-02  0.1438192E+00
          3   -1    0    0  502    0 -0.00000000000E+00  0.00000000000E+00  0.57452468822E+03  0.57452468822E+03  0.00000000000E+00 0. -1.
          1   -1    0    0  501    0  0.00000000000E+00 -0.00000000000E+00 -0.14166775645E+04  0.14166775645E+04  0.00000000000E+00 0. -1.
         25    1    1    2    0    0  0.71261381060E+02 -0.32243171894E+02 -0.23298220326E+03  0.27572361814E+03  0.12500000000E+03 0.  0.
          1    1    1    2  501    0 -0.77575353431E+02 -0.13166149173E+01 -0.11605010455E+04  0.11630917185E+04  0.00000000000E+00 0. -1.
          3    1    1    2  502    0  0.63139723705E+01  0.33559786812E+02  0.55133037246E+03  0.55238691615E+03  0.00000000000E+00 0. -1.
<mgrwt>
<rscale>  0 0.51350230E+02</rscale>
<asrwt>0</asrwt>
<pdfrwt beam="2">  1        1 0.21795039E+00 0.77216859E+02</pdfrwt>
<pdfrwt beam="1">  1        3 0.88388414E-01 0.34148580E+02</pdfrwt>
<totfact> 0.56295508E+00</totfact>
</mgrwt>
</event>
<event>
 5    1  0.4149151E-003  0.6306440E+02  0.7546771E-02  0.1399733E+00
          2   -1    0    0  501    0  0.00000000000E+00  0.00000000000E+00  0.13116969267E+04  0.13116969267E+04  0.00000000000E+00 0.  1.
          3   -1    0    0  502    0 -0.00000000000E+00 -0.00000000000E+00 -0.47158873569E+03  0.47158873569E+03  0.00000000000E+00 0. -1.
         25    1    1    2    0    0  0.11131840586E+03  0.31789878603E+02  0.22640704905E+03  0.28335055271E+03  0.12500000000E+03 0.  0.
          2    1    1    2  501    0 -0.48808960979E+02 -0.27919872282E+02  0.10538518794E+04  0.10553509452E+04  0.00000000000E+00 0.  1.
          3    1    1    2  502    0 -0.62509444877E+02 -0.38700063209E+01 -0.44015073740E+03  0.44458416446E+03  0.00000000000E+00 0. -1.
<mgrwt>
<rscale>  0 0.59549333E+02</rscale>
<asrwt>0</asrwt>
<pdfrwt beam="1">  1        2 0.20179953E+00 0.56230187E+02</pdfrwt>
<pdfrwt beam="2">  1        3 0.72552113E-01 0.63064400E+02</pdfrwt>
<totfact> 0.21246468E+01</totfact>
</mgrwt>
</event>
<event>
 5    1  0.4149151E-003  0.3493241E+02  0.7546771E-02  0.1551565E+00
          2   -1    0    0  502    0  0.00000000000E+00  0.00000000000E+00  0.25527332376E+03  0.25527332376E+03  0.00000000000E+00 0. -1.
         -1   -1    0    0    0  501 -0.00000000000E+00 -0.00000000000E+00 -0.53114196893E+02  0.53114196893E+02  0.00000000000E+00 0.  1.
         25    1    1    2    0    0  0.23546065395E+02 -0.16319252975E+02  0.17752875760E+03  0.21900272827E+03  0.12500000000E+03 0.  0.
          2    1    1    2  502    0 -0.47072146977E+02 -0.87870660620E+01  0.14669919546E+01  0.47907740673E+02  0.00000000000E+00 0. -1.
         -1    1    1    2    0  501  0.23526081581E+02  0.25106319037E+02  0.23163377304E+02  0.41477051707E+02  0.00000000000E+00 0.  1.
<mgrwt>
<rscale>  0 0.34668430E+02</rscale>
<asrwt>0</asrwt>
<pdfrwt beam="1">  1        2 0.39272818E-01 0.34932405E+02</pdfrwt>
<pdfrwt beam="2">  1       -1 0.81714151E-02 0.34406450E+02</pdfrwt>
<totfact> 0.10189027E+04</totfact>
</mgrwt>
</event>
<event>
 5    1  0.4149151E-003  0.4505575E+02  0.7546771E-02  0.1579525E+00
          2   -1    0    0  502    0  0.00000000000E+00  0.00000000000E+00  0.15789647052E+04  0.15789647052E+04  0.00000000000E+00 0. -1.
          2   -1    0    0  501    0 -0.00000000000E+00 -0.00000000000E+00 -0.21923709525E+04  0.21923709525E+04  0.00000000000E+00 0. -1.
         25    1    1    2    0    0  0.49429406310E+02  0.39872296600E+02  0.23687384763E+03  0.27525858013E+03  0.12500000000E+03 0.  0.
          2    1    1    2  501    0 -0.27447776340E+02 -0.35710923637E+02 -0.21728506000E+04  0.21733173676E+04  0.00000000000E+00 0. -1.
          2    1    1    2  502    0 -0.21981629970E+02 -0.41613729629E+01  0.13225705051E+04  0.13227597099E+04  0.00000000000E+00 0. -1.
<mgrwt>
<rscale>  0 0.31748857E+02</rscale>
<asrwt>0</asrwt>
<pdfrwt beam="1">  1        2 0.24291765E+00 0.22372060E+02</pdfrwt>
<pdfrwt beam="2">  1        2 0.33728784E+00 0.45055747E+02</pdfrwt>
<totfact> 0.17623637E+01</totfact>
</mgrwt>
</event>
<event>
 5    1  0.4149151E-003  0.9492828E+02  0.7546771E-02  0.1354783E+00
          2   -1    0    0  501    0  0.00000000000E+00  0.00000000000E+00  0.20645211694E+03  0.20645211694E+03  0.00000000000E+00 0. -1.
          2   -1    0    0  502    0 -0.00000000000E+00 -0.00000000000E+00 -0.13126420931E+04  0.13126420931E+04  0.00000000000E+00 0. -1.
         25    1    1    2    0    0 -0.65022070967E+02 -0.97662030385E+02 -0.23437036192E+03  0.29037942151E+03  0.12500000000E+03 0.  0.
          2    1    1    2  501    0  0.53817534784E+02  0.42207249451E+01  0.17219939624E+03  0.18046266549E+03  0.00000000000E+00 0. -1.
          2    1    1    2  502    0  0.11204536183E+02  0.93441305440E+02 -0.10440190105E+04  0.10482521230E+04  0.00000000000E+00 0. -1.
<mgrwt>
<rscale>  0 0.71585566E+02</rscale>
<asrwt>0</asrwt>
<pdfrwt beam="1">  1        2 0.31761865E-01 0.53982790E+02</pdfrwt>
<pdfrwt beam="2">  1        2 0.20194493E+00 0.94928278E+02</pdfrwt>
<totfact> 0.45918060E+02</totfact>
</mgrwt>
</event>
<event>
 5    1  0.4149151E-003  0.1048826E+03  0.7546771E-02  0.1371914E+00
          1   -1    0    0  502    0  0.00000000000E+00  0.00000000000E+00  0.16952239533E+04  0.16952239533E+04  0.00000000000E+00 0. -1.
          1   -1    0    0  501    0 -0.00000000000E+00 -0.00000000000E+00 -0.48558337730E+03  0.48558337730E+03  0.00000000000E+00 0. -1.
         25    1    1    2    0    0 -0.38457462052E+02 -0.60238870149E+02  0.24643872442E+03  0.28542029143E+03  0.12500000000E+03 0.  0.
          1    1    1    2  501    0 -0.39407412036E+02 -0.15480015651E+02 -0.46306212350E+03  0.46499366150E+03  0.00000000000E+00 0. -1.
          1    1    1    2  502    0  0.77864874088E+02  0.75718885799E+02  0.14262639750E+04  0.14303933776E+04  0.00000000000E+00 0. -1.
<mgrwt>
<rscale>  0 0.66637867E+02</rscale>
<asrwt>0</asrwt>
<pdfrwt beam="1">  1        1 0.26080368E+00 0.10488261E+03</pdfrwt>
<pdfrwt beam="2">  1        1 0.74705136E-01 0.42338812E+02</pdfrwt>
<totfact> 0.34601046E+01</totfact>
</mgrwt>
</event>
<event>
 5    1  0.4149151E-003  0.2159245E+03  0.7546771E-02  0.1137196E+00
         -1   -1    0    0    0  501 -0.00000000000E+00  0.00000000000E+00  0.21417932399E+03  0.21417932399E+03  0.00000000000E+00 0. -1.
          1   -1    0    0  502    0  0.00000000000E+00 -0.00000000000E+00 -0.10425752252E+04  0.10425752252E+04  0.00000000000E+00 0. -1.
         25    1    1    2    0    0  0.27100322606E+03 -0.64283230982E+02 -0.21126550878E+03  0.37125893595E+03  0.12500000000E+03 0.  0.
          1    1    1    2  502    0 -0.17719770649E+03 -0.12951161422E+03 -0.63264244389E+03  0.66963329309E+03  0.00000000000E+00 0. -1.
         -1    1    1    2    0  501 -0.93805519568E+02  0.19379484520E+03  0.15512051440E+02  0.21586232017E+03  0.00000000000E+00 0. -1.
<mgrwt>
<rscale>  0 0.21561416E+03</rscale>
<asrwt>0</asrwt>
<pdfrwt beam="2">  1        1 0.16039619E+00 0.21592453E+03</pdfrwt>
<pdfrwt beam="1">  1       -1 0.32950665E-01 0.21530424E+03</pdfrwt>
<totfact> 0.13231964E+02</totfact>
</mgrwt>
</event>
<event>
 5    1  0.4149151E-003  0.7889111E+02  0.7546771E-02  0.1345936E+00
          2   -1    0    0  502    0  0.00000000000E+00  0.00000000000E+00  0.59955906515E+03  0.59955906515E+03  0.00000000000E+00 0. -1.
          2   -1    0    0  501    0 -0.00000000000E+00 -0.00000000000E+00 -0.13892771168E+04  0.13892771168E+04  0.00000000000E+00 0. -1.
         25    1    1    2    0    0  0.75799031565E+01  0.13707252583E+03  0.99491646943E+02  0.21064168647E+03  0.12500000000E+03 0.  0.
          2    1    1    2  501    0 -0.32346665289E+02 -0.71551359071E+02 -0.13297771367E+04  0.13320935166E+04  0.00000000000E+00 0. -1.
          2    1    1    2  502    0  0.24766762132E+02 -0.65521166756E+02  0.44056743811E+03  0.44610097884E+03  0.00000000000E+00 0. -1.
<mgrwt>
<rscale>  0 0.74337014E+02</rscale>
<asrwt>0</asrwt>
<pdfrwt beam="1">  1        2 0.92239856E-01 0.70045812E+02</pdfrwt>
<pdfrwt beam="2">  1        2 0.21373494E+00 0.78891108E+02</pdfrwt>
<totfact> 0.13937889E+02</totfact>
</mgrwt>
</event>
<event>
 5    1  0.4149151E-003  0.6873798E+02  0.7546771E-02  0.1413937E+00
          2   -1    0    0  501    0  0.00000000000E+00  0.00000000000E+00  0.13783792654E+04  0.13783792654E+04  0.00000000000E+00 0. -1.
          2   -1    0    0  502    0 -0.00000000000E+00 -0.00000000000E+00 -0.17027308067E+03  0.17027308067E+03  0.00000000000E+00 0. -1.
         25    1    1    2    0    0 -0.40568116799E+02 -0.30982260750E+02  0.12786153451E+02  0.13562506517E+03  0.12500000000E+03 0.  0.
          2    1    1    2  501    0  0.22693467281E+02 -0.40187991050E+02  0.12913475471E+04  0.12921720301E+04  0.00000000000E+00 0. -1.
          2    1    1    2  502    0  0.17874649519E+02  0.71170251800E+02 -0.96027515831E+02  0.12085525075E+03  0.00000000000E+00 0. -1.
<mgrwt>
<rscale>  0 0.56324423E+02</rscale>
<asrwt>0</asrwt>
<pdfrwt beam="1">  1        2 0.21205834E+00 0.46152661E+02</pdfrwt>
<pdfrwt beam="2">  1        2 0.26195860E-01 0.68737979E+02</pdfrwt>
<totfact> 0.55352277E+02</totfact>
</mgrwt>
</event>
<event>
 5    1  0.4149151E-003  0.3546275E+03  0.7546771E-02  0.1161433E+00
          2   -1    0    0  502    0  0.00000000000E+00  0.00000000000E+00  0.12451788270E+04  0.12451788270E+04  0.00000000000E+00 0. -1.
          2   -1    0    0  501    0 -0.00000000000E+00 -0.00000000000E+00 -0.16908485394E+04  0.16908485394E+04  0.00000000000E+00 0. -1.
         25    1    1    2    0    0  0.12420768449E+03  0.23349828684E+03  0.13545040733E+03  0.32236751029E+03  0.12500000000E+03 0.  0.
          2    1    1    2  501    0 -0.16672867117E+03 -0.32216510556E+03 -0.15743362555E+04  0.16155876486E+04  0.00000000000E+00 0. -1.
          2    1    1    2  502    0  0.42520986679E+02  0.88666818721E+02  0.99321613573E+03  0.99807220747E+03  0.00000000000E+00 0. -1.
<mgrwt>
<rscale>  0 0.18674157E+03</rscale>
<asrwt>0</asrwt>
<pdfrwt beam="1">  1        2 0.19156597E+00 0.98335340E+02</pdfrwt>
<pdfrwt beam="2">  1        2 0.26013054E+00 0.35462749E+03</pdfrwt>
<totfact> 0.33333871E+01</totfact>
</mgrwt>
</event>
<event>
 5    1  0.4149151E-003  0.5982290E+02  0.7546771E-02  0.1438947E+00
          2   -1    0    0  502    0  0.00000000000E+00  0.00000000000E+00  0.28383879321E+04  0.28383879321E+04  0.00000000000E+00 0. -1.
         -2   -1    0    0    0  501 -0.00000000000E+00 -0.00000000000E+00 -0.19333341537E+03  0.19333341537E+03  0.00000000000E+00 0.  1.
         25    1    1    2    0    0  0.62265245151E+00 -0.29346445484E+02  0.70224566417E+02  0.14634921007E+03  0.12500000000E+03 0.  0.
          2    1    1    2  502    0  0.40513817587E+02  0.44471287947E+02  0.27266697110E+04  0.27273332722E+04  0.00000000000E+00 0. -1.
         -2    1    1    2    0  501 -0.41136470039E+02 -0.15124842463E+02 -0.15183976062E+03  0.15803886526E+03  0.00000000000E+00 0.  1.
<mgrwt>
<rscale>  0 0.51205180E+02</rscale>
<asrwt>0</asrwt>
<pdfrwt beam="1">  1        2 0.43667504E+00 0.59822904E+02</pdfrwt>
<pdfrwt beam="2">  1       -2 0.29743604E-01 0.43828872E+02</pdfrwt>
<totfact> 0.32738306E+01</totfact>
</mgrwt>
</event>
<event>
 5    1  0.4149151E-003  0.2053915E+03  0.7546771E-02  0.1172556E+00
         -1   -1    0    0    0  501 -0.00000000000E+00  0.00000000000E+00  0.63208701610E+03  0.63208701610E+03  0.00000000000E+00 0.  1.
          1   -1    0    0  502    0  0.00000000000E+00 -0.00000000000E+00 -0.89015929350E+03  0.89015929350E+03  0.00000000000E+00 0. -1.
         25    1    1    2    0    0  0.46316225613E+02  0.28160181452E+03  0.33825029362E+03  0.45987284746E+03  0.12500000000E+03 0.  0.
          1    1    1    2  502    0  0.72293390789E+02 -0.19075482829E+03 -0.79105293817E+03  0.81693236554E+03  0.00000000000E+00 0. -1.
         -1    1    1    2    0  501 -0.11860961640E+03 -0.90846986224E+02  0.19473036715E+03  0.24544109660E+03  0.00000000000E+00 0.  1.
<mgrwt>
<rscale>  0 0.17517483E+03</rscale>
<asrwt>0</asrwt>
<pdfrwt beam="2">  1        1 0.13694758E+00 0.20539153E+03</pdfrwt>
<pdfrwt beam="1">  1       -1 0.97244156E-01 0.14940353E+03</pdfrwt>
<totfact> 0.22074829E+01</totfact>
</mgrwt>
</event>
<event>
 5    1  0.4149151E-003  0.1202548E+03  0.7546771E-02  0.1446972E+00
         -3   -1    0    0    0  501 -0.00000000000E+00  0.00000000000E+00  0.21403761664E+03  0.21403761664E+03  0.00000000000E+00 0.  1.
          1   -1    0    0  502    0  0.00000000000E+00 -0.00000000000E+00 -0.32264087628E+04  0.32264087628E+04  0.00000000000E+00 0. -1.
         25    1    1    2    0    0 -0.99601975182E+02  0.53703920265E+02 -0.81149903843E+03  0.82883071486E+03  0.12500000000E+03 0.  0.
          1    1    1    2  502    0  0.96638576735E+02 -0.74028641701E+02 -0.24041864567E+04  0.24072664524E+04  0.00000000000E+00 0. -1.
         -3    1    1    2    0  501  0.29633984471E+01  0.20324721436E+02  0.20331434895E+03  0.20434921219E+03  0.00000000000E+00 0.  1.
<mgrwt>
<rscale>  0 0.49698970E+02</rscale>
<asrwt>0</asrwt>
<pdfrwt beam="2">  1        1 0.49637055E+00 0.12025478E+03</pdfrwt>
<pdfrwt beam="1">  1       -3 0.32928866E-01 0.20539621E+02</pdfrwt>
<totfact> 0.23001073E+00</totfact>
</mgrwt>
</event>
<event>
 5    1  0.4149151E-003  0.2647091E+03  0.7546771E-02  0.1286429E+00
          2   -1    0    0  501    0  0.00000000000E+00  0.00000000000E+00  0.23597996628E+04  0.23597996628E+04  0.00000000000E+00 0. -1.
          3   -1    0    0  502    0 -0.00000000000E+00 -0.00000000000E+00 -0.46496789504E+03  0.46496789504E+03  0.00000000000E+00 0. -1.
         25    1    1    2    0    0 -0.17242447159E+03 -0.24355138925E+03  0.66652331544E+03  0.74089527440E+03  0.12500000000E+03 0.  0.
          2    1    1    2  501    0  0.19814518813E+02  0.29632416875E+02  0.16155210344E+04  0.16159142638E+04  0.00000000000E+00 0. -1.
          3    1    1    2  502    0  0.15260995278E+03  0.21391897237E+03 -0.38721258209E+03  0.46795801965E+03  0.00000000000E+00 0. -1.
<mgrwt>
<rscale>  0 0.97139254E+02</rscale>
<asrwt>0</asrwt>
<pdfrwt beam="1">  1        2 0.36304609E+00 0.35646813E+02</pdfrwt>
<pdfrwt beam="2">  1        3 0.71533524E-01 0.26470907E+03</pdfrwt>
<totfact> 0.73521410E+00</totfact>
</mgrwt>
</event>
<event>
 5    1  0.4149151E-003  0.1274046E+03  0.7546771E-02  0.1416935E+00
          2   -1    0    0  501    0  0.00000000000E+00  0.00000000000E+00  0.37138252452E+03  0.37138252452E+03  0.00000000000E+00 0. -1.
          1   -1    0    0  502    0 -0.00000000000E+00 -0.00000000000E+00 -0.52053256217E+03  0.52053256217E+03  0.00000000000E+00 0. -1.
         25    1    1    2    0    0 -0.11861328156E+03 -0.92710433055E+01 -0.35306332547E+03  0.39298062878E+03  0.12500000000E+03 0.  0.
          2    1    1    2  501    0 -0.22085654122E+02 -0.10205099801E+02  0.31665540124E+03  0.31758867000E+03  0.00000000000E+00 0. -1.
          1    1    1    2  502    0  0.14069893568E+03  0.19476143106E+02 -0.11274211342E+03  0.18134578790E+03  0.00000000000E+00 0. -1.
<mgrwt>
<rscale>  0 0.55674753E+02</rscale>
<asrwt>0</asrwt>
<pdfrwt beam="1">  1        2 0.57135774E-01 0.24329410E+02</pdfrwt>
<pdfrwt beam="2">  1        1 0.80081932E-01 0.12740458E+03</pdfrwt>
<totfact> 0.51471887E+02</totfact>
</mgrwt>
</event>
<event>
 5    1  0.4149151E-003  0.6949278E+02  0.7546771E-02  0.1382624E+00
          1   -1    0    0  501    0  0.00000000000E+00  0.00000000000E+00  0.67604399274E+03  0.67604399274E+03  0.00000000000E+00 0. -1.
          1   -1    0    0  502    0 -0.00000000000E+00 -0.00000000000E+00 -0.16463876150E+03  0.16463876150E+03  0.00000000000E+00 0. -1.
         25    1    1    2    0    0  0.11865064911E+02 -0.47659907583E+02  0.36585879209E+03  0.38973055090E+03  0.12500000000E+03 0.  0.
          1    1    1    2  501    0  0.39688525062E+02  0.75383409404E+02  0.28619682793E+03  0.29860753800E+03  0.00000000000E+00 0. -1.
          1    1    1    2  502    0 -0.51553589973E+02 -0.27723501821E+02 -0.14065038878E+03  0.15234466533E+03  0.00000000000E+00 0. -1.
<mgrwt>
<rscale>  0 0.63779078E+02</rscale>
<asrwt>0</asrwt>
<pdfrwt beam="1">  1        1 0.10400677E+00 0.69492775E+02</pdfrwt>
<pdfrwt beam="2">  1        1 0.25329041E-01 0.58535162E+02</pdfrwt>
<totfact> 0.67874227E+02</totfact>
</mgrwt>
</event>
<event>
 5    1  0.4149151E-003  0.3129060E+03  0.7546771E-02  0.1227160E+00
          1   -1    0    0  502    0 -0.00000000000E+00  0.00000000000E+00  0.17220792036E+04  0.17220792036E+04  0.00000000000E+00 0.  1.
          2   -1    0    0  501    0  0.00000000000E+00 -0.00000000000E+00 -0.63431717232E+03  0.63431717232E+03  0.00000000000E+00 0. -1.
         25    1    1    2    0    0  0.10583776998E+03 -0.29442404378E+03 -0.30143394756E+03  0.45207806389E+03  0.12500000000E+03 0.  0.
          2    1    1    2  501    0 -0.54223787075E+02  0.31088657549E+03 -0.16024272112E+03  0.35393277833E+03  0.00000000000E+00 0. -1.
          1    1    1    2  502    0 -0.51613982903E+02 -0.16462531709E+02  0.15494387000E+04  0.15503855337E+04  0.00000000000E+00 0.  1.
<mgrwt>
<rscale>  0 0.13019959E+03</rscale>
<asrwt>0</asrwt>
<pdfrwt beam="2">  1        2 0.97587258E-01 0.31290597E+03</pdfrwt>
<pdfrwt beam="1">  1        1 0.26493526E+00 0.54175808E+02</pdfrwt>
<totfact> 0.39264795E+01</totfact>
</mgrwt>
</event>
<event>
 5    1  0.4149151E-003  0.3661723E+02  0.7546771E-02  0.1545349E+00
         -1   -1    0    0    0  501 -0.00000000000E+00  0.00000000000E+00  0.13889450592E+02  0.13889450592E+02  0.00000000000E+00 0.  1.
          1   -1    0    0  502    0  0.00000000000E+00 -0.00000000000E+00 -0.89613149083E+03  0.89613149083E+03  0.00000000000E+00 0. -1.
         25    1    1    2    0    0 -0.12127646286E+01 -0.14898026440E+02 -0.41336740535E+03  0.43211229304E+03  0.12500000000E+03 0.  0.
          1    1    1    2  502    0 -0.29338150238E+02 -0.17503992584E+02 -0.33679582627E+03  0.33852406917E+03  0.00000000000E+00 0. -1.
         -1    1    1    2    0  501  0.30550914866E+02  0.32402019024E+02 -0.13207880862E+03  0.13938457922E+03  0.00000000000E+00 0.  1.
<mgrwt>
<rscale>  0 0.35368880E+02</rscale>
<asrwt>0</asrwt>
<pdfrwt beam="2">  1        1 0.13786636E+00 0.34163091E+02</pdfrwt>
<pdfrwt beam="1">  1       -1 0.21368389E-02 0.36617226E+02</pdfrwt>
<totfact> 0.10356767E+04</totfact>
</mgrwt>
</event>
<event>
 5    1  0.4149151E-003  0.1445697E+03  0.7546771E-02  0.1252097E+00
          3   -1    0    0  502    0  0.00000000000E+00  0.00000000000E+00  0.94057700273E+02  0.94057700273E+02  0.00000000000E+00 0. -1.
         -1   -1    0    0    0  501 -0.00000000000E+00 -0.00000000000E+00 -0.82837994822E+03  0.82837994822E+03  0.00000000000E+00 0.  1.
         25    1    1    2    0    0  0.34985345137E+02 -0.78534704915E+01 -0.91225021424E+02  0.15884790180E+03  0.12500000000E+03 0.  0.
          3    1    1    2  502    0 -0.11439603943E+03 -0.11295352043E+03 -0.75021478150E+02  0.17740680314E+03  0.00000000000E+00 0. -1.
         -1    1    1    2    0  501  0.79410694292E+02  0.12080699092E+03 -0.56807574837E+03  0.58618294355E+03  0.00000000000E+00 0.  1.
<mgrwt>
<rscale>  0 0.11470501E+03</rscale>
<asrwt>0</asrwt>
<pdfrwt beam="1">  1        3 0.14470415E-01 0.91009678E+02</pdfrwt>
<pdfrwt beam="2">  1       -1 0.12744307E+00 0.14456966E+03</pdfrwt>
<totfact> 0.99281075E+01</totfact>
</mgrwt>
</event>
<event>
 5    1  0.4149151E-003  0.9987708E+02  0.7546771E-02  0.1283397E+00
          2   -1    0    0  502    0  0.00000000000E+00  0.00000000000E+00  0.36958272370E+03  0.36958272370E+03  0.00000000000E+00 0. -1.
          2   -1    0    0  501    0 -0.00000000000E+00 -0.00000000000E+00 -0.36646630678E+03  0.36646630678E+03  0.00000000000E+00 0. -1.
         25    1    1    2    0    0 -0.36314982023E+02 -0.40090856789E+01 -0.34085297784E+02  0.13461670852E+03  0.12500000000E+03 0.  0.
          2    1    1    2  501    0  0.74844118640E+02 -0.88137188627E+02 -0.26179616632E+03  0.28619405796E+03  0.00000000000E+00 0. -1.
          2    1    1    2  502    0 -0.38529136617E+02  0.92146274305E+02  0.29899788102E+03  0.31523826400E+03  0.00000000000E+00 0. -1.
<mgrwt>
<rscale>  0 0.98539711E+02</rscale>
<asrwt>0</asrwt>
<pdfrwt beam="1">  1        2 0.56858880E-01 0.99877076E+02</pdfrwt>
<pdfrwt beam="2">  1        2 0.56379432E-01 0.97220254E+02</pdfrwt>
<totfact> 0.11902536E+03</totfact>
</mgrwt>
</event>
<event>
 5    1  0.4149151E-003  0.1886667E+03  0.7546771E-02  0.1195080E+00
          2   -1    0    0  502    0  0.00000000000E+00  0.00000000000E+00  0.38551255538E+03  0.38551255538E+03  0.00000000000E+00 0.  1.
         -2   -1    0    0    0  501 -0.00000000000E+00 -0.00000000000E+00 -0.30250224148E+03  0.30250224148E+03  0.00000000000E+00 0.  1.
         25    1    1    2    0    0  0.28201424791E+01 -0.93291504602E+02  0.12262149193E+03  0.19842451541E+03  0.12500000000E+03 0.  0.
          2    1    1    2  502    0 -0.27545197580E+02 -0.12344275528E+03  0.15305292336E+03  0.19854986550E+03  0.00000000000E+00 0.  1.
         -2    1    1    2    0  501  0.24725055101E+02  0.21673425988E+03 -0.19266410139E+03  0.29104041595E+03  0.00000000000E+00 0.  1.
<mgrwt>
<rscale>  0 0.15447429E+03</rscale>
<asrwt>0</asrwt>
<pdfrwt beam="1">  1        2 0.59309624E-01 0.12647866E+03</pdfrwt>
<pdfrwt beam="2">  1       -2 0.46538806E-01 0.18866666E+03</pdfrwt>
<totfact> 0.37259680E+02</totfact>
</mgrwt>
</event>
<event>
 5    1  0.4149151E-003  0.2753633E+02  0.7546771E-02  0.1628791E+00
         -1   -1    0    0    0  501 -0.00000000000E+00  0.00000000000E+00  0.29909890613E+02  0.29909890613E+02  0.00000000000E+00 0.  1.
          2   -1    0    0  502    0  0.00000000000E+00 -0.00000000000E+00 -0.37582406066E+03  0.37582406066E+03  0.00000000000E+00 0. -1.
         25    1    1    2    0    0  0.10862884641E+02  0.21986847039E+02 -0.23288024025E+03  0.26544232897E+03  0.12500000000E+03 0.  0.
          2    1    1    2  502    0  0.17688833147E+02 -0.20737613605E+02 -0.10785658853E+03  0.11124741402E+03  0.00000000000E+00 0. -1.
         -1    1    1    2    0  501 -0.28551717788E+02 -0.12492334340E+01 -0.51773412652E+01  0.29044208293E+02  0.00000000000E+00 0.  1.
<mgrwt>
<rscale>  0 0.27396303E+02</rscale>
<asrwt>0</asrwt>
<pdfrwt beam="2">  1        2 0.57819087E-01 0.27256989E+02</pdfrwt>
<pdfrwt beam="1">  1       -1 0.46015216E-02 0.27536330E+02</pdfrwt>
<totfact> 0.15214871E+04</totfact>
</mgrwt>
</event>
<event>
 5    1  0.4149151E-003  0.4662070E+02  0.7546771E-02  0.1545376E+00
         -2   -1    0    0    0  501 -0.00000000000E+00  0.00000000000E+00  0.14540678276E+02  0.14540678276E+02  0.00000000000E+00 0.  1.
          2   -1    0    0  502    0  0.00000000000E+00 -0.00000000000E+00 -0.18939824799E+04  0.18939824799E+04  0.00000000000E+00 0. -1.
         25    1    1    2    0    0 -0.17712771050E+02  0.22758068931E+02 -0.58279684375E+03  0.59674855094E+03  0.12500000000E+03 0.  0.
          2    1    1    2  502    0  0.72241344139E+01 -0.47450704681E+02 -0.12784681917E+04  0.12793688579E+04  0.00000000000E+00 0. -1.
         -2    1    1    2    0  501  0.10488636636E+02  0.24692635750E+02 -0.18176766174E+02  0.32405749294E+02  0.00000000000E+00 0.  1.
<mgrwt>
<rscale>  0 0.35365756E+02</rscale>
<asrwt>0</asrwt>
<pdfrwt beam="2">  1        2 0.29138208E+00 0.46620697E+02</pdfrwt>
<pdfrwt beam="1">  1       -2 0.22370262E-02 0.26827929E+02</pdfrwt>
<totfact> 0.48486517E+03</totfact>
</mgrwt>
</event>
<event>
 5    1  0.4149151E-003  0.6223685E+02  0.7546771E-02  0.1462636E+00
          2   -1    0    0  501    0  0.00000000000E+00  0.00000000000E+00  0.20848335462E+03  0.20848335462E+03  0.00000000000E+00 0. -1.
          2   -1    0    0  502    0 -0.00000000000E+00 -0.00000000000E+00 -0.18171007338E+03  0.18171007338E+03  0.00000000000E+00 0. -1.
         25    1    1    2    0    0 -0.14534640089E+02  0.63126769344E+02  0.29464995503E+02  0.14383821026E+03  0.12500000000E+03 0.  0.
          2    1    1    2  501    0 -0.29998704346E+02 -0.18773874884E+02  0.11096822597E+03  0.11647458013E+03  0.00000000000E+00 0. -1.
          2    1    1    2  502    0  0.44533344436E+02 -0.44352894460E+02 -0.11365994023E+03  0.12988063762E+03  0.00000000000E+00 0. -1.
<mgrwt>
<rscale>  0 0.46930794E+02</rscale>
<asrwt>0</asrwt>
<pdfrwt beam="1">  1        2 0.32074362E-01 0.35388990E+02</pdfrwt>
<pdfrwt beam="2">  1        2 0.27955396E-01 0.62236854E+02</pdfrwt>
<totfact> 0.43940908E+03</totfact>
</mgrwt>
</event>
<event>
 5    1  0.4149151E-003  0.4161376E+02  0.7546771E-02  0.1541291E+00
         -3   -1    0    0    0  501 -0.00000000000E+00  0.00000000000E+00  0.14521553128E+04  0.14521553128E+04  0.00000000000E+00 0.  1.
          2   -1    0    0  502    0  0.00000000000E+00 -0.00000000000E+00 -0.16424449592E+03  0.16424449592E+03  0.00000000000E+00 0. -1.
         25    1    1    2    0    0  0.64417494811E+02 -0.21649549740E+02  0.25649956075E+03  0.29331781621E+03  0.12500000000E+03 0.  0.
          2    1    1    2  502    0 -0.23288993927E+02  0.20250803018E+02 -0.14383840491E+03  0.14711206269E+03  0.00000000000E+00 0. -1.
         -3    1    1    2    0  501 -0.41128500884E+02  0.13987467222E+01  0.11752496610E+04  0.11759699298E+04  0.00000000000E+00 0.  1.
<mgrwt>
<rscale>  0 0.35836992E+02</rscale>
<asrwt>0</asrwt>
<pdfrwt beam="2">  1        2 0.25268385E-01 0.30862149E+02</pdfrwt>
<pdfrwt beam="1">  1       -3 0.22340850E+00 0.41613758E+02</pdfrwt>
<totfact> 0.15211897E+01</totfact>
</mgrwt>
</event>
<event>
 5    1  0.4149151E-003  0.9544452E+02  0.7546771E-02  0.1467931E+00
          1   -1    0    0  502    0  0.00000000000E+00  0.00000000000E+00  0.12522729251E+04  0.12522729251E+04  0.00000000000E+00 0. -1.
         -2   -1    0    0    0  501 -0.00000000000E+00 -0.00000000000E+00 -0.18153566337E+02  0.18153566337E+02  0.00000000000E+00 0.  1.
         25    1    1    2    0    0 -0.31773213268E+02 -0.10421165335E+03  0.68568529260E+03  0.70544944982E+03  0.12500000000E+03 0.  0.
          1    1    1    2  502    0  0.36768001187E+02  0.82568708323E+02  0.52486594844E+03  0.53259153329E+03  0.00000000000E+00 0. -1.
         -2    1    1    2    0  501 -0.49947879193E+01  0.21642945024E+02  0.23568117720E+02  0.32385508311E+02  0.00000000000E+00 0.  1.
<mgrwt>
<rscale>  0 0.46043421E+02</rscale>
<asrwt>0</asrwt>
<pdfrwt beam="1">  1        1 0.19265731E+00 0.95444524E+02</pdfrwt>
<pdfrwt beam="2">  1       -2 0.27928573E-02 0.22211821E+02</pdfrwt>
<totfact> 0.34212610E+03</totfact>
</mgrwt>
</event>
<event>
 5    1  0.4149151E-003  0.4774471E+02  0.7546771E-02  0.1473086E+00
          1   -1    0    0  502    0  0.00000000000E+00  0.00000000000E+00  0.11618504170E+03  0.11618504170E+03  0.00000000000E+00 0. -1.
         -3   -1    0    0    0  501 -0.00000000000E+00 -0.00000000000E+00 -0.16358453907E+03  0.16358453907E+03  0.00000000000E+00 0.  1.
         25    1    1    2    0    0 -0.33372847231E+02 -0.24504617033E+01  0.21278536305E+02  0.13113934498E+03  0.12500000000E+03 0.  0.
          1    1    1    2  502    0  0.19607175048E+02  0.48167674077E+02  0.13374547853E+02  0.53697715683E+02  0.00000000000E+00 0. -1.
         -3    1    1    2    0  501  0.13765672184E+02 -0.45717212373E+02 -0.82052581530E+02  0.94932520106E+02  0.00000000000E+00 0.  1.
<mgrwt>
<rscale>  0 0.45201725E+02</rscale>
<asrwt>0</asrwt>
<pdfrwt beam="1">  1        1 0.17874622E-01 0.42794186E+02</pdfrwt>
<pdfrwt beam="2">  1       -3 0.25166852E-01 0.47744709E+02</pdfrwt>
<totfact> 0.19479745E+03</totfact>
</mgrwt>
</event>
<event>
 5    1  0.4149151E-003  0.3297428E+02  0.7546771E-02  0.1578227E+00
         -1   -1    0    0    0  501 -0.00000000000E+00  0.00000000000E+00  0.96709870704E+01  0.96709870704E+01  0.00000000000E+00 0.  1.
          2   -1    0    0  502    0  0.00000000000E+00 -0.00000000000E+00 -0.11597539962E+04  0.11597539962E+04  0.00000000000E+00 0. -1.
         25    1    1    2    0    0  0.27636650516E+00 -0.16188061223E+02 -0.62230781804E+03  0.63494421022E+03  0.12500000000E+03 0.  0.
          2    1    1    2  502    0  0.32752748555E+02  0.38158429597E+01 -0.41525658079E+03  0.41656371792E+03  0.00000000000E+00 0. -1.
         -1    1    1    2    0  501 -0.33029115060E+02  0.12372218264E+02 -0.11251861030E+03  0.11791705513E+03  0.00000000000E+00 0.  1.
<mgrwt>
<rscale>  0 0.31876471E+02</rscale>
<asrwt>0</asrwt>
<pdfrwt beam="2">  1        2 0.17842366E+00 0.32974281E+02</pdfrwt>
<pdfrwt beam="1">  1       -1 0.14878444E-02 0.30815211E+02</pdfrwt>
<totfact> 0.20860307E+04</totfact>
</mgrwt>
</event>
<event>
 5    1  0.4149151E-003  0.4277154E+02  0.7546771E-02  0.1543117E+00
          2   -1    0    0  502    0  0.00000000000E+00  0.00000000000E+00  0.33269888229E+04  0.33269888229E+04  0.00000000000E+00 0. -1.
         -1   -1    0    0    0  501 -0.00000000000E+00 -0.00000000000E+00 -0.35235864303E+01  0.35235864303E+01  0.00000000000E+00 0.  1.
         25    1    1    2    0    0  0.81251096938E+01 -0.27616245890E+02  0.20802842106E+04  0.20842351286E+04  0.12500000000E+03 0.  0.
          2    1    1    2  502    0 -0.35512737868E+02  0.39035921541E+02  0.56852747183E+03  0.57097149136E+03  0.00000000000E+00 0. -1.
         -1    1    1    2    0  501  0.27387628174E+02 -0.11419675651E+02  0.67465355405E+03  0.67530578937E+03  0.00000000000E+00 0.  1.
<mgrwt>
<rscale>  0 0.35625312E+02</rscale>
<asrwt>0</asrwt>
<pdfrwt beam="1">  1        2 0.51184192E+00 0.42771537E+02</pdfrwt>
<pdfrwt beam="2">  1       -1 0.54209288E-03 0.29673071E+02</pdfrwt>
<totfact> 0.62214664E+03</totfact>
</mgrwt>
</event>
<event>
 5    1  0.4149151E-003  0.5540358E+02  0.7546771E-02  0.1475606E+00
          1   -1    0    0  502    0  0.00000000000E+00  0.00000000000E+00  0.27012811758E+04  0.27012811758E+04  0.00000000000E+00 0. -1.
         -2   -1    0    0    0  501 -0.00000000000E+00 -0.00000000000E+00 -0.52539565187E+01  0.52539565187E+01  0.00000000000E+00 0.  1.
         25    1    1    2    0    0 -0.50769400866E+02  0.27260459862E+02  0.16971968798E+04  0.17027691897E+04  0.12500000000E+03 0.  0.
          1    1    1    2  502    0  0.57960228965E+02  0.82414181465E+01  0.45843216233E+03  0.46215512177E+03  0.00000000000E+00 0. -1.
         -2    1    1    2    0  501 -0.71908280998E+01 -0.35501878008E+02  0.54039817722E+03  0.54161082088E+03  0.00000000000E+00 0.  1.
<mgrwt>
<rscale>  0 0.44798137E+02</rscale>
<asrwt>0</asrwt>
<pdfrwt beam="1">  1        1 0.41558061E+00 0.55403584E+02</pdfrwt>
<pdfrwt beam="2">  1       -2 0.80830316E-03 0.36222802E+02</pdfrwt>
<totfact> 0.26956807E+03</totfact>
</mgrwt>
</event>
<event>
 5    1  0.4149151E-003  0.1259554E+03  0.7546771E-02  0.1260589E+00
          3   -1    0    0  502    0  0.00000000000E+00  0.00000000000E+00  0.37994608469E+02  0.37994608469E+02  0.00000000000E+00 0. -1.
         -1   -1    0    0    0  501 -0.00000000000E+00 -0.00000000000E+00 -0.23393989176E+04  0.23393989176E+04  0.00000000000E+00 0.  1.
         25    1    1    2    0    0  0.18785084596E+03  0.48844044583E+02 -0.57008130579E+03  0.61505396204E+03  0.12500000000E+03 0.  0.
          3    1    1    2  502    0 -0.92753201467E+02  0.24940432630E+02 -0.16145521258E+03  0.18786422552E+03  0.00000000000E+00 0. -1.
         -1    1    1    2    0  501 -0.95097644494E+02 -0.73784477213E+02 -0.15698677908E+04  0.15744753385E+04  0.00000000000E+00 0.  1.
<mgrwt>
<rscale>  0 0.10998975E+03</rscale>
<asrwt>0</asrwt>
<pdfrwt beam="1">  1        3 0.58453232E-02 0.96047809E+02</pdfrwt>
<pdfrwt beam="2">  1       -1 0.35990760E+00 0.12595545E+03</pdfrwt>
<totfact> 0.13302210E+01</totfact>
</mgrwt>
</event>
<event>
 5    1  0.4149151E-003  0.5152628E+02  0.7546771E-02  0.1458654E+00
          2   -1    0    0  502    0  0.00000000000E+00  0.00000000000E+00  0.51303693828E+02  0.51303693828E+02  0.00000000000E+00 0. -1.
         -1   -1    0    0    0  501 -0.00000000000E+00 -0.00000000000E+00 -0.31483958155E+03  0.31483958155E+03  0.00000000000E+00 0.  1.
         25    1    1    2    0    0 -0.62448417700E+02 -0.36337961761E+02 -0.13175423992E+03  0.19545954076E+03  0.12500000000E+03 0.  0.
          2    1    1    2  502    0  0.42912630945E+02 -0.97140203693E+01 -0.20224445311E+02  0.48424005147E+02  0.00000000000E+00 0. -1.
         -1    1    1    2    0  501  0.19535786755E+02  0.46051982130E+02 -0.11155720249E+03  0.12225972947E+03  0.00000000000E+00 0.  1.
<mgrwt>
<rscale>  0 0.47613779E+02</rscale>
<asrwt>0</asrwt>
<pdfrwt beam="1">  1        2 0.78928758E-02 0.43998365E+02</pdfrwt>
<pdfrwt beam="2">  1       -1 0.48436860E-01 0.51526277E+02</pdfrwt>
<totfact> 0.37931074E+03</totfact>
</mgrwt>
</event>
<event>
 5    1  0.4149151E-003  0.3790808E+02  0.7546771E-02  0.1578684E+00
          1   -1    0    0  502    0  0.00000000000E+00  0.00000000000E+00  0.14905054510E+04  0.14905054510E+04  0.00000000000E+00 0. -1.
         -1   -1    0    0    0  501 -0.00000000000E+00 -0.00000000000E+00 -0.17675621963E+03  0.17675621963E+03  0.00000000000E+00 0.  1.
         25    1    1    2    0    0 -0.89412581137E+01  0.12119330992E+02  0.69121898934E+03  0.70259199789E+03  0.12500000000E+03 0.  0.
          1    1    1    2  502    0  0.34235775840E+02 -0.20757697026E+02  0.79204715859E+03  0.79305842897E+03  0.00000000000E+00 0. -1.
         -1    1    1    2    0  501 -0.25294517727E+02  0.86383660348E+01 -0.16951691654E+03  0.17161124377E+03  0.00000000000E+00 0.  1.
<mgrwt>
<rscale>  0 0.31831449E+02</rscale>
<asrwt>0</asrwt>
<pdfrwt beam="1">  1        1 0.22930852E+00 0.37908079E+02</pdfrwt>
<pdfrwt beam="2">  1       -1 0.27193266E-01 0.26728898E+02</pdfrwt>
<totfact> 0.10085880E+02</totfact>
</mgrwt>
</event>
<event>
 5    1  0.4149151E-003  0.6050201E+02  0.7546771E-02  0.1455035E+00
         -1   -1    0    0    0  501 -0.00000000000E+00  0.00000000000E+00  0.30602627199E+03  0.30602627199E+03  0.00000000000E+00 0.  1.
          2   -1    0    0  502    0  0.00000000000E+00 -0.00000000000E+00 -0.31693547865E+03  0.31693547865E+03  0.00000000000E+00 0. -1.
         25    1    1    2    0    0 -0.34326910777E+02  0.89289941855E+02 -0.81649526325E+02  0.17732082695E+03  0.12500000000E+03 0.  0.
          2    1    1    2  502    0  0.23117057398E+02 -0.30754143966E+02 -0.18197254269E+03  0.18599522038E+03  0.00000000000E+00 0. -1.
         -1    1    1    2    0  501  0.11209853378E+02 -0.58535797890E+02  0.25271286235E+03  0.25964570331E+03  0.00000000000E+00 0.  1.
<mgrwt>
<rscale>  0 0.48246537E+02</rscale>
<asrwt>0</asrwt>
<pdfrwt beam="2">  1        2 0.48759305E-01 0.38473572E+02</pdfrwt>
<pdfrwt beam="1">  1       -1 0.47080965E-01 0.60502009E+02</pdfrwt>
<totfact> 0.53954118E+02</totfact>
</mgrwt>
</event>
<event>
 5    1  0.4149151E-003  0.7118741E+02  0.7546771E-02  0.1424543E+00
         -1   -1    0    0    0  501 -0.00000000000E+00  0.00000000000E+00  0.93236385345E+03  0.93236385345E+03  0.00000000000E+00 0.  1.
          2   -1    0    0  502    0  0.00000000000E+00 -0.00000000000E+00 -0.22950508194E+04  0.22950508194E+04  0.00000000000E+00 0. -1.
         25    1    1    2    0    0 -0.28809264070E+02 -0.45467322784E+02 -0.58008633466E+03  0.59583756746E+03  0.12500000000E+03 0.  0.
          2    1    1    2  502    0  0.67109417889E+02  0.30638828516E+02 -0.17058350899E+04  0.17074295785E+04  0.00000000000E+00 0. -1.
         -1    1    1    2    0  501 -0.38300153819E+02  0.14828494268E+02  0.92323445855E+03  0.92414752690E+03  0.00000000000E+00 0.  1.
<mgrwt>
<rscale>  0 0.54071274E+02</rscale>
<asrwt>0</asrwt>
<pdfrwt beam="2">  1        2 0.35308474E+00 0.71187412E+02</pdfrwt>
<pdfrwt beam="1">  1       -1 0.14344059E+00 0.41070501E+02</pdfrwt>
<totfact> 0.33775055E+00</totfact>
</mgrwt>
</event>
<event>
 5    1  0.4149151E-003  0.3851062E+02  0.7546771E-02  0.1571873E+00
         -1   -1    0    0    0  501 -0.00000000000E+00  0.00000000000E+00  0.57076835903E+02  0.57076835903E+02  0.00000000000E+00 0.  1.
          2   -1    0    0  502    0  0.00000000000E+00 -0.00000000000E+00 -0.56155849912E+03  0.56155849912E+03  0.00000000000E+00 0. -1.
         25    1    1    2    0    0  0.30295746083E+01  0.43649362408E+02 -0.70671820589E+02  0.15011312863E+03  0.12500000000E+03 0.  0.
          2    1    1    2  502    0 -0.24975933380E+02 -0.11383880554E+02 -0.42822380189E+03  0.42910256873E+03  0.00000000000E+00 0. -1.
         -1    1    1    2    0  501  0.21946358772E+02 -0.32265481853E+02 -0.55860407379E+01  0.39419637666E+02  0.00000000000E+00 0.  1.
<mgrwt>
<rscale>  0 0.32512115E+02</rscale>
<asrwt>0</asrwt>
<pdfrwt beam="2">  1        2 0.86393614E-01 0.27447950E+02</pdfrwt>
<pdfrwt beam="1">  1       -1 0.87810518E-02 0.38510621E+02</pdfrwt>
<totfact> 0.41811764E+03</totfact>
</mgrwt>
</event>
<event>
 5    1  0.4149151E-003  0.2809177E+02  0.7546771E-02  0.1638587E+00
          2   -1    0    0  502    0  0.00000000000E+00  0.00000000000E+00  0.19677612864E+03  0.19677612864E+03  0.00000000000E+00 0. -1.
         -3   -1    0    0    0  501 -0.00000000000E+00 -0.00000000000E+00 -0.30409084523E+03  0.30409084523E+03  0.00000000000E+00 0.  1.
         25    1    1    2    0    0 -0.91396925132E+01 -0.82135830494E+01 -0.21264754114E+03  0.24697160501E+03  0.12500000000E+03 0.  0.
          2    1    1    2  502    0 -0.15201556425E+02  0.23623297027E+02  0.17566218911E+03  0.17789421621E+03  0.00000000000E+00 0. -1.
         -3    1    1    2    0  501  0.24341248938E+02 -0.15409713978E+02 -0.70329364554E+02  0.76001152645E+02  0.00000000000E+00 0.  1.
<mgrwt>
<rscale>  0 0.26633757E+02</rscale>
<asrwt>0</asrwt>
<pdfrwt beam="1">  1        2 0.30273251E-01 0.28091769E+02</pdfrwt>
<pdfrwt beam="2">  1       -3 0.46783207E-01 0.25251418E+02</pdfrwt>
<totfact> 0.40009942E+02</totfact>
</mgrwt>
</event>
<event>
 5    1  0.4149151E-003  0.1341686E+03  0.7546771E-02  0.1367553E+00
          1   -1    0    0  502    0  0.00000000000E+00  0.00000000000E+00  0.18748746792E+04  0.18748746792E+04  0.00000000000E+00 0. -1.
         -2   -1    0    0    0  501 -0.00000000000E+00 -0.00000000000E+00 -0.18570547119E+02  0.18570547119E+02  0.00000000000E+00 0.  1.
         25    1    1    2    0    0 -0.10330921175E+03 -0.10662235587E+03  0.12215175247E+04  0.12368391905E+04  0.12500000000E+03 0.  0.
          1    1    1    2  502    0  0.69391116666E+02  0.10142227064E+03  0.57202601121E+03  0.58507722700E+03  0.00000000000E+00 0. -1.
         -2    1    1    2    0  501  0.33918095084E+02  0.52000852239E+01  0.62760596231E+02  0.71528808880E+02  0.00000000000E+00 0.  1.
<mgrwt>
<rscale>  0 0.67852163E+02</rscale>
<asrwt>0</asrwt>
<pdfrwt beam="1">  1        1 0.28844211E+00 0.13416863E+03</pdfrwt>
<pdfrwt beam="2">  1       -2 0.28570087E-02 0.34314400E+02</pdfrwt>
<totfact> 0.13705277E+03</totfact>
</mgrwt>
</event>
<event>
 5    1  0.4149151E-003  0.4409559E+02  0.7546771E-02  0.1487058E+00
          1   -1    0    0  502    0  0.00000000000E+00  0.00000000000E+00  0.49856225046E+03  0.49856225046E+03  0.00000000000E+00 0. -1.
         -2   -1    0    0    0  501 -0.00000000000E+00 -0.00000000000E+00 -0.43544863526E+02  0.43544863526E+02  0.00000000000E+00 0.  1.
         25    1    1    2    0    0 -0.54407318770E+02  0.60406202124E+02  0.13031619042E+03  0.19803124773E+03  0.12500000000E+03 0.  0.
          1    1    1    2  502    0  0.35846642458E+02 -0.22750698412E+02  0.27822679070E+03  0.28144754949E+03  0.00000000000E+00 0. -1.
         -2    1    1    2    0  501  0.18560676311E+02 -0.37655503712E+02  0.46474405819E+02  0.62628316768E+02  0.00000000000E+00 0.  1.
<mgrwt>
<rscale>  0 0.43025497E+02</rscale>
<asrwt>0</asrwt>
<pdfrwt beam="1">  1        1 0.76701881E-01 0.44095590E+02</pdfrwt>
<pdfrwt beam="2">  1       -2 0.66992101E-02 0.41981373E+02</pdfrwt>
<totfact> 0.44238837E+03</totfact>
</mgrwt>
</event>
<event>
 5    1  0.4149151E-003  0.4456056E+02  0.7546771E-02  0.1481266E+00
         -2   -1    0    0    0  501 -0.00000000000E+00  0.00000000000E+00  0.16235152833E+02  0.16235152833E+02  0.00000000000E+00 0.  1.
          1   -1    0    0  502    0  0.00000000000E+00 -0.00000000000E+00 -0.81235861109E+03  0.81235861109E+03  0.00000000000E+00 0. -1.
         25    1    1    2    0    0 -0.14284661278E+02 -0.42064107452E+02 -0.38038083786E+03  0.40284987588E+03  0.12500000000E+03 0.  0.
          1    1    1    2  502    0 -0.28844704286E+02  0.38602855681E+02 -0.23561782505E+03  0.24049523262E+03  0.00000000000E+00 0. -1.
         -2    1    1    2    0  501  0.43129365564E+02  0.34612517707E+01 -0.18012479534E+03  0.18524865542E+03  0.00000000000E+00 0.  1.
<mgrwt>
<rscale>  0 0.43909541E+02</rscale>
<asrwt>0</asrwt>
<pdfrwt beam="2">  1        1 0.12497828E+00 0.44560564E+02</pdfrwt>
<pdfrwt beam="1">  1       -2 0.24977151E-02 0.43268030E+02</pdfrwt>
<totfact> 0.96129473E+03</totfact>
</mgrwt>
</event>
<event>
 5    1  0.4149151E-003  0.1667303E+03  0.7546771E-02  0.1319598E+00
          2   -1    0    0  502    0  0.00000000000E+00  0.00000000000E+00  0.50966957635E+03  0.50966957635E+03  0.00000000000E+00 0. -1.
         -2   -1    0    0    0  501 -0.00000000000E+00 -0.00000000000E+00 -0.69746204823E+03  0.69746204823E+03  0.00000000000E+00 0.  1.
         25    1    1    2    0    0  0.10769071674E+03 -0.69282955971E+02  0.13362033136E+03  0.22333116982E+03  0.12500000000E+03 0.  0.
          2    1    1    2  502    0  0.39008116575E+02 -0.14864747812E+02  0.31885385252E+03  0.32157483290E+03  0.00000000000E+00 0. -1.
         -2    1    1    2    0  501 -0.14669883332E+03  0.84147703783E+02 -0.64026665577E+03  0.66222562185E+03  0.00000000000E+00 0.  1.
<mgrwt>
<rscale>  0 0.83426939E+02</rscale>
<asrwt>0</asrwt>
<pdfrwt beam="1">  1        2 0.78410704E-01 0.41744387E+02</pdfrwt>
<pdfrwt beam="2">  1       -2 0.10730185E+00 0.16673030E+03</pdfrwt>
<totfact> 0.46804434E+01</totfact>
</mgrwt>
</event>
<event>
 5    1  0.4149151E-003  0.9063635E+02  0.7546771E-02  0.1333716E+00
         -1   -1    0    0    0  501 -0.00000000000E+00  0.00000000000E+00  0.18127386866E+03  0.18127386866E+03  0.00000000000E+00 0.  1.
          1   -1    0    0  502    0  0.00000000000E+00 -0.00000000000E+00 -0.57916533203E+03  0.57916533203E+03  0.00000000000E+00 0. -1.
         25    1    1    2    0    0  0.15285738174E+03 -0.22947379427E+02 -0.21131766696E+03  0.29012431430E+03  0.12500000000E+03 0.  0.
          1    1    1    2  502    0 -0.67603035783E+02  0.48819768067E+01 -0.31105848691E+03  0.31835732507E+03  0.00000000000E+00 0. -1.
         -1    1    1    2    0  501 -0.85254345962E+02  0.18065402621E+02  0.12448469049E+03  0.15195756133E+03  0.00000000000E+00 0.  1.
<mgrwt>
<rscale>  0 0.78378881E+02</rscale>
<asrwt>0</asrwt>
<pdfrwt beam="2">  1        1 0.89102360E-01 0.67779083E+02</pdfrwt>
<pdfrwt beam="1">  1       -1 0.27888287E-01 0.90636354E+02</pdfrwt>
<totfact> 0.44098936E+02</totfact>
</mgrwt>
</event>
<event>
 5    1  0.4149151E-003  0.8471301E+02  0.7546771E-02  0.1359048E+00
          2   -1    0    0  502    0  0.00000000000E+00  0.00000000000E+00  0.30671380793E+04  0.30671380793E+04  0.00000000000E+00 0. -1.
         -1   -1    0    0    0  501 -0.00000000000E+00 -0.00000000000E+00 -0.66692021412E+03  0.66692021412E+03  0.00000000000E+00 0.  1.
         25    1    1    2    0    0 -0.11347733431E+03 -0.61147966329E+01  0.87232134210E+03  0.88852913291E+03  0.12500000000E+03 0.  0.
          2    1    1    2  502    0  0.74390943376E+02 -0.37213205640E+02  0.21846276972E+04  0.21862106510E+04  0.00000000000E+00 0. -1.
         -1    1    1    2    0  501  0.39086390930E+02  0.43328002272E+02 -0.65673117420E+03  0.65931850945E+03  0.00000000000E+00 0.  1.
<mgrwt>
<rscale>  0 0.70308253E+02</rscale>
<asrwt>0</asrwt>
<pdfrwt beam="1">  1        2 0.47186739E+00 0.84713010E+02</pdfrwt>
<pdfrwt beam="2">  1       -1 0.10260311E+00 0.58352907E+02</pdfrwt>
<totfact> 0.26897354E+00</totfact>
</mgrwt>
</event>
<event>
 5    1  0.4149151E-003  0.6084333E+02  0.7546771E-02  0.1420459E+00
          2   -1    0    0  501    0  0.00000000000E+00  0.00000000000E+00  0.40499810758E+03  0.40499810758E+03  0.00000000000E+00 0. -1.
          1   -1    0    0  502    0 -0.00000000000E+00 -0.00000000000E+00 -0.82327669517E+03  0.82327669517E+03  0.00000000000E+00 0. -1.
         25    1    1    2    0    0 -0.99900319119E+02  0.38952029143E+02  0.68211226271E+02  0.17825573125E+03  0.12500000000E+03 0.  0.
          2    1    1    2  501    0  0.49205381221E+02 -0.60869024856E+01  0.27838309144E+03  0.28276379812E+03  0.00000000000E+00 0. -1.
          1    1    1    2  502    0  0.50694937898E+02 -0.32865126658E+02 -0.76487290530E+03  0.76725527339E+03  0.00000000000E+00 0. -1.
<mgrwt>
<rscale>  0 0.54923938E+02</rscale>
<asrwt>0</asrwt>
<pdfrwt beam="1">  1        2 0.62307401E-01 0.49580439E+02</pdfrwt>
<pdfrwt beam="2">  1        1 0.12665795E+00 0.60843328E+02</pdfrwt>
<totfact> 0.25830018E+02</totfact>
</mgrwt>
</event>
<event>
 5    1  0.4149151E-003  0.3843194E+02  0.7546771E-02  0.1522637E+00
          3   -1    0    0  502    0 -0.00000000000E+00  0.00000000000E+00  0.95424291523E+02  0.95424291523E+02  0.00000000000E+00 0. -1.
          1   -1    0    0  501    0  0.00000000000E+00 -0.00000000000E+00 -0.20346668971E+04  0.20346668971E+04  0.00000000000E+00 0. -1.
         25    1    1    2    0    0  0.45020173892E+02  0.59929437348E+02 -0.79788620480E+03  0.81108923636E+03  0.12500000000E+03 0.  0.
          1    1    1    2  501    0 -0.17273798165E+02 -0.33601160265E+02 -0.12257567153E+04  0.12263388386E+04  0.00000000000E+00 0. -1.
          3    1    1    2  502    0 -0.27746375727E+02 -0.26328277083E+02  0.84400314507E+02  0.92663113638E+02  0.00000000000E+00 0. -1.
<mgrwt>
<rscale>  0 0.38105202E+02</rscale>
<asrwt>0</asrwt>
<pdfrwt beam="2">  1        1 0.31302569E+00 0.37781240E+02</pdfrwt>
<pdfrwt beam="1">  1        3 0.14680660E-01 0.38431942E+02</pdfrwt>
<totfact> 0.71704013E+01</totfact>
</mgrwt>
</event>
<event>
 5    1  0.4149151E-003  0.1364583E+03  0.7546771E-02  0.1324669E+00
          2   -1    0    0  502    0  0.00000000000E+00  0.00000000000E+00  0.30783988752E+04  0.30783988752E+04  0.00000000000E+00 0. -1.
         -3   -1    0    0    0  501 -0.00000000000E+00 -0.00000000000E+00 -0.49692649794E+02  0.49692649794E+02  0.00000000000E+00 0.  1.
         25    1    1    2    0    0 -0.10951462751E+03  0.94929056051E+01  0.30687915491E+03  0.34911800958E+03  0.12500000000E+03 0.  0.
          2    1    1    2  502    0 -0.44066920284E+02 -0.20855973610E+02  0.25409487151E+04  0.25414163842E+04  0.00000000000E+00 0. -1.
         -3    1    1    2    0  501  0.15358154780E+03  0.11363068005E+02  0.18087835538E+03  0.23755713120E+03  0.00000000000E+00 0.  1.
<mgrwt>
<rscale>  0 0.81564478E+02</rscale>
<asrwt>0</asrwt>
<pdfrwt beam="1">  1        2 0.47359968E+00 0.48753103E+02</pdfrwt>
<pdfrwt beam="2">  1       -3 0.76450254E-02 0.13645827E+03</pdfrwt>
<totfact> 0.16902797E+02</totfact>
</mgrwt>
</event>
<event>
 5    1  0.4149151E-003  0.4368290E+02  0.7546771E-02  0.1491633E+00
         -2   -1    0    0    0  501 -0.00000000000E+00  0.00000000000E+00  0.16096126416E+02  0.16096126416E+02  0.00000000000E+00 0.  1.
          1   -1    0    0  502    0  0.00000000000E+00 -0.00000000000E+00 -0.79154878548E+03  0.79154878548E+03  0.00000000000E+00 0. -1.
         25    1    1    2    0    0 -0.28917823969E+02  0.30873730969E+02 -0.53384516974E+03  0.54991371420E+03  0.12500000000E+03 0.  0.
          1    1    1    2  502    0 -0.15290745468E+02 -0.40919298267E+02 -0.10242006612E+03  0.11134660215E+03  0.00000000000E+00 0. -1.
         -2    1    1    2    0  501  0.44208569437E+02  0.10045567298E+02 -0.13918742321E+03  0.14638459554E+03  0.00000000000E+00 0.  1.
<mgrwt>
<rscale>  0 0.42344734E+02</rscale>
<asrwt>0</asrwt>
<pdfrwt beam="2">  1        1 0.12177678E+00 0.43682901E+02</pdfrwt>
<pdfrwt beam="1">  1       -2 0.24763263E-02 0.41047560E+02</pdfrwt>
<totfact> 0.10028277E+04</totfact>
</mgrwt>
</event>
<event>
 5    1  0.4149151E-003  0.6695710E+02  0.7546771E-02  0.1454338E+00
         -1   -1    0    0    0  501 -0.00000000000E+00  0.00000000000E+00  0.76723523297E+02  0.76723523297E+02  0.00000000000E+00 0.  1.
          2   -1    0    0  502    0  0.00000000000E+00 -0.00000000000E+00 -0.33457570877E+03  0.33457570877E+03  0.00000000000E+00 0. -1.
         25    1    1    2    0    0  0.13082384855E+02  0.76466564803E+02 -0.11434052890E+02  0.14756023140E+03  0.12500000000E+03 0.  0.
          2    1    1    2  502    0  0.16708515048E+02 -0.30688741648E+02 -0.13780815104E+03  0.14216912405E+03  0.00000000000E+00 0. -1.
         -1    1    1    2    0  501 -0.29790899903E+02 -0.45777823155E+02 -0.10860998154E+03  0.12156987662E+03  0.00000000000E+00 0.  1.
<mgrwt>
<rscale>  0 0.48369865E+02</rscale>
<asrwt>0</asrwt>
<pdfrwt beam="2">  1        2 0.51473186E-01 0.34942429E+02</pdfrwt>
<pdfrwt beam="1">  1       -1 0.11803619E-01 0.66957105E+02</pdfrwt>
<totfact> 0.47591786E+03</totfact>
</mgrwt>
</event>
<event>
 5    1  0.4149151E-003  0.6017800E+02  0.7546771E-02  0.1404110E+00
          1   -1    0    0  502    0 -0.00000000000E+00  0.00000000000E+00  0.38203784193E+03  0.38203784193E+03  0.00000000000E+00 0. -1.
          2   -1    0    0  501    0  0.00000000000E+00 -0.00000000000E+00 -0.29956648674E+03  0.29956648674E+03  0.00000000000E+00 0. -1.
         25    1    1    2    0    0 -0.68076981408E+01 -0.26521904827E+01 -0.11988358912E+03  0.17335066717E+03  0.12500000000E+03 0.  0.
          2    1    1    2  501    0 -0.46108568003E+02  0.33383892361E+02 -0.14488304470E+03  0.15566496380E+03  0.00000000000E+00 0. -1.
          1    1    1    2  502    0  0.52916266143E+02 -0.30731701878E+02  0.34723798902E+03  0.35258869770E+03  0.00000000000E+00 0. -1.
<mgrwt>
<rscale>  0 0.58529036E+02</rscale>
<asrwt>0</asrwt>
<pdfrwt beam="2">  1        2 0.46087152E-01 0.56925252E+02</pdfrwt>
<pdfrwt beam="1">  1        1 0.58775053E-01 0.60178004E+02</pdfrwt>
<totfact> 0.96403332E+02</totfact>
</mgrwt>
</event>
<event>
 5    1  0.4149151E-003  0.2463380E+02  0.7546771E-02  0.1667849E+00
         -2   -1    0    0    0  501 -0.00000000000E+00  0.00000000000E+00  0.30678724911E+02  0.30678724911E+02  0.00000000000E+00 0.  1.
          1   -1    0    0  502    0  0.00000000000E+00 -0.00000000000E+00 -0.52643531110E+03  0.52643531110E+03  0.00000000000E+00 0. -1.
         25    1    1    2    0    0 -0.15262142790E+02  0.12440728285E+02 -0.43237532124E+03  0.45051206770E+03  0.12500000000E+03 0.  0.
          1    1    1    2  502    0 -0.39886477749E+01 -0.27810541935E+02 -0.74465546947E+02  0.79589278398E+02  0.00000000000E+00 0. -1.
         -2    1    1    2    0  501  0.19250790565E+02  0.15369813650E+02  0.11084282000E+02  0.27012689915E+02  0.00000000000E+00 0.  1.
<mgrwt>
<rscale>  0 0.24529798E+02</rscale>
<asrwt>0</asrwt>
<pdfrwt beam="2">  1        1 0.80990044E-01 0.24426235E+02</pdfrwt>
<pdfrwt beam="1">  1       -2 0.47198040E-02 0.24633800E+02</pdfrwt>
<totfact> 0.65126408E+03</totfact>
</mgrwt>
</event>
<event>
 5    1  0.4149151E-003  0.1268210E+03  0.7546771E-02  0.1337295E+00
          2   -1    0    0  502    0  0.00000000000E+00  0.00000000000E+00  0.34307390082E+03  0.34307390082E+03  0.00000000000E+00 0. -1.
         -3   -1    0    0    0  501 -0.00000000000E+00 -0.00000000000E+00 -0.11107224724E+04  0.11107224724E+04  0.00000000000E+00 0.  1.
         25    1    1    2    0    0 -0.68648440878E+02  0.93466750088E+02 -0.20428534478E+03  0.26609423875E+03  0.12500000000E+03 0.  0.
          2    1    1    2  502    0  0.10818393195E+03 -0.68141234229E+02  0.29841212904E+03  0.32464871738E+03  0.00000000000E+00 0. -1.
         -3    1    1    2    0  501 -0.39535491073E+02 -0.25325515860E+02 -0.86177535580E+03  0.86305341705E+03  0.00000000000E+00 0.  1.
<mgrwt>
<rscale>  0 0.77164929E+02</rscale>
<asrwt>0</asrwt>
<pdfrwt beam="1">  1        2 0.52780600E-01 0.12682098E+03</pdfrwt>
<pdfrwt beam="2">  1       -3 0.17088038E+00 0.46951430E+02</pdfrwt>
<totfact> 0.14617623E+01</totfact>
</mgrwt>
</event>
<event>
 5    1  0.4149151E-003  0.1152596E+03  0.7546771E-02  0.1388874E+00
          3   -1    0    0  502    0 -0.00000000000E+00  0.00000000000E+00  0.34086456087E+03  0.34086456087E+03  0.00000000000E+00 0. -1.
          1   -1    0    0  501    0  0.00000000000E+00 -0.00000000000E+00 -0.50276370863E+03  0.50276370863E+03  0.00000000000E+00 0. -1.
         25    1    1    2    0    0  0.10319356995E+03 -0.24779477589E+02  0.22722435344E+03  0.28021213783E+03  0.12500000000E+03 0.  0.
          1    1    1    2  501    0 -0.11545564383E+03 -0.64526211882E+01 -0.46568386031E+03  0.47982611410E+03  0.00000000000E+00 0. -1.
          3    1    1    2  502    0  0.12262073879E+02  0.31232098777E+02  0.76560359111E+02  0.83590017569E+02  0.00000000000E+00 0. -1.
<mgrwt>
<rscale>  0 0.62187635E+02</rscale>
<asrwt>0</asrwt>
<pdfrwt beam="2">  1        1 0.77348263E-01 0.11525957E+03</pdfrwt>
<pdfrwt beam="1">  1        3 0.52440702E-01 0.33552980E+02</pdfrwt>
<totfact> 0.81485193E+01</totfact>
</mgrwt>
</event>
<event>
 5    1  0.4149151E-003  0.3484521E+02  0.7546771E-02  0.1636673E+00
         -1   -1    0    0    0  502 -0.00000000000E+00  0.00000000000E+00  0.11930585354E+03  0.11930585354E+03  0.00000000000E+00 0.  1.
         -2   -1    0    0    0  501  0.00000000000E+00 -0.00000000000E+00 -0.15887847762E+03  0.15887847762E+03  0.00000000000E+00 0.  1.
         25    1    1    2    0    0  0.51770864481E+01 -0.38567926093E+02  0.16443034742E+02  0.13194567268E+03  0.12500000000E+03 0.  0.
         -2    1    1    2    0  501  0.14279343165E+02  0.31854789372E+02 -0.95517322944E+02  0.10169653991E+03  0.00000000000E+00 0.  1.
         -1    1    1    2    0  502 -0.19456429613E+02  0.67131367206E+01  0.39501664122E+02  0.44542118566E+02  0.00000000000E+00 0.  1.
<mgrwt>
<rscale>  0 0.26780296E+02</rscale>
<asrwt>0</asrwt>
<pdfrwt beam="2">  1       -2 0.24442843E-01 0.34845212E+02</pdfrwt>
<pdfrwt beam="1">  1       -1 0.18354747E-01 0.20582003E+02</pdfrwt>
<totfact> 0.21031324E+03</totfact>
</mgrwt>
</event>
<event>
 5    1  0.4149151E-003  0.5922423E+02  0.7546771E-02  0.1552893E+00
         -2   -1    0    0    0  501 -0.00000000000E+00  0.00000000000E+00  0.12523181220E+02  0.12523181220E+02  0.00000000000E+00 0.  1.
          1   -1    0    0  502    0  0.00000000000E+00 -0.00000000000E+00 -0.13859510547E+04  0.13859510547E+04  0.00000000000E+00 0. -1.
         25    1    1    2    0    0  0.16349240072E+02  0.64200542347E+02 -0.98396591355E+03  0.99408396341E+03  0.12500000000E+03 0.  0.
          1    1    1    2  502    0 -0.29394851519E+02 -0.48880083208E+02 -0.37571666616E+03  0.38002149026E+03  0.00000000000E+00 0. -1.
         -2    1    1    2    0  501  0.13045611447E+02 -0.15320459139E+02 -0.13745293723E+02  0.24368782198E+02  0.00000000000E+00 0.  1.
<mgrwt>
<rscale>  0 0.34521356E+02</rscale>
<asrwt>0</asrwt>
<pdfrwt beam="2">  1        1 0.21322313E+00 0.59224228E+02</pdfrwt>
<pdfrwt beam="1">  1       -2 0.19266442E-02 0.20122238E+02</pdfrwt>
<totfact> 0.47717688E+03</totfact>
</mgrwt>
</event>
<event>
 5    1  0.4149151E-003  0.5868138E+02  0.7546771E-02  0.1525823E+00
          2   -1    0    0  502    0  0.00000000000E+00  0.00000000000E+00  0.66679668821E+02  0.66679668821E+02  0.00000000000E+00 0. -1.
         -1   -1    0    0    0  501 -0.00000000000E+00 -0.00000000000E+00 -0.23368498443E+03  0.23368498443E+03  0.00000000000E+00 0.  1.
         25    1    1    2    0    0  0.38720471571E+02  0.26328682117E+02 -0.38547560620E+02  0.13893663610E+03  0.12500000000E+03 0.  0.
          2    1    1    2  502    0 -0.60170802185E+02 -0.37586840661E+02 -0.77891572667E+02  0.10535840317E+03  0.00000000000E+00 0. -1.
         -1    1    1    2    0  501  0.21450330614E+02  0.11258158544E+02 -0.50566182321E+02  0.56069613979E+02  0.00000000000E+00 0.  1.
<mgrwt>
<rscale>  0 0.37703728E+02</rscale>
<asrwt>0</asrwt>
<pdfrwt beam="1">  1        2 0.10258411E-01 0.58681376E+02</pdfrwt>
<pdfrwt beam="2">  1       -1 0.35951535E-01 0.24225252E+02</pdfrwt>
<totfact> 0.46521525E+03</totfact>
</mgrwt>
</event>
<event>
 5    1  0.4149151E-003  0.5700113E+02  0.7546771E-02  0.1497264E+00
         -1   -1    0    0    0  501 -0.00000000000E+00  0.00000000000E+00  0.51544091532E+03  0.51544091532E+03  0.00000000000E+00 0.  1.
          1   -1    0    0  502    0  0.00000000000E+00 -0.00000000000E+00 -0.25755814833E+02  0.25755814833E+02  0.00000000000E+00 0. -1.
         25    1    1    2    0    0  0.24463771585E+02 -0.31238784041E+02  0.26331719429E+03  0.29416879943E+03  0.12500000000E+03 0.  0.
          1    1    1    2  502    0 -0.23990276933E+02  0.61489113514E+02  0.12658360672E+03  0.14275802590E+03  0.00000000000E+00 0.  1.
         -1    1    1    2    0  501 -0.47349465151E+00 -0.30250329472E+02  0.99784299475E+02  0.10426990482E+03  0.00000000000E+00 0. -1.
<mgrwt>
<rscale>  0 0.41527269E+02</rscale>
<asrwt>0</asrwt>
<pdfrwt beam="2">  1        1 0.39624335E-02 0.57001128E+02</pdfrwt>
<pdfrwt beam="1">  1       -1 0.79298594E-01 0.30254035E+02</pdfrwt>
<totfact> 0.35032546E+03</totfact>
</mgrwt>
</event>
<event>
 5    1  0.4149151E-003  0.4811078E+02  0.7546771E-02  0.1478344E+00
          1   -1    0    0  502    0 -0.00000000000E+00  0.00000000000E+00  0.11111392521E+04  0.11111392521E+04  0.00000000000E+00 0. -1.
          2   -1    0    0  501    0  0.00000000000E+00 -0.00000000000E+00 -0.61731926385E+03  0.61731926385E+03  0.00000000000E+00 0. -1.
         25    1    1    2    0    0 -0.38106330262E+01  0.75897457457E+02  0.12776171794E+03  0.19422410135E+03  0.12500000000E+03 0.  0.
          2    1    1    2  501    0 -0.21026899679E+02 -0.35094216801E+02 -0.58277010989E+03  0.58420436111E+03  0.00000000000E+00 0. -1.
          1    1    1    2  502    0  0.24837532705E+02 -0.40803240656E+02  0.94882838016E+03  0.95003005346E+03  0.00000000000E+00 0. -1.
<mgrwt>
<rscale>  0 0.44365240E+02</rscale>
<asrwt>0</asrwt>
<pdfrwt beam="2">  1        2 0.94972195E-01 0.40911301E+02</pdfrwt>
<pdfrwt beam="1">  1        1 0.17094450E+00 0.48110777E+02</pdfrwt>
<totfact> 0.10496269E+02</totfact>
</mgrwt>
</event>
<event>
 5    1  0.4149151E-003  0.5638550E+02  0.7546771E-02  0.1503840E+00
          2   -1    0    0  502    0  0.00000000000E+00  0.00000000000E+00  0.10194593291E+04  0.10194593291E+04  0.00000000000E+00 0. -1.
         -1   -1    0    0    0  501 -0.00000000000E+00 -0.00000000000E+00 -0.13537597468E+02  0.13537597468E+02  0.00000000000E+00 0.  1.
         25    1    1    2    0    0  0.45594391695E+02 -0.32898894572E+02  0.59284608945E+03  0.60848391235E+03  0.12500000000E+03 0.  0.
          2    1    1    2  502    0 -0.57830376900E+02  0.63486122749E+01  0.35230545295E+03  0.35707672781E+03  0.00000000000E+00 0. -1.
         -1    1    1    2    0  501  0.12235985205E+02  0.26550282297E+02  0.60770189259E+02  0.67436286423E+02  0.00000000000E+00 0.  1.
<mgrwt>
<rscale>  0 0.40600288E+02</rscale>
<asrwt>0</asrwt>
<pdfrwt beam="1">  1        2 0.15683984E+00 0.56385499E+02</pdfrwt>
<pdfrwt beam="2">  1       -1 0.20827081E-02 0.29234172E+02</pdfrwt>
<totfact> 0.15018588E+04</totfact>
</mgrwt>
</event>
<event>
 5    1  0.4149151E-003  0.8804180E+02  0.7546771E-02  0.1463240E+00
          2   -1    0    0  501    0  0.00000000000E+00  0.00000000000E+00  0.18077209585E+04  0.18077209585E+04  0.00000000000E+00 0. -1.
          1   -1    0    0  502    0 -0.00000000000E+00 -0.00000000000E+00 -0.93000668352E+02  0.93000668352E+02  0.00000000000E+00 0. -1.
         25    1    1    2    0    0 -0.17190087968E+02  0.71008082105E+02  0.12406505926E+03  0.19066931001E+03  0.12500000000E+03 0.  0.
          2    1    1    2  501    0 -0.39086006622E+00 -0.88651447949E+02  0.16465104086E+04  0.16488953143E+04  0.00000000000E+00 0. -1.
          1    1    1    2  502    0  0.17580948035E+02  0.17643365843E+02 -0.55855177659E+02  0.61157002571E+02  0.00000000000E+00 0. -1.
<mgrwt>
<rscale>  0 0.46828318E+02</rscale>
<asrwt>0</asrwt>
<pdfrwt beam="1">  1        2 0.27811089E+00 0.88041797E+02</pdfrwt>
<pdfrwt beam="2">  1        1 0.14307796E-01 0.24907390E+02</pdfrwt>
<totfact> 0.49612663E+02</totfact>
</mgrwt>
</event>
<event>
 5    1  0.4149151E-003  0.8670230E+02  0.7546771E-02  0.1350345E+00
          1   -1    0    0  502    0  0.00000000000E+00  0.00000000000E+00  0.72724808542E+03  0.72724808542E+03  0.00000000000E+00 0. -1.
         -2   -1    0    0    0  501 -0.00000000000E+00 -0.00000000000E+00 -0.53228340870E+02  0.53228340870E+02  0.00000000000E+00 0.  1.
         25    1    1    2    0    0 -0.13229386787E+03  0.52549078593E+02  0.18571511755E+03  0.26528885771E+03  0.12500000000E+03 0.  0.
          1    1    1    2  502    0  0.75611641672E+02 -0.29008321979E+02  0.39696861103E+03  0.40514525943E+03  0.00000000000E+00 0. -1.
         -2    1    1    2    0  501  0.56682226200E+02 -0.23540756614E+02  0.91336015975E+02  0.11004230915E+03  0.00000000000E+00 0.  1.
<mgrwt>
<rscale>  0 0.72948340E+02</rscale>
<asrwt>0</asrwt>
<pdfrwt beam="1">  1        1 0.11188431E+00 0.86702296E+02</pdfrwt>
<pdfrwt beam="2">  1       -2 0.81889760E-02 0.61376233E+02</pdfrwt>
<totfact> 0.20157361E+03</totfact>
</mgrwt>
</event>
<event>
 5    1  0.4149151E-003  0.9011103E+02  0.7546771E-02  0.1465718E+00
         -1   -1    0    0    0  501 -0.00000000000E+00  0.00000000000E+00  0.41999868324E+02  0.41999868324E+02  0.00000000000E+00 0.  1.
          2   -1    0    0  502    0  0.00000000000E+00 -0.00000000000E+00 -0.64614374356E+03  0.64614374356E+03  0.00000000000E+00 0. -1.
         25    1    1    2    0    0  0.57181861603E+01 -0.10457058873E+03 -0.47925634310E+03  0.50624040542E+03  0.12500000000E+03 0.  0.
          2    1    1    2  502    0  0.14748268504E+02  0.18812032846E+02 -0.78944268297E+02  0.82483946927E+02  0.00000000000E+00 0. -1.
         -1    1    1    2    0  501 -0.20466454664E+02  0.85758555885E+02 -0.45943263834E+02  0.99419259531E+02  0.00000000000E+00 0.  1.
<mgrwt>
<rscale>  0 0.46411415E+02</rscale>
<asrwt>0</asrwt>
<pdfrwt beam="2">  1        2 0.99406723E-01 0.23904058E+02</pdfrwt>
<pdfrwt beam="1">  1       -1 0.64615186E-02 0.90111033E+02</pdfrwt>
<totfact> 0.61263708E+03</totfact>
</mgrwt>
</event>
<event>
 5    1  0.4149151E-003  0.6483868E+02  0.7546771E-02  0.1482744E+00
          1   -1    0    0  502    0  0.00000000000E+00  0.00000000000E+00  0.11230738312E+03  0.11230738312E+03  0.00000000000E+00 0. -1.
         -2   -1    0    0    0  501 -0.00000000000E+00 -0.00000000000E+00 -0.13018918647E+03  0.13018918647E+03  0.00000000000E+00 0.  1.
         25    1    1    2    0    0 -0.39316806479E+02 -0.22332736905E+02 -0.16815033128E+02  0.13398622223E+03  0.12500000000E+03 0.  0.
          1    1    1    2  502    0  0.68715957923E+02  0.23639464300E+02  0.16114505845E+02  0.74433758768E+02  0.00000000000E+00 0. -1.
         -2    1    1    2    0  501 -0.29399151444E+02 -0.13067273951E+01 -0.17181276073E+02  0.34076588586E+02  0.00000000000E+00 0.  1.
<mgrwt>
<rscale>  0 0.43681623E+02</rscale>
<asrwt>0</asrwt>
<pdfrwt beam="1">  1        1 0.17278059E-01 0.64838681E+02</pdfrwt>
<pdfrwt beam="2">  1       -2 0.20029106E-01 0.29428178E+02</pdfrwt>
<totfact> 0.48926409E+03</totfact>
</mgrwt>
</event>
<event>
 5    1  0.4149151E-003  0.2163146E+03  0.7546771E-02  0.1221336E+00
          1   -1    0    0  502    0 -0.00000000000E+00  0.00000000000E+00  0.66539837234E+03  0.66539837234E+03  0.00000000000E+00 0. -1.
          2   -1    0    0  501    0  0.00000000000E+00 -0.00000000000E+00 -0.34298433959E+03  0.34298433959E+03  0.00000000000E+00 0. -1.
         25    1    1    2    0    0  0.15245006935E+03 -0.14507949350E+02  0.37875455151E+02  0.20127358084E+03  0.12500000000E+03 0.  0.
          2    1    1    2  501    0  0.82569412012E+02 -0.10796874207E+02 -0.22797723404E+03  0.24270949617E+03  0.00000000000E+00 0. -1.
          1    1    1    2  502    0 -0.23501948136E+03  0.25304823558E+02  0.51251581164E+03  0.56439963492E+03  0.00000000000E+00 0. -1.
<mgrwt>
<rscale>  0 0.13421258E+03</rscale>
<asrwt>0</asrwt>
<pdfrwt beam="2">  1        2 0.52766822E-01 0.83272326E+02</pdfrwt>
<pdfrwt beam="1">  1        1 0.10236898E+00 0.21631457E+03</pdfrwt>
<totfact> 0.39492089E+02</totfact>
</mgrwt>
</event>
<event>
 5    1  0.4149151E-003  0.9979406E+02  0.7546771E-02  0.1288617E+00
         -1   -1    0    0    0  501 -0.00000000000E+00  0.00000000000E+00  0.15242183298E+03  0.15242183298E+03  0.00000000000E+00 0.  1.
          2   -1    0    0  502    0  0.00000000000E+00 -0.00000000000E+00 -0.11823820882E+04  0.11823820882E+04  0.00000000000E+00 0. -1.
         25    1    1    2    0    0 -0.56906470111E+02  0.10317893070E+03 -0.69781854352E+03  0.71865148560E+03  0.12500000000E+03 0.  0.
          2    1    1    2  502    0 -0.35569967983E+02 -0.97838955528E+02 -0.45247443200E+03  0.46429602137E+03  0.00000000000E+00 0. -1.
         -1    1    1    2    0  501  0.92476438094E+02 -0.53399751718E+01  0.12033272035E+03  0.15185641417E+03  0.00000000000E+00 0.  1.
<mgrwt>
<rscale>  0 0.96145576E+02</rscale>
<asrwt>0</asrwt>
<pdfrwt beam="2">  1        2 0.18190493E+00 0.99794055E+02</pdfrwt>
<pdfrwt beam="1">  1       -1 0.23449513E-01 0.92630486E+02</pdfrwt>
<totfact> 0.37612669E+02</totfact>
</mgrwt>
</event>
<event>
 5    1  0.4149151E-003  0.2382223E+03  0.7546771E-02  0.1218227E+00
          1   -1    0    0  502    0  0.00000000000E+00  0.00000000000E+00  0.30096834570E+03  0.30096834570E+03  0.00000000000E+00 0. -1.
          1   -1    0    0  501    0 -0.00000000000E+00 -0.00000000000E+00 -0.95003836488E+03  0.95003836488E+03  0.00000000000E+00 0. -1.
         25    1    1    2    0    0  0.21748998063E+03  0.11707000466E+03 -0.41381375035E+03  0.49786955886E+03  0.12500000000E+03 0.  0.
          1    1    1    2  501    0  0.17497046467E+02 -0.76139444529E+02 -0.43503917326E+03  0.44199823973E+03  0.00000000000E+00 0. -1.
          1    1    1    2  502    0 -0.23498702710E+03 -0.40930560132E+02  0.19978290443E+03  0.31113891200E+03  0.00000000000E+00 0. -1.
<mgrwt>
<rscale>  0 0.13642172E+03</rscale>
<asrwt>0</asrwt>
<pdfrwt beam="1">  1        1 0.46302823E-01 0.23822234E+03</pdfrwt>
<pdfrwt beam="2">  1        1 0.14615975E+00 0.78124015E+02</pdfrwt>
<totfact> 0.19705927E+02</totfact>
</mgrwt>
</event>
<event>
 5    1  0.4149151E-003  0.7144672E+02  0.7546771E-02  0.1514276E+00
          2   -1    0    0  501    0  0.00000000000E+00  0.00000000000E+00  0.17533500227E+04  0.17533500227E+04  0.00000000000E+00 0. -1.
          1   -1    0    0  502    0 -0.00000000000E+00 -0.00000000000E+00 -0.75450055656E+02  0.75450055656E+02  0.00000000000E+00 0. -1.
         25    1    1    2    0    0  0.42157447740E+02  0.81511271142E+02  0.35098998352E+03  0.38371904599E+03  0.12500000000E+03 0.  0.
          2    1    1    2  501    0 -0.10493148494E+02 -0.18758527548E+02  0.13649767542E+04  0.13651459731E+04  0.00000000000E+00 0. -1.
          1    1    1    2  502    0 -0.31664299246E+02 -0.62752743594E+02 -0.38066770617E+02  0.79935059270E+02  0.00000000000E+00 0. -1.
<mgrwt>
<rscale>  0 0.39187625E+02</rscale>
<asrwt>0</asrwt>
<pdfrwt beam="1">  1        2 0.26974613E+00 0.21493918E+02</pdfrwt>
<pdfrwt beam="2">  1        1 0.11607702E-01 0.71446718E+02</pdfrwt>
<totfact> 0.85547220E+02</totfact>
</mgrwt>
</event>
<event>
 5    1  0.4149151E-003  0.8844165E+02  0.7546771E-02  0.1348148E+00
         -3   -1    0    0    0  501 -0.00000000000E+00  0.00000000000E+00  0.71556429844E+02  0.71556429844E+02  0.00000000000E+00 0.  1.
          2   -1    0    0  502    0  0.00000000000E+00 -0.00000000000E+00 -0.90094710675E+03  0.90094710675E+03  0.00000000000E+00 0. -1.
         25    1    1    2    0    0 -0.38165432192E+02 -0.12690738989E+02 -0.44809815420E+02  0.13874644006E+03  0.12500000000E+03 0.  0.
          2    1    1    2  502    0  0.58410971277E+02  0.70560472906E+02 -0.76342486317E+03  0.76890060711E+03  0.00000000000E+00 0. -1.
         -3    1    1    2    0  501 -0.20245539085E+02 -0.57869733917E+02 -0.21155998314E+02  0.64856489429E+02  0.00000000000E+00 0.  1.
<mgrwt>
<rscale>  0 0.73636030E+02</rscale>
<asrwt>0</asrwt>
<pdfrwt beam="2">  1        2 0.13860723E+00 0.88441648E+02</pdfrwt>
<pdfrwt beam="1">  1       -3 0.11008683E-01 0.61308955E+02</pdfrwt>
<totfact> 0.10830012E+03</totfact>
</mgrwt>
</event>
<event>
 5    1  0.4149151E-003  0.4346706E+02  0.7546771E-02  0.1511184E+00
          2   -1    0    0  501    0  0.00000000000E+00  0.00000000000E+00  0.27200245723E+04  0.27200245723E+04  0.00000000000E+00 0. -1.
          1   -1    0    0  502    0 -0.00000000000E+00 -0.00000000000E+00 -0.47187852644E+03  0.47187852644E+03  0.00000000000E+00 0. -1.
         25    1    1    2    0    0 -0.20659205233E+02 -0.66376890961E+02  0.69181358521E+03  0.70644442888E+03  0.12500000000E+03 0.  0.
          2    1    1    2  501    0  0.29241911942E+02  0.31337677760E+02  0.20199675351E+04  0.20204222287E+04  0.00000000000E+00 0. -1.
          1    1    1    2  502    0 -0.85827067091E+01  0.35039213200E+02 -0.46363507446E+03  0.46503644114E+03  0.00000000000E+00 0. -1.
<mgrwt>
<rscale>  0 0.39598943E+02</rscale>
<asrwt>0</asrwt>
<pdfrwt beam="1">  1        2 0.41846531E+00 0.43467057E+02</pdfrwt>
<pdfrwt beam="2">  1        1 0.72596698E-01 0.36075051E+02</pdfrwt>
<totfact> 0.27582554E+01</totfact>
</mgrwt>
</event>
<event>
 5    1  0.4149151E-003  0.2428691E+03  0.7546771E-02  0.1193597E+00
          2   -1    0    0  501    0  0.00000000000E+00  0.00000000000E+00  0.12465288344E+04  0.12465288344E+04  0.00000000000E+00 0. -1.
          1   -1    0    0  502    0 -0.00000000000E+00 -0.00000000000E+00 -0.14246254634E+04  0.14246254634E+04  0.00000000000E+00 0. -1.
         25    1    1    2    0    0 -0.13673615425E+03 -0.19750314098E+03 -0.10119926480E+02  0.27098280294E+03  0.12500000000E+03 0.  0.
          2    1    1    2  501    0  0.46573971066E+02  0.24043796889E+03  0.11006764647E+04  0.11275940012E+04  0.00000000000E+00 0. -1.
          1    1    1    2  502    0  0.90162183189E+02 -0.42934827908E+02 -0.12686531672E+04  0.12725774937E+04  0.00000000000E+00 0. -1.
<mgrwt>
<rscale>  0 0.15573578E+03</rscale>
<asrwt>0</asrwt>
<pdfrwt beam="1">  1        2 0.19177367E+00 0.24286906E+03</pdfrwt>
<pdfrwt beam="2">  1        1 0.21917315E+00 0.99863000E+02</pdfrwt>
<totfact> 0.22897744E+01</totfact>
</mgrwt>
</event>
<event>
 5    1  0.4149151E-003  0.5872725E+02  0.7546771E-02  0.1466525E+00
         -1   -1    0    0    0  501 -0.00000000000E+00  0.00000000000E+00  0.15135849594E+04  0.15135849594E+04  0.00000000000E+00 0.  1.
          2   -1    0    0  502    0  0.00000000000E+00 -0.00000000000E+00 -0.98546786235E+01  0.98546786235E+01  0.00000000000E+00 0. -1.
         25    1    1    2    0    0 -0.57790600901E+02  0.11412042100E+02  0.10186368629E+04  0.10279669482E+04  0.12500000000E+03 0.  0.
          2    1    1    2  502    0 -0.41287956912E+00 -0.36463577617E+02  0.21294271122E+03  0.21604249865E+03  0.00000000000E+00 0. -1.
         -1    1    1    2    0  501  0.58203480470E+02  0.25051535517E+02  0.27215070667E+03  0.27943019112E+03  0.00000000000E+00 0.  1.
<mgrwt>
<rscale>  0 0.46276808E+02</rscale>
<asrwt>0</asrwt>
<pdfrwt beam="2">  1        2 0.15161056E-02 0.36465915E+02</pdfrwt>
<pdfrwt beam="1">  1       -1 0.23285904E+00 0.58727250E+02</pdfrwt>
<totfact> 0.82172110E+02</totfact>
</mgrwt>
</event>
<event>
 5    1  0.4149151E-003  0.2588362E+03  0.7546771E-02  0.1223632E+00
         -1   -1    0    0    0  501 -0.00000000000E+00  0.00000000000E+00  0.12086752335E+04  0.12086752335E+04  0.00000000000E+00 0.  1.
          2   -1    0    0  502    0  0.00000000000E+00 -0.00000000000E+00 -0.10474909494E+04  0.10474909494E+04  0.00000000000E+00 0. -1.
         25    1    1    2    0    0  0.22638996302E+03 -0.20584399854E+03 -0.30381285825E+03  0.44894478495E+03  0.12500000000E+03 0.  0.
          2    1    1    2  502    0 -0.67859033943E+02  0.33471309046E+01 -0.65477844146E+03  0.65829390031E+03  0.00000000000E+00 0. -1.
         -1    1    1    2    0  501 -0.15853092907E+03  0.20249686764E+03  0.11197755838E+04  0.11489274977E+04  0.00000000000E+00 0.  1.
<mgrwt>
<rscale>  0 0.13261118E+03</rscale>
<asrwt>0</asrwt>
<pdfrwt beam="2">  1        2 0.16115245E+00 0.67941532E+02</pdfrwt>
<pdfrwt beam="1">  1       -1 0.18595004E+00 0.25883615E+03</pdfrwt>
<totfact> 0.63940610E+00</totfact>
</mgrwt>
</event>
<event>
 5    1  0.4149151E-003  0.7890246E+02  0.7546771E-02  0.1349220E+00
          1   -1    0    0  501    0  0.00000000000E+00  0.00000000000E+00  0.10667595708E+03  0.10667595708E+03  0.00000000000E+00 0. -1.
          1   -1    0    0  502    0 -0.00000000000E+00 -0.00000000000E+00 -0.49556289392E+03  0.49556289392E+03  0.00000000000E+00 0. -1.
         25    1    1    2    0    0 -0.66935879768E+02 -0.14039350895E+02 -0.28202534082E+03  0.31597596149E+03  0.12500000000E+03 0.  0.
          1    1    1    2  501    0  0.13237815345E+02 -0.66794967028E+02  0.61616886574E+02  0.91833806882E+02  0.00000000000E+00 0. -1.
          1    1    1    2  502    0  0.53698064423E+02  0.80834317922E+02 -0.16847848260E+03  0.19442908264E+03  0.00000000000E+00 0. -1.
<mgrwt>
<rscale>  0 0.73299337E+02</rscale>
<asrwt>0</asrwt>
<pdfrwt beam="1">  1        1 0.16411686E-01 0.68094107E+02</pdfrwt>
<pdfrwt beam="2">  1        1 0.76240444E-01 0.78902463E+02</pdfrwt>
<totfact> 0.17537538E+03</totfact>
</mgrwt>
</event>
<event>
 5    1  0.4149151E-003  0.4640259E+02  0.7546771E-02  0.1481790E+00
          2   -1    0    0  502    0  0.00000000000E+00  0.00000000000E+00  0.45419005683E+02  0.45419005683E+02  0.00000000000E+00 0. -1.
          2   -1    0    0  501    0 -0.00000000000E+00 -0.00000000000E+00 -0.60432451759E+03  0.60432451759E+03  0.00000000000E+00 0. -1.
         25    1    1    2    0    0 -0.31897247287E+02  0.60127989176E+02 -0.24808958088E+03  0.28601791833E+03  0.12500000000E+03 0.  0.
          2    1    1    2  501    0  0.38595652140E+02 -0.14970500676E+02 -0.31516053875E+03  0.31786774835E+03  0.00000000000E+00 0. -1.
          2    1    1    2  502    0 -0.66984048532E+01 -0.45157488501E+02  0.43446077195E+01  0.45857856595E+02  0.00000000000E+00 0. -1.
<mgrwt>
<rscale>  0 0.43828576E+02</rscale>
<asrwt>0</asrwt>
<pdfrwt beam="1">  1        2 0.69875395E-02 0.46402591E+02</pdfrwt>
<pdfrwt beam="2">  1        2 0.92973000E-01 0.41397346E+02</pdfrwt>
<totfact> 0.71088594E+03</totfact>
</mgrwt>
</event>
<event>
 5    1  0.4149151E-003  0.8484917E+02  0.7546771E-02  0.1434831E+00
         -2   -1    0    0    0  501 -0.00000000000E+00  0.00000000000E+00  0.13032701312E+03  0.13032701312E+03  0.00000000000E+00 0.  1.
          1   -1    0    0  502    0  0.00000000000E+00 -0.00000000000E+00 -0.16477060113E+03  0.16477060113E+03  0.00000000000E+00 0. -1.
         25    1    1    2    0    0  0.89322823729E+02  0.49850531561E+02 -0.50948216327E+01  0.16160012235E+03  0.12500000000E+03 0.  0.
          1    1    1    2  502    0 -0.13472319237E+02 -0.28883760516E+02 -0.43106249224E+02  0.53608989259E+02  0.00000000000E+00 0. -1.
         -2    1    1    2    0  501 -0.75850504491E+02 -0.20966771045E+02  0.13757482850E+02  0.79888502640E+02  0.00000000000E+00 0.  1.
<mgrwt>
<rscale>  0 0.52002375E+02</rscale>
<asrwt>0</asrwt>
<pdfrwt beam="2">  1        1 0.25349323E-01 0.31871225E+02</pdfrwt>
<pdfrwt beam="1">  1       -2 0.20050310E-01 0.84849168E+02</pdfrwt>
<totfact> 0.31268142E+03</totfact>
</mgrwt>
</event>
<event>
 5    1  0.4149151E-003  0.1824028E+03  0.7546771E-02  0.1294083E+00
          2   -1    0    0  501    0  0.00000000000E+00  0.00000000000E+00  0.72019962528E+03  0.72019962528E+03  0.00000000000E+00 0. -1.
          2   -1    0    0  502    0 -0.00000000000E+00 -0.00000000000E+00 -0.44895655450E+03  0.44895655450E+03  0.00000000000E+00 0.  1.
         25    1    1    2    0    0  0.51900491977E+02 -0.13904706693E+03 -0.37931549621E+02  0.19771583231E+03  0.12500000000E+03 0.  0.
          2    1    1    2  501    0  0.18970039975E+01 -0.48117845284E+02  0.61064470769E+03  0.61254051678E+03  0.00000000000E+00 0. -1.
          2    1    1    2  502    0 -0.53797495974E+02  0.18716491222E+03 -0.30147008729E+03  0.35889983069E+03  0.00000000000E+00 0.  1.
<mgrwt>
<rscale>  0 0.93721123E+02</rscale>
<asrwt>0</asrwt>
<pdfrwt beam="1">  1        2 0.11079994E+00 0.48155225E+02</pdfrwt>
<pdfrwt beam="2">  1        2 0.69070239E-01 0.18240282E+03</pdfrwt>
<totfact> 0.46901865E+02</totfact>
</mgrwt>
</event>
<event>
 5    1  0.4149151E-003  0.7986064E+02  0.7546771E-02  0.1393526E+00
          2   -1    0    0  501    0  0.00000000000E+00  0.00000000000E+00  0.26061282156E+04  0.26061282156E+04  0.00000000000E+00 0. -1.
          3   -1    0    0  502    0 -0.00000000000E+00 -0.00000000000E+00 -0.25649806371E+03  0.25649806371E+03  0.00000000000E+00 0. -1.
         25    1    1    2    0    0 -0.50559511107E+02  0.93573477365E+02  0.56533364888E+03  0.58867596722E+03  0.12500000000E+03 0.  0.
          2    1    1    2  501    0  0.62048753137E+02 -0.48358553241E+02  0.20261307682E+04  0.20276573891E+04  0.00000000000E+00 0. -1.
          3    1    1    2  502    0 -0.11489242030E+02 -0.45214924124E+02 -0.24183426527E+03  0.24629292297E+03  0.00000000000E+00 0. -1.
<mgrwt>
<rscale>  0 0.61038054E+02</rscale>
<asrwt>0</asrwt>
<pdfrwt beam="1">  1        2 0.40094278E+00 0.79860640E+02</pdfrwt>
<pdfrwt beam="2">  1        3 0.39461243E-01 0.46651817E+02</pdfrwt>
<totfact> 0.14888667E+01</totfact>
</mgrwt>
</event>
<event>
 5    1  0.4149151E-003  0.1809552E+03  0.7546771E-02  0.1363633E+00
          1   -1    0    0  502    0  0.00000000000E+00  0.00000000000E+00  0.13440814353E+04  0.13440814353E+04  0.00000000000E+00 0. -1.
         -1   -1    0    0    0  501 -0.00000000000E+00 -0.00000000000E+00 -0.22397306414E+03  0.22397306414E+03  0.00000000000E+00 0.  1.
         25    1    1    2    0    0  0.17420877312E+03 -0.80671375318E+02  0.62476001811E+03  0.66543718536E+03  0.12500000000E+03 0.  0.
          1    1    1    2  502    0 -0.14999292177E+03  0.90899010818E+02  0.68706995064E+03  0.70910198408E+03  0.00000000000E+00 0. -1.
         -1    1    1    2    0  501 -0.24215851353E+02 -0.10227635500E+02 -0.19172159757E+03  0.19351533004E+03  0.00000000000E+00 0.  1.
<mgrwt>
<rscale>  0 0.68969482E+02</rscale>
<asrwt>0</asrwt>
<pdfrwt beam="1">  1        1 0.20678175E+00 0.18095523E+03</pdfrwt>
<pdfrwt beam="2">  1       -1 0.34457395E-01 0.26287107E+02</pdfrwt>
<totfact> 0.74062178E+01</totfact>
</mgrwt>
</event>
<event>
 5    1  0.4149151E-003  0.9995417E+02  0.7546771E-02  0.1365097E+00
         -3   -1    0    0    0  501 -0.00000000000E+00  0.00000000000E+00  0.64895015111E+02  0.64895015111E+02  0.00000000000E+00 0.  1.
          1   -1    0    0  502    0  0.00000000000E+00 -0.00000000000E+00 -0.28506251567E+04  0.28506251567E+04  0.00000000000E+00 0. -1.
         25    1    1    2    0    0  0.44499132734E+02  0.35218880631E+02 -0.21719665625E+04  0.21763005975E+04  0.12500000000E+03 0.  0.
          1    1    1    2  502    0  0.19158915256E+02  0.42930440091E+02 -0.63456194393E+03  0.63630098806E+03  0.00000000000E+00 0. -1.
         -3    1    1    2    0  501 -0.63658047990E+02 -0.78149320722E+02  0.20798364834E+02  0.10291858619E+03  0.00000000000E+00 0.  1.
<mgrwt>
<rscale>  0 0.68549262E+02</rscale>
<asrwt>0</asrwt>
<pdfrwt beam="2">  1        1 0.43855769E+00 0.47011559E+02</pdfrwt>
<pdfrwt beam="1">  1       -3 0.99838491E-02 0.99954169E+02</pdfrwt>
<totfact> 0.45765193E+01</totfact>
</mgrwt>
</event>
<event>
 5    1  0.4149151E-003  0.3598854E+02  0.7546771E-02  0.1619232E+00
          2   -1    0    0  502    0  0.00000000000E+00  0.00000000000E+00  0.11648607658E+04  0.11648607658E+04  0.00000000000E+00 0.  1.
         -1   -1    0    0    0  501 -0.00000000000E+00 -0.00000000000E+00 -0.55146935841E+02  0.55146935841E+02  0.00000000000E+00 0.  1.
         25    1    1    2    0    0 -0.38351201700E+02 -0.40092635080E+02  0.19052832950E+03  0.23452990940E+03  0.12500000000E+03 0.  0.
          2    1    1    2  502    0  0.95784657979E+01  0.19862834849E+02  0.94283552770E+03  0.94309337369E+03  0.00000000000E+00 0.  1.
         -1    1    1    2    0  501  0.28772735902E+02  0.20229800231E+02 -0.23650027230E+02  0.42384418560E+02  0.00000000000E+00 0.  1.
<mgrwt>
<rscale>  0 0.28171085E+02</rscale>
<asrwt>0</asrwt>
<pdfrwt beam="1">  1        2 0.17920933E+00 0.22051740E+02</pdfrwt>
<pdfrwt beam="2">  1       -1 0.84841448E-02 0.35988544E+02</pdfrwt>
<totfact> 0.18895363E+03</totfact>
</mgrwt>
</event>
<event>
 5    1  0.4149151E-003  0.5893189E+02  0.7546771E-02  0.1430313E+00
          2   -1    0    0  502    0  0.00000000000E+00  0.00000000000E+00  0.29115635795E+03  0.29115635795E+03  0.00000000000E+00 0. -1.
         -1   -1    0    0    0  501 -0.00000000000E+00 -0.00000000000E+00 -0.69444249734E+02  0.69444249734E+02  0.00000000000E+00 0.  1.
         25    1    1    2    0    0 -0.67379282388E+02 -0.62494099011E+02  0.16008735893E+03  0.22293147511E+03  0.12500000000E+03 0.  0.
          2    1    1    2  502    0  0.47655407460E+02  0.19304384283E+02  0.72574620100E+02  0.88942524112E+02  0.00000000000E+00 0. -1.
         -1    1    1    2    0  501  0.19723874928E+02  0.43189714728E+02 -0.10949870820E+02  0.48726608454E+02  0.00000000000E+00 0.  1.
<mgrwt>
<rscale>  0 0.52897129E+02</rscale>
<asrwt>0</asrwt>
<pdfrwt beam="1">  1        2 0.44793285E-01 0.58931891E+02</pdfrwt>
<pdfrwt beam="2">  1       -1 0.10683731E-01 0.47480340E+02</pdfrwt>
<totfact> 0.62435364E+03</totfact>
</mgrwt>
</event>
<event>
 5    1  0.4149151E-003  0.4753258E+02  0.7546771E-02  0.1495180E+00
          2   -1    0    0  501    0  0.00000000000E+00  0.00000000000E+00  0.95364387470E+03  0.95364387470E+03  0.00000000000E+00 0. -1.
          1   -1    0    0  502    0 -0.00000000000E+00 -0.00000000000E+00 -0.55950713950E+03  0.55950713950E+03  0.00000000000E+00 0. -1.
         25    1    1    2    0    0 -0.86676032437E+01 -0.28134338928E+02  0.95658277974E+02  0.16013174113E+03  0.12500000000E+03 0.  0.
          2    1    1    2  501    0  0.34855590524E+02 -0.11824456072E+02  0.82425509878E+03  0.82507647998E+03  0.00000000000E+00 0. -1.
          1    1    1    2  502    0 -0.26187987280E+02  0.39958795000E+02 -0.52577664155E+03  0.52794279309E+03  0.00000000000E+00 0. -1.
<mgrwt>
<rscale>  0 0.41827207E+02</rscale>
<asrwt>0</asrwt>
<pdfrwt beam="1">  1        2 0.14671444E+00 0.36806656E+02</pdfrwt>
<pdfrwt beam="2">  1        1 0.86078021E-01 0.47532578E+02</pdfrwt>
<totfact> 0.17266170E+02</totfact>
</mgrwt>
</event>
<event>
 5    1  0.4149151E-003  0.1337300E+03  0.7546771E-02  0.1310790E+00
          2   -1    0    0  502    0  0.00000000000E+00  0.00000000000E+00  0.22450906833E+04  0.22450906833E+04  0.00000000000E+00 0. -1.
          2   -1    0    0  501    0 -0.00000000000E+00 -0.00000000000E+00 -0.14818199296E+04  0.14818199296E+04  0.00000000000E+00 0. -1.
         25    1    1    2    0    0  0.21532813377E+02 -0.17578134421E+03 -0.34778783774E+02  0.21953885038E+03  0.12500000000E+03 0.  0.
          2    1    1    2  501    0  0.24312318444E+02  0.50823970960E+02 -0.13520164544E+04  0.13531898085E+04  0.00000000000E+00 0. -1.
          2    1    1    2  502    0 -0.45845131820E+02  0.12495737325E+03  0.21500659920E+04  0.21541819540E+04  0.00000000000E+00 0. -1.
<mgrwt>
<rscale>  0 0.86800418E+02</rscale>
<asrwt>0</asrwt>
<pdfrwt beam="1">  1        2 0.34539856E+00 0.13373001E+03</pdfrwt>
<pdfrwt beam="2">  1        2 0.22797230E+00 0.56339727E+02</pdfrwt>
<totfact> 0.14807772E+01</totfact>
</mgrwt>
</event>
<event>
 5    1  0.4149151E-003  0.8560751E+02  0.7546771E-02  0.1405559E+00
          2   -1    0    0  502    0  0.00000000000E+00  0.00000000000E+00  0.14846712723E+04  0.14846712723E+04  0.00000000000E+00 0. -1.
         -1   -1    0    0    0  501 -0.00000000000E+00 -0.00000000000E+00 -0.35082726057E+03  0.35082726057E+03  0.00000000000E+00 0.  1.
         25    1    1    2    0    0  0.12180041977E+03 -0.10195502985E+02  0.18844677210E+03  0.25705345057E+03  0.12500000000E+03 0.  0.
          2    1    1    2  502    0 -0.38904889568E+02 -0.71843815733E+01  0.12559380712E+04  0.12565610389E+04  0.00000000000E+00 0. -1.
         -1    1    1    2    0  501 -0.82895530197E+02  0.17379884559E+02 -0.31054083158E+03  0.32188404339E+03  0.00000000000E+00 0.  1.
<mgrwt>
<rscale>  0 0.58196759E+02</rscale>
<asrwt>0</asrwt>
<pdfrwt beam="1">  1        2 0.22841096E+00 0.39562682E+02</pdfrwt>
<pdfrwt beam="2">  1       -1 0.53973426E-01 0.85607513E+02</pdfrwt>
<totfact> 0.67653836E+01</totfact>
</mgrwt>
</event>
<event>
 5    1  0.4149151E-003  0.2376052E+02  0.7546771E-02  0.1693000E+00
          3   -1    0    0  502    0 -0.00000000000E+00  0.00000000000E+00  0.13775225161E+03  0.13775225161E+03  0.00000000000E+00 0. -1.
          2   -1    0    0  501    0  0.00000000000E+00 -0.00000000000E+00 -0.32528245851E+03  0.32528245851E+03  0.00000000000E+00 0. -1.
         25    1    1    2    0    0 -0.25734921249E+02  0.65535732566E+01 -0.68080040995E+02  0.14479339583E+03  0.12500000000E+03 0.  0.
          2    1    1    2  501    0  0.18992497372E+02  0.14478878802E+02 -0.21695537610E+03  0.21826586564E+03  0.00000000000E+00 0. -1.
          3    1    1    2  502    0  0.67424238768E+01 -0.21032452058E+02  0.97505210182E+02  0.99975448646E+02  0.00000000000E+00 0. -1.
<mgrwt>
<rscale>  0 0.22908353E+02</rscale>
<asrwt>0</asrwt>
<pdfrwt beam="2">  1        2 0.50043455E-01 0.23760524E+02</pdfrwt>
<pdfrwt beam="1">  1        3 0.21192654E-01 0.22086745E+02</pdfrwt>
<totfact> 0.96722674E+02</totfact>
</mgrwt>
</event>
<event>
 5    1  0.4149151E-003  0.5843741E+02  0.7546771E-02  0.1421370E+00
          2   -1    0    0  502    0  0.00000000000E+00  0.00000000000E+00  0.10373637643E+03  0.10373637643E+03  0.00000000000E+00 0. -1.
         -1   -1    0    0    0  501 -0.00000000000E+00 -0.00000000000E+00 -0.22326531507E+03  0.22326531507E+03  0.00000000000E+00 0.  1.
         25    1    1    2    0    0 -0.36523319469E+02 -0.80875965044E+02 -0.13977164956E+03  0.20745117162E+03  0.12500000000E+03 0.  0.
          2    1    1    2  502    0  0.44901691515E+02  0.30303381995E+02 -0.16331185695E+02  0.56578834271E+02  0.00000000000E+00 0. -1.
         -1    1    1    2    0  501 -0.83783720464E+01  0.50572583050E+02  0.36573896612E+02  0.62971685604E+02  0.00000000000E+00 0.  1.
<mgrwt>
<rscale>  0 0.54732197E+02</rscale>
<asrwt>0</asrwt>
<pdfrwt beam="1">  1        2 0.15959443E-01 0.58437414E+02</pdfrwt>
<pdfrwt beam="2">  1       -1 0.34348509E-01 0.51261909E+02</pdfrwt>
<totfact> 0.30538815E+03</totfact>
</mgrwt>
</event>
<event>
 5    1  0.4149151E-003  0.1013552E+03  0.7546771E-02  0.1420374E+00
          1   -1    0    0  502    0 -0.00000000000E+00  0.00000000000E+00  0.68809737972E+02  0.68809737972E+02  0.00000000000E+00 0. -1.
          2   -1    0    0  501    0  0.00000000000E+00 -0.00000000000E+00 -0.42598062718E+03  0.42598062718E+03  0.00000000000E+00 0. -1.
         25    1    1    2    0    0  0.14267149851E+02  0.93830357099E+02 -0.72162410187E+02  0.17274287517E+03  0.12500000000E+03 0.  0.
          2    1    1    2  501    0  0.27495427248E+02  0.11445146790E+02 -0.10697013582E+03  0.11103873136E+03  0.00000000000E+00 0. -1.
          1    1    1    2  502    0 -0.41762577100E+02 -0.10527550389E+03 -0.17803834320E+03  0.21100875862E+03  0.00000000000E+00 0. -1.
<mgrwt>
<rscale>  0 0.54941778E+02</rscale>
<asrwt>0</asrwt>
<pdfrwt beam="2">  1        2 0.65535481E-01 0.29782376E+02</pdfrwt>
<pdfrwt beam="1">  1        1 0.10586114E-01 0.10135521E+03</pdfrwt>
<totfact> 0.57362083E+03</totfact>
</mgrwt>
</event>
<event>
 5    1  0.4149151E-003  0.1648537E+03  0.7546771E-02  0.1323182E+00
          2   -1    0    0  501    0  0.00000000000E+00  0.00000000000E+00  0.27490136687E+03  0.27490136687E+03  0.00000000000E+00 0. -1.
          1   -1    0    0  502    0 -0.00000000000E+00 -0.00000000000E+00 -0.10125710023E+04  0.10125710023E+04  0.00000000000E+00 0. -1.
         25    1    1    2    0    0 -0.66035409531E+02 -0.11868987345E+03 -0.42135240305E+02  0.18933657821E+03  0.12500000000E+03 0.  0.
          2    1    1    2  501    0  0.97675541722E+02  0.14459471308E+03  0.16290809803E+03  0.23871990052E+03  0.00000000000E+00 0. -1.
          1    1    1    2  502    0 -0.31640132190E+02 -0.25904839633E+02 -0.85844249319E+03  0.85941589047E+03  0.00000000000E+00 0. -1.
<mgrwt>
<rscale>  0 0.82104830E+02</rscale>
<asrwt>0</asrwt>
<pdfrwt beam="1">  1        2 0.42292519E-01 0.16485369E+03</pdfrwt>
<pdfrwt beam="2">  1        1 0.15578015E+00 0.40892037E+02</pdfrwt>
<totfact> 0.28973386E+02</totfact>
</mgrwt>
</event>
<event>
 5    1  0.4149151E-003  0.4765618E+03  0.7546771E-02  0.1177372E+00
          2   -1    0    0  502    0  0.00000000000E+00  0.00000000000E+00  0.26631178067E+04  0.26631178067E+04  0.00000000000E+00 0. -1.
          2   -1    0    0  501    0 -0.00000000000E+00 -0.00000000000E+00 -0.52632015697E+03  0.52632015697E+03  0.00000000000E+00 0. -1.
         25    1    1    2    0    0  0.69066033065E+02 -0.51155209875E+03  0.95147693043E+02  0.53956811446E+03  0.12500000000E+03 0.  0.
          2    1    1    2  501    0 -0.59071993318E+02  0.45140741333E+03 -0.13306205746E+03  0.47430334633E+03  0.00000000000E+00 0. -1.
          2    1    1    2  502    0 -0.99940397478E+01  0.60144685416E+02  0.21747120142E+04  0.21755665029E+04  0.00000000000E+00 0. -1.
<mgrwt>
<rscale>  0 0.17045725E+03</rscale>
<asrwt>0</asrwt>
<pdfrwt beam="1">  1        2 0.40971042E+00 0.60969369E+02</pdfrwt>
<pdfrwt beam="2">  1        2 0.80972334E-01 0.47656180E+03</pdfrwt>
<totfact> 0.36427103E+01</totfact>
</mgrwt>
</event>
<event>
 5    1  0.4149151E-003  0.3679399E+02  0.7546771E-02  0.1628709E+00
         -1   -1    0    0    0  501 -0.00000000000E+00  0.00000000000E+00  0.25652451320E+03  0.25652451320E+03  0.00000000000E+00 0.  1.
          2   -1    0    0  502    0  0.00000000000E+00 -0.00000000000E+00 -0.57115777616E+02  0.57115777616E+02  0.00000000000E+00 0. -1.
         25    1    1    2    0    0  0.23127841254E+02  0.48594882770E+02  0.15751718450E+03  0.20816585475E+03  0.12500000000E+03 0.  0.
          2    1    1    2  502    0 -0.49418411483E+01 -0.19801343452E+02 -0.23877615262E+02  0.31411073000E+02  0.00000000000E+00 0. -1.
         -1    1    1    2    0  501 -0.18186000106E+02 -0.28793539318E+02  0.65769166340E+02  0.74063363058E+02  0.00000000000E+00 0.  1.
<mgrwt>
<rscale>  0 0.27402872E+02</rscale>
<asrwt>0</asrwt>
<pdfrwt beam="2">  1        2 0.87870429E-02 0.20408699E+02</pdfrwt>
<pdfrwt beam="1">  1       -1 0.39465309E-01 0.36793985E+02</pdfrwt>
<totfact> 0.43997559E+03</totfact>
</mgrwt>
</event>
<event>
 5    1  0.4149151E-003  0.5909693E+02  0.7546771E-02  0.1489756E+00
          3   -1    0    0  502    0 -0.00000000000E+00  0.00000000000E+00  0.31281896970E+02  0.31281896970E+02  0.00000000000E+00 0. -1.
          1   -1    0    0  501    0  0.00000000000E+00 -0.00000000000E+00 -0.20523883638E+04  0.20523883638E+04  0.00000000000E+00 0. -1.
         25    1    1    2    0    0  0.71129991421E+02  0.26244878278E+02 -0.54187808278E+03  0.56125317452E+03  0.12500000000E+03 0.  0.
          1    1    1    2  501    0 -0.12897092828E+02 -0.27903998875E+02 -0.14610740458E+04  0.14613973914E+04  0.00000000000E+00 0. -1.
          3    1    1    2  502    0 -0.58232898593E+02  0.16591205971E+01 -0.18154338163E+02  0.61019694803E+02  0.00000000000E+00 0. -1.
<mgrwt>
<rscale>  0 0.42622289E+02</rscale>
<asrwt>0</asrwt>
<pdfrwt beam="2">  1        1 0.31575201E+00 0.30740334E+02</pdfrwt>
<pdfrwt beam="1">  1        3 0.48126003E-02 0.59096934E+02</pdfrwt>
<totfact> 0.45654048E+02</totfact>
</mgrwt>
</event>
<event>
 5    1  0.4149151E-003  0.3962253E+02  0.7546771E-02  0.1539725E+00
          2   -1    0    0  502    0  0.00000000000E+00  0.00000000000E+00  0.18183131457E+04  0.18183131457E+04  0.00000000000E+00 0. -1.
         -1   -1    0    0    0  501 -0.00000000000E+00 -0.00000000000E+00 -0.60752487307E+01  0.60752487307E+01  0.00000000000E+00 0.  1.
         25    1    1    2    0    0  0.84059621545E+01 -0.10422555525E+02  0.13019245597E+04  0.13079800644E+04  0.12500000000E+03 0.  0.
          2    1    1    2  502    0  0.17807484314E+02 -0.27479506420E+02  0.19096628994E+03  0.19375333201E+03  0.00000000000E+00 0. -1.
         -1    1    1    2    0  501 -0.26213446469E+02  0.37902061945E+02  0.31934704736E+03  0.32265499799E+03  0.00000000000E+00 0.  1.
<mgrwt>
<rscale>  0 0.36019948E+02</rscale>
<asrwt>0</asrwt>
<pdfrwt beam="1">  1        2 0.27974005E+00 0.32744920E+02</pdfrwt>
<pdfrwt beam="2">  1       -1 0.93465510E-03 0.39622533E+02</pdfrwt>
<totfact> 0.19804351E+04</totfact>
</mgrwt>
</event>
<event>
 5    1  0.4149151E-003  0.8450843E+02  0.7546771E-02  0.1485954E+00
         -2   -1    0    0    0  501  0.00000000000E+00  0.00000000000E+00  0.86692131432E+02  0.86692131432E+02  0.00000000000E+00 0.  1.
         -3   -1    0    0    0  502 -0.00000000000E+00 -0.00000000000E+00 -0.30855428274E+03  0.30855428274E+03  0.00000000000E+00 0.  1.
         25    1    1    2    0    0  0.32547912906E+02 -0.67347422627E+02 -0.19888884240E+03  0.24652953900E+03  0.12500000000E+03 0.  0.
         -2    1    1    2    0  501 -0.54609383925E+02  0.66561201856E+02  0.30123338205E+02  0.91214000624E+02  0.00000000000E+00 0.  1.
         -3    1    1    2    0  502  0.22061471019E+02  0.78622077030E+00 -0.53096647109E+02  0.57502874544E+02  0.00000000000E+00 0.  1.
<mgrwt>
<rscale>  0 0.43192174E+02</rscale>
<asrwt>0</asrwt>
<pdfrwt beam="1">  1       -2 0.13337251E-01 0.84508433E+02</pdfrwt>
<pdfrwt beam="2">  1       -3 0.47469890E-01 0.22075476E+02</pdfrwt>
<totfact> 0.59241017E+02</totfact>
</mgrwt>
</event>
<event>
 5    1  0.4149151E-003  0.7942414E+02  0.7546771E-02  0.1411515E+00
          1   -1    0    0  501    0  0.00000000000E+00  0.00000000000E+00  0.14432476504E+04  0.14432476504E+04  0.00000000000E+00 0. -1.
          1   -1    0    0  502    0 -0.00000000000E+00 -0.00000000000E+00 -0.16098494987E+04  0.16098494987E+04  0.00000000000E+00 0. -1.
         25    1    1    2    0    0  0.56733887552E+01  0.84427419441E+02  0.45723029767E+03  0.48150256656E+03  0.12500000000E+03 0.  0.
          1    1    1    2  501    0  0.33295376024E+02 -0.72675525207E+02  0.97198086473E+03  0.97526258793E+03  0.00000000000E+00 0. -1.
          1    1    1    2  502    0 -0.38968764779E+02 -0.11751894235E+02 -0.15958130108E+04  0.15963319946E+04  0.00000000000E+00 0. -1.
<mgrwt>
<rscale>  0 0.56857187E+02</rscale>
<asrwt>0</asrwt>
<pdfrwt beam="1">  1        1 0.22203810E+00 0.79424139E+02</pdfrwt>
<pdfrwt beam="2">  1        1 0.24766915E+00 0.40702231E+02</pdfrwt>
<totfact> 0.77687973E+00</totfact>
</mgrwt>
</event>
<event>
 5    1  0.4149151E-003  0.1254064E+03  0.7546771E-02  0.1414066E+00
         -1   -1    0    0    0  501 -0.00000000000E+00  0.00000000000E+00  0.80920613938E+02  0.80920613938E+02  0.00000000000E+00 0.  1.
          2   -1    0    0  502    0  0.00000000000E+00 -0.00000000000E+00 -0.41358410719E+03  0.41358410719E+03  0.00000000000E+00 0. -1.
         25    1    1    2    0    0 -0.11531171827E+03 -0.56556687606E+02 -0.67653984537E+02  0.19156594924E+03  0.12500000000E+03 0.  0.
          2    1    1    2  502    0 -0.18806276997E+01  0.25201915841E+02 -0.40156367799E+02  0.47446888174E+02  0.00000000000E+00 0. -1.
         -1    1    1    2    0  501  0.11719234597E+03  0.31354771765E+02 -0.22485314092E+03  0.25549188372E+03  0.00000000000E+00 0.  1.
<mgrwt>
<rscale>  0 0.56296258E+02</rscale>
<asrwt>0</asrwt>
<pdfrwt beam="2">  1        2 0.63628325E-01 0.25271987E+02</pdfrwt>
<pdfrwt beam="1">  1       -1 0.12449325E-01 0.12540639E+03</pdfrwt>
<totfact> 0.36755010E+03</totfact>
</mgrwt>
</event>
<event>
 5    1  0.4149151E-003  0.7805487E+02  0.7546771E-02  0.1509276E+00
         -2   -1    0    0    0  501 -0.00000000000E+00  0.00000000000E+00  0.46038595691E+03  0.46038595691E+03  0.00000000000E+00 0.  1.
          2   -1    0    0  502    0  0.00000000000E+00 -0.00000000000E+00 -0.78251353516E+03  0.78251353516E+03  0.00000000000E+00 0.  1.
         25    1    1    2    0    0 -0.72512275671E+02  0.22357013937E+02 -0.45752219402E+03  0.48032220875E+03  0.12500000000E+03 0.  0.
          2    1    1    2  502    0  0.64606289507E+01  0.19298094487E+02 -0.30985960754E+03  0.31052718490E+03  0.00000000000E+00 0.  1.
         -2    1    1    2    0  501  0.66051646720E+02 -0.41655108424E+02  0.44525422332E+03  0.45205009842E+03  0.00000000000E+00 0.  1.
<mgrwt>
<rscale>  0 0.39855756E+02</rscale>
<asrwt>0</asrwt>
<pdfrwt beam="2">  1        2 0.12038670E+00 0.20350827E+02</pdfrwt>
<pdfrwt beam="1">  1       -2 0.70828609E-01 0.78054874E+02</pdfrwt>
<totfact> 0.76941345E+01</totfact>
</mgrwt>
</event>
<event>
 5    1  0.4149151E-003  0.1404162E+03  0.7546771E-02  0.1347152E+00
         -1   -1    0    0    0  501 -0.00000000000E+00  0.00000000000E+00  0.17399973662E+03  0.17399973662E+03  0.00000000000E+00 0.  1.
          2   -1    0    0  502    0  0.00000000000E+00 -0.00000000000E+00 -0.22453559646E+03  0.22453559646E+03  0.00000000000E+00 0. -1.
         25    1    1    2    0    0 -0.60899769254E+02  0.15356796567E+03 -0.57159667862E+01  0.20724279059E+03  0.12500000000E+03 0.  0.
          2    1    1    2  502    0  0.17704919964E+02 -0.34689439481E+02 -0.51576527861E+02  0.64629402199E+02  0.00000000000E+00 0. -1.
         -1    1    1    2    0  501  0.43194849290E+02 -0.11887852619E+03  0.67566348107E+01  0.12666314029E+03  0.00000000000E+00 0.  1.
<mgrwt>
<rscale>  0 0.73950693E+02</rscale>
<asrwt>0</asrwt>
<pdfrwt beam="2">  1        2 0.34543938E-01 0.38946391E+02</pdfrwt>
<pdfrwt beam="1">  1       -1 0.26769190E-01 0.14041622E+03</pdfrwt>
<totfact> 0.20229090E+03</totfact>
</mgrwt>
</event>
<event>
 5    1  0.4149151E-003  0.4752494E+02  0.7546771E-02  0.1490000E+00
          1   -1    0    0  502    0 -0.00000000000E+00  0.00000000000E+00  0.19108557464E+04  0.19108557464E+04  0.00000000000E+00 0. -1.
          2   -1    0    0  501    0  0.00000000000E+00 -0.00000000000E+00 -0.19131029932E+04  0.19131029932E+04  0.00000000000E+00 0. -1.
         25    1    1    2    0    0 -0.32046659423E+02 -0.65181480527E+02  0.31860273015E+03  0.34986899469E+03  0.12500000000E+03 0.  0.
          2    1    1    2  501    0 -0.17584843625E+01  0.47477761063E+02 -0.18969414743E+04  0.18975363467E+04  0.00000000000E+00 0. -1.
          1    1    1    2  502    0  0.33805143785E+02  0.17703719465E+02  0.15760914973E+04  0.15765533982E+04  0.00000000000E+00 0. -1.
<mgrwt>
<rscale>  0 0.42585991E+02</rscale>
<asrwt>0</asrwt>
<pdfrwt beam="2">  1        2 0.29432354E+00 0.47524942E+02</pdfrwt>
<pdfrwt beam="1">  1        1 0.29397781E+00 0.38160312E+02</pdfrwt>
<totfact> 0.66369618E+00</totfact>
</mgrwt>
</event>
<event>
 5    1  0.4149151E-003  0.4344951E+02  0.7546771E-02  0.1505609E+00
         -1   -1    0    0    0  501 -0.00000000000E+00  0.00000000000E+00  0.25439710531E+02  0.25439710531E+02  0.00000000000E+00 0.  1.
          2   -1    0    0  502    0  0.00000000000E+00 -0.00000000000E+00 -0.46259277345E+03  0.46259277345E+03  0.00000000000E+00 0. -1.
         25    1    1    2    0    0 -0.75007363582E+01  0.31826049620E+02 -0.24715738322E+03  0.27889232790E+03  0.12500000000E+03 0.  0.
          2    1    1    2  502    0 -0.35500524438E+02 -0.25600950597E+02 -0.10234335444E+03  0.11130973949E+03  0.00000000000E+00 0. -1.
         -1    1    1    2    0  501  0.43001260796E+02 -0.62250990222E+01 -0.87652325250E+02  0.97830416587E+02  0.00000000000E+00 0.  1.
<mgrwt>
<rscale>  0 0.40355855E+02</rscale>
<asrwt>0</asrwt>
<pdfrwt beam="2">  1        2 0.71168115E-01 0.37482468E+02</pdfrwt>
<pdfrwt beam="1">  1       -1 0.39138018E-02 0.43449514E+02</pdfrwt>
<totfact> 0.16483432E+04</totfact>
</mgrwt>
</event>
<event>
 5    1  0.4149151E-003  0.5811061E+02  0.7546771E-02  0.1427736E+00
          2   -1    0    0  502    0  0.00000000000E+00  0.00000000000E+00  0.56662898588E+03  0.56662898588E+03  0.00000000000E+00 0. -1.
         -1   -1    0    0    0  501 -0.00000000000E+00 -0.00000000000E+00 -0.50066666202E+02  0.50066666202E+02  0.00000000000E+00 0.  1.
         25    1    1    2    0    0 -0.14082957585E+02 -0.88815316430E+02  0.10150844291E+03  0.18443279022E+03  0.12500000000E+03 0.  0.
          2    1    1    2  502    0 -0.19803961404E+02  0.53280128900E+02  0.32269026943E+03  0.32765832663E+03  0.00000000000E+00 0. -1.
         -1    1    1    2    0  501  0.33886918989E+02  0.35535187530E+02  0.92363607333E+02  0.10460453523E+03  0.00000000000E+00 0.  1.
<mgrwt>
<rscale>  0 0.53417100E+02</rscale>
<asrwt>0</asrwt>
<pdfrwt beam="1">  1        2 0.87173686E-01 0.58110611E+02</pdfrwt>
<pdfrwt beam="2">  1       -1 0.77025644E-02 0.49102676E+02</pdfrwt>
<totfact> 0.50656418E+03</totfact>
</mgrwt>
</event>
<event>
 5    1  0.4149151E-003  0.1340464E+03  0.7546771E-02  0.1410542E+00
          2   -1    0    0  501    0  0.00000000000E+00  0.00000000000E+00  0.90499683728E+02  0.90499683728E+02  0.00000000000E+00 0.  1.
          2   -1    0    0  502    0 -0.00000000000E+00 -0.00000000000E+00 -0.19194381881E+04  0.19194381881E+04  0.00000000000E+00 0. -1.
         25    1    1    2    0    0 -0.88262771095E+02 -0.68271497022E+02 -0.13988577528E+03  0.21827584427E+03  0.12500000000E+03 0.  0.
          2    1    1    2  501    0 -0.21563309939E+02 -0.11203255296E+02  0.45626316738E+02  0.51693810498E+02  0.00000000000E+00 0.  1.
          2    1    1    2  502    0  0.10982608103E+03  0.79474752318E+02 -0.17346790459E+04  0.17399682171E+04  0.00000000000E+00 0. -1.
<mgrwt>
<rscale>  0 0.57072976E+02</rscale>
<asrwt>0</asrwt>
<pdfrwt beam="1">  1        2 0.13923028E-01 0.24299985E+02</pdfrwt>
<pdfrwt beam="2">  1        2 0.29529818E+00 0.13404636E+03</pdfrwt>
<totfact> 0.50712757E+02</totfact>
</mgrwt>
</event>
<event>
 5    1  0.4149151E-003  0.1288273E+03  0.7546771E-02  0.1291745E+00
          2   -1    0    0  502    0  0.00000000000E+00  0.00000000000E+00  0.11088192431E+04  0.11088192431E+04  0.00000000000E+00 0. -1.
          2   -1    0    0  501    0 -0.00000000000E+00 -0.00000000000E+00 -0.25506535568E+04  0.25506535568E+04  0.00000000000E+00 0. -1.
         25    1    1    2    0    0 -0.91115485199E+02 -0.54720590784E+02 -0.19539260886E+03  0.25514632331E+03  0.12500000000E+03 0.  0.
          2    1    1    2  501    0  0.13115938987E+03 -0.23082231791E+01 -0.23224061015E+04  0.23261079540E+04  0.00000000000E+00 0. -1.
          2    1    1    2  502    0 -0.40043904674E+02  0.57028813963E+02  0.10759643966E+04  0.10782185227E+04  0.00000000000E+00 0. -1.
<mgrwt>
<rscale>  0 0.94747821E+02</rscale>
<asrwt>0</asrwt>
<pdfrwt beam="1">  1        2 0.17058758E+00 0.69683570E+02</pdfrwt>
<pdfrwt beam="2">  1        2 0.39240824E+00 0.12882735E+03</pdfrwt>
<totfact> 0.15825786E+01</totfact>
</mgrwt>
</event>
<event>
 5    1  0.4149151E-003  0.1042265E+03  0.7546771E-02  0.1413478E+00
          1   -1    0    0  502    0 -0.00000000000E+00  0.00000000000E+00  0.15366877837E+03  0.15366877837E+03  0.00000000000E+00 0. -1.
          2   -1    0    0  501    0  0.00000000000E+00 -0.00000000000E+00 -0.25523651851E+03  0.25523651851E+03  0.00000000000E+00 0. -1.
         25    1    1    2    0    0  0.71587965399E+02  0.97409709181E+02 -0.29371193686E+02  0.17635519627E+03  0.12500000000E+03 0.  0.
          2    1    1    2  501    0  0.22047761867E+01 -0.30467045179E+02 -0.11872258713E+03  0.12258937382E+03  0.00000000000E+00 0. -1.
          1    1    1    2  502    0 -0.73792741586E+02 -0.66942664002E+02  0.46526040675E+02  0.10996072679E+03  0.00000000000E+00 0. -1.
<mgrwt>
<rscale>  0 0.56424981E+02</rscale>
<asrwt>0</asrwt>
<pdfrwt beam="2">  1        2 0.39267157E-01 0.30546716E+02</pdfrwt>
<pdfrwt beam="1">  1        1 0.23641351E-01 0.10422654E+03</pdfrwt>
<totfact> 0.34303780E+03</totfact>
</mgrwt>
</event>
<event>
 5    1  0.4149151E-003  0.8873881E+02  0.7546771E-02  0.1423903E+00
          1   -1    0    0  502    0 -0.00000000000E+00  0.00000000000E+00  0.38251557806E+03  0.38251557806E+03  0.00000000000E+00 0. -1.
          2   -1    0    0  501    0  0.00000000000E+00 -0.00000000000E+00 -0.22459901859E+03  0.22459901859E+03  0.00000000000E+00 0.  1.
         25    1    1    2    0    0  0.69297320694E+01  0.12008650572E+03  0.17255084009E+03  0.24467852880E+03  0.12500000000E+03 0.  0.
          2    1    1    2  501    0 -0.60766300759E+01 -0.86988787456E+02 -0.17668809503E+03  0.19703466066E+03  0.00000000000E+00 0.  1.
          1    1    1    2  502    0 -0.85310199349E+00 -0.33097718262E+02  0.16205381440E+03  0.16540140719E+03  0.00000000000E+00 0. -1.
<mgrwt>
<rscale>  0 0.54203576E+02</rscale>
<asrwt>0</asrwt>
<pdfrwt beam="2">  1        2 0.34553695E-01 0.88738810E+02</pdfrwt>
<pdfrwt beam="1">  1        1 0.58848550E-01 0.33108711E+02</pdfrwt>
<totfact> 0.13125599E+03</totfact>
</mgrwt>
</event>
<event>
 5    1  0.4149151E-003  0.2000567E+03  0.7546771E-02  0.1222827E+00
         -2   -1    0    0    0  501 -0.00000000000E+00  0.00000000000E+00  0.76874325451E+03  0.76874325451E+03  0.00000000000E+00 0.  1.
          2   -1    0    0  502    0  0.00000000000E+00 -0.00000000000E+00 -0.39749277549E+03  0.39749277549E+03  0.00000000000E+00 0. -1.
         25    1    1    2    0    0 -0.94042432616E+02  0.78656971330E+02  0.29393462643E+03  0.34213076869E+03  0.12500000000E+03 0.  0.
          2    1    1    2  502    0  0.17862317844E+03 -0.10519202599E+03 -0.33960031258E+03  0.39786929325E+03  0.00000000000E+00 0. -1.
         -2    1    1    2    0  501 -0.84580745826E+02  0.26535054659E+02  0.41691616517E+03  0.42623596806E+03  0.00000000000E+00 0.  1.
<mgrwt>
<rscale>  0 0.13316949E+03</rscale>
<asrwt>0</asrwt>
<pdfrwt beam="2">  1        2 0.61152735E-01 0.20005672E+03</pdfrwt>
<pdfrwt beam="1">  1       -2 0.11826819E+00 0.88645427E+02</pdfrwt>
<totfact> 0.48799208E+01</totfact>
</mgrwt>
</event>
<event>
 5    1  0.4149151E-003  0.3202101E+02  0.7546771E-02  0.1637778E+00
         -3   -1    0    0    0  501 -0.00000000000E+00  0.00000000000E+00  0.26686101009E+02  0.26686101009E+02  0.00000000000E+00 0.  1.
          1   -1    0    0  502    0  0.00000000000E+00 -0.00000000000E+00 -0.41016790564E+03  0.41016790564E+03  0.00000000000E+00 0. -1.
         25    1    1    2    0    0 -0.25092931956E+01  0.48915869507E+02 -0.28882667715E+03  0.31850417309E+03  0.12500000000E+03 0.  0.
          1    1    1    2  502    0 -0.69489076395E+01 -0.28769858261E+02 -0.91131018477E+02  0.95816776142E+02  0.00000000000E+00 0. -1.
         -3    1    1    2    0  501  0.94582008351E+01 -0.20146011246E+02 -0.35241090016E+01  0.22533057414E+02  0.00000000000E+00 0.  1.
<mgrwt>
<rscale>  0 0.26695548E+02</rscale>
<asrwt>0</asrwt>
<pdfrwt beam="2">  1        1 0.63102755E-01 0.32021011E+02</pdfrwt>
<pdfrwt beam="1">  1       -3 0.41055540E-02 0.22255771E+02</pdfrwt>
<totfact> 0.68648715E+03</totfact>
</mgrwt>
</event>
<event>
 5    1  0.4149151E-003  0.5767266E+02  0.7546771E-02  0.1446921E+00
         -2   -1    0    0    0  501 -0.00000000000E+00  0.00000000000E+00  0.89400295613E+01  0.89400295613E+01  0.00000000000E+00 0.  1.
          1   -1    0    0  502    0  0.00000000000E+00 -0.00000000000E+00 -0.19799319894E+04  0.19799319894E+04  0.00000000000E+00 0. -1.
         25    1    1    2    0    0 -0.60970798821E+02  0.58930312827E+02 -0.14086932220E+04  0.14167680875E+04  0.12500000000E+03 0.  0.
          1    1    1    2  502    0  0.42178158616E+02 -0.75233507704E+01 -0.35967396447E+03  0.36221672875E+03  0.00000000000E+00 0. -1.
         -2    1    1    2    0  501  0.18792640205E+02 -0.51406962057E+02 -0.20262477338E+03  0.20988720271E+03  0.00000000000E+00 0.  1.
<mgrwt>
<rscale>  0 0.49708355E+02</rscale>
<asrwt>0</asrwt>
<pdfrwt beam="2">  1        1 0.30460472E+00 0.42843878E+02</pdfrwt>
<pdfrwt beam="1">  1       -2 0.13753901E-02 0.57672663E+02</pdfrwt>
<totfact> 0.41263235E+03</totfact>
</mgrwt>
</event>
<event>
 5    1  0.4149151E-003  0.8660054E+02  0.7546771E-02  0.1403997E+00
          1   -1    0    0  502    0  0.00000000000E+00  0.00000000000E+00  0.97690731276E+03  0.97690731276E+03  0.00000000000E+00 0. -1.
         -1   -1    0    0    0  501 -0.00000000000E+00 -0.00000000000E+00 -0.85420233239E+02  0.85420233239E+02  0.00000000000E+00 0.  1.
         25    1    1    2    0    0  0.53880712035E+02 -0.80060507570E+02  0.53814661649E+03  0.56083829830E+03  0.12500000000E+03 0.  0.
          1    1    1    2  502    0 -0.72249647902E+02  0.44987238974E+02  0.41750544773E+03  0.42609231649E+03  0.00000000000E+00 0. -1.
         -1    1    1    2    0  501  0.18368935867E+02  0.35073268597E+02 -0.64164984693E+02  0.75396931208E+02  0.00000000000E+00 0.  1.
<mgrwt>
<rscale>  0 0.58555241E+02</rscale>
<asrwt>0</asrwt>
<pdfrwt beam="1">  1        1 0.15029342E+00 0.86600535E+02</pdfrwt>
<pdfrwt beam="2">  1       -1 0.13141575E-01 0.39592322E+02</pdfrwt>
<totfact> 0.63962936E+02</totfact>
</mgrwt>
</event>
<event>
 5    1  0.4149151E-003  0.3745707E+02  0.7546771E-02  0.1579405E+00
          2   -1    0    0  502    0  0.00000000000E+00  0.00000000000E+00  0.30213050093E+02  0.30213050093E+02  0.00000000000E+00 0. -1.
         -1   -1    0    0    0  501 -0.00000000000E+00 -0.00000000000E+00 -0.38083343118E+03  0.38083343118E+03  0.00000000000E+00 0.  1.
         25    1    1    2    0    0  0.31926379379E+02 -0.15241460152E+02 -0.16179235249E+03  0.20749303876E+03  0.12500000000E+03 0.  0.
          2    1    1    2  502    0 -0.16443496810E+02  0.37276173330E+02 -0.64106171165E+02  0.75957243676E+02  0.00000000000E+00 0. -1.
         -1    1    1    2    0  501 -0.15482882569E+02 -0.22034713178E+02 -0.12472185744E+03  0.12759619884E+03  0.00000000000E+00 0.  1.
<mgrwt>
<rscale>  0 0.31760590E+02</rscale>
<asrwt>0</asrwt>
<pdfrwt beam="1">  1        2 0.46481614E-02 0.37457069E+02</pdfrwt>
<pdfrwt beam="2">  1       -1 0.58589760E-01 0.26930433E+02</pdfrwt>
<totfact> 0.51147979E+03</totfact>
</mgrwt>
</event>
<event>
 5    1  0.4149151E-003  0.1278814E+03  0.7546771E-02  0.1374160E+00
          1   -1    0    0  502    0  0.00000000000E+00  0.00000000000E+00  0.54141533014E+02  0.54141533014E+02  0.00000000000E+00 0. -1.
         -2   -1    0    0    0  501 -0.00000000000E+00 -0.00000000000E+00 -0.57165918069E+03  0.57165918069E+03  0.00000000000E+00 0.  1.
         25    1    1    2    0    0  0.14114727262E+03  0.35568163874E+02 -0.28495477038E+03  0.34352855487E+03  0.12500000000E+03 0.  0.
          1    1    1    2  502    0 -0.22534901890E+02 -0.25576387015E+02 -0.22548953254E+02  0.40870878003E+02  0.00000000000E+00 0. -1.
         -2    1    1    2    0  501 -0.11861237073E+03 -0.99917768596E+01 -0.21001392404E+03  0.24140128083E+03  0.00000000000E+00 0.  1.
<mgrwt>
<rscale>  0 0.66024145E+02</rscale>
<asrwt>0</asrwt>
<pdfrwt beam="1">  1        1 0.83294661E-02 0.34087731E+02</pdfrwt>
<pdfrwt beam="2">  1       -2 0.87947571E-01 0.12788143E+03</pdfrwt>
<totfact> 0.73088334E+02</totfact>
</mgrwt>
</event>
<event>
 5    1  0.4149151E-003  0.1178146E+03  0.7546771E-02  0.1255893E+00
          1   -1    0    0  502    0  0.00000000000E+00  0.00000000000E+00  0.79890233211E+03  0.79890233211E+03  0.00000000000E+00 0. -1.
          1   -1    0    0  501    0 -0.00000000000E+00 -0.00000000000E+00 -0.15941155191E+04  0.15941155191E+04  0.00000000000E+00 0. -1.
         25    1    1    2    0    0 -0.11529237645E+03  0.17622838576E+03  0.19913199588E+03  0.31563796952E+03  0.12500000000E+03 0.  0.
          1    1    1    2  501    0  0.79033183795E+02 -0.72941018566E+02 -0.15284214268E+04  0.15322006051E+04  0.00000000000E+00 0. -1.
          1    1    1    2  502    0  0.36259192654E+02 -0.10328736720E+03  0.53407624394E+03  0.54517927659E+03  0.00000000000E+00 0. -1.
<mgrwt>
<rscale>  0 0.11256445E+03</rscale>
<asrwt>0</asrwt>
<pdfrwt beam="1">  1        1 0.12290805E+00 0.11781455E+03</pdfrwt>
<pdfrwt beam="2">  1        1 0.24524854E+00 0.10754830E+03</pdfrwt>
<totfact> 0.19724320E+01</totfact>
</mgrwt>
</event>
<event>
 5    1  0.4149151E-003  0.2877042E+02  0.7546771E-02  0.1672950E+00
          2   -1    0    0  502    0  0.00000000000E+00  0.00000000000E+00  0.74485093501E+03  0.74485093501E+03  0.00000000000E+00 0. -1.
         -1   -1    0    0    0  501 -0.00000000000E+00 -0.00000000000E+00 -0.16209510644E+02  0.16209510644E+02  0.00000000000E+00 0.  1.
         25    1    1    2    0    0 -0.34594885163E+02 -0.10528481432E+02  0.43870947920E+03  0.45760098573E+03  0.12500000000E+03 0.  0.
          2    1    1    2  502    0  0.16589574970E+02 -0.11760117514E+02  0.26409920707E+03  0.26488092709E+03  0.00000000000E+00 0. -1.
         -1    1    1    2    0  501  0.18005310194E+02  0.22288598946E+02  0.25832738101E+02  0.38578532838E+02  0.00000000000E+00 0.  1.
<mgrwt>
<rscale>  0 0.24187766E+02</rscale>
<asrwt>0</asrwt>
<pdfrwt beam="1">  1        2 0.11459243E+00 0.20335053E+02</pdfrwt>
<pdfrwt beam="2">  1       -1 0.24937714E-02 0.28770420E+02</pdfrwt>
<totfact> 0.17832114E+04</totfact>
</mgrwt>
</event>
<event>
 5    1  0.4149151E-003  0.6036264E+02  0.7546771E-02  0.1433435E+00
          1   -1    0    0  502    0 -0.00000000000E+00  0.00000000000E+00  0.14430895704E+04  0.14430895704E+04  0.00000000000E+00 0. -1.
          2   -1    0    0  501    0  0.00000000000E+00 -0.00000000000E+00 -0.74070299840E+02  0.74070299840E+02  0.00000000000E+00 0. -1.
         25    1    1    2    0    0 -0.17642325579E+02  0.10430005862E+02  0.11105446079E+03  0.16845809549E+03  0.12500000000E+03 0.  0.
          2    1    1    2  501    0 -0.43803606825E+02 -0.11444235104E+02 -0.33157814128E+02  0.56117440477E+02  0.00000000000E+00 0. -1.
          1    1    1    2  502    0  0.61445932405E+02  0.10142292414E+01  0.12911226239E+04  0.12925843343E+04  0.00000000000E+00 0. -1.
<mgrwt>
<rscale>  0 0.52276692E+02</rscale>
<asrwt>0</asrwt>
<pdfrwt beam="2">  1        2 0.11395432E-01 0.45273905E+02</pdfrwt>
<pdfrwt beam="1">  1        1 0.22201376E+00 0.60362641E+02</pdfrwt>
<totfact> 0.59783866E+02</totfact>
</mgrwt>
</event>
<event>
 5    1  0.4149151E-003  0.6040099E+02  0.7546771E-02  0.1510142E+00
          2   -1    0    0  501    0  0.00000000000E+00  0.00000000000E+00  0.38289022332E+04  0.38289022332E+04  0.00000000000E+00 0. -1.
          1   -1    0    0  502    0 -0.00000000000E+00 -0.00000000000E+00 -0.10412685317E+03  0.10412685317E+03  0.00000000000E+00 0. -1.
         25    1    1    2    0    0 -0.51983762169E+02  0.37053414091E+02  0.29788380515E+03  0.32929474395E+03  0.12500000000E+03 0.  0.
          2    1    1    2  501    0  0.30609378250E+02 -0.52109565031E+02  0.35131147185E+04  0.35136344952E+04  0.00000000000E+00 0. -1.
          1    1    1    2  502    0  0.21374383919E+02  0.15056150940E+02 -0.86223143612E+02  0.90099847189E+02  0.00000000000E+00 0. -1.
<mgrwt>
<rscale>  0 0.39738815E+02</rscale>
<asrwt>0</asrwt>
<pdfrwt beam="1">  1        2 0.58906177E+00 0.60400988E+02</pdfrwt>
<pdfrwt beam="2">  1        1 0.16019519E-01 0.26144827E+02</pdfrwt>
<totfact> 0.33802374E+01</totfact>
</mgrwt>
</event>
<event>
 5    1  0.4149151E-003  0.6004586E+02  0.7546771E-02  0.1497067E+00
         -2   -1    0    0    0  501 -0.00000000000E+00  0.00000000000E+00  0.24938397682E+02  0.24938397682E+02  0.00000000000E+00 0. -1.
          1   -1    0    0  502    0  0.00000000000E+00 -0.00000000000E+00 -0.58960322740E+03  0.58960322740E+03  0.00000000000E+00 0. -1.
         25    1    1    2    0    0  0.11132220970E+02  0.68997501103E+02 -0.35550416948E+03  0.38326595990E+03  0.12500000000E+03 0.  0.
          1    1    1    2  502    0  0.14705239811E+02 -0.56367811639E+02 -0.18421033698E+03  0.19320202513E+03  0.00000000000E+00 0. -1.
         -2    1    1    2    0  501 -0.25837460781E+02 -0.12629689464E+02 -0.24950323268E+02  0.38073640051E+02  0.00000000000E+00 0. -1.
<mgrwt>
<rscale>  0 0.41555535E+02</rscale>
<asrwt>0</asrwt>
<pdfrwt beam="2">  1        1 0.90708180E-01 0.60045863E+02</pdfrwt>
<pdfrwt beam="1">  1       -2 0.38366770E-02 0.28759058E+02</pdfrwt>
<totfact> 0.75508109E+03</totfact>
</mgrwt>
</event>
<event>
 5    1  0.4149151E-003  0.6799613E+02  0.7546771E-02  0.1447566E+00
         -2   -1    0    0    0  501 -0.00000000000E+00  0.00000000000E+00  0.36297726554E+02  0.36297726554E+02  0.00000000000E+00 0.  1.
          1   -1    0    0  502    0  0.00000000000E+00 -0.00000000000E+00 -0.34213935179E+04  0.34213935179E+04  0.00000000000E+00 0. -1.
         25    1    1    2    0    0  0.35503059106E+02 -0.92788717661E+02 -0.15528147267E+04  0.15610024948E+04  0.12500000000E+03 0.  0.
          1    1    1    2  502    0 -0.27818509990E+02  0.57448442732E+02 -0.18536053926E+04  0.18547040585E+04  0.00000000000E+00 0. -1.
         -2    1    1    2    0  501 -0.76845491157E+01  0.35340274929E+02  0.21324327974E+02  0.41984691147E+02  0.00000000000E+00 0.  1.
<mgrwt>
<rscale>  0 0.49589873E+02</rscale>
<asrwt>0</asrwt>
<pdfrwt beam="2">  1        1 0.52636833E+00 0.67996134E+02</pdfrwt>
<pdfrwt beam="1">  1       -2 0.55842645E-02 0.36166107E+02</pdfrwt>
<totfact> 0.56043442E+01</totfact>
</mgrwt>
</event>
<event>
 5    1  0.4149151E-003  0.3999253E+02  0.7546771E-02  0.1544852E+00
          3   -1    0    0  502    0  0.00000000000E+00  0.00000000000E+00  0.12968323474E+04  0.12968323474E+04  0.00000000000E+00 0. -1.
          3   -1    0    0  501    0 -0.00000000000E+00 -0.00000000000E+00 -0.73294332896E+02  0.73294332896E+02  0.00000000000E+00 0. -1.
         25    1    1    2    0    0 -0.21846506500E+02 -0.59449000857E+02  0.18379395657E+03  0.23112047080E+03  0.12500000000E+03 0.  0.
          3    1    1    2  501    0  0.27052594440E+02  0.28503463221E+02 -0.41588770787E+02  0.57218145174E+02  0.00000000000E+00 0. -1.
          3    1    1    2  502    0 -0.52060879398E+01  0.30945537636E+02  0.10813328287E+04  0.10817880643E+04  0.00000000000E+00 0. -1.
<mgrwt>
<rscale>  0 0.35425721E+02</rscale>
<asrwt>0</asrwt>
<pdfrwt beam="1">  1        3 0.19951265E+00 0.31380402E+02</pdfrwt>
<pdfrwt beam="2">  1        3 0.11276052E-01 0.39992530E+02</pdfrwt>
<totfact> 0.20783714E+01</totfact>
</mgrwt>
</event>
<event>
 5    1  0.4149151E-003  0.7784453E+02  0.7546771E-02  0.1425829E+00
          2   -1    0    0  501    0  0.00000000000E+00  0.00000000000E+00  0.27082388620E+03  0.27082388620E+03  0.00000000000E+00 0. -1.
          2   -1    0    0  502    0 -0.00000000000E+00 -0.00000000000E+00 -0.13744736908E+04  0.13744736908E+04  0.00000000000E+00 0. -1.
         25    1    1    2    0    0 -0.61038028384E+02  0.28515906554E+02 -0.10923807998E+04  0.11015714274E+04  0.12500000000E+03 0.  0.
          2    1    1    2  501    0  0.46331763508E+02 -0.62675956230E+02  0.25922417453E+03  0.27068816091E+03  0.00000000000E+00 0. -1.
          2    1    1    2  502    0  0.14706264877E+02  0.34160049676E+02 -0.27049317934E+03  0.27303798873E+03  0.00000000000E+00 0. -1.
<mgrwt>
<rscale>  0 0.53806404E+02</rscale>
<asrwt>0</asrwt>
<pdfrwt beam="1">  1        2 0.41665213E-01 0.77844527E+02</pdfrwt>
<pdfrwt beam="2">  1        2 0.21145749E+00 0.37191171E+02</pdfrwt>
<totfact> 0.34775310E+02</totfact>
</mgrwt>
</event>
<event>
 5    1  0.4149151E-003  0.9322160E+02  0.7546771E-02  0.1346967E+00
          2   -1    0    0  501    0  0.00000000000E+00  0.00000000000E+00  0.99838123310E+03  0.99838123310E+03  0.00000000000E+00 0. -1.
          2   -1    0    0  502    0 -0.00000000000E+00 -0.00000000000E+00 -0.70316251240E+03  0.70316251240E+03  0.00000000000E+00 0. -1.
         25    1    1    2    0    0  0.51268373556E+02 -0.79221283755E+02 -0.10966610861E+03  0.19119653058E+03  0.12500000000E+03 0.  0.
          2    1    1    2  501    0 -0.56703119767E+02 -0.15397379631E+02  0.95264157497E+03  0.95445182878E+03  0.00000000000E+00 0. -1.
          2    1    1    2  502    0  0.54347462109E+01  0.94618663386E+02 -0.54775674566E+03  0.55589538615E+03  0.00000000000E+00 0. -1.
<mgrwt>
<rscale>  0 0.74009271E+02</rscale>
<asrwt>0</asrwt>
<pdfrwt beam="1">  1        2 0.15359711E+00 0.58756473E+02</pdfrwt>
<pdfrwt beam="2">  1        2 0.10817885E+00 0.93221595E+02</pdfrwt>
<totfact> 0.19109660E+02</totfact>
</mgrwt>
</event>
<event>
 5    1  0.4149151E-003  0.9064507E+02  0.7546771E-02  0.1372410E+00
         -1   -1    0    0    0  501 -0.00000000000E+00  0.00000000000E+00  0.50765750130E+03  0.50765750130E+03  0.00000000000E+00 0.  1.
          1   -1    0    0  502    0  0.00000000000E+00 -0.00000000000E+00 -0.21836251052E+03  0.21836251052E+03  0.00000000000E+00 0. -1.
         25    1    1    2    0    0  0.77611833984E+02 -0.82162950545E+02 -0.13292882175E+03  0.21463787846E+03  0.12500000000E+03 0.  0.
          1    1    1    2  502    0 -0.48670604129E+02 -0.33988612127E+01 -0.25213493858E+02  0.54919033461E+02  0.00000000000E+00 0. -1.
         -1    1    1    2    0  501 -0.28941229855E+02  0.85561811758E+02  0.44743730639E+03  0.45646309990E+03  0.00000000000E+00 0.  1.
<mgrwt>
<rscale>  0 0.66501839E+02</rscale>
<asrwt>0</asrwt>
<pdfrwt beam="2">  1        1 0.33594233E-01 0.48789138E+02</pdfrwt>
<pdfrwt beam="1">  1       -1 0.78101154E-01 0.90645066E+02</pdfrwt>
<totfact> 0.22883010E+02</totfact>
</mgrwt>
</event>
<event>
 5    1  0.4149151E-003  0.8307733E+02  0.7546771E-02  0.1369253E+00
          3   -1    0    0  502    0 -0.00000000000E+00  0.00000000000E+00  0.17638689321E+03  0.17638689321E+03  0.00000000000E+00 0. -1.
          2   -1    0    0  501    0  0.00000000000E+00 -0.00000000000E+00 -0.44851684900E+03  0.44851684900E+03  0.00000000000E+00 0. -1.
         25    1    1    2    0    0 -0.28491451964E+01  0.96863975412E+01  0.57906105119E+02  0.13813059377E+03  0.12500000000E+03 0.  0.
          2    1    1    2  501    0  0.69963057951E+02  0.44799696250E+02 -0.37860790636E+03  0.38761551700E+03  0.00000000000E+00 0. -1.
          3    1    1    2  502    0 -0.67113912755E+02 -0.54486093791E+02  0.48571845453E+02  0.99157631439E+02  0.00000000000E+00 0. -1.
<mgrwt>
<rscale>  0 0.67375388E+02</rscale>
<asrwt>0</asrwt>
<pdfrwt beam="2">  1        2 0.69002592E-01 0.83077327E+02</pdfrwt>
<pdfrwt beam="1">  1        3 0.27136445E-01 0.54641177E+02</pdfrwt>
<totfact> 0.51239179E+02</totfact>
</mgrwt>
</event>
<event>
 5    1  0.4149151E-003  0.4665132E+02  0.7546771E-02  0.1511558E+00
          1   -1    0    0  502    0  0.00000000000E+00  0.00000000000E+00  0.59110610455E+02  0.59110610455E+02  0.00000000000E+00 0. -1.
         -2   -1    0    0    0  501 -0.00000000000E+00 -0.00000000000E+00 -0.22999537436E+03  0.22999537436E+03  0.00000000000E+00 0.  1.
         25    1    1    2    0    0  0.47417517067E+02  0.20175888676E+01 -0.13154932028E+03  0.18757056074E+03  0.12500000000E+03 0.  0.
          1    1    1    2  502    0 -0.10998814781E+02  0.31672197799E+02  0.63144359465E+01  0.34117065251E+02  0.00000000000E+00 0. -1.
         -2    1    1    2    0  501 -0.36418702286E+02 -0.33689786667E+02 -0.45649879570E+02  0.67418358825E+02  0.00000000000E+00 0.  1.
<mgrwt>
<rscale>  0 0.39548810E+02</rscale>
<asrwt>0</asrwt>
<pdfrwt beam="1">  1        1 0.90939399E-02 0.33527631E+02</pdfrwt>
<pdfrwt beam="2">  1       -2 0.35383904E-01 0.46651324E+02</pdfrwt>
<totfact> 0.40570255E+03</totfact>
</mgrwt>
</event>
<event>
 5    1  0.5545340E-003  0.7905591E+02  0.7546771E-02  0.1407361E+00
         -1   -1    0    0    0  501 -0.00000000000E+00  0.00000000000E+00  0.15641766414E+02  0.15641766414E+02  0.00000000000E+00 0.  1.
          2   -1    0    0  502    0  0.00000000000E+00 -0.00000000000E+00 -0.12113104292E+04  0.12113104292E+04  0.00000000000E+00 0. -1.
         25    1    1    2    0    0  0.48406149091E+02 -0.75639821610E+02 -0.63691373726E+03  0.65524701189E+03  0.12500000000E+03 0.  0.
          2    1    1    2  502    0  0.18788583252E+02  0.37831184463E+02 -0.24508186102E+03  0.24869525122E+03  0.00000000000E+00 0. -1.
         -1    1    1    2    0  501 -0.67194732343E+02  0.37808637147E+02 -0.31367306449E+03  0.32300993249E+03  0.00000000000E+00 0.  1.
<mgrwt>
<rscale>  0 0.57786797E+02</rscale>
<asrwt>0</asrwt>
<pdfrwt beam="2">  1        2 0.18635547E+00 0.42239903E+02</pdfrwt>
<pdfrwt beam="1">  1       -1 0.24064254E-02 0.79055909E+02</pdfrwt>
<totfact> 0.11442888E+04</totfact>
</mgrwt>
</event>
<event>
 5    1  0.4149151E-003  0.3586935E+02  0.7546771E-02  0.1547900E+00
          2   -1    0    0  501    0  0.00000000000E+00  0.00000000000E+00  0.14517437951E+03  0.14517437951E+03  0.00000000000E+00 0. -1.
          3   -1    0    0  502    0 -0.00000000000E+00 -0.00000000000E+00 -0.84880341173E+03  0.84880341173E+03  0.00000000000E+00 0. -1.
         25    1    1    2    0    0  0.10889643920E+02 -0.35498483511E+01 -0.18426334148E+03  0.22295552198E+03  0.12500000000E+03 0.  0.
          2    1    1    2  501    0 -0.21870087232E+02 -0.28951477147E+02  0.12274519955E+03  0.12799559663E+03  0.00000000000E+00 0. -1.
          3    1    1    2  502    0  0.10980443312E+02  0.32501325498E+02 -0.64211089029E+03  0.64302667263E+03  0.00000000000E+00 0. -1.
<mgrwt>
<rscale>  0 0.35079003E+02</rscale>
<asrwt>0</asrwt>
<pdfrwt beam="1">  1        2 0.22334520E-01 0.35869352E+02</pdfrwt>
<pdfrwt beam="2">  1        3 0.13058514E+00 0.34306068E+02</pdfrwt>
<totfact> 0.66938083E+01</totfact>
</mgrwt>
</event>
<event>
 5    1  0.4149151E-003  0.6166270E+02  0.7546771E-02  0.1478542E+00
          1   -1    0    0  502    0  0.00000000000E+00  0.00000000000E+00  0.19989540136E+03  0.19989540136E+03  0.00000000000E+00 0. -1.
          1   -1    0    0  501    0 -0.00000000000E+00 -0.00000000000E+00 -0.13563493614E+03  0.13563493614E+03  0.00000000000E+00 0. -1.
         25    1    1    2    0    0  0.28922927359E+02 -0.81716830475E+02  0.10586665073E+03  0.18532923096E+03  0.12500000000E+03 0.  0.
          1    1    1    2  501    0 -0.33163702446E+02  0.50124954205E+02 -0.80151837595E+02  0.10018312864E+03  0.00000000000E+00 0. -1.
          1    1    1    2  502    0  0.42407750868E+01  0.31591876270E+02  0.38545652079E+02  0.50017977906E+02  0.00000000000E+00 0. -1.
<mgrwt>
<rscale>  0 0.44334108E+02</rscale>
<asrwt>0</asrwt>
<pdfrwt beam="1">  1        1 0.30753138E-01 0.31875238E+02</pdfrwt>
<pdfrwt beam="2">  1        1 0.20866913E-01 0.61662695E+02</pdfrwt>
<totfact> 0.38588120E+03</totfact>
</mgrwt>
</event>
<event>
 5    1  0.4149151E-003  0.3278098E+02  0.7546771E-02  0.1591587E+00
          1   -1    0    0  502    0  0.00000000000E+00  0.00000000000E+00  0.29704579780E+03  0.29704579780E+03  0.00000000000E+00 0. -1.
         -2   -1    0    0    0  501 -0.00000000000E+00 -0.00000000000E+00 -0.51797824450E+02  0.51797824450E+02  0.00000000000E+00 0.  1.
         25    1    1    2    0    0  0.19565709156E+01  0.41217776935E+02  0.66518067751E+02  0.14748690329E+03  0.12500000000E+03 0.  0.
          1    1    1    2  502    0 -0.23429236942E+02 -0.16328058658E+02  0.16195183085E+03  0.16445038814E+03  0.00000000000E+00 0. -1.
         -2    1    1    2    0  501  0.21472666026E+02 -0.24889718278E+02  0.16778074748E+02  0.36906330818E+02  0.00000000000E+00 0.  1.
<mgrwt>
<rscale>  0 0.30596489E+02</rscale>
<asrwt>0</asrwt>
<pdfrwt beam="1">  1        1 0.45699352E-01 0.28557567E+02</pdfrwt>
<pdfrwt beam="2">  1       -2 0.79688963E-02 0.32780983E+02</pdfrwt>
<totfact> 0.62080764E+03</totfact>
</mgrwt>
</event>
<event>
 5    1  0.4149151E-003  0.1619945E+03  0.7546771E-02  0.1207269E+00
          1   -1    0    0  502    0 -0.00000000000E+00  0.00000000000E+00  0.10425572554E+04  0.10425572554E+04  0.00000000000E+00 0. -1.
          2   -1    0    0  501    0  0.00000000000E+00 -0.00000000000E+00 -0.67630434620E+03  0.67630434620E+03  0.00000000000E+00 0.  1.
         25    1    1    2    0    0  0.51431664208E+02 -0.13214522312E+03 -0.39109298764E+03  0.43438036449E+03  0.12500000000E+03 0.  0.
          2    1    1    2  501    0  0.10255616528E+03  0.78373922012E+02 -0.24073816370E+03  0.27315765073E+03  0.00000000000E+00 0.  1.
          1    1    1    2  502    0 -0.15398782948E+03  0.53771301113E+02  0.99808406050E+03  0.10113235863E+04  0.00000000000E+00 0. -1.
<mgrwt>
<rscale>  0 0.14460072E+03</rscale>
<asrwt>0</asrwt>
<pdfrwt beam="2">  1        2 0.10404682E+00 0.12907455E+03</pdfrwt>
<pdfrwt beam="1">  1        1 0.16039343E+00 0.16199451E+03</pdfrwt>
<totfact> 0.94278333E+01</totfact>
</mgrwt>
</event>
<event>
 5    1  0.4149151E-003  0.7272431E+02  0.7546771E-02  0.1395255E+00
          2   -1    0    0  502    0  0.00000000000E+00  0.00000000000E+00  0.86176593588E+03  0.86176593588E+03  0.00000000000E+00 0. -1.
          2   -1    0    0  501    0 -0.00000000000E+00 -0.00000000000E+00 -0.64674952178E+03  0.64674952178E+03  0.00000000000E+00 0. -1.
         25    1    1    2    0    0  0.15645512062E+02 -0.87126651523E+02  0.28266170243E+02  0.15575561574E+03  0.12500000000E+03 0.  0.
          2    1    1    2  501    0  0.35758180751E+02  0.35698649021E+02 -0.58018716754E+03  0.58238319894E+03  0.00000000000E+00 0. -1.
          2    1    1    2  502    0 -0.51403692812E+02  0.51428002502E+02  0.76693741138E+03  0.77037664299E+03  0.00000000000E+00 0. -1.
<mgrwt>
<rscale>  0 0.60618371E+02</rscale>
<asrwt>0</asrwt>
<pdfrwt beam="1">  1        2 0.13257937E+00 0.72724312E+02</pdfrwt>
<pdfrwt beam="2">  1        2 0.99499927E-01 0.50527626E+02</pdfrwt>
<totfact> 0.25557440E+02</totfact>
</mgrwt>
</event>
<event>
 5    1  0.4149151E-003  0.5576035E+02  0.7546771E-02  0.1558313E+00
          2   -1    0    0  501    0  0.00000000000E+00  0.00000000000E+00  0.87083170326E+03  0.87083170326E+03  0.00000000000E+00 0. -1.
          2   -1    0    0  502    0 -0.00000000000E+00 -0.00000000000E+00 -0.20821632908E+03  0.20821632908E+03  0.00000000000E+00 0. -1.
         25    1    1    2    0    0  0.73003758099E+01 -0.49329729194E+02  0.14057326340E+03  0.19460873581E+03  0.12500000000E+03 0.  0.
          2    1    1    2  501    0  0.12634422945E+02  0.54702979717E+02  0.70152743191E+03  0.70377040457E+03  0.00000000000E+00 0. -1.
          2    1    1    2  502    0 -0.19934798755E+02 -0.53732505228E+01 -0.17948532112E+03  0.18066889196E+03  0.00000000000E+00 0. -1.
<mgrwt>
<rscale>  0 0.33929966E+02</rscale>
<asrwt>0</asrwt>
<pdfrwt beam="1">  1        2 0.13397411E+00 0.55760347E+02</pdfrwt>
<pdfrwt beam="2">  1        2 0.32033282E-01 0.20646259E+02</pdfrwt>
<totfact> 0.80576280E+02</totfact>
</mgrwt>
</event>
<event>
 5    1  0.4149151E-003  0.1594081E+03  0.7546771E-02  0.1274654E+00
          1   -1    0    0  501    0  0.00000000000E+00  0.00000000000E+00  0.11807360993E+03  0.11807360993E+03  0.00000000000E+00 0. -1.
          1   -1    0    0  502    0 -0.00000000000E+00 -0.00000000000E+00 -0.19747780144E+04  0.19747780144E+04  0.00000000000E+00 0. -1.
         25    1    1    2    0    0  0.13678641776E+03  0.64530065745E+02 -0.41334258547E+03  0.45754972017E+03  0.12500000000E+03 0.  0.
          1    1    1    2  501    0 -0.16249532139E+03 -0.35192899090E+01  0.25869808140E+02  0.16457934818E+03  0.00000000000E+00 0. -1.
          1    1    1    2  502    0  0.25708903629E+02 -0.61010775836E+02 -0.14692316271E+04  0.14707225560E+04  0.00000000000E+00 0. -1.
<mgrwt>
<rscale>  0 0.10273171E+03</rscale>
<asrwt>0</asrwt>
<pdfrwt beam="1">  1        1 0.18165172E-01 0.15940808E+03</pdfrwt>
<pdfrwt beam="2">  1        1 0.30381199E+00 0.66206212E+02</pdfrwt>
<totfact> 0.14090965E+02</totfact>
</mgrwt>
</event>
<event>
 5    1  0.4149151E-003  0.4555858E+02  0.7546771E-02  0.1530761E+00
          2   -1    0    0  502    0  0.00000000000E+00  0.00000000000E+00  0.62054026232E+03  0.62054026232E+03  0.00000000000E+00 0. -1.
         -1   -1    0    0    0  501 -0.00000000000E+00 -0.00000000000E+00 -0.18947887759E+02  0.18947887759E+02  0.00000000000E+00 0.  1.
         25    1    1    2    0    0 -0.15813608105E+02 -0.21221507969E+02  0.40003482899E+03  0.41994438562E+03  0.12500000000E+03 0.  0.
          2    1    1    2  502    0  0.42122200938E+02  0.36052178289E+02  0.14820583260E+03  0.15823718965E+03  0.00000000000E+00 0. -1.
         -1    1    1    2    0  501 -0.26308592833E+02 -0.14830670320E+02  0.53351712965E+02  0.61306574813E+02  0.00000000000E+00 0.  1.
<mgrwt>
<rscale>  0 0.37093225E+02</rscale>
<asrwt>0</asrwt>
<pdfrwt beam="1">  1        2 0.95467717E-01 0.45558577E+02</pdfrwt>
<pdfrwt beam="2">  1       -1 0.29150601E-02 0.30200842E+02</pdfrwt>
<totfact> 0.17295565E+04</totfact>
</mgrwt>
</event>
<event>
 5    1  0.4149151E-003  0.2239233E+03  0.7546771E-02  0.1334055E+00
         -2   -1    0    0    0  501 -0.00000000000E+00  0.00000000000E+00  0.15078515648E+03  0.15078515648E+03  0.00000000000E+00 0.  1.
          1   -1    0    0  502    0  0.00000000000E+00 -0.00000000000E+00 -0.10354241850E+04  0.10354241850E+04  0.00000000000E+00 0. -1.
         25    1    1    2    0    0 -0.12117122324E+03  0.20435433492E+03 -0.32598720638E+03  0.42229825747E+03  0.12500000000E+03 0.  0.
          1    1    1    2  502    0  0.12784197002E+03 -0.17782677310E+03 -0.64087144973E+03  0.67726076633E+03  0.00000000000E+00 0. -1.
         -2    1    1    2    0  501 -0.66707467884E+01 -0.26527561819E+02  0.82219627570E+02  0.86650317694E+02  0.00000000000E+00 0.  1.
<mgrwt>
<rscale>  0 0.78262841E+02</rscale>
<asrwt>0</asrwt>
<pdfrwt beam="2">  1        1 0.15929603E+00 0.22392333E+03</pdfrwt>
<pdfrwt beam="1">  1       -2 0.23197716E-01 0.27353435E+02</pdfrwt>
<totfact> 0.20177788E+02</totfact>
</mgrwt>
</event>
<event>
 5    1  0.4149151E-003  0.1464671E+03  0.7546771E-02  0.1245517E+00
          2   -1    0    0  501    0  0.00000000000E+00  0.00000000000E+00  0.77041770114E+03  0.77041770114E+03  0.00000000000E+00 0.  1.
          1   -1    0    0  502    0 -0.00000000000E+00 -0.00000000000E+00 -0.16340370570E+04  0.16340370570E+04  0.00000000000E+00 0. -1.
         25    1    1    2    0    0  0.18567014886E+03 -0.15059349909E+03 -0.30545959540E+03  0.40753204852E+03  0.12500000000E+03 0.  0.
          2    1    1    2  501    0 -0.12004753196E+03  0.80598440270E+02  0.71028556629E+03  0.72485385022E+03  0.00000000000E+00 0.  1.
          1    1    1    2  502    0 -0.65622616901E+02  0.69995058824E+02 -0.12684453268E+04  0.12720688594E+04  0.00000000000E+00 0. -1.
<mgrwt>
<rscale>  0 0.11854508E+03</rscale>
<asrwt>0</asrwt>
<pdfrwt beam="1">  1        2 0.11852580E+00 0.14646712E+03</pdfrwt>
<pdfrwt beam="2">  1        1 0.25139031E+00 0.95946006E+02</pdfrwt>
<totfact> 0.33839357E+01</totfact>
</mgrwt>
</event>
<event>
 5    1  0.4149151E-003  0.5448755E+02  0.7546771E-02  0.1539070E+00
         -1   -1    0    0    0  501 -0.00000000000E+00  0.00000000000E+00  0.12034961402E+02  0.12034961402E+02  0.00000000000E+00 0.  1.
          2   -1    0    0  502    0  0.00000000000E+00 -0.00000000000E+00 -0.13061753507E+04  0.13061753507E+04  0.00000000000E+00 0. -1.
         25    1    1    2    0    0  0.59994607359E+01  0.53307776351E+02 -0.97610402984E+03  0.98553629544E+03  0.12500000000E+03 0.  0.
          2    1    1    2  502    0  0.23029931084E+02 -0.64402947167E+01 -0.21026610581E+03  0.21162157351E+03  0.00000000000E+00 0. -1.
         -1    1    1    2    0  501 -0.29029391820E+02 -0.46867481634E+02 -0.10777025369E+03  0.12105244320E+03  0.00000000000E+00 0.  1.
<mgrwt>
<rscale>  0 0.36096918E+02</rscale>
<asrwt>0</asrwt>
<pdfrwt beam="2">  1        2 0.20095005E+00 0.23913492E+02</pdfrwt>
<pdfrwt beam="1">  1       -1 0.18515326E-02 0.54487545E+02</pdfrwt>
<totfact> 0.14691528E+04</totfact>
</mgrwt>
</event>
<event>
 5    1  0.4149151E-003  0.1169597E+03  0.7546771E-02  0.1300350E+00
         -1   -1    0    0    0  502 -0.00000000000E+00  0.00000000000E+00  0.14355345875E+04  0.14355345875E+04  0.00000000000E+00 0.  1.
         -2   -1    0    0    0  501  0.00000000000E+00 -0.00000000000E+00 -0.46572451179E+03  0.46572451179E+03  0.00000000000E+00 0.  1.
         25    1    1    2    0    0 -0.16076490810E+03  0.93945554633E+02  0.12149301341E+04  0.12354559295E+04  0.12500000000E+03 0.  0.
         -2    1    1    2    0  501  0.95044794845E+02 -0.67434093114E+02 -0.44171313810E+03  0.45682750170E+03  0.00000000000E+00 0.  1.
         -1    1    1    2    0  502  0.65720113256E+02 -0.26511461518E+02  0.19659307966E+03  0.20897566808E+03  0.00000000000E+00 0.  1.
<mgrwt>
<rscale>  0 0.91041003E+02</rscale>
<asrwt>0</asrwt>
<pdfrwt beam="2">  1       -2 0.71649925E-01 0.11695966E+03</pdfrwt>
<pdfrwt beam="1">  1       -1 0.22085147E+00 0.70866007E+02</pdfrwt>
<totfact> 0.19068597E+00</totfact>
</mgrwt>
</event>
<event>
 5    1  0.4149151E-003  0.1486916E+03  0.7546771E-02  0.1204327E+00
          1   -1    0    0  502    0 -0.00000000000E+00  0.00000000000E+00  0.34820452967E+03  0.34820452967E+03  0.00000000000E+00 0. -1.
          2   -1    0    0  501    0  0.00000000000E+00 -0.00000000000E+00 -0.13056234196E+04  0.13056234196E+04  0.00000000000E+00 0. -1.
         25    1    1    2    0    0  0.81210563041E+01 -0.82301345434E+02 -0.47066451551E+03  0.49395298276E+03  0.12500000000E+03 0.  0.
          2    1    1    2  501    0  0.13854970597E+03  0.53973856820E+02 -0.79954013634E+03  0.81324881055E+03  0.00000000000E+00 0. -1.
          1    1    1    2  502    0 -0.14667076227E+03  0.28327488614E+02  0.31278576193E+03  0.34662615594E+03  0.00000000000E+00 0. -1.
<mgrwt>
<rscale>  0 0.14690630E+03</rscale>
<asrwt>0</asrwt>
<pdfrwt beam="2">  1        2 0.20086514E+00 0.14869162E+03</pdfrwt>
<pdfrwt beam="1">  1        1 0.53569927E-01 0.14514241E+03</pdfrwt>
<totfact> 0.18081017E+02</totfact>
</mgrwt>
</event>
<event>
 5    1  0.4149151E-003  0.6813414E+02  0.7546771E-02  0.1528145E+00
         -1   -1    0    0    0  501 -0.00000000000E+00  0.00000000000E+00  0.12809939221E+02  0.12809939221E+02  0.00000000000E+00 0.  1.
          2   -1    0    0  502    0  0.00000000000E+00 -0.00000000000E+00 -0.11423168848E+04  0.11423168848E+04  0.00000000000E+00 0. -1.
         25    1    1    2    0    0  0.42441859073E+02  0.38463812150E+02 -0.77498221221E+03  0.78708525935E+03  0.12500000000E+03 0.  0.
          2    1    1    2  502    0 -0.51985456916E+02 -0.56658609188E+02 -0.30215527224E+03  0.31178597510E+03  0.00000000000E+00 0. -1.
         -1    1    1    2    0  501  0.95435978431E+01  0.18194797038E+02 -0.52369461145E+02  0.56255589587E+02  0.00000000000E+00 0.  1.
<mgrwt>
<rscale>  0 0.37414866E+02</rscale>
<asrwt>0</asrwt>
<pdfrwt beam="2">  1        2 0.17574111E+00 0.68134144E+02</pdfrwt>
<pdfrwt beam="1">  1       -1 0.19707593E-02 0.20545824E+02</pdfrwt>
<totfact> 0.12808552E+04</totfact>
</mgrwt>
</event>
<event>
 5    1  0.4149151E-003  0.6985767E+02  0.7546771E-02  0.1451322E+00
         -1   -1    0    0    0  501 -0.00000000000E+00  0.00000000000E+00  0.54233570928E+02  0.54233570928E+02  0.00000000000E+00 0.  1.
          1   -1    0    0  502    0  0.00000000000E+00 -0.00000000000E+00 -0.38903907532E+03  0.38903907532E+03  0.00000000000E+00 0. -1.
         25    1    1    2    0    0  0.14296264466E+02 -0.85255067255E+02 -0.24818633713E+03  0.29102279569E+03  0.12500000000E+03 0.  0.
          1    1    1    2  502    0 -0.28730861360E+02  0.18627270992E+02 -0.75863887264E+02  0.83233208576E+02  0.00000000000E+00 0. -1.
         -1    1    1    2    0  501  0.14434596894E+02  0.66627796264E+02 -0.10755279990E+02  0.69016641980E+02  0.00000000000E+00 0.  1.
<mgrwt>
<rscale>  0 0.48907953E+02</rscale>
<asrwt>0</asrwt>
<pdfrwt beam="2">  1        1 0.59852167E-01 0.34240876E+02</pdfrwt>
<pdfrwt beam="1">  1       -1 0.83436261E-02 0.69857671E+02</pdfrwt>
<totfact> 0.47055640E+03</totfact>
</mgrwt>
</event>
<event>
 5    1  0.4149151E-003  0.5655102E+02  0.7546771E-02  0.1474430E+00
          2   -1    0    0  502    0  0.00000000000E+00  0.00000000000E+00  0.27070690180E+02  0.27070690180E+02  0.00000000000E+00 0. -1.
         -2   -1    0    0    0  501 -0.00000000000E+00 -0.00000000000E+00 -0.50069511069E+03  0.50069511069E+03  0.00000000000E+00 0.  1.
         25    1    1    2    0    0  0.40807873142E+02 -0.69400734671E+01 -0.28652198920E+03  0.31533045750E+03  0.12500000000E+03 0.  0.
          2    1    1    2  502    0 -0.60197034071E+02 -0.23137852143E+02 -0.11192936103E+03  0.12917904231E+03  0.00000000000E+00 0.  1.
         -2    1    1    2    0  501  0.19389160929E+02  0.30077925610E+02 -0.75173070278E+02  0.83256301056E+02  0.00000000000E+00 0. -1.
<mgrwt>
<rscale>  0 0.44985794E+02</rscale>
<asrwt>0</asrwt>
<pdfrwt beam="1">  1        2 0.41647219E-02 0.56551021E+02</pdfrwt>
<pdfrwt beam="2">  1       -2 0.77030011E-01 0.35785768E+02</pdfrwt>
<totfact> 0.27697617E+03</totfact>
</mgrwt>
</event>
<event>
 5    1  0.4149151E-003  0.8027848E+02  0.7546771E-02  0.1361786E+00
          1   -1    0    0  502    0  0.00000000000E+00  0.00000000000E+00  0.87517447240E+03  0.87517447240E+03  0.00000000000E+00 0. -1.
         -1   -1    0    0    0  501 -0.00000000000E+00 -0.00000000000E+00 -0.13105567159E+03  0.13105567159E+03  0.00000000000E+00 0.  1.
         25    1    1    2    0    0 -0.35221604571E+02 -0.10098863428E+03  0.19047675320E+03  0.25168563565E+03  0.12500000000E+03 0.  0.
          1    1    1    2  502    0 -0.19930574135E+02  0.76916337253E+02  0.64240818654E+03  0.64730335150E+03  0.00000000000E+00 0. -1.
         -1    1    1    2    0  501  0.55152178705E+02  0.24072297023E+02 -0.88766138938E+02  0.10724115685E+03  0.00000000000E+00 0.  1.
<mgrwt>
<rscale>  0 0.69504646E+02</rscale>
<asrwt>0</asrwt>
<pdfrwt beam="1">  1        1 0.13464222E+00 0.80278476E+02</pdfrwt>
<pdfrwt beam="2">  1       -1 0.20162412E-01 0.60176726E+02</pdfrwt>
<totfact> 0.40659707E+02</totfact>
</mgrwt>
</event>
<event>
 5    1  0.4149151E-003  0.6127269E+02  0.7546771E-02  0.1476877E+00
          2   -1    0    0  502    0  0.00000000000E+00  0.00000000000E+00  0.55000831623E+03  0.55000831623E+03  0.00000000000E+00 0. -1.
         -1   -1    0    0    0  501 -0.00000000000E+00 -0.00000000000E+00 -0.30074561755E+02  0.30074561755E+02  0.00000000000E+00 0.  1.
         25    1    1    2    0    0  0.37375531522E+02  0.64190148386E+02  0.34150121691E+03  0.37116759915E+03  0.12500000000E+03 0.  0.
          2    1    1    2  502    0 -0.32140497185E+02 -0.45351795218E+01  0.12335486587E+03  0.12755391937E+03  0.00000000000E+00 0. -1.
         -1    1    1    2    0  501 -0.52350343366E+01 -0.59654968865E+02  0.55077671688E+02  0.81361359461E+02  0.00000000000E+00 0.  1.
<mgrwt>
<rscale>  0 0.44596449E+02</rscale>
<asrwt>0</asrwt>
<pdfrwt beam="1">  1        2 0.84616657E-01 0.32458888E+02</pdfrwt>
<pdfrwt beam="2">  1       -1 0.46268561E-02 0.61272687E+02</pdfrwt>
<totfact> 0.11317389E+04</totfact>
</mgrwt>
</event>
<event>
 5    1  0.4149151E-003  0.6085891E+02  0.7546771E-02  0.1525408E+00
         -1   -1    0    0    0  501 -0.00000000000E+00  0.00000000000E+00  0.89230912139E+01  0.89230912139E+01  0.00000000000E+00 0.  1.
          2   -1    0    0  502    0  0.00000000000E+00 -0.00000000000E+00 -0.25121702220E+04  0.25121702220E+04  0.00000000000E+00 0. -1.
         25    1    1    2    0    0 -0.27546023266E+02  0.32175040013E+02 -0.22452981095E+04  0.22491737633E+04  0.12500000000E+03 0.  0.
          2    1    1    2  502    0 -0.22924112101E+02  0.48077708410E+01 -0.66384582808E+02  0.70395613575E+02  0.00000000000E+00 0. -1.
         -1    1    1    2    0  501  0.50470135367E+02 -0.36982810854E+02 -0.19156443844E+03  0.20152393639E+03  0.00000000000E+00 0.  1.
<mgrwt>
<rscale>  0 0.37755646E+02</rscale>
<asrwt>0</asrwt>
<pdfrwt beam="2">  1        2 0.38648735E+00 0.23422843E+02</pdfrwt>
<pdfrwt beam="1">  1       -1 0.13727846E-02 0.60858915E+02</pdfrwt>
<totfact> 0.61335265E+03</totfact>
</mgrwt>
</event>
<event>
 5    1  0.4149151E-003  0.2205080E+03  0.7546771E-02  0.1183503E+00
          3   -1    0    0  502    0 -0.00000000000E+00  0.00000000000E+00  0.10240591485E+04  0.10240591485E+04  0.00000000000E+00 0. -1.
          2   -1    0    0  501    0  0.00000000000E+00 -0.00000000000E+00 -0.14869411861E+04  0.14869411861E+04  0.00000000000E+00 0. -1.
         25    1    1    2    0    0  0.16609701379E+03  0.49108748694E+02  0.46136589117E+03  0.50841260087E+03  0.12500000000E+03 0.  0.
          2    1    1    2  501    0 -0.21210154455E+03  0.64963289679E+02 -0.14478439336E+04  0.14647386628E+04  0.00000000000E+00 0. -1.
          3    1    1    2  502    0  0.46004530767E+02 -0.11407203837E+03  0.52359600480E+03  0.53784907087E+03  0.00000000000E+00 0. -1.
<mgrwt>
<rscale>  0 0.16468865E+03</rscale>
<asrwt>0</asrwt>
<pdfrwt beam="2">  1        2 0.22876018E+00 0.22050803E+03</pdfrwt>
<pdfrwt beam="1">  1        3 0.15754756E+00 0.12299938E+03</pdfrwt>
<totfact> 0.26756992E+00</totfact>
</mgrwt>
</event>
<event>
 5    1  0.4149151E-003  0.7208723E+02  0.7546771E-02  0.1404425E+00
          1   -1    0    0  502    0 -0.00000000000E+00  0.00000000000E+00  0.29645364188E+03  0.29645364188E+03  0.00000000000E+00 0. -1.
          2   -1    0    0  501    0  0.00000000000E+00 -0.00000000000E+00 -0.12611233485E+04  0.12611233485E+04  0.00000000000E+00 0. -1.
         25    1    1    2    0    0  0.32265403385E+02  0.62560958034E+02  0.16297277420E+02  0.14437981499E+03  0.12500000000E+03 0.  0.
          2    1    1    2  501    0  0.34804002043E+02 -0.32183456985E+02 -0.11903255210E+04  0.11912690458E+04  0.00000000000E+00 0. -1.
          1    1    1    2  502    0 -0.67069405428E+02 -0.30377501048E+02  0.20935853696E+03  0.22192812961E+03  0.00000000000E+00 0. -1.
<mgrwt>
<rscale>  0 0.58456722E+02</rscale>
<asrwt>0</asrwt>
<pdfrwt beam="2">  1        2 0.19401897E+00 0.47403517E+02</pdfrwt>
<pdfrwt beam="1">  1        1 0.45608254E-01 0.72087233E+02</pdfrwt>
<totfact> 0.25236820E+02</totfact>
</mgrwt>
</event>
<event>
 5    1  0.4149151E-003  0.1226418E+03  0.7546771E-02  0.1331739E+00
         -2   -1    0    0    0  501 -0.00000000000E+00  0.00000000000E+00  0.11760284007E+03  0.11760284007E+03  0.00000000000E+00 0.  1.
          1   -1    0    0  502    0  0.00000000000E+00 -0.00000000000E+00 -0.29261754833E+03  0.29261754833E+03  0.00000000000E+00 0. -1.
         25    1    1    2    0    0 -0.41893135850E+02  0.14002014400E+03 -0.39272307152E+02  0.19628548002E+03  0.12500000000E+03 0.  0.
          1    1    1    2  502    0 -0.13527416641E+02 -0.49137738542E+02 -0.77044797606E+02  0.92376453646E+02  0.00000000000E+00 0. -1.
         -2    1    1    2    0  501  0.55420552490E+02 -0.90882405459E+02 -0.58697603506E+02  0.12155845474E+03  0.00000000000E+00 0.  1.
<mgrwt>
<rscale>  0 0.79060318E+02</rscale>
<asrwt>0</asrwt>
<pdfrwt beam="2">  1        1 0.45018084E-01 0.50965757E+02</pdfrwt>
<pdfrwt beam="1">  1       -2 0.18092745E-01 0.12264183E+03</pdfrwt>
<totfact> 0.19231821E+03</totfact>
</mgrwt>
</event>
<event>
 5    1  0.4149151E-003  0.1059429E+03  0.7546771E-02  0.1331620E+00
          1   -1    0    0  502    0 -0.00000000000E+00  0.00000000000E+00  0.12099663494E+04  0.12099663494E+04  0.00000000000E+00 0. -1.
          2   -1    0    0  501    0  0.00000000000E+00 -0.00000000000E+00 -0.23662791658E+03  0.23662791658E+03  0.00000000000E+00 0. -1.
         25    1    1    2    0    0 -0.73225481024E+02  0.83253338992E+02 -0.74535414348E+02  0.18295796653E+03  0.12500000000E+03 0.  0.
          2    1    1    2  501    0 -0.28192574451E+02 -0.51897970595E+02 -0.97154400106E+02  0.11369783668E+03  0.00000000000E+00 0. -1.
          1    1    1    2  502    0  0.10141805548E+03 -0.31355368397E+02  0.11450282473E+04  0.11499384628E+04  0.00000000000E+00 0. -1.
<mgrwt>
<rscale>  0 0.79101897E+02</rscale>
<asrwt>0</asrwt>
<pdfrwt beam="2">  1        2 0.36404296E-01 0.59061160E+02</pdfrwt>
<pdfrwt beam="1">  1        1 0.18614867E+00 0.10594289E+03</pdfrwt>
<totfact> 0.22890011E+02</totfact>
</mgrwt>
</event>
<event>
 5    1  0.6340790E-003  0.8635177E+02  0.7546771E-02  0.1359223E+00
         -1   -1    0    0    0  501 -0.00000000000E+00  0.00000000000E+00  0.27291916605E+02  0.27291916605E+02  0.00000000000E+00 0.  1.
          2   -1    0    0  502    0  0.00000000000E+00 -0.00000000000E+00 -0.86813351301E+03  0.86813351301E+03  0.00000000000E+00 0. -1.
         25    1    1    2    0    0  0.90960410070E+02 -0.59938728360E+02 -0.36600948325E+03  0.40181387381E+03  0.12500000000E+03 0.  0.
          2    1    1    2  502    0 -0.56507416647E+02 -0.86208644496E+01 -0.23241559052E+03  0.23934162646E+03  0.00000000000E+00 0. -1.
         -1    1    1    2    0  501 -0.34452993423E+02  0.68559592809E+02 -0.24241652264E+03  0.25426992935E+03  0.00000000000E+00 0.  1.
<mgrwt>
<rscale>  0 0.70256490E+02</rscale>
<asrwt>0</asrwt>
<pdfrwt beam="2">  1        2 0.13355901E+00 0.57161241E+02</pdfrwt>
<pdfrwt beam="1">  1       -1 0.41987562E-02 0.86351771E+02</pdfrwt>
<totfact> 0.79498280E+03</totfact>
</mgrwt>
</event>
<event>
 5    1  0.4149151E-003  0.4358395E+02  0.7546771E-02  0.1558306E+00
          2   -1    0    0  501    0  0.00000000000E+00  0.00000000000E+00  0.45439295076E+03  0.45439295076E+03  0.00000000000E+00 0. -1.
          2   -1    0    0  502    0 -0.00000000000E+00 -0.00000000000E+00 -0.87911818145E+03  0.87911818145E+03  0.00000000000E+00 0. -1.
         25    1    1    2    0    0 -0.34528656753E+01 -0.29614559543E+02  0.16615387020E+03  0.21005012021E+03  0.12500000000E+03 0.  0.
          2    1    1    2  501    0  0.25080741723E+02 -0.82910995227E+01  0.26507857016E+03  0.26639150568E+03  0.00000000000E+00 0. -1.
          2    1    1    2  502    0 -0.21627876048E+02  0.37905659066E+02 -0.85595767106E+03  0.85706950631E+03  0.00000000000E+00 0. -1.
<mgrwt>
<rscale>  0 0.33930782E+02</rscale>
<asrwt>0</asrwt>
<pdfrwt beam="1">  1        2 0.69906608E-01 0.26415638E+02</pdfrwt>
<pdfrwt beam="2">  1        2 0.13524895E+00 0.43583954E+02</pdfrwt>
<totfact> 0.37311422E+02</totfact>
</mgrwt>
</event>
<event>
 5    1  0.4149151E-003  0.8361380E+02  0.7546771E-02  0.1326878E+00
          2   -1    0    0  501    0  0.00000000000E+00  0.00000000000E+00  0.83851807678E+03  0.83851807678E+03  0.00000000000E+00 0. -1.
          1   -1    0    0  502    0 -0.00000000000E+00 -0.00000000000E+00 -0.44464159659E+03  0.44464159659E+03  0.00000000000E+00 0. -1.
         25    1    1    2    0    0  0.36617233465E+02 -0.62291747399E+02 -0.11449798859E+03  0.18427119409E+03  0.12500000000E+03 0.  0.
          2    1    1    2  501    0 -0.75207202105E+02 -0.20776431575E+02  0.79457080194E+03  0.79839247407E+03  0.00000000000E+00 0. -1.
          1    1    1    2  502    0  0.38589968640E+02  0.83068178974E+02 -0.28619633316E+03  0.30049600521E+03  0.00000000000E+00 0. -1.
<mgrwt>
<rscale>  0 0.80770686E+02</rscale>
<asrwt>0</asrwt>
<pdfrwt beam="1">  1        2 0.12900278E+00 0.78024249E+02</pdfrwt>
<pdfrwt beam="2">  1        1 0.68406400E-01 0.83613798E+02</pdfrwt>
<totfact> 0.25871203E+02</totfact>
</mgrwt>
</event>
<event>
 5    1  0.4149151E-003  0.8786543E+02  0.7546771E-02  0.1327268E+00
          2   -1    0    0  501    0  0.00000000000E+00  0.00000000000E+00  0.13506416581E+04  0.13506416581E+04  0.00000000000E+00 0. -1.
          1   -1    0    0  502    0 -0.00000000000E+00 -0.00000000000E+00 -0.18221968278E+03  0.18221968278E+03  0.00000000000E+00 0. -1.
         25    1    1    2    0    0  0.12550660939E+03 -0.84735477717E+02  0.45195003969E+03  0.49276348136E+03  0.12500000000E+03 0.  0.
          2    1    1    2  501    0 -0.42480257977E+02  0.60584949541E+02  0.86504025547E+03  0.86819914306E+03  0.00000000000E+00 0. -1.
          1    1    1    2  502    0 -0.83026351413E+02  0.24150528176E+02 -0.14856831988E+03  0.17189871643E+03  0.00000000000E+00 0. -1.
<mgrwt>
<rscale>  0 0.80631956E+02</rscale>
<asrwt>0</asrwt>
<pdfrwt beam="1">  1        2 0.20779102E+00 0.73993976E+02</pdfrwt>
<pdfrwt beam="2">  1        1 0.28033798E-01 0.87865428E+02</pdfrwt>
<totfact> 0.39810217E+02</totfact>
</mgrwt>
</event>
<event>
 5    1  0.4149151E-003  0.7646867E+02  0.7546771E-02  0.1432780E+00
          1   -1    0    0  502    0  0.00000000000E+00  0.00000000000E+00  0.35840156876E+03  0.35840156876E+03  0.00000000000E+00 0. -1.
          1   -1    0    0  501    0 -0.00000000000E+00 -0.00000000000E+00 -0.10195648219E+04  0.10195648219E+04  0.00000000000E+00 0. -1.
         25    1    1    2    0    0  0.95969116317E+02 -0.49229210697E+02  0.21367479342E+03  0.27002870925E+03  0.12500000000E+03 0.  0.
          1    1    1    2  501    0 -0.60125871560E+02  0.46956661412E+02 -0.98711381663E+03  0.99005744049E+03  0.00000000000E+00 0. -1.
          1    1    1    2  502    0 -0.35843244756E+02  0.22725492858E+01  0.11227577003E+03  0.11788024096E+03  0.00000000000E+00 0. -1.
<mgrwt>
<rscale>  0 0.52406001E+02</rscale>
<asrwt>0</asrwt>
<pdfrwt beam="1">  1        1 0.55138703E-01 0.35915215E+02</pdfrwt>
<pdfrwt beam="2">  1        1 0.15685613E+00 0.76468674E+02</pdfrwt>
<totfact> 0.14288548E+02</totfact>
</mgrwt>
</event>
<event>
 5    1  0.4149151E-003  0.1073197E+03  0.7546771E-02  0.1304762E+00
         -1   -1    0    0    0  501 -0.00000000000E+00  0.00000000000E+00  0.75231266845E+03  0.75231266845E+03  0.00000000000E+00 0.  1.
          1   -1    0    0  502    0  0.00000000000E+00 -0.00000000000E+00 -0.22109595345E+03  0.22109595345E+03  0.00000000000E+00 0. -1.
         25    1    1    2    0    0  0.18226203347E+02 -0.48099399731E+02  0.16374632652E+03  0.21232900460E+03  0.12500000000E+03 0.  0.
          1    1    1    2  502    0 -0.16391786286E+01 -0.74147549276E+02 -0.18273552306E+03  0.19721261967E+03  0.00000000000E+00 0. -1.
         -1    1    1    2    0  501 -0.16587024719E+02  0.12224694901E+03  0.55020591154E+03  0.56386699764E+03  0.00000000000E+00 0.  1.
<mgrwt>
<rscale>  0 0.89215689E+02</rscale>
<asrwt>0</asrwt>
<pdfrwt beam="2">  1        1 0.34014763E-01 0.74165666E+02</pdfrwt>
<pdfrwt beam="1">  1       -1 0.11574041E+00 0.10731973E+03</pdfrwt>
<totfact> 0.96902718E+01</totfact>
</mgrwt>
</event>
<event>
 5    1  0.4149151E-003  0.1991479E+03  0.7546771E-02  0.1251546E+00
          1   -1    0    0  501    0  0.00000000000E+00  0.00000000000E+00  0.20593459019E+03  0.20593459019E+03  0.00000000000E+00 0. -1.
          1   -1    0    0  502    0 -0.00000000000E+00 -0.00000000000E+00 -0.11749868460E+04  0.11749868460E+04  0.00000000000E+00 0. -1.
         25    1    1    2    0    0 -0.25173702497E+03  0.45765970490E+00 -0.39491643013E+03  0.48472231843E+03  0.12500000000E+03 0.  0.
          1    1    1    2  501    0  0.66415759452E+02  0.14422200835E+01  0.14183977000E+03  0.15662583904E+03  0.00000000000E+00 0. -1.
          1    1    1    2  502    0  0.18532126552E+03 -0.18998797884E+01 -0.71597559564E+03  0.73957327869E+03  0.00000000000E+00 0. -1.
<mgrwt>
<rscale>  0 0.11502033E+03</rscale>
<asrwt>0</asrwt>
<pdfrwt beam="1">  1        1 0.31682244E-01 0.66431417E+02</pdfrwt>
<pdfrwt beam="2">  1        1 0.18076721E+00 0.19914787E+03</pdfrwt>
<totfact> 0.20272340E+02</totfact>
</mgrwt>
</event>
<event>
 5    1  0.4149151E-003  0.1268632E+03  0.7546771E-02  0.1287047E+00
         -2   -1    0    0    0  501 -0.00000000000E+00  0.00000000000E+00  0.76956870594E+02  0.76956870594E+02  0.00000000000E+00 0.  1.
          2   -1    0    0  502    0  0.00000000000E+00 -0.00000000000E+00 -0.27566453946E+04  0.27566453946E+04  0.00000000000E+00 0.  1.
         25    1    1    2    0    0 -0.18784945157E+03  0.99841805196E+01 -0.11011292541E+04  0.11240541511E+04  0.12500000000E+03 0.  0.
          2    1    1    2  502    0  0.11576698641E+03  0.65229900311E+01 -0.16204269103E+04  0.16245700711E+04  0.00000000000E+00 0.  1.
         -2    1    1    2    0  501  0.72082465156E+02 -0.16507170551E+02  0.41867640423E+02  0.84978042912E+02  0.00000000000E+00 0.  1.
<mgrwt>
<rscale>  0 0.96857288E+02</rscale>
<asrwt>0</asrwt>
<pdfrwt beam="2">  1        2 0.42409931E+00 0.12686322E+03</pdfrwt>
<pdfrwt beam="1">  1       -2 0.11839518E-01 0.73948418E+02</pdfrwt>
<totfact> 0.15136405E+02</totfact>
</mgrwt>
</event>
<event>
 5    1  0.4149151E-003  0.3464035E+02  0.7546771E-02  0.1622420E+00
          2   -1    0    0  501    0  0.00000000000E+00  0.00000000000E+00  0.75694262651E+03  0.75694262651E+03  0.00000000000E+00 0. -1.
          2   -1    0    0  502    0 -0.00000000000E+00 -0.00000000000E+00 -0.37175564151E+02  0.37175564151E+02  0.00000000000E+00 0. -1.
         25    1    1    2    0    0 -0.16486848915E+02 -0.45415917936E+02  0.35787904158E+03  0.38214765496E+03  0.12500000000E+03 0.  0.
          2    1    1    2  501    0  0.19493170498E+02  0.11208806060E+02  0.37465934756E+03  0.37533351535E+03  0.00000000000E+00 0. -1.
          2    1    1    2  502    0 -0.30063215830E+01  0.34207111876E+02 -0.12771326784E+02  0.36637020350E+02  0.00000000000E+00 0. -1.
<mgrwt>
<rscale>  0 0.27909203E+02</rscale>
<asrwt>0</asrwt>
<pdfrwt beam="1">  1        2 0.11645270E+00 0.22486019E+02</pdfrwt>
<pdfrwt beam="2">  1        2 0.57193181E-02 0.34640353E+02</pdfrwt>
<totfact> 0.70170648E+03</totfact>
</mgrwt>
</event>
<event>
 5    1  0.4149151E-003  0.7236813E+02  0.7546771E-02  0.1500584E+00
         -2   -1    0    0    0  501 -0.00000000000E+00  0.00000000000E+00  0.40946588704E+03  0.40946588704E+03  0.00000000000E+00 0.  1.
          1   -1    0    0  502    0  0.00000000000E+00 -0.00000000000E+00 -0.27000145937E+03  0.27000145937E+03  0.00000000000E+00 0. -1.
         25    1    1    2    0    0 -0.66501027183E+02 -0.47069315029E+02 -0.14414645287E+03  0.20746350742E+03  0.12500000000E+03 0.  0.
          1    1    1    2  502    0  0.44151234206E+02  0.53625087496E+02 -0.80968508458E+02  0.10668121134E+03  0.00000000000E+00 0. -1.
         -2    1    1    2    0  501  0.22349792976E+02 -0.65557724668E+01  0.36457938900E+03  0.36532262766E+03  0.00000000000E+00 0.  1.
<mgrwt>
<rscale>  0 0.41055551E+02</rscale>
<asrwt>0</asrwt>
<pdfrwt beam="2">  1        1 0.41538686E-01 0.72368127E+02</pdfrwt>
<pdfrwt beam="1">  1       -2 0.62994752E-01 0.23291445E+02</pdfrwt>
<totfact> 0.21366928E+02</totfact>
</mgrwt>
</event>
<event>
 5    1  0.4149151E-003  0.8631382E+02  0.7546771E-02  0.1459280E+00
          2   -1    0    0  502    0  0.00000000000E+00  0.00000000000E+00  0.12758007458E+04  0.12758007458E+04  0.00000000000E+00 0.  1.
         -3   -1    0    0    0  501 -0.00000000000E+00 -0.00000000000E+00 -0.37364168197E+02  0.37364168197E+02  0.00000000000E+00 0.  1.
         25    1    1    2    0    0 -0.46475507014E+02 -0.89164332885E+02  0.58110061652E+03  0.60283760461E+03  0.12500000000E+03 0.  0.
          2    1    1    2  502    0  0.25206489482E+02  0.69462536416E+01  0.61478196609E+03  0.61533769865E+03  0.00000000000E+00 0.  1.
         -3    1    1    2    0  501  0.21269017532E+02  0.82218079243E+02  0.42553995022E+02  0.94989610766E+02  0.00000000000E+00 0.  1.
<mgrwt>
<rscale>  0 0.47505454E+02</rscale>
<asrwt>0</asrwt>
<pdfrwt beam="1">  1        2 0.19627700E+00 0.26146081E+02</pdfrwt>
<pdfrwt beam="2">  1       -3 0.57483345E-02 0.86313821E+02</pdfrwt>
<totfact> 0.21566772E+03</totfact>
</mgrwt>
</event>
<event>
 5    1  0.4149151E-003  0.6802551E+02  0.7546771E-02  0.1374824E+00
          2   -1    0    0  502    0  0.00000000000E+00  0.00000000000E+00  0.13810789365E+03  0.13810789365E+03  0.00000000000E+00 0. -1.
          2   -1    0    0  501    0 -0.00000000000E+00 -0.00000000000E+00 -0.31137170051E+04  0.31137170051E+04  0.00000000000E+00 0. -1.
         25    1    1    2    0    0  0.36824259378E+01  0.72253906177E+02 -0.17267702293E+03  0.22511450746E+03  0.12500000000E+03 0.  0.
          2    1    1    2  501    0 -0.57165488785E+02 -0.28177157453E+02 -0.29037058801E+04  0.29044052202E+04  0.00000000000E+00 0. -1.
          2    1    1    2  502    0  0.53483062847E+02 -0.44076748725E+02  0.10077379159E+03  0.12230517103E+03  0.00000000000E+00 0. -1.
<mgrwt>
<rscale>  0 0.65844083E+02</rscale>
<asrwt>0</asrwt>
<pdfrwt beam="1">  1        2 0.21247370E-01 0.68025512E+02</pdfrwt>
<pdfrwt beam="2">  1        2 0.47903335E+00 0.63732608E+02</pdfrwt>
<totfact> 0.86537307E+01</totfact>
</mgrwt>
</event>
<event>
 5    1  0.4149151E-003  0.5549520E+02  0.7546771E-02  0.1444662E+00
         -2   -1    0    0    0  501 -0.00000000000E+00  0.00000000000E+00  0.11728913878E+02  0.11728913878E+02  0.00000000000E+00 0.  1.
          2   -1    0    0  502    0  0.00000000000E+00 -0.00000000000E+00 -0.15208317220E+04  0.15208317220E+04  0.00000000000E+00 0. -1.
         25    1    1    2    0    0 -0.64503589033E+02  0.10458312008E+02 -0.58968210310E+03  0.60631680829E+03  0.12500000000E+03 0.  0.
          2    1    1    2  502    0  0.29965756016E+02  0.33941380839E+02 -0.61537816747E+03  0.61704153253E+03  0.00000000000E+00 0. -1.
         -2    1    1    2    0  501  0.34537833017E+02 -0.44399692847E+02 -0.30404253755E+03  0.30920229507E+03  0.00000000000E+00 0.  1.
<mgrwt>
<rscale>  0 0.50126140E+02</rscale>
<asrwt>0</asrwt>
<pdfrwt beam="2">  1        2 0.23397393E+00 0.45276527E+02</pdfrwt>
<pdfrwt beam="1">  1       -2 0.18044497E-02 0.55495200E+02</pdfrwt>
<totfact> 0.11262641E+04</totfact>
</mgrwt>
</event>
<event>
 5    1  0.4149151E-003  0.6495788E+02  0.7546771E-02  0.1410717E+00
          1   -1    0    0  502    0  0.00000000000E+00  0.00000000000E+00  0.63226240539E+03  0.63226240539E+03  0.00000000000E+00 0. -1.
         -1   -1    0    0    0  501 -0.00000000000E+00 -0.00000000000E+00 -0.16194412068E+04  0.16194412068E+04  0.00000000000E+00 0.  1.
         25    1    1    2    0    0 -0.19040130143E+02  0.84610390695E+01 -0.14637000780E+03  0.19360603018E+03  0.12500000000E+03 0.  0.
          1    1    1    2  502    0  0.32916610261E+02 -0.56576971700E+02  0.60645025403E+03  0.60997243181E+03  0.00000000000E+00 0. -1.
         -1    1    1    2    0  501 -0.13876480118E+02  0.48115932630E+02 -0.14472590476E+04  0.14481251502E+04  0.00000000000E+00 0.  1.
<mgrwt>
<rscale>  0 0.57034128E+02</rscale>
<asrwt>0</asrwt>
<pdfrwt beam="1">  1        1 0.97271140E-01 0.64957881E+02</pdfrwt>
<pdfrwt beam="2">  1       -1 0.24914480E+00 0.50076938E+02</pdfrwt>
<totfact> 0.33533793E+00</totfact>
</mgrwt>
</event>
<event>
 5    1  0.4149151E-003  0.3216605E+02  0.7546771E-02  0.1581405E+00
          1   -1    0    0  502    0  0.00000000000E+00  0.00000000000E+00  0.36382298540E+03  0.36382298540E+03  0.00000000000E+00 0. -1.
         -2   -1    0    0    0  501 -0.00000000000E+00 -0.00000000000E+00 -0.32291893574E+02  0.32291893574E+02  0.00000000000E+00 0.  1.
         25    1    1    2    0    0 -0.39706138638E+01 -0.23555396958E+02  0.16168878183E+03  0.20576414816E+03  0.12500000000E+03 0.  0.
          1    1    1    2  502    0 -0.29328179053E+02  0.99671681533E+01  0.14067641855E+03  0.14404631638E+03  0.00000000000E+00 0. -1.
         -2    1    1    2    0  501  0.33298792916E+02  0.13588228804E+02  0.29165891453E+02  0.46304414433E+02  0.00000000000E+00 0.  1.
<mgrwt>
<rscale>  0 0.31565203E+02</rscale>
<asrwt>0</asrwt>
<pdfrwt beam="1">  1        1 0.55972764E-01 0.30975580E+02</pdfrwt>
<pdfrwt beam="2">  1       -2 0.49679839E-02 0.32166051E+02</pdfrwt>
<totfact> 0.97324274E+03</totfact>
</mgrwt>
</event>
<event>
 5    1  0.4149151E-003  0.1504602E+03  0.7546771E-02  0.1335551E+00
          1   -1    0    0  501    0  0.00000000000E+00  0.00000000000E+00  0.85802689614E+03  0.85802689614E+03  0.00000000000E+00 0. -1.
          3   -1    0    0  502    0 -0.00000000000E+00 -0.00000000000E+00 -0.16458160021E+03  0.16458160021E+03  0.00000000000E+00 0. -1.
         25    1    1    2    0    0  0.64598480436E+02  0.16602701667E+03  0.17431772073E+03  0.27883615565E+03  0.12500000000E+03 0.  0.
          1    1    1    2  501    0 -0.31877877651E+02 -0.14270665716E+03  0.61904405919E+03  0.63607934749E+03  0.00000000000E+00 0. -1.
          3    1    1    2  502    0 -0.32720602784E+02 -0.23320359513E+02 -0.99916483992E+02  0.10769299322E+03  0.00000000000E+00 0. -1.
<mgrwt>
<rscale>  0 0.77753287E+02</rscale>
<asrwt>0</asrwt>
<pdfrwt beam="1">  1        1 0.13200413E+00 0.15046018E+03</pdfrwt>
<pdfrwt beam="2">  1        3 0.25320247E-01 0.40180555E+02</pdfrwt>
<totfact> 0.14788220E+02</totfact>
</mgrwt>
</event>
<event>
 5    1  0.4149151E-003  0.3762226E+02  0.7546771E-02  0.1555451E+00
          3   -1    0    0  502    0 -0.00000000000E+00  0.00000000000E+00  0.67958300268E+02  0.67958300268E+02  0.00000000000E+00 0. -1.
          1   -1    0    0  501    0  0.00000000000E+00 -0.00000000000E+00 -0.31935057273E+03  0.31935057273E+03  0.00000000000E+00 0. -1.
         25    1    1    2    0    0  0.16916113273E+02 -0.11255155173E+02 -0.24070030460E+03  0.27198248113E+03  0.12500000000E+03 0.  0.
          1    1    1    2  501    0 -0.32870455999E+02  0.38023814580E+02 -0.46069478092E+02  0.68181186294E+02  0.00000000000E+00 0. -1.
          3    1    1    2  502    0  0.15954342726E+02 -0.26768659408E+02  0.35377510232E+02  0.47145205573E+02  0.00000000000E+00 0. -1.
<mgrwt>
<rscale>  0 0.34240389E+02</rscale>
<asrwt>0</asrwt>
<pdfrwt beam="2">  1        1 0.49130857E-01 0.37622263E+02</pdfrwt>
<pdfrwt beam="1">  1        3 0.10455123E-01 0.31162512E+02</pdfrwt>
<totfact> 0.23604918E+03</totfact>
</mgrwt>
</event>
<event>
 5    1  0.4149151E-003  0.6976055E+02  0.7546771E-02  0.1391571E+00
          2   -1    0    0  502    0  0.00000000000E+00  0.00000000000E+00  0.25049865206E+03  0.25049865206E+03  0.00000000000E+00 0. -1.
          2   -1    0    0  501    0 -0.00000000000E+00 -0.00000000000E+00 -0.19279585666E+03  0.19279585666E+03  0.00000000000E+00 0. -1.
         25    1    1    2    0    0  0.97769129996E+02 -0.57107830648E+01  0.20716546382E+02  0.16014240887E+03  0.12500000000E+03 0.  0.
          2    1    1    2  501    0 -0.55425137688E+02  0.39620779940E+02 -0.10836754386E+03  0.12800498683E+03  0.00000000000E+00 0. -1.
          2    1    1    2  502    0 -0.42343992308E+02 -0.33909996875E+02  0.14535379288E+03  0.15514711302E+03  0.00000000000E+00 0. -1.
<mgrwt>
<rscale>  0 0.61517528E+02</rscale>
<asrwt>0</asrwt>
<pdfrwt beam="1">  1        2 0.38538254E-01 0.54248517E+02</pdfrwt>
<pdfrwt beam="2">  1        2 0.29660901E-01 0.69760548E+02</pdfrwt>
<totfact> 0.34631731E+03</totfact>
</mgrwt>
</event>
<event>
 5    1  0.4149151E-003  0.3974898E+02  0.7546771E-02  0.1524512E+00
          2   -1    0    0  501    0  0.00000000000E+00  0.00000000000E+00  0.80894426944E+03  0.80894426944E+03  0.00000000000E+00 0.  1.
          1   -1    0    0  502    0 -0.00000000000E+00 -0.00000000000E+00 -0.45356227847E+03  0.45356227847E+03  0.00000000000E+00 0. -1.
         25    1    1    2    0    0 -0.31257299603E+02  0.62609105116E+02  0.86718810933E+02  0.16745766925E+03  0.12500000000E+03 0.  0.
          2    1    1    2  501    0  0.27611420588E+02 -0.23218944061E+02  0.68043025482E+03  0.68138597108E+03  0.00000000000E+00 0.  1.
          1    1    1    2  502    0  0.36458790144E+01 -0.39390161056E+02 -0.41176707478E+03  0.41366290757E+03  0.00000000000E+00 0. -1.
<mgrwt>
<rscale>  0 0.37868219E+02</rscale>
<asrwt>0</asrwt>
<pdfrwt beam="1">  1        2 0.12445296E+00 0.36076445E+02</pdfrwt>
<pdfrwt beam="2">  1        1 0.69778812E-01 0.39748983E+02</pdfrwt>
<totfact> 0.27512843E+02</totfact>
</mgrwt>
</event>
<event>
 5    1  0.4149151E-003  0.1503161E+03  0.7546771E-02  0.1395674E+00
          1   -1    0    0  502    0 -0.00000000000E+00  0.00000000000E+00  0.50642595856E+03  0.50642595856E+03  0.00000000000E+00 0. -1.
          2   -1    0    0  501    0  0.00000000000E+00 -0.00000000000E+00 -0.92270691501E+03  0.92270691501E+03  0.00000000000E+00 0. -1.
         25    1    1    2    0    0 -0.14891892371E+03  0.80010720949E+02 -0.61008741694E+02  0.21891922681E+03  0.12500000000E+03 0.  0.
          2    1    1    2  501    0  0.12550058344E+02 -0.20883335302E+02 -0.76962383781E+03  0.77000939564E+03  0.00000000000E+00 0. -1.
          1    1    1    2  502    0  0.13636886536E+03 -0.59127385647E+02  0.41435162305E+03  0.44020425112E+03  0.00000000000E+00 0. -1.
<mgrwt>
<rscale>  0 0.60517295E+02</rscale>
<asrwt>0</asrwt>
<pdfrwt beam="2">  1        2 0.14195491E+00 0.24364270E+02</pdfrwt>
<pdfrwt beam="1">  1        1 0.77911686E-01 0.15031614E+03</pdfrwt>
<totfact> 0.20263352E+02</totfact>
</mgrwt>
</event>
<event>
 5    1  0.4149151E-003  0.1434030E+03  0.7546771E-02  0.1311528E+00
          1   -1    0    0  501    0  0.00000000000E+00  0.00000000000E+00  0.24690183284E+03  0.24690183284E+03  0.00000000000E+00 0. -1.
          1   -1    0    0  502    0 -0.00000000000E+00 -0.00000000000E+00 -0.12277829765E+04  0.12277829765E+04  0.00000000000E+00 0. -1.
         25    1    1    2    0    0 -0.70214496084E+02 -0.10511891580E+03 -0.43122448036E+03  0.46643286160E+03  0.12500000000E+03 0.  0.
          1    1    1    2  501    0 -0.50814657457E+02  0.11899673497E+02  0.21870753240E+03  0.22484820740E+03  0.00000000000E+00 0. -1.
          1    1    1    2  502    0  0.12102915354E+03  0.93219242301E+02 -0.76836419567E+03  0.78340374031E+03  0.00000000000E+00 0. -1.
<mgrwt>
<rscale>  0 0.86510763E+02</rscale>
<asrwt>0</asrwt>
<pdfrwt beam="1">  1        1 0.37984898E-01 0.52189382E+02</pdfrwt>
<pdfrwt beam="2">  1        1 0.18888969E+00 0.14340296E+03</pdfrwt>
<totfact> 0.15289531E+02</totfact>
</mgrwt>
</event>
<event>
 5    1  0.4149151E-003  0.6659608E+02  0.7546771E-02  0.1413237E+00
          2   -1    0    0  501    0  0.00000000000E+00  0.00000000000E+00  0.25114491815E+04  0.25114491815E+04  0.00000000000E+00 0. -1.
          3   -1    0    0  502    0 -0.00000000000E+00 -0.00000000000E+00 -0.65919787047E+02  0.65919787047E+02  0.00000000000E+00 0. -1.
         25    1    1    2    0    0 -0.32888324535E+02 -0.40553485277E+02  0.88586369700E+03  0.89616165770E+03  0.12500000000E+03 0.  0.
          2    1    1    2  501    0 -0.44814166258E+01  0.70513276096E+02  0.16101024142E+04  0.16116519443E+04  0.00000000000E+00 0. -1.
          3    1    1    2  502    0  0.37369741160E+02 -0.29959790819E+02 -0.50436716773E+02  0.69555366573E+02  0.00000000000E+00 0. -1.
<mgrwt>
<rscale>  0 0.56477673E+02</rscale>
<asrwt>0</asrwt>
<pdfrwt beam="1">  1        2 0.38637673E+00 0.66596082E+02</pdfrwt>
<pdfrwt beam="2">  1        3 0.10141508E-01 0.47896624E+02</pdfrwt>
<totfact> 0.17867763E+02</totfact>
</mgrwt>
</event>
<event>
 5    1  0.4149151E-003  0.5182725E+02  0.7546771E-02  0.1475022E+00
          3   -1    0    0  502    0 -0.00000000000E+00  0.00000000000E+00  0.26623218617E+02  0.26623218617E+02  0.00000000000E+00 0. -1.
          1   -1    0    0  501    0  0.00000000000E+00 -0.00000000000E+00 -0.62924585769E+03  0.62924585769E+03  0.00000000000E+00 0.  1.
         25    1    1    2    0    0 -0.60827931643E+02 -0.54757139768E+02 -0.39349255145E+03  0.42090351587E+03  0.12500000000E+03 0.  0.
          1    1    1    2  501    0  0.16787555709E+02  0.35072626687E+02 -0.16522135991E+03  0.16973511404E+03  0.00000000000E+00 0.  1.
          3    1    1    2  502    0  0.44040375934E+02  0.19684513082E+02 -0.43908727718E+02  0.65230446399E+02  0.00000000000E+00 0. -1.
<mgrwt>
<rscale>  0 0.44891144E+02</rscale>
<asrwt>0</asrwt>
<pdfrwt beam="2">  1        1 0.96807057E-01 0.38883302E+02</pdfrwt>
<pdfrwt beam="1">  1        3 0.40958797E-02 0.51827254E+02</pdfrwt>
<totfact> 0.48626552E+03</totfact>
</mgrwt>
</event>
<event>
 5    1  0.4149151E-003  0.8105409E+02  0.7546771E-02  0.1339035E+00
          2   -1    0    0  501    0  0.00000000000E+00  0.00000000000E+00  0.48878777275E+03  0.48878777275E+03  0.00000000000E+00 0. -1.
          1   -1    0    0  502    0 -0.00000000000E+00 -0.00000000000E+00 -0.44141862182E+03  0.44141862182E+03  0.00000000000E+00 0. -1.
         25    1    1    2    0    0 -0.48345904178E+02  0.13336117981E+03  0.28523635376E+03  0.34220945083E+03  0.12500000000E+03 0.  0.
          2    1    1    2  501    0 -0.38971060126E+01 -0.72255477694E+02  0.16342643617E+03  0.17872952059E+03  0.00000000000E+00 0. -1.
          1    1    1    2  502    0  0.52243010190E+02 -0.61105702114E+02 -0.40129363901E+03  0.40926742315E+03  0.00000000000E+00 0. -1.
<mgrwt>
<rscale>  0 0.76584034E+02</rscale>
<asrwt>0</asrwt>
<pdfrwt beam="1">  1        2 0.75198119E-01 0.72360497E+02</pdfrwt>
<pdfrwt beam="2">  1        1 0.67910557E-01 0.81054090E+02</pdfrwt>
<totfact> 0.48299246E+02</totfact>
</mgrwt>
</event>
<event>
 5    1  0.4149151E-003  0.1020702E+03  0.7546771E-02  0.1459464E+00
          1   -1    0    0  502    0  0.00000000000E+00  0.00000000000E+00  0.93756655085E+03  0.93756655085E+03  0.00000000000E+00 0. -1.
         -1   -1    0    0    0  501 -0.00000000000E+00 -0.00000000000E+00 -0.14511680570E+03  0.14511680570E+03  0.00000000000E+00 0.  1.
         25    1    1    2    0    0  0.59835353962E+02 -0.61664737417E+02  0.26095454570E+03  0.30183618793E+03  0.12500000000E+03 0.  0.
          1    1    1    2  502    0  0.77268167492E+00 -0.22066992937E+02  0.63452189150E+03  0.63490596154E+03  0.00000000000E+00 0. -1.
         -1    1    1    2    0  501 -0.60608035637E+02  0.83731730354E+02 -0.10302669204E+03  0.14594120708E+03  0.00000000000E+00 0.  1.
<mgrwt>
<rscale>  0 0.47473812E+02</rscale>
<asrwt>0</asrwt>
<pdfrwt beam="1">  1        1 0.14424100E+00 0.22080517E+02</pdfrwt>
<pdfrwt beam="2">  1       -1 0.22325663E-01 0.10207020E+03</pdfrwt>
<totfact> 0.34377055E+02</totfact>
</mgrwt>
</event>
<event>
 5    1  0.4149151E-003  0.7469742E+02  0.7546771E-02  0.1357761E+00
         -3   -1    0    0    0  501  0.00000000000E+00  0.00000000000E+00  0.74295388137E+02  0.74295388137E+02  0.00000000000E+00 0.  1.
         -3   -1    0    0    0  502 -0.00000000000E+00 -0.00000000000E+00 -0.15261046715E+04  0.15261046715E+04  0.00000000000E+00 0.  1.
         25    1    1    2    0    0 -0.86946362792E+02  0.58019530404E+02 -0.40669384129E+02  0.16794324850E+03  0.12500000000E+03 0.  0.
         -3    1    1    2    0  502  0.74197841813E+02  0.76528208214E+01 -0.13040976327E+04  0.13062291227E+04  0.00000000000E+00 0.  1.
         -3    1    1    2    0  501  0.12748520978E+02 -0.65672351225E+02 -0.10704226656E+03  0.12622768845E+03  0.00000000000E+00 0.  1.
<mgrwt>
<rscale>  0 0.70690383E+02</rscale>
<asrwt>0</asrwt>
<pdfrwt beam="1">  1       -3 0.11430061E-01 0.66898300E+02</pdfrwt>
<pdfrwt beam="2">  1       -3 0.23478531E+00 0.74697418E+02</pdfrwt>
<totfact> 0.13544088E+01</totfact>
</mgrwt>
</event>
<event>
 5    1  0.4149151E-003  0.1092428E+03  0.7546771E-02  0.1363545E+00
          2   -1    0    0  501    0  0.00000000000E+00  0.00000000000E+00  0.63938555897E+02  0.63938555897E+02  0.00000000000E+00 0. -1.
          2   -1    0    0  502    0 -0.00000000000E+00 -0.00000000000E+00 -0.60667341062E+03  0.60667341062E+03  0.00000000000E+00 0. -1.
         25    1    1    2    0    0 -0.74409178545E+02  0.65525648598E+01 -0.13065400226E+03  0.19564030838E+03  0.12500000000E+03 0.  0.
          2    1    1    2  501    0 -0.43521959053E+02 -0.21567346587E+01  0.27683922414E+01  0.43663215866E+02  0.00000000000E+00 0. -1.
          2    1    1    2  502    0  0.11793113760E+03 -0.43958302011E+01 -0.41484924471E+03  0.43130844227E+03  0.00000000000E+00 0. -1.
<mgrwt>
<rscale>  0 0.68994875E+02</rscale>
<asrwt>0</asrwt>
<pdfrwt beam="1">  1        2 0.98367011E-02 0.43575365E+02</pdfrwt>
<pdfrwt beam="2">  1        2 0.93334369E-01 0.10924275E+03</pdfrwt>
<totfact> 0.45625659E+03</totfact>
</mgrwt>
</event>
<event>
 5    1  0.4149151E-003  0.7372860E+02  0.7546771E-02  0.1468803E+00
          1   -1    0    0  502    0  0.00000000000E+00  0.00000000000E+00  0.26407336228E+03  0.26407336228E+03  0.00000000000E+00 0. -1.
         -1   -1    0    0    0  501 -0.00000000000E+00 -0.00000000000E+00 -0.61016201021E+02  0.61016201021E+02  0.00000000000E+00 0.  1.
         25    1    1    2    0    0  0.56457074025E+02 -0.76779332446E+01  0.73272580794E+02  0.15569271968E+03  0.12500000000E+03 0.  0.
          1    1    1    2  502    0 -0.79760010570E+02 -0.88593337685E+01  0.93706828296E+02  0.12337389007E+03  0.00000000000E+00 0. -1.
         -1    1    1    2    0  501  0.23302936545E+02  0.16537267013E+02  0.36077752167E+02  0.46022953548E+02  0.00000000000E+00 0.  1.
<mgrwt>
<rscale>  0 0.45899517E+02</rscale>
<asrwt>0</asrwt>
<pdfrwt beam="1">  1        1 0.40626670E-01 0.73728601E+02</pdfrwt>
<pdfrwt beam="2">  1       -1 0.93871080E-02 0.28574605E+02</pdfrwt>
<totfact> 0.58161627E+03</totfact>
</mgrwt>
</event>
<event>
 5    1  0.4149151E-003  0.7111567E+02  0.7546771E-02  0.1477286E+00
          2   -1    0    0  502    0  0.00000000000E+00  0.00000000000E+00  0.30721993295E+04  0.30721993295E+04  0.00000000000E+00 0. -1.
         -1   -1    0    0    0  501 -0.00000000000E+00 -0.00000000000E+00 -0.62475187559E+01  0.62475187559E+01  0.00000000000E+00 0.  1.
         25    1    1    2    0    0  0.60527381848E+01 -0.73693647455E+02  0.11219905842E+04  0.11313510774E+04  0.12500000000E+03 0.  0.
          2    1    1    2  502    0  0.25994742024E+02  0.10092470699E+02  0.10248918534E+04  0.10252711328E+04  0.00000000000E+00 0. -1.
         -1    1    1    2    0  501 -0.32047480209E+02  0.63601176756E+02  0.91906937308E+03  0.92182463799E+03  0.00000000000E+00 0.  1.
<mgrwt>
<rscale>  0 0.44531730E+02</rscale>
<asrwt>0</asrwt>
<pdfrwt beam="1">  1        2 0.47264484E+00 0.27885204E+02</pdfrwt>
<pdfrwt beam="2">  1       -1 0.96115919E-03 0.71115672E+02</pdfrwt>
<totfact> 0.51613804E+03</totfact>
</mgrwt>
</event>
<event>
 5    1  0.4149151E-003  0.3581371E+02  0.7546771E-02  0.1555210E+00
          2   -1    0    0  502    0  0.00000000000E+00  0.00000000000E+00  0.77080354858E+03  0.77080354858E+03  0.00000000000E+00 0. -1.
         -1   -1    0    0    0  501 -0.00000000000E+00 -0.00000000000E+00 -0.62221475381E+02  0.62221475381E+02  0.00000000000E+00 0.  1.
         25    1    1    2    0    0 -0.12048039005E+02  0.57192490689E+02  0.17051147919E+03  0.21935200197E+03  0.12500000000E+03 0.  0.
          2    1    1    2  502    0  0.23576953913E+02 -0.26499701575E+02  0.56810381926E+03  0.56921002837E+03  0.00000000000E+00 0. -1.
         -1    1    1    2    0  501 -0.11528914908E+02 -0.30692789114E+02 -0.30033225248E+02  0.44462993617E+02  0.00000000000E+00 0.  1.
<mgrwt>
<rscale>  0 0.34266760E+02</rscale>
<asrwt>0</asrwt>
<pdfrwt beam="1">  1        2 0.11858515E+00 0.35813709E+02</pdfrwt>
<pdfrwt beam="2">  1       -1 0.95725352E-02 0.32786631E+02</pdfrwt>
<totfact> 0.25548999E+03</totfact>
</mgrwt>
</event>
<event>
 5    1  0.4149151E-003  0.2845137E+02  0.7546771E-02  0.1661300E+00
          1   -1    0    0  501    0  0.00000000000E+00  0.00000000000E+00  0.11608765743E+03  0.11608765743E+03  0.00000000000E+00 0. -1.
          3   -1    0    0  502    0 -0.00000000000E+00 -0.00000000000E+00 -0.89015524373E+03  0.89015524373E+03  0.00000000000E+00 0. -1.
         25    1    1    2    0    0 -0.32195300261E+02  0.38657864843E+02  0.20358971633E+02  0.13627345889E+03  0.12500000000E+03 0.  0.
          1    1    1    2  501    0  0.13743245910E+02 -0.17090552101E+02  0.34324497762E+02  0.40732479987E+02  0.00000000000E+00 0. -1.
          3    1    1    2  502    0  0.18452054351E+02 -0.21567312743E+02 -0.82875105569E+03  0.82923696227E+03  0.00000000000E+00 0. -1.
<mgrwt>
<rscale>  0 0.24979265E+02</rscale>
<asrwt>0</asrwt>
<pdfrwt beam="1">  1        1 0.17859640E-01 0.21930886E+02</pdfrwt>
<pdfrwt beam="2">  1        3 0.13694696E+00 0.28451367E+02</pdfrwt>
<totfact> 0.60777233E+01</totfact>
</mgrwt>
</event>
<event>
 5    1  0.4149151E-003  0.1070020E+03  0.7546771E-02  0.1376022E+00
          1   -1    0    0  502    0  0.00000000000E+00  0.00000000000E+00  0.15338753042E+04  0.15338753042E+04  0.00000000000E+00 0. -1.
         -3   -1    0    0    0  501 -0.00000000000E+00 -0.00000000000E+00 -0.84750353930E+02  0.84750353930E+02  0.00000000000E+00 0.  1.
         25    1    1    2    0    0  0.35723626443E+02  0.85559621525E+02  0.72970634025E+03  0.74611860272E+03  0.12500000000E+03 0.  0.
          1    1    1    2  502    0 -0.92896733701E+01 -0.11574140815E+03  0.78613081227E+03  0.79465969169E+03  0.00000000000E+00 0. -1.
         -3    1    1    2    0  501 -0.26433953073E+02  0.30181786624E+02 -0.66712202219E+02  0.77847363756E+02  0.00000000000E+00 0.  1.
<mgrwt>
<rscale>  0 0.65521183E+02</rscale>
<asrwt>0</asrwt>
<pdfrwt beam="1">  1        1 0.23598080E+00 0.10700197E+03</pdfrwt>
<pdfrwt beam="2">  1       -3 0.13038517E-01 0.40120993E+02</pdfrwt>
<totfact> 0.15840682E+02</totfact>
</mgrwt>
</event>
<event>
 5    1  0.4149151E-003  0.7430716E+02  0.7546771E-02  0.1473610E+00
          1   -1    0    0  501    0  0.00000000000E+00  0.00000000000E+00  0.89270147437E+03  0.89270147437E+03  0.00000000000E+00 0. -1.
          3   -1    0    0  502    0 -0.00000000000E+00 -0.00000000000E+00 -0.18239047743E+03  0.18239047743E+03  0.00000000000E+00 0. -1.
         25    1    1    2    0    0 -0.38751780514E+02  0.88960475350E+02  0.48857366024E+03  0.51356098776E+03  0.12500000000E+03 0.  0.
          1    1    1    2  501    0  0.21441066303E+02 -0.17050462407E+02  0.38307173308E+03  0.38404998408E+03  0.00000000000E+00 0. -1.
          3    1    1    2  502    0  0.17310714211E+02 -0.71910012943E+02 -0.16133439638E+03  0.17748097995E+03  0.00000000000E+00 0. -1.
<mgrwt>
<rscale>  0 0.45117391E+02</rscale>
<asrwt>0</asrwt>
<pdfrwt beam="1">  1        1 0.13733869E+00 0.27394116E+02</pdfrwt>
<pdfrwt beam="2">  1        3 0.28060074E-01 0.74307160E+02</pdfrwt>
<totfact> 0.13597234E+02</totfact>
</mgrwt>
</event>
<event>
 5    1  0.4149151E-003  0.1125562E+03  0.7546771E-02  0.1415467E+00
          2   -1    0    0  502    0  0.00000000000E+00  0.00000000000E+00  0.60509221572E+02  0.60509221572E+02  0.00000000000E+00 0. -1.
          2   -1    0    0  501    0 -0.00000000000E+00 -0.00000000000E+00 -0.67171824642E+03  0.67171824642E+03  0.00000000000E+00 0. -1.
         25    1    1    2    0    0 -0.65617951995E+02 -0.95367078672E+02 -0.13641285319E+03  0.21825228941E+03  0.12500000000E+03 0.  0.
          2    1    1    2  501    0 -0.17600738531E+02  0.21587469898E+02 -0.33109445964E+03  0.33226397045E+03  0.00000000000E+00 0. -1.
          2    1    1    2  502    0  0.83218690526E+02  0.73779608774E+02 -0.14370171202E+03  0.18171120813E+03  0.00000000000E+00 0. -1.
<mgrwt>
<rscale>  0 0.55991602E+02</rscale>
<asrwt>0</asrwt>
<pdfrwt beam="1">  1        2 0.93091109E-02 0.11255623E+03</pdfrwt>
<pdfrwt beam="2">  1        2 0.10334127E+00 0.27853274E+02</pdfrwt>
<totfact> 0.48153842E+03</totfact>
</mgrwt>
</event>
<event>
 5    1  0.4149151E-003  0.5976417E+02  0.7546771E-02  0.1527234E+00
          2   -1    0    0  501    0  0.00000000000E+00  0.00000000000E+00  0.88127760212E+03  0.88127760212E+03  0.00000000000E+00 0. -1.
          3   -1    0    0  502    0 -0.00000000000E+00 -0.00000000000E+00 -0.18086960979E+03  0.18086960979E+03  0.00000000000E+00 0. -1.
         25    1    1    2    0    0  0.23162688659E+02 -0.35740222762E+02  0.59695420050E+01  0.13219118390E+03  0.12500000000E+03 0.  0.
          2    1    1    2  501    0 -0.40987268494E+01 -0.23205828903E+02  0.80386444747E+03  0.80420977360E+03  0.00000000000E+00 0. -1.
          3    1    1    2  502    0 -0.19063961810E+02  0.58946051665E+02 -0.10942599714E+03  0.12574625441E+03  0.00000000000E+00 0. -1.
<mgrwt>
<rscale>  0 0.37527904E+02</rscale>
<asrwt>0</asrwt>
<pdfrwt beam="1">  1        2 0.13558117E+00 0.23565018E+02</pdfrwt>
<pdfrwt beam="2">  1        3 0.27826094E-01 0.59764165E+02</pdfrwt>
<totfact> 0.24211681E+02</totfact>
</mgrwt>
</event>
<event>
 5    1  0.4149151E-003  0.9056809E+02  0.7546771E-02  0.1329622E+00
          2   -1    0    0  502    0  0.00000000000E+00  0.00000000000E+00  0.15321497813E+04  0.15321497813E+04  0.00000000000E+00 0. -1.
         -2   -1    0    0    0  501 -0.00000000000E+00 -0.00000000000E+00 -0.20660367790E+02  0.20660367790E+02  0.00000000000E+00 0.  1.
         25    1    1    2    0    0 -0.26461964482E+02 -0.11989044637E+03  0.50644458326E+03  0.53589651110E+03  0.12500000000E+03 0.  0.
          2    1    1    2  502    0 -0.25291629174E+02  0.65604349414E+02  0.66437352143E+03  0.66808365730E+03  0.00000000000E+00 0. -1.
         -2    1    1    2    0  501  0.51753593655E+02  0.54286096953E+02  0.34067130884E+03  0.34882998071E+03  0.00000000000E+00 0.  1.
<mgrwt>
<rscale>  0 0.79799170E+02</rscale>
<asrwt>0</asrwt>
<pdfrwt beam="1">  1        2 0.23571526E+00 0.70310719E+02</pdfrwt>
<pdfrwt beam="2">  1       -2 0.31785193E-02 0.90568090E+02</pdfrwt>
<totfact> 0.50772885E+03</totfact>
</mgrwt>
</event>
<event>
 5    1  0.4149151E-003  0.2765817E+02  0.7546771E-02  0.1626224E+00
          2   -1    0    0  502    0  0.00000000000E+00  0.00000000000E+00  0.88355906737E+03  0.88355906737E+03  0.00000000000E+00 0. -1.
         -1   -1    0    0    0  501 -0.00000000000E+00 -0.00000000000E+00 -0.16980051100E+02  0.16980051100E+02  0.00000000000E+00 0.  1.
         25    1    1    2    0    0 -0.12071976860E+01 -0.10220699449E+00  0.25910381184E+03  0.28768255610E+03  0.12500000000E+03 0.  0.
          2    1    1    2  502    0  0.17940631148E+02  0.21981490826E+02  0.52765631378E+03  0.52841861971E+03  0.00000000000E+00 0. -1.
         -1    1    1    2    0  501 -0.16733433462E+02 -0.21879283832E+02  0.79818890649E+02  0.84437942661E+02  0.00000000000E+00 0.  1.
<mgrwt>
<rscale>  0 0.27601381E+02</rscale>
<asrwt>0</asrwt>
<pdfrwt beam="1">  1        2 0.13593213E+00 0.27658173E+02</pdfrwt>
<pdfrwt beam="2">  1       -1 0.26123162E-02 0.27544707E+02</pdfrwt>
<totfact> 0.13496711E+04</totfact>
</mgrwt>
</event>
<event>
 5    1  0.4149151E-003  0.6155531E+02  0.7546771E-02  0.1474753E+00
          2   -1    0    0  502    0  0.00000000000E+00  0.00000000000E+00  0.24582013153E+03  0.24582013153E+03  0.00000000000E+00 0. -1.
          2   -1    0    0  501    0 -0.00000000000E+00 -0.00000000000E+00 -0.15777418844E+04  0.15777418844E+04  0.00000000000E+00 0.  1.
         25    1    1    2    0    0  0.78892262013E+02 -0.25568934930E+02  0.19862447211E+02  0.15131845971E+03  0.12500000000E+03 0.  0.
          2    1    1    2  501    0 -0.61396819144E+02 -0.21765946834E+01 -0.15097038661E+04  0.15109533647E+04  0.00000000000E+00 0.  1.
          2    1    1    2  502    0 -0.17495442869E+02  0.27745529613E+02  0.15791966607E+03  0.16129019148E+03  0.00000000000E+00 0. -1.
<mgrwt>
<rscale>  0 0.44934119E+02</rscale>
<asrwt>0</asrwt>
<pdfrwt beam="1">  1        2 0.37818482E-01 0.32800990E+02</pdfrwt>
<pdfrwt beam="2">  1        2 0.24272952E+00 0.61555307E+02</pdfrwt>
<totfact> 0.28713686E+02</totfact>
</mgrwt>
</event>
<event>
 5    1  0.4149151E-003  0.6567929E+02  0.7546771E-02  0.1521974E+00
          2   -1    0    0  502    0  0.00000000000E+00  0.00000000000E+00  0.83385044975E+03  0.83385044975E+03  0.00000000000E+00 0. -1.
         -2   -1    0    0    0  501 -0.00000000000E+00 -0.00000000000E+00 -0.55779984120E+03  0.55779984120E+03  0.00000000000E+00 0.  1.
         25    1    1    2    0    0 -0.38788873855E+02 -0.35135492912E+02 -0.37963475933E+03  0.40309630374E+03  0.12500000000E+03 0.  0.
          2    1    1    2  502    0  0.33325048505E+02  0.56658216473E+02  0.82005803634E+03  0.82268821270E+03  0.00000000000E+00 0. -1.
         -2    1    1    2    0  501  0.54638253501E+01 -0.21522723561E+02 -0.16437266846E+03  0.16586577451E+03  0.00000000000E+00 0.  1.
<mgrwt>
<rscale>  0 0.38189486E+02</rscale>
<asrwt>0</asrwt>
<pdfrwt beam="1">  1        2 0.12828468E+00 0.65679294E+02</pdfrwt>
<pdfrwt beam="2">  1       -2 0.85815360E-01 0.22205428E+02</pdfrwt>
<totfact> 0.45959152E+01</totfact>
</mgrwt>
</event>
<event>
 5    1  0.4149151E-003  0.6681488E+02  0.7546771E-02  0.1397436E+00
          1   -1    0    0  502    0  0.00000000000E+00  0.00000000000E+00  0.70509769466E+03  0.70509769466E+03  0.00000000000E+00 0. -1.
          1   -1    0    0  501    0 -0.00000000000E+00 -0.00000000000E+00 -0.34943375233E+04  0.34943375233E+04  0.00000000000E+00 0. -1.
         25    1    1    2    0    0 -0.59607111321E+01 -0.13394936515E+02 -0.18882280464E+03  0.22692290751E+03  0.12500000000E+03 0.  0.
          1    1    1    2  501    0  0.45503773810E+02  0.50242189209E+02 -0.32850499145E+04  0.32857492010E+04  0.00000000000E+00 0. -1.
          1    1    1    2  502    0 -0.39543062678E+02 -0.36847252694E+02  0.68463289047E+03  0.68676310949E+03  0.00000000000E+00 0. -1.
<mgrwt>
<rscale>  0 0.60094313E+02</rscale>
<asrwt>0</asrwt>
<pdfrwt beam="1">  1        1 0.10847657E+00 0.54049735E+02</pdfrwt>
<pdfrwt beam="2">  1        1 0.53759038E+00 0.66814877E+02</pdfrwt>
<totfact> 0.14893658E+00</totfact>
</mgrwt>
</event>
<event>
 5    1  0.4149151E-003  0.5337759E+02  0.7546771E-02  0.1499411E+00
         -2   -1    0    0    0  501 -0.00000000000E+00  0.00000000000E+00  0.11161844999E+03  0.11161844999E+03  0.00000000000E+00 0.  1.
          1   -1    0    0  502    0  0.00000000000E+00 -0.00000000000E+00 -0.14094348992E+03  0.14094348992E+03  0.00000000000E+00 0. -1.
         25    1    1    2    0    0  0.39512708316E+02  0.29486345924E+02 -0.68441112296E+02  0.15079749523E+03  0.12500000000E+03 0.  0.
          1    1    1    2  502    0 -0.61386072390E+02 -0.63575484491E+01  0.21314798188E+02  0.65291568579E+02  0.00000000000E+00 0. -1.
         -2    1    1    2    0  501  0.21873364074E+02 -0.23128797475E+02  0.17801274182E+02  0.36472876100E+02  0.00000000000E+00 0.  1.
<mgrwt>
<rscale>  0 0.41221438E+02</rscale>
<asrwt>0</asrwt>
<pdfrwt beam="2">  1        1 0.21683614E-01 0.53377591E+02</pdfrwt>
<pdfrwt beam="1">  1       -2 0.17172069E-01 0.31833714E+02</pdfrwt>
<totfact> 0.47140618E+03</totfact>
</mgrwt>
</event>
<event>
 5    1  0.4149151E-003  0.5227168E+03  0.7546771E-02  0.1008014E+00
         -2   -1    0    0    0  501 -0.00000000000E+00  0.00000000000E+00  0.66046628900E+02  0.66046628900E+02  0.00000000000E+00 0.  1.
          2   -1    0    0  502    0  0.00000000000E+00 -0.00000000000E+00 -0.10342420571E+04  0.10342420571E+04  0.00000000000E+00 0. -1.
         25    1    1    2    0    0 -0.62904349269E+02  0.21242618462E+03 -0.31490626995E+03  0.40481205506E+03  0.12500000000E+03 0.  0.
          2    1    1    2  502    0  0.10271094825E+02 -0.13322041787E+03 -0.47468966532E+03  0.49313634371E+03  0.00000000000E+00 0. -1.
         -2    1    1    2    0  501  0.52633254444E+02 -0.79205766751E+02 -0.17859949294E+03  0.20234028723E+03  0.00000000000E+00 0.  1.
<mgrwt>
<rscale>  0 0.52271675E+03</rscale>
<asrwt>0</asrwt>
<pdfrwt beam="2">  1        2 0.15911416E+00 0.52271675E+03</pdfrwt>
<pdfrwt beam="1">  1       -2 0.10161020E-01 0.52271675E+03</pdfrwt>
<totfact> 0.16142192E+03</totfact>
</mgrwt>
</event>
<event>
 5    1  0.4149151E-003  0.1107942E+03  0.7546771E-02  0.1290812E+00
          2   -1    0    0  502    0  0.00000000000E+00  0.00000000000E+00  0.46187060066E+02  0.46187060066E+02  0.00000000000E+00 0. -1.
          2   -1    0    0  501    0 -0.00000000000E+00 -0.00000000000E+00 -0.25774455485E+04  0.25774455485E+04  0.00000000000E+00 0.  1.
         25    1    1    2    0    0  0.70704716920E+02 -0.33424488071E+01 -0.22079431133E+03  0.26341119353E+03  0.12500000000E+03 0.  0.
          2    1    1    2  501    0  0.78289387049E+02  0.23483195864E+02 -0.20998970902E+04  0.21014872062E+04  0.00000000000E+00 0.  1.
          2    1    1    2  502    0 -0.14899410397E+03 -0.20140747057E+02 -0.21056708690E+03  0.25873420878E+03  0.00000000000E+00 0. -1.
<mgrwt>
<rscale>  0 0.95162060E+02</rscale>
<asrwt>0</asrwt>
<pdfrwt beam="1">  1        2 0.71057030E-02 0.11079421E+03</pdfrwt>
<pdfrwt beam="2">  1        2 0.39653000E+00 0.81735480E+02</pdfrwt>
<totfact> 0.61413834E+02</totfact>
</mgrwt>
</event>
<event>
 5    1  0.4149151E-003  0.3510936E+02  0.7546771E-02  0.1561367E+00
          1   -1    0    0  502    0  0.00000000000E+00  0.00000000000E+00  0.23372407659E+04  0.23372407659E+04  0.00000000000E+00 0. -1.
         -2   -1    0    0    0  501 -0.00000000000E+00 -0.00000000000E+00 -0.60751322838E+01  0.60751322838E+01  0.00000000000E+00 0.  1.
         25    1    1    2    0    0 -0.22147186375E+02 -0.12104778601E+02  0.82254050390E+03  0.83236704889E+03  0.12500000000E+03 0.  0.
          1    1    1    2  502    0 -0.22246342388E+02  0.23226281854E+02  0.91377737394E+03  0.91434317903E+03  0.00000000000E+00 0. -1.
         -2    1    1    2    0  501  0.44393528763E+02 -0.11121503253E+02  0.59484775577E+03  0.59660567025E+03  0.00000000000E+00 0.  1.
<mgrwt>
<rscale>  0 0.33603104E+02</rscale>
<asrwt>0</asrwt>
<pdfrwt beam="1">  1        1 0.35957478E+00 0.32161466E+02</pdfrwt>
<pdfrwt beam="2">  1       -2 0.93463760E-03 0.35109364E+02</pdfrwt>
<totfact> 0.40698251E+03</totfact>
</mgrwt>
</event>
<event>
 5    1  0.4149151E-003  0.8903298E+02  0.7546771E-02  0.1316720E+00
          2   -1    0    0  502    0  0.00000000000E+00  0.00000000000E+00  0.31496289973E+03  0.31496289973E+03  0.00000000000E+00 0. -1.
          2   -1    0    0  501    0 -0.00000000000E+00 -0.00000000000E+00 -0.15914135085E+04  0.15914135085E+04  0.00000000000E+00 0. -1.
         25    1    1    2    0    0 -0.66367926546E+02  0.71271084275E+02 -0.58379247107E+02  0.16887097329E+03  0.12500000000E+03 0.  0.
          2    1    1    2  501    0 -0.11888251678E+02 -0.88895099733E+02 -0.14701952268E+04  0.14729282652E+04  0.00000000000E+00 0. -1.
          2    1    1    2  502    0  0.78256178224E+02  0.17624015458E+02  0.25212386520E+03  0.26457716975E+03  0.00000000000E+00 0. -1.
<mgrwt>
<rscale>  0 0.84509677E+02</rscale>
<asrwt>0</asrwt>
<pdfrwt beam="1">  1        2 0.48455830E-01 0.80216179E+02</pdfrwt>
<pdfrwt beam="2">  1        2 0.24483285E+00 0.89032980E+02</pdfrwt>
<totfact> 0.21508400E+02</totfact>
</mgrwt>
</event>
<event>
 5    1  0.4149151E-003  0.6293781E+02  0.7546771E-02  0.1392435E+00
          2   -1    0    0  501    0  0.00000000000E+00  0.00000000000E+00  0.16684295493E+04  0.16684295493E+04  0.00000000000E+00 0. -1.
          1   -1    0    0  502    0 -0.00000000000E+00 -0.00000000000E+00 -0.15341910721E+03  0.15341910721E+03  0.00000000000E+00 0. -1.
         25    1    1    2    0    0  0.30492408915E+02 -0.79663707349E+02  0.92514195278E+02  0.17736958476E+03  0.12500000000E+03 0.  0.
          2    1    1    2  501    0  0.25059987661E+02  0.57759704818E+02  0.15247588510E+04  0.15260582362E+04  0.00000000000E+00 0. -1.
          1    1    1    2  502    0 -0.55552396576E+02  0.21904002531E+02 -0.10226260417E+03  0.11842083560E+03  0.00000000000E+00 0. -1.
<mgrwt>
<rscale>  0 0.61305113E+02</rscale>
<asrwt>0</asrwt>
<pdfrwt beam="1">  1        2 0.25668146E+00 0.62937807E+02</pdfrwt>
<pdfrwt beam="2">  1        1 0.23602941E-01 0.59714773E+02</pdfrwt>
<totfact> 0.34115598E+02</totfact>
</mgrwt>
</event>
<event>
 5    1  0.4149151E-003  0.8311305E+02  0.7546771E-02  0.1328577E+00
          2   -1    0    0  501    0  0.00000000000E+00  0.00000000000E+00  0.29988624296E+04  0.29988624296E+04  0.00000000000E+00 0. -1.
          2   -1    0    0  502    0 -0.00000000000E+00 -0.00000000000E+00 -0.23137848009E+04  0.23137848009E+04  0.00000000000E+00 0. -1.
         25    1    1    2    0    0  0.44399770824E+02  0.84529994759E+02  0.80120567044E+03  0.81649996082E+03  0.12500000000E+03 0.  0.
          2    1    1    2  501    0  0.32701164120E+02 -0.78635070363E+02  0.21885329950E+04  0.21901893778E+04  0.00000000000E+00 0. -1.
          2    1    1    2  502    0 -0.77100934944E+02 -0.58949243960E+01 -0.23046610368E+04  0.23059578918E+04  0.00000000000E+00 0. -1.
<mgrwt>
<rscale>  0 0.80167304E+02</rscale>
<asrwt>0</asrwt>
<pdfrwt beam="1">  1        2 0.46136345E+00 0.83113051E+02</pdfrwt>
<pdfrwt beam="2">  1        2 0.35596689E+00 0.77325961E+02</pdfrwt>
<totfact> 0.23157990E+00</totfact>
</mgrwt>
</event>
<event>
 5    1  0.4149151E-003  0.6154698E+02  0.7546771E-02  0.1396051E+00
         -1   -1    0    0    0  501 -0.00000000000E+00  0.00000000000E+00  0.10512525804E+03  0.10512525804E+03  0.00000000000E+00 0.  1.
          2   -1    0    0  502    0  0.00000000000E+00 -0.00000000000E+00 -0.22496588862E+03  0.22496588862E+03  0.00000000000E+00 0. -1.
         25    1    1    2    0    0  0.46015143562E+02 -0.83681360452E+01  0.11008359124E+01  0.13346771511E+03  0.12500000000E+03 0.  0.
          2    1    1    2  502    0 -0.36509346895E+02 -0.52440340923E+02 -0.11897147224E+03  0.13504492946E+03  0.00000000000E+00 0. -1.
         -1    1    1    2    0  501 -0.95057966669E+01  0.60808476968E+02 -0.19699942475E+01  0.61578502083E+02  0.00000000000E+00 0.  1.
<mgrwt>
<rscale>  0 0.60426469E+02</rscale>
<asrwt>0</asrwt>
<pdfrwt beam="2">  1        2 0.34610136E-01 0.59326356E+02</pdfrwt>
<pdfrwt beam="1">  1       -1 0.16173117E-01 0.61546982E+02</pdfrwt>
<totfact> 0.44287927E+03</totfact>
</mgrwt>
</event>
<event>
 5    1  0.4149151E-003  0.8217018E+02  0.7546771E-02  0.1342134E+00
          2   -1    0    0  502    0  0.00000000000E+00  0.00000000000E+00  0.36722211399E+03  0.36722211399E+03  0.00000000000E+00 0. -1.
          2   -1    0    0  501    0 -0.00000000000E+00 -0.00000000000E+00 -0.13066601782E+03  0.13066601782E+03  0.00000000000E+00 0.  1.
         25    1    1    2    0    0 -0.29921811993E+02 -0.31866385772E+02  0.92984950396E+02  0.16180847436E+03  0.12500000000E+03 0.  0.
          2    1    1    2  501    0  0.91481962802E+02 -0.36774147186E+00 -0.67613046776E+02  0.11375679692E+03  0.00000000000E+00 0.  1.
          2    1    1    2  502    0 -0.61560150809E+02  0.32234127244E+02  0.21118419255E+03  0.22232286052E+03  0.00000000000E+00 0. -1.
<mgrwt>
<rscale>  0 0.75563919E+02</rscale>
<asrwt>0</asrwt>
<pdfrwt beam="1">  1        2 0.56495709E-01 0.69488784E+02</pdfrwt>
<pdfrwt beam="2">  1        2 0.20102464E-01 0.82170180E+02</pdfrwt>
<totfact> 0.35886020E+03</totfact>
</mgrwt>
</event>
<event>
 5    1  0.4149151E-003  0.4557525E+02  0.7546771E-02  0.1509178E+00
          1   -1    0    0  502    0  0.00000000000E+00  0.00000000000E+00  0.39318700376E+03  0.39318700376E+03  0.00000000000E+00 0. -1.
         -2   -1    0    0    0  501 -0.00000000000E+00 -0.00000000000E+00 -0.31025153554E+02  0.31025153554E+02  0.00000000000E+00 0.  1.
         25    1    1    2    0    0 -0.33008614922E+02  0.20318185244E+02  0.19353246342E+03  0.23362836238E+03  0.12500000000E+03 0.  0.
          1    1    1    2  502    0  0.48105529864E+02  0.11122083193E+02  0.12709097752E+03  0.13634500103E+03  0.00000000000E+00 0. -1.
         -2    1    1    2    0  501 -0.15096914942E+02 -0.31440268438E+02  0.41538409259E+02  0.54238793902E+02  0.00000000000E+00 0.  1.
<mgrwt>
<rscale>  0 0.39868902E+02</rscale>
<asrwt>0</asrwt>
<pdfrwt beam="1">  1        1 0.60490305E-01 0.45575249E+02</pdfrwt>
<pdfrwt beam="2">  1       -2 0.47731008E-02 0.34877031E+02</pdfrwt>
<totfact> 0.94785200E+03</totfact>
</mgrwt>
</event>
<event>
 5    1  0.4149151E-003  0.5270561E+02  0.7546771E-02  0.1530357E+00
          1   -1    0    0  502    0  0.00000000000E+00  0.00000000000E+00  0.32518015539E+04  0.32518015539E+04  0.00000000000E+00 0. -1.
         -2   -1    0    0    0  501 -0.00000000000E+00 -0.00000000000E+00 -0.50087304193E+01  0.50087304193E+01  0.00000000000E+00 0.  1.
         25    1    1    2    0    0  0.18804467442E+02 -0.24486777799E+02  0.27373989292E+04  0.27404253516E+04  0.12500000000E+03 0.  0.
          1    1    1    2  502    0  0.22630911066E+02 -0.13152210537E+02  0.10910795347E+03  0.11220376236E+03  0.00000000000E+00 0. -1.
         -2    1    1    2    0  501 -0.41435378508E+02  0.37638988337E+02  0.40028594083E+03  0.40418117035E+03  0.00000000000E+00 0.  1.
<mgrwt>
<rscale>  0 0.37142663E+02</rscale>
<asrwt>0</asrwt>
<pdfrwt beam="1">  1        1 0.50027548E+00 0.26175156E+02</pdfrwt>
<pdfrwt beam="2">  1       -2 0.77057651E-03 0.52705605E+02</pdfrwt>
<totfact> 0.15660618E+03</totfact>
</mgrwt>
</event>
<event>
 5    1  0.4149151E-003  0.9598804E+02  0.7546771E-02  0.1301030E+00
          1   -1    0    0  501    0  0.00000000000E+00  0.00000000000E+00  0.35722133526E+03  0.35722133526E+03  0.00000000000E+00 0.  1.
          1   -1    0    0  502    0 -0.00000000000E+00 -0.00000000000E+00 -0.10728946320E+04  0.10728946320E+04  0.00000000000E+00 0. -1.
         25    1    1    2    0    0 -0.57084795901E+01 -0.15823517781E+02 -0.26464687009E+03  0.29316537364E+03  0.12500000000E+03 0.  0.
          1    1    1    2  501    0  0.67761643650E+02 -0.67985765497E+02  0.33272394400E+03  0.34629312377E+03  0.00000000000E+00 0.  1.
          1    1    1    2  502    0 -0.62053164060E+02  0.83809283278E+02 -0.78375037065E+03  0.79065746985E+03  0.00000000000E+00 0. -1.
<mgrwt>
<rscale>  0 0.90756321E+02</rscale>
<asrwt>0</asrwt>
<pdfrwt beam="1">  1        1 0.54957129E-01 0.95988044E+02</pdfrwt>
<pdfrwt beam="2">  1        1 0.16506071E+00 0.85809747E+02</pdfrwt>
<totfact> 0.12992090E+02</totfact>
</mgrwt>
</event>
<event>
 5    1  0.4149151E-003  0.1638724E+03  0.7546771E-02  0.1262658E+00
          2   -1    0    0  501    0  0.00000000000E+00  0.00000000000E+00  0.49070755873E+03  0.49070755873E+03  0.00000000000E+00 0. -1.
          1   -1    0    0  502    0 -0.00000000000E+00 -0.00000000000E+00 -0.99591307562E+03  0.99591307562E+03  0.00000000000E+00 0.  1.
         25    1    1    2    0    0 -0.18819801412E+03 -0.86734618573E+02 -0.39802273920E+01  0.24203765986E+03  0.12500000000E+03 0.  0.
          2    1    1    2  501    0  0.27723259391E+02  0.66818941299E+02  0.36056610693E+03  0.36775163833E+03  0.00000000000E+00 0. -1.
          1    1    1    2  502    0  0.16047475473E+03  0.19915677275E+02 -0.86179139643E+03  0.87683133616E+03  0.00000000000E+00 0.  1.
<mgrwt>
<rscale>  0 0.10887992E+03</rscale>
<asrwt>0</asrwt>
<pdfrwt beam="1">  1        2 0.75493471E-01 0.72341897E+02</pdfrwt>
<pdfrwt beam="2">  1        1 0.15321740E+00 0.16387237E+03</pdfrwt>
<totfact> 0.14743637E+02</totfact>
</mgrwt>
</event>
<event>
 5    1  0.4149151E-003  0.6354266E+02  0.7546771E-02  0.1399447E+00
          1   -1    0    0  502    0  0.00000000000E+00  0.00000000000E+00  0.53170693195E+02  0.53170693195E+02  0.00000000000E+00 0. -1.
         -2   -1    0    0    0  501 -0.00000000000E+00 -0.00000000000E+00 -0.11668538452E+04  0.11668538452E+04  0.00000000000E+00 0.  1.
         25    1    1    2    0    0  0.86938396080E+02  0.48097817081E+02 -0.27296026889E+03  0.31623407962E+03  0.12500000000E+03 0.  0.
          1    1    1    2  502    0 -0.31177860423E+02 -0.52494488517E+02  0.15399228927E+00  0.61055335711E+02  0.00000000000E+00 0. -1.
         -2    1    1    2    0  501 -0.55760535657E+02  0.43966714356E+01 -0.84087687539E+03  0.84273512305E+03  0.00000000000E+00 0.  1.
<mgrwt>
<rscale>  0 0.59616861E+02</rscale>
<asrwt>0</asrwt>
<pdfrwt beam="1">  1        1 0.81801067E-02 0.63542662E+02</pdfrwt>
<pdfrwt beam="2">  1       -2 0.17951598E+00 0.55933604E+02</pdfrwt>
<totfact> 0.14503899E+02</totfact>
</mgrwt>
</event>
<event>
 5    1  0.4149151E-003  0.8373555E+02  0.7546771E-02  0.1377252E+00
          3   -1    0    0  502    0 -0.00000000000E+00  0.00000000000E+00  0.67939455794E+02  0.67939455794E+02  0.00000000000E+00 0. -1.
          2   -1    0    0  501    0  0.00000000000E+00 -0.00000000000E+00 -0.16878479861E+04  0.16878479861E+04  0.00000000000E+00 0. -1.
         25    1    1    2    0    0 -0.28437540922E+02 -0.29847824395E+02 -0.24431197401E+02  0.13387109382E+03  0.12500000000E+03 0.  0.
          2    1    1    2  501    0  0.26227032152E+02  0.80554071226E+02 -0.15541695727E+04  0.15564767510E+04  0.00000000000E+00 0. -1.
          3    1    1    2  502    0  0.22105087700E+01 -0.50706246832E+02 -0.41307760232E+02  0.65439597127E+02  0.00000000000E+00 0. -1.
<mgrwt>
<rscale>  0 0.65191628E+02</rscale>
<asrwt>0</asrwt>
<pdfrwt beam="2">  1        2 0.25966892E+00 0.83735554E+02</pdfrwt>
<pdfrwt beam="1">  1        3 0.10452224E-01 0.50754407E+02</pdfrwt>
<totfact> 0.43418453E+02</totfact>
</mgrwt>
</event>
<event>
 5    1  0.4189587E-003  0.8119101E+02  0.7546771E-02  0.1383307E+00
          1   -1    0    0  502    0  0.00000000000E+00  0.00000000000E+00  0.85686658526E+03  0.85686658526E+03  0.00000000000E+00 0. -1.
         -2   -1    0    0    0  501 -0.00000000000E+00 -0.00000000000E+00 -0.36050885974E+02  0.36050885974E+02  0.00000000000E+00 0.  1.
         25    1    1    2    0    0 -0.77896590732E+02  0.95354613578E+02  0.61944465230E+03  0.64381445964E+03  0.12500000000E+03 0.  0.
          1    1    1    2  502    0  0.19665037659E+02 -0.45779351107E+02  0.14714855977E+03  0.15535495273E+03  0.00000000000E+00 0. -1.
         -2    1    1    2    0  501  0.58231553073E+02 -0.49575262471E+02  0.54222487223E+02  0.93748058876E+02  0.00000000000E+00 0.  1.
<mgrwt>
<rscale>  0 0.63602567E+02</rscale>
<asrwt>0</asrwt>
<pdfrwt beam="1">  1        1 0.13182561E+00 0.49824318E+02</pdfrwt>
<pdfrwt beam="2">  1       -2 0.55462908E-02 0.81191007E+02</pdfrwt>
<totfact> 0.30048501E+03</totfact>
</mgrwt>
</event>
<event>
 5    1  0.4149151E-003  0.2198587E+03  0.7546771E-02  0.1345014E+00
          2   -1    0    0  502    0  0.00000000000E+00  0.00000000000E+00  0.11897242042E+04  0.11897242042E+04  0.00000000000E+00 0. -1.
          2   -1    0    0  501    0 -0.00000000000E+00 -0.00000000000E+00 -0.16860477659E+04  0.16860477659E+04  0.00000000000E+00 0.  1.
         25    1    1    2    0    0  0.20933076606E+03  0.43051557568E+02 -0.11300526992E+04  0.11568564773E+04  0.12500000000E+03 0.  0.
          2    1    1    2  501    0 -0.30646958518E+00  0.25332478887E+02 -0.53200971178E+03  0.53261258138E+03  0.00000000000E+00 0.  1.
          2    1    1    2  502    0 -0.20902429648E+03 -0.68384036456E+02  0.11657388493E+04  0.11863029114E+04  0.00000000000E+00 0. -1.
<mgrwt>
<rscale>  0 0.74632255E+02</rscale>
<asrwt>0</asrwt>
<pdfrwt beam="1">  1        2 0.18303449E+00 0.21985870E+03</pdfrwt>
<pdfrwt beam="2">  1        2 0.25939196E+00 0.25334333E+02</pdfrwt>
<totfact> 0.43710321E+01</totfact>
</mgrwt>
</event>
<event>
 5    1  0.4149151E-003  0.7623775E+02  0.7546771E-02  0.1344745E+00
          3   -1    0    0  502    0 -0.00000000000E+00  0.00000000000E+00  0.16461402808E+03  0.16461402808E+03  0.00000000000E+00 0. -1.
          2   -1    0    0  501    0  0.00000000000E+00 -0.00000000000E+00 -0.32533964448E+03  0.32533964448E+03  0.00000000000E+00 0. -1.
         25    1    1    2    0    0 -0.69640253545E+02 -0.10031707076E+02 -0.19691111774E+03  0.24361729895E+03  0.12500000000E+03 0.  0.
          2    1    1    2  501    0  0.53913582645E+02  0.81552739103E+02 -0.67930432572E+02  0.11904649226E+03  0.00000000000E+00 0. -1.
          3    1    1    2  502    0  0.15726670900E+02 -0.71521032027E+02  0.10411593391E+03  0.12728988135E+03  0.00000000000E+00 0. -1.
<mgrwt>
<rscale>  0 0.74718578E+02</rscale>
<asrwt>0</asrwt>
<pdfrwt beam="2">  1        2 0.50052253E-01 0.76237747E+02</pdfrwt>
<pdfrwt beam="1">  1        3 0.25325235E-01 0.73229681E+02</pdfrwt>
<totfact> 0.83411560E+02</totfact>
</mgrwt>
</event>
<event>
 5    1  0.4149151E-003  0.6509692E+02  0.7546771E-02  0.1389408E+00
          2   -1    0    0  501    0  0.00000000000E+00  0.00000000000E+00  0.31038291502E+02  0.31038291502E+02  0.00000000000E+00 0. -1.
          2   -1    0    0  502    0 -0.00000000000E+00 -0.00000000000E+00 -0.22474853202E+04  0.22474853202E+04  0.00000000000E+00 0.  1.
         25    1    1    2    0    0  0.99379881064E+02 -0.67748301980E+02 -0.80062792863E+03  0.81920465897E+03  0.12500000000E+03 0.  0.
          2    1    1    2  501    0 -0.48999113347E+02  0.33139746338E+02 -0.20415823215E+02  0.62577645639E+02  0.00000000000E+00 0. -1.
          2    1    1    2  502    0 -0.50380767717E+02  0.34608555642E+02 -0.13954032769E+04  0.13967413071E+04  0.00000000000E+00 0.  1.
<mgrwt>
<rscale>  0 0.62054182E+02</rscale>
<asrwt>0</asrwt>
<pdfrwt beam="1">  1        2 0.47751208E-02 0.59153663E+02</pdfrwt>
<pdfrwt beam="2">  1        2 0.34576704E+00 0.65096924E+02</pdfrwt>
<totfact> 0.14678598E+03</totfact>
</mgrwt>
</event>
<event>
 5    1  0.4149151E-003  0.8716549E+02  0.7546771E-02  0.1319893E+00
         -2   -1    0    0    0  501  0.00000000000E+00  0.00000000000E+00  0.17618443196E+04  0.17618443196E+04  0.00000000000E+00 0. -1.
         -2   -1    0    0    0  502 -0.00000000000E+00 -0.00000000000E+00 -0.17152052586E+03  0.17152052586E+03  0.00000000000E+00 0.  1.
         25    1    1    2    0    0 -0.14387043407E+03 -0.85633872039E+01  0.77028591123E+02  0.20574362019E+03  0.12500000000E+03 0.  0.
         -2    1    1    2    0  501  0.78297432304E+02 -0.36630327506E+02  0.16043363645E+04  0.16066634493E+04  0.00000000000E+00 0. -1.
         -2    1    1    2    0  502  0.65573001766E+02  0.45193714710E+02 -0.91041161894E+02  0.12095777598E+03  0.00000000000E+00 0.  1.
<mgrwt>
<rscale>  0 0.83317035E+02</rscale>
<asrwt>0</asrwt>
<pdfrwt beam="1">  1       -2 0.27105296E+00 0.87165485E+02</pdfrwt>
<pdfrwt beam="2">  1       -2 0.26387774E-01 0.79638498E+02</pdfrwt>
<totfact> 0.49560584E+00</totfact>
</mgrwt>
</event>
<event>
 5    1  0.4149151E-003  0.1977722E+03  0.7546771E-02  0.1281987E+00
         -1   -1    0    0    0  501 -0.00000000000E+00  0.00000000000E+00  0.39772243688E+03  0.39772243688E+03  0.00000000000E+00 0.  1.
          1   -1    0    0  502    0  0.00000000000E+00 -0.00000000000E+00 -0.47415990932E+03  0.47415990932E+03  0.00000000000E+00 0. -1.
         25    1    1    2    0    0 -0.13844999490E+03  0.12406317063E+03  0.25629015143E+03  0.34039640585E+03  0.12500000000E+03 0.  0.
          1    1    1    2  502    0  0.11081479686E+03 -0.16544103078E+03 -0.40058140607E+03  0.44734339915E+03  0.00000000000E+00 0. -1.
         -1    1    1    2    0  501  0.27635198047E+02  0.41377860146E+02  0.67853782201E+02  0.84142541204E+02  0.00000000000E+00 0.  1.
<mgrwt>
<rscale>  0 0.99200282E+02</rscale>
<asrwt>0</asrwt>
<pdfrwt beam="2">  1        1 0.72947679E-01 0.19777221E+03</pdfrwt>
<pdfrwt beam="1">  1       -1 0.61188067E-01 0.49757728E+02</pdfrwt>
<totfact> 0.14194242E+02</totfact>
</mgrwt>
</event>
<event>
 5    1  0.4149151E-003  0.7165496E+02  0.7546771E-02  0.1401064E+00
         -1   -1    0    0    0  501 -0.00000000000E+00  0.00000000000E+00  0.17629914838E+03  0.17629914838E+03  0.00000000000E+00 0.  1.
          2   -1    0    0  502    0  0.00000000000E+00 -0.00000000000E+00 -0.32994249835E+03  0.32994249835E+03  0.00000000000E+00 0. -1.
         25    1    1    2    0    0 -0.10280476060E+03 -0.20128758027E+02 -0.14950004249E+03  0.22124477035E+03  0.12500000000E+03 0.  0.
          2    1    1    2  502    0  0.64746264018E+02 -0.10687410337E+02 -0.13236670161E+03  0.14774045871E+03  0.00000000000E+00 0. -1.
         -1    1    1    2    0  501  0.38058496580E+02  0.30816168364E+02  0.12822339412E+03  0.13725641768E+03  0.00000000000E+00 0.  1.
<mgrwt>
<rscale>  0 0.59236488E+02</rscale>
<asrwt>0</asrwt>
<pdfrwt beam="2">  1        2 0.50760384E-01 0.71654964E+02</pdfrwt>
<pdfrwt beam="1">  1       -1 0.27122946E-01 0.48970250E+02</pdfrwt>
<totfact> 0.13109042E+03</totfact>
</mgrwt>
</event>
<event>
 5    1  0.4149151E-003  0.4092450E+02  0.7546771E-02  0.1524741E+00
          2   -1    0    0  502    0  0.00000000000E+00  0.00000000000E+00  0.36566670371E+03  0.36566670371E+03  0.00000000000E+00 0. -1.
          2   -1    0    0  501    0 -0.00000000000E+00 -0.00000000000E+00 -0.42571678762E+03  0.42571678762E+03  0.00000000000E+00 0. -1.
         25    1    1    2    0    0 -0.52059608296E+02  0.58507305307E+01 -0.17165985846E+03  0.21871566215E+03  0.12500000000E+03 0.  0.
          2    1    1    2  501    0  0.18697297826E+02 -0.29571940937E+02 -0.22796517918E+03  0.23063436768E+03  0.00000000000E+00 0. -1.
          2    1    1    2  502    0  0.33362310470E+02  0.23721210406E+02  0.33957495374E+03  0.34203346150E+03  0.00000000000E+00 0. -1.
<mgrwt>
<rscale>  0 0.37839460E+02</rscale>
<asrwt>0</asrwt>
<pdfrwt beam="1">  1        2 0.56256416E-01 0.40924504E+02</pdfrwt>
<pdfrwt beam="2">  1        2 0.65494890E-01 0.34986978E+02</pdfrwt>
<totfact> 0.10311845E+03</totfact>
</mgrwt>
</event>
<event>
 5    1  0.4149151E-003  0.8932909E+02  0.7546771E-02  0.1449596E+00
         -1   -1    0    0    0  501 -0.00000000000E+00  0.00000000000E+00  0.40977656743E+02  0.40977656743E+02  0.00000000000E+00 0.  1.
          1   -1    0    0  502    0  0.00000000000E+00 -0.00000000000E+00 -0.55284816738E+03  0.55284816738E+03  0.00000000000E+00 0. -1.
         25    1    1    2    0    0 -0.62638322935E+02 -0.41418035052E+02 -0.20042877757E+03  0.24786227628E+03  0.12500000000E+03 0.  0.
          1    1    1    2  502    0  0.64533907806E+02  0.68471516089E+02 -0.30343250451E+03  0.31768578590E+03  0.00000000000E+00 0. -1.
         -1    1    1    2    0  501 -0.18955848712E+01 -0.27053481037E+02 -0.80092285678E+01  0.28277761942E+02  0.00000000000E+00 0.  1.
<mgrwt>
<rscale>  0 0.49219791E+02</rscale>
<asrwt>0</asrwt>
<pdfrwt beam="2">  1        1 0.85053559E-01 0.89329085E+02</pdfrwt>
<pdfrwt beam="1">  1       -1 0.63042552E-02 0.27119810E+02</pdfrwt>
<totfact> 0.40802076E+03</totfact>
</mgrwt>
</event>
<event>
 5    1  0.4149151E-003  0.6221803E+02  0.7546771E-02  0.1480570E+00
          1   -1    0    0  502    0  0.00000000000E+00  0.00000000000E+00  0.91143010864E+01  0.91143010864E+01  0.00000000000E+00 0. -1.
         -1   -1    0    0    0  501 -0.00000000000E+00 -0.00000000000E+00 -0.18548874463E+04  0.18548874463E+04  0.00000000000E+00 0.  1.
         25    1    1    2    0    0  0.30440287913E+02 -0.51295386864E+02 -0.75550430506E+03  0.76809477463E+03  0.12500000000E+03 0.  0.
          1    1    1    2  502    0 -0.56743285306E+02  0.34624448525E+02 -0.45019405315E+03  0.45507509090E+03  0.00000000000E+00 0. -1.
         -1    1    1    2    0  501  0.26302997393E+02  0.16670938338E+02 -0.64007478701E+03  0.64083188187E+03  0.00000000000E+00 0.  1.
<mgrwt>
<rscale>  0 0.44017469E+02</rscale>
<asrwt>0</asrwt>
<pdfrwt beam="1">  1        1 0.14022021E-02 0.62218029E+02</pdfrwt>
<pdfrwt beam="2">  1       -1 0.28536690E+00 0.31141096E+02</pdfrwt>
<totfact> 0.50955960E+02</totfact>
</mgrwt>
</event>
<event>
 5    1  0.4149151E-003  0.2161573E+03  0.7546771E-02  0.1324526E+00
          1   -1    0    0  502    0  0.00000000000E+00  0.00000000000E+00  0.10992135516E+04  0.10992135516E+04  0.00000000000E+00 0. -1.
          1   -1    0    0  501    0 -0.00000000000E+00 -0.00000000000E+00 -0.26330492022E+03  0.26330492022E+03  0.00000000000E+00 0. -1.
         25    1    1    2    0    0 -0.19309030112E+03  0.32898018215E+02 -0.50265930278E+01  0.23241430814E+03  0.12500000000E+03 0.  0.
          1    1    1    2  501    0 -0.17270668565E+02  0.25522316592E+02 -0.13067897801E+03  0.13426339758E+03  0.00000000000E+00 0. -1.
          1    1    1    2  502    0  0.21036096969E+03 -0.58420334807E+02  0.97161420240E+03  0.99584076609E+03  0.00000000000E+00 0. -1.
<mgrwt>
<rscale>  0 0.81616417E+02</rscale>
<asrwt>0</asrwt>
<pdfrwt beam="1">  1        1 0.16910977E+00 0.21615731E+03</pdfrwt>
<pdfrwt beam="2">  1        1 0.40508450E-01 0.30816629E+02</pdfrwt>
<totfact> 0.16792423E+02</totfact>
</mgrwt>
</event>
<event>
 5    1  0.4149151E-003  0.3777107E+02  0.7546771E-02  0.1549494E+00
          1   -1    0    0  502    0 -0.00000000000E+00  0.00000000000E+00  0.11787854460E+04  0.11787854460E+04  0.00000000000E+00 0. -1.
          2   -1    0    0  501    0  0.00000000000E+00 -0.00000000000E+00 -0.17398945495E+02  0.17398945495E+02  0.00000000000E+00 0. -1.
         25    1    1    2    0    0 -0.28500003029E+02 -0.41983684451E+02  0.34962877436E+03  0.37475346536E+03  0.12500000000E+03 0.  0.
          2    1    1    2  501    0  0.31939009802E+02  0.44419897874E+01  0.55156570552E+02  0.63891148804E+02  0.00000000000E+00 0. -1.
          1    1    1    2  502    0 -0.34390067736E+01  0.37541694663E+02  0.75660115555E+03  0.75753977730E+03  0.00000000000E+00 0. -1.
<mgrwt>
<rscale>  0 0.34899598E+02</rscale>
<asrwt>0</asrwt>
<pdfrwt beam="2">  1        2 0.26767618E-02 0.32246420E+02</pdfrwt>
<pdfrwt beam="1">  1        1 0.18135154E+00 0.37771074E+02</pdfrwt>
<totfact> 0.53108533E+03</totfact>
</mgrwt>
</event>
<event>
 5    1  0.4149151E-003  0.3327763E+02  0.7546771E-02  0.1592564E+00
          3   -1    0    0  502    0 -0.00000000000E+00  0.00000000000E+00  0.42653307321E+02  0.42653307321E+02  0.00000000000E+00 0.  1.
          2   -1    0    0  501    0  0.00000000000E+00 -0.00000000000E+00 -0.14854495958E+04  0.14854495958E+04  0.00000000000E+00 0. -1.
         25    1    1    2    0    0  0.42957792154E+02 -0.28564694476E+02 -0.17728802141E+03  0.22297389133E+03  0.12500000000E+03 0.  0.
          2    1    1    2  501    0 -0.10628021700E+02  0.25866612702E+02 -0.12717789624E+04  0.12720863829E+04  0.00000000000E+00 0. -1.
          3    1    1    2  502    0 -0.32329770453E+02  0.26980817743E+01  0.62706953053E+01  0.33042628867E+02  0.00000000000E+00 0.  1.
<mgrwt>
<rscale>  0 0.30505838E+02</rscale>
<asrwt>0</asrwt>
<pdfrwt beam="2">  1        2 0.22853071E+00 0.27964915E+02</pdfrwt>
<pdfrwt beam="1">  1        3 0.65620471E-02 0.33277631E+02</pdfrwt>
<totfact> 0.11722756E+03</totfact>
</mgrwt>
</event>
<event>
 5    1  0.4149151E-003  0.6107800E+02  0.7546771E-02  0.1511836E+00
          1   -1    0    0  502    0 -0.00000000000E+00  0.00000000000E+00  0.10522889232E+03  0.10522889232E+03  0.00000000000E+00 0. -1.
          2   -1    0    0  501    0  0.00000000000E+00 -0.00000000000E+00 -0.34436827046E+04  0.34436827046E+04  0.00000000000E+00 0. -1.
         25    1    1    2    0    0 -0.78164947171E+02  0.25783007709E+02 -0.15496208669E+04  0.15568315109E+04  0.12500000000E+03 0.  0.
          2    1    1    2  501    0  0.57494335852E+02 -0.10747795874E+02 -0.18883892818E+04  0.18892948932E+04  0.00000000000E+00 0. -1.
          1    1    1    2  502    0  0.20670611319E+02 -0.15035211835E+02  0.99556336330E+02  0.10278519286E+03  0.00000000000E+00 0. -1.
<mgrwt>
<rscale>  0 0.39511712E+02</rscale>
<asrwt>0</asrwt>
<pdfrwt beam="2">  1        2 0.52979730E+00 0.61078001E+02</pdfrwt>
<pdfrwt beam="1">  1        1 0.16189062E-01 0.25560355E+02</pdfrwt>
<totfact> 0.59281555E+01</totfact>
</mgrwt>
</event>
<event>
 5    1  0.4149151E-003  0.4698509E+02  0.7546771E-02  0.1492805E+00
          3   -1    0    0  502    0 -0.00000000000E+00  0.00000000000E+00  0.16511904373E+02  0.16511904373E+02  0.00000000000E+00 0. -1.
          1   -1    0    0  501    0  0.00000000000E+00 -0.00000000000E+00 -0.10502224091E+04  0.10502224091E+04  0.00000000000E+00 0. -1.
         25    1    1    2    0    0 -0.32350115663E+02  0.22810602634E+02 -0.34706382792E+03  0.37100559865E+03  0.12500000000E+03 0.  0.
          1    1    1    2  501    0  0.45441777255E+01 -0.48495342248E+02 -0.58886213098E+03  0.59087313111E+03  0.00000000000E+00 0. -1.
          3    1    1    2  502    0  0.27805937937E+02  0.25684739614E+02 -0.97784545869E+02  0.10485558375E+03  0.00000000000E+00 0. -1.
<mgrwt>
<rscale>  0 0.42172777E+02</rscale>
<asrwt>0</asrwt>
<pdfrwt beam="2">  1        1 0.16157264E+00 0.46985093E+02</pdfrwt>
<pdfrwt beam="1">  1        3 0.25402935E-02 0.37853349E+02</pdfrwt>
<totfact> 0.43953850E+03</totfact>
</mgrwt>
</event>
<event>
 5    1  0.4149151E-003  0.3093566E+02  0.7546771E-02  0.1611379E+00
          2   -1    0    0  502    0  0.00000000000E+00  0.00000000000E+00  0.70248272279E+03  0.70248272279E+03  0.00000000000E+00 0. -1.
         -1   -1    0    0    0  501 -0.00000000000E+00 -0.00000000000E+00 -0.13769272011E+02  0.13769272011E+02  0.00000000000E+00 0.  1.
         25    1    1    2    0    0  0.17741535242E+02  0.44766645972E+02  0.47188504893E+03  0.49052962608E+03  0.12500000000E+03 0.  0.
          2    1    1    2  502    0  0.50780146342E+01 -0.26385735834E+02  0.15488060474E+03  0.15719413161E+03  0.00000000000E+00 0. -1.
         -1    1    1    2    0  501 -0.22819549876E+02 -0.18380910138E+02  0.61947797112E+02  0.68528237108E+02  0.00000000000E+00 0.  1.
<mgrwt>
<rscale>  0 0.28831217E+02</rscale>
<asrwt>0</asrwt>
<pdfrwt beam="1">  1        2 0.10807424E+00 0.26869933E+02</pdfrwt>
<pdfrwt beam="2">  1       -1 0.21183501E-02 0.30935659E+02</pdfrwt>
<totfact> 0.23907137E+04</totfact>
</mgrwt>
</event>
<event>
 5    1  0.4149151E-003  0.5376918E+02  0.7546771E-02  0.1519966E+00
          2   -1    0    0  501    0  0.00000000000E+00  0.00000000000E+00  0.16121834644E+03  0.16121834644E+03  0.00000000000E+00 0. -1.
          2   -1    0    0  502    0 -0.00000000000E+00 -0.00000000000E+00 -0.13055370565E+03  0.13055370565E+03  0.00000000000E+00 0. -1.
         25    1    1    2    0    0  0.48815154864E+02  0.20204520314E+02  0.43113796761E+01  0.13577455572E+03  0.12500000000E+03 0.  0.
          2    1    1    2  501    0 -0.14948890123E+02  0.23070328457E+02  0.76694955663E+02  0.81472851891E+02  0.00000000000E+00 0. -1.
          2    1    1    2  502    0 -0.33866264741E+02 -0.43274848771E+02 -0.50341694549E+02  0.74524644473E+02  0.00000000000E+00 0. -1.
<mgrwt>
<rscale>  0 0.38446375E+02</rscale>
<asrwt>0</asrwt>
<pdfrwt beam="1">  1        2 0.24802823E-01 0.27490169E+02</pdfrwt>
<pdfrwt beam="2">  1        2 0.20085185E-01 0.53769176E+02</pdfrwt>
<totfact> 0.80623615E+03</totfact>
</mgrwt>
</event>
<event>
 5    1  0.4149151E-003  0.2062043E+03  0.7546771E-02  0.1147508E+00
          1   -1    0    0  501    0  0.00000000000E+00  0.00000000000E+00  0.22951515349E+03  0.22951515349E+03  0.00000000000E+00 0. -1.
          1   -1    0    0  502    0 -0.00000000000E+00 -0.00000000000E+00 -0.16545450099E+04  0.16545450099E+04  0.00000000000E+00 0. -1.
         25    1    1    2    0    0  0.56651531957E+02  0.26990474978E+02 -0.64634929721E+02  0.15407970649E+03  0.12500000000E+03 0.  0.
          1    1    1    2  501    0  0.14013309010E+03 -0.15127105823E+03  0.11516022154E+03  0.23618232919E+03  0.00000000000E+00 0. -1.
          1    1    1    2  502    0 -0.19678462206E+03  0.12428058325E+03 -0.14755551483E+04  0.14937981277E+04  0.00000000000E+00 0. -1.
<mgrwt>
<rscale>  0 0.20266765E+03</rscale>
<asrwt>0</asrwt>
<pdfrwt beam="1">  1        1 0.35310024E-01 0.20620431E+03</pdfrwt>
<pdfrwt beam="2">  1        1 0.25454538E+00 0.19919166E+03</pdfrwt>
<totfact> 0.86056480E+01</totfact>
</mgrwt>
</event>
<event>
 5    1  0.4149151E-003  0.2898992E+02  0.7546771E-02  0.1613027E+00
         -1   -1    0    0    0  501 -0.00000000000E+00  0.00000000000E+00  0.21644257404E+02  0.21644257404E+02  0.00000000000E+00 0.  1.
          2   -1    0    0  502    0  0.00000000000E+00 -0.00000000000E+00 -0.48642501210E+03  0.48642501210E+03  0.00000000000E+00 0. -1.
         25    1    1    2    0    0  0.45982832510E+01 -0.73652416958E+01 -0.27917267963E+03  0.30600290202E+03  0.12500000000E+03 0.  0.
          2    1    1    2  502    0 -0.22166802082E+02 -0.18682840155E+02 -0.15674137758E+03  0.15939973361E+03  0.00000000000E+00 0. -1.
         -1    1    1    2    0  501  0.17568518831E+02  0.26048081851E+02 -0.28866697497E+02  0.42666633877E+02  0.00000000000E+00 0.  1.
<mgrwt>
<rscale>  0 0.28690842E+02</rscale>
<asrwt>0</asrwt>
<pdfrwt beam="2">  1        2 0.74834605E-01 0.28989923E+02</pdfrwt>
<pdfrwt beam="1">  1       -1 0.33298863E-02 0.28394847E+02</pdfrwt>
<totfact> 0.18527046E+04</totfact>
</mgrwt>
</event>
<event>
 5    1  0.4149151E-003  0.1094922E+03  0.7546771E-02  0.1344214E+00
          1   -1    0    0  502    0 -0.00000000000E+00  0.00000000000E+00  0.95785824017E+03  0.95785824017E+03  0.00000000000E+00 0. -1.
          2   -1    0    0  501    0  0.00000000000E+00 -0.00000000000E+00 -0.12829028669E+03  0.12829028669E+03  0.00000000000E+00 0. -1.
         25    1    1    2    0    0 -0.15882950381E+02  0.64290277004E+02  0.22802446247E+03  0.26833871005E+03  0.12500000000E+03 0.  0.
          2    1    1    2  501    0  0.47083072085E+02 -0.10491341859E+03 -0.76318669142E+02  0.13801514532E+03  0.00000000000E+00 0. -1.
          1    1    1    2  502    0 -0.31200121704E+02  0.40623141586E+02  0.67786216015E+03  0.67979467150E+03  0.00000000000E+00 0. -1.
<mgrwt>
<rscale>  0 0.74889274E+02</rscale>
<asrwt>0</asrwt>
<pdfrwt beam="2">  1        2 0.19736968E-01 0.10949221E+03</pdfrwt>
<pdfrwt beam="1">  1        1 0.14736280E+00 0.51221941E+02</pdfrwt>
<totfact> 0.70940935E+02</totfact>
</mgrwt>
</event>
<event>
 5    1  0.4149151E-003  0.8033522E+02  0.7546771E-02  0.1348206E+00
          2   -1    0    0  501    0  0.00000000000E+00  0.00000000000E+00  0.99298508826E+03  0.99298508826E+03  0.00000000000E+00 0. -1.
          2   -1    0    0  502    0 -0.00000000000E+00 -0.00000000000E+00 -0.52366974002E+03  0.52366974002E+03  0.00000000000E+00 0. -1.
         25    1    1    2    0    0 -0.41074200186E+02  0.27670926857E+02  0.41493572300E+03  0.43617590985E+03  0.12500000000E+03 0.  0.
          2    1    1    2  501    0 -0.21887221085E+02 -0.77566891740E+02  0.56138880810E+03  0.56714466144E+03  0.00000000000E+00 0. -1.
          2    1    1    2  502    0  0.62961421270E+02  0.49895964882E+02 -0.50700918286E+03  0.51333425698E+03  0.00000000000E+00 0. -1.
<mgrwt>
<rscale>  0 0.73617480E+02</rscale>
<asrwt>0</asrwt>
<pdfrwt beam="1">  1        2 0.15276694E+00 0.67461485E+02</pdfrwt>
<pdfrwt beam="2">  1        2 0.80564576E-01 0.80335222E+02</pdfrwt>
<totfact> 0.26687288E+02</totfact>
</mgrwt>
</event>
<event>
 5    1  0.4149151E-003  0.6675037E+02  0.7546771E-02  0.1434911E+00
          2   -1    0    0  502    0  0.00000000000E+00  0.00000000000E+00  0.53879645230E+03  0.53879645230E+03  0.00000000000E+00 0. -1.
         -1   -1    0    0    0  501 -0.00000000000E+00 -0.00000000000E+00 -0.23352853161E+03  0.23352853161E+03  0.00000000000E+00 0.  1.
         25    1    1    2    0    0 -0.28788781184E+02  0.77519864404E+01  0.35451608981E+02  0.13330680326E+03  0.12500000000E+03 0.  0.
          2    1    1    2  502    0 -0.34836258131E+02  0.20633550670E+02  0.44689583353E+03  0.44872619081E+03  0.00000000000E+00 0. -1.
         -1    1    1    2    0  501  0.63625039315E+02 -0.28385537110E+02 -0.17707952183E+03  0.19029198984E+03  0.00000000000E+00 0.  1.
<mgrwt>
<rscale>  0 0.51986668E+02</rscale>
<asrwt>0</asrwt>
<pdfrwt beam="1">  1        2 0.82891761E-01 0.40488372E+02</pdfrwt>
<pdfrwt beam="2">  1       -1 0.35927467E-01 0.66750366E+02</pdfrwt>
<totfact> 0.50018723E+02</totfact>
</mgrwt>
</event>
<event>
 5    1  0.4149151E-003  0.7588495E+02  0.7546771E-02  0.1385712E+00
          1   -1    0    0  502    0 -0.00000000000E+00  0.00000000000E+00  0.20691810782E+04  0.20691810782E+04  0.00000000000E+00 0. -1.
          2   -1    0    0  501    0  0.00000000000E+00 -0.00000000000E+00 -0.14760300989E+02  0.14760300989E+02  0.00000000000E+00 0. -1.
         25    1    1    2    0    0  0.65808301007E+02 -0.10477101230E+02  0.51767521261E+03  0.53670581130E+03  0.12500000000E+03 0.  0.
          2    1    1    2  501    0 -0.80750734453E+02 -0.39621529417E+02  0.43255520581E+03  0.44180827605E+03  0.00000000000E+00 0. -1.
          1    1    1    2  502    0  0.14942433446E+02  0.50098630647E+02  0.11041903588E+04  0.11054272918E+04  0.00000000000E+00 0. -1.
<mgrwt>
<rscale>  0 0.62985948E+02</rscale>
<asrwt>0</asrwt>
<pdfrwt beam="2">  1        2 0.22708172E-02 0.75884953E+02</pdfrwt>
<pdfrwt beam="1">  1        1 0.31833532E+00 0.52279529E+02</pdfrwt>
<totfact> 0.20155359E+03</totfact>
</mgrwt>
</event>
<event>
 5    1  0.4149151E-003  0.5941275E+02  0.7546771E-02  0.1549043E+00
          2   -1    0    0  501    0  0.00000000000E+00  0.00000000000E+00  0.18674748906E+04  0.18674748906E+04  0.00000000000E+00 0. -1.
          1   -1    0    0  502    0 -0.00000000000E+00 -0.00000000000E+00 -0.11347052704E+03  0.11347052704E+03  0.00000000000E+00 0. -1.
         25    1    1    2    0    0 -0.61746942621E+01  0.39639125280E+02 -0.22560549772E+02  0.13320422481E+03  0.12500000000E+03 0.  0.
          2    1    1    2  501    0  0.96753026630E+00 -0.59528640803E+02  0.18086523558E+04  0.18096319900E+04  0.00000000000E+00 0. -1.
          1    1    1    2  502    0  0.52071639958E+01  0.19889515524E+02 -0.32087442388E+02  0.38109202873E+02  0.00000000000E+00 0. -1.
<mgrwt>
<rscale>  0 0.34950210E+02</rscale>
<asrwt>0</asrwt>
<pdfrwt beam="1">  1        2 0.28730381E+00 0.59412751E+02</pdfrwt>
<pdfrwt beam="2">  1        1 0.17457006E-01 0.20559849E+02</pdfrwt>
<totfact> 0.37435938E+02</totfact>
</mgrwt>
</event>
<event>
 5    1  0.4149151E-003  0.1849434E+03  0.7546771E-02  0.1315585E+00
          1   -1    0    0  501    0  0.00000000000E+00  0.00000000000E+00  0.68258586725E+02  0.68258586725E+02  0.00000000000E+00 0. -1.
          3   -1    0    0  502    0 -0.00000000000E+00 -0.00000000000E+00 -0.26091476639E+04  0.26091476639E+04  0.00000000000E+00 0. -1.
         25    1    1    2    0    0  0.10678305246E+03  0.11987146803E+03 -0.82592097633E+03  0.85061286628E+03  0.12500000000E+03 0.  0.
          1    1    1    2  501    0  0.36510497232E+02  0.13746554451E+02  0.42931293695E+02  0.58009310854E+02  0.00000000000E+00 0. -1.
          3    1    1    2  502    0 -0.14329354969E+03 -0.13361802249E+03 -0.17578993946E+04  0.17687840735E+04  0.00000000000E+00 0. -1.
<mgrwt>
<rscale>  0 0.84941892E+02</rscale>
<asrwt>0</asrwt>
<pdfrwt beam="1">  1        1 0.10501322E-01 0.39012615E+02</pdfrwt>
<pdfrwt beam="2">  1        3 0.40140728E+00 0.18494338E+03</pdfrwt>
<totfact> 0.39005340E+00</totfact>
</mgrwt>
</event>
<event>
 5    1  0.4149151E-003  0.5999948E+02  0.7546771E-02  0.1431280E+00
          1   -1    0    0  502    0 -0.00000000000E+00  0.00000000000E+00  0.10223348631E+04  0.10223348631E+04  0.00000000000E+00 0. -1.
          2   -1    0    0  501    0  0.00000000000E+00 -0.00000000000E+00 -0.46533526998E+02  0.46533526998E+02  0.00000000000E+00 0. -1.
         25    1    1    2    0    0  0.25614164021E+02 -0.31887672908E+02  0.18364943023E+03  0.22588718934E+03  0.12500000000E+03 0.  0.
          2    1    1    2  501    0 -0.36025181087E+02 -0.29076901262E+02 -0.20825255518E+01  0.46342386343E+02  0.00000000000E+00 0. -1.
          1    1    1    2  502    0  0.10411017066E+02  0.60964574170E+02  0.79423443142E+03  0.79663881441E+03  0.00000000000E+00 0. -1.
<mgrwt>
<rscale>  0 0.52703986E+02</rscale>
<asrwt>0</asrwt>
<pdfrwt beam="2">  1        2 0.71590049E-02 0.46295571E+02</pdfrwt>
<pdfrwt beam="1">  1        1 0.15728227E+00 0.59999480E+02</pdfrwt>
<totfact> 0.19780562E+03</totfact>
</mgrwt>
</event>
<event>
 5    1  0.4149151E-003  0.1074045E+03  0.7546771E-02  0.1303816E+00
          2   -1    0    0  502    0  0.00000000000E+00  0.00000000000E+00  0.41684669938E+04  0.41684669938E+04  0.00000000000E+00 0. -1.
         -3   -1    0    0    0  501 -0.00000000000E+00 -0.00000000000E+00 -0.14326412872E+02  0.14326412872E+02  0.00000000000E+00 0.  1.
         25    1    1    2    0    0 -0.55316630785E+02  0.11513952109E+03  0.79572829883E+03  0.81555230643E+03  0.12500000000E+03 0.  0.
          2    1    1    2  502    0  0.94441883423E+02 -0.51444292418E+02  0.29553218522E+04  0.29572779773E+04  0.00000000000E+00 0. -1.
         -3    1    1    2    0  501 -0.39125252638E+02 -0.63695228671E+02  0.40309042984E+03  0.40996312295E+03  0.00000000000E+00 0.  1.
<mgrwt>
<rscale>  0 0.89603030E+02</rscale>
<asrwt>0</asrwt>
<pdfrwt beam="1">  1        2 0.64130165E+00 0.10740447E+03</pdfrwt>
<pdfrwt beam="2">  1       -3 0.22040668E-02 0.74752040E+02</pdfrwt>
<totfact> 0.17365385E+02</totfact>
</mgrwt>
</event>
<event>
 5    1  0.4149151E-003  0.7540348E+02  0.7546771E-02  0.1404965E+00
          1   -1    0    0  502    0  0.00000000000E+00  0.00000000000E+00  0.11446608835E+04  0.11446608835E+04  0.00000000000E+00 0. -1.
         -1   -1    0    0    0  501 -0.00000000000E+00 -0.00000000000E+00 -0.17271245023E+04  0.17271245023E+04  0.00000000000E+00 0.  1.
         25    1    1    2    0    0 -0.10966914877E+03 -0.49267886369E+02 -0.15083539567E+03  0.22984987145E+03  0.12500000000E+03 0.  0.
          1    1    1    2  502    0  0.68638998345E+02  0.30481753031E+02  0.11035457697E+04  0.11060984202E+04  0.00000000000E+00 0. -1.
         -1    1    1    2    0  501  0.41030150424E+02  0.18786133337E+02 -0.15351739927E+04  0.15358370942E+04  0.00000000000E+00 0.  1.
<mgrwt>
<rscale>  0 0.58332561E+02</rscale>
<asrwt>0</asrwt>
<pdfrwt beam="1">  1        1 0.17610168E+00 0.75403481E+02</pdfrwt>
<pdfrwt beam="2">  1       -1 0.26571146E+00 0.45126401E+02</pdfrwt>
<totfact> 0.10833805E+00</totfact>
</mgrwt>
</event>
<event>
 5    1  0.4149151E-003  0.2022055E+03  0.7546771E-02  0.1169881E+00
          1   -1    0    0  502    0  0.00000000000E+00  0.00000000000E+00  0.35727971368E+04  0.35727971368E+04  0.00000000000E+00 0. -1.
         -1   -1    0    0    0  501 -0.00000000000E+00 -0.00000000000E+00 -0.29476667957E+03  0.29476667957E+03  0.00000000000E+00 0.  1.
         25    1    1    2    0    0 -0.12517807434E+03  0.23230045447E+03  0.91758094420E+03  0.96291891694E+03  0.12500000000E+03 0.  0.
          1    1    1    2  502    0 -0.56980446136E+02 -0.14571827082E+03  0.25924871985E+04  0.25972043547E+04  0.00000000000E+00 0. -1.
         -1    1    1    2    0  501  0.18215852047E+03 -0.86582183659E+02 -0.23203768543E+03  0.30744054477E+03  0.00000000000E+00 0.  1.
<mgrwt>
<rscale>  0 0.17786969E+03</rscale>
<asrwt>0</asrwt>
<pdfrwt beam="1">  1        1 0.54966107E+00 0.15646273E+03</pdfrwt>
<pdfrwt beam="2">  1       -1 0.45348722E-01 0.20220552E+03</pdfrwt>
<totfact> 0.15257639E+00</totfact>
</mgrwt>
</event>
<event>
 5    1  0.4149151E-003  0.1012044E+03  0.7546771E-02  0.1330072E+00
          2   -1    0    0  501    0  0.00000000000E+00  0.00000000000E+00  0.13250343734E+04  0.13250343734E+04  0.00000000000E+00 0. -1.
          1   -1    0    0  502    0 -0.00000000000E+00 -0.00000000000E+00 -0.19357900396E+04  0.19357900396E+04  0.00000000000E+00 0. -1.
         25    1    1    2    0    0 -0.16982531889E+01  0.41807582049E+02  0.18254437679E+03  0.22516262452E+03  0.12500000000E+03 0.  0.
          2    1    1    2  501    0  0.26808454905E+02  0.56649596405E+02  0.11189551764E+04  0.11207089528E+04  0.00000000000E+00 0. -1.
          1    1    1    2  502    0 -0.25110201716E+02 -0.98457178454E+02 -0.19122552195E+04  0.19149528356E+04  0.00000000000E+00 0. -1.
<mgrwt>
<rscale>  0 0.79641425E+02</rscale>
<asrwt>0</asrwt>
<pdfrwt beam="1">  1        2 0.20385144E+00 0.62672722E+02</pdfrwt>
<pdfrwt beam="2">  1        1 0.29781385E+00 0.10120442E+03</pdfrwt>
<totfact> 0.10779138E+01</totfact>
</mgrwt>
</event>
<event>
 5    1  0.4149151E-003  0.1300327E+03  0.7546771E-02  0.1272106E+00
         -2   -1    0    0    0  501 -0.00000000000E+00  0.00000000000E+00  0.30280587521E+03  0.30280587521E+03  0.00000000000E+00 0.  1.
          2   -1    0    0  502    0  0.00000000000E+00 -0.00000000000E+00 -0.31730204367E+04  0.31730204367E+04  0.00000000000E+00 0. -1.
         25    1    1    2    0    0 -0.20338357891E+02 -0.17883014057E+03 -0.19044992907E+03  0.29032747624E+03  0.12500000000E+03 0.  0.
          2    1    1    2  502    0  0.67265176942E+02  0.11015551770E+03 -0.29243296586E+04  0.29271765909E+04  0.00000000000E+00 0. -1.
         -2    1    1    2    0  501 -0.46926819052E+02  0.68674622873E+02  0.24456502612E+03  0.25832224483E+03  0.00000000000E+00 0.  1.
<mgrwt>
<rscale>  0 0.10399839E+03</rscale>
<asrwt>0</asrwt>
<pdfrwt beam="2">  1        2 0.48815697E+00 0.13003270E+03</pdfrwt>
<pdfrwt beam="1">  1       -2 0.46585521E-01 0.83176500E+02</pdfrwt>
<totfact> 0.82524367E+00</totfact>
</mgrwt>
</event>
<event>
 5    1  0.4149151E-003  0.8639615E+02  0.7546771E-02  0.1318263E+00
          2   -1    0    0  501    0  0.00000000000E+00  0.00000000000E+00  0.24730429355E+04  0.24730429355E+04  0.00000000000E+00 0. -1.
          3   -1    0    0  502    0 -0.00000000000E+00 -0.00000000000E+00 -0.92584843005E+02  0.92584843005E+02  0.00000000000E+00 0. -1.
         25    1    1    2    0    0  0.29046035577E+02  0.92736367567E+02  0.49832115441E+03  0.52286965774E+03  0.12500000000E+03 0.  0.
          2    1    1    2  501    0 -0.82622980241E+02 -0.31284631946E+02  0.19404893111E+04  0.19424994342E+04  0.00000000000E+00 0. -1.
          3    1    1    2  502    0  0.53576944664E+02 -0.61451735620E+02 -0.58352373019E+02  0.10025868664E+03  0.00000000000E+00 0. -1.
<mgrwt>
<rscale>  0 0.83926754E+02</rscale>
<asrwt>0</asrwt>
<pdfrwt beam="1">  1        2 0.38046809E+00 0.86396151E+02</pdfrwt>
<pdfrwt beam="2">  1        3 0.14243824E-01 0.81527939E+02</pdfrwt>
<totfact> 0.11065203E+02</totfact>
</mgrwt>
</event>
<event>
 5    1  0.4149151E-003  0.1033703E+03  0.7546771E-02  0.1312898E+00
         -3   -1    0    0    0  501 -0.00000000000E+00  0.00000000000E+00  0.14104332078E+02  0.14104332078E+02  0.00000000000E+00 0.  1.
          2   -1    0    0  502    0  0.00000000000E+00 -0.00000000000E+00 -0.37947324815E+04  0.37947324815E+04  0.00000000000E+00 0. -1.
         25    1    1    2    0    0 -0.30645464360E+02 -0.51729020706E+02 -0.15260636918E+04  0.15323545372E+04  0.12500000000E+03 0.  0.
          2    1    1    2  502    0  0.74247951104E+02  0.10840805405E+03 -0.21202510107E+04  0.21243185761E+04  0.00000000000E+00 0. -1.
         -3    1    1    2    0  501 -0.43602486744E+02 -0.56679033339E+02 -0.13431344684E+03  0.15216370025E+03  0.00000000000E+00 0.  1.
<mgrwt>
<rscale>  0 0.85976825E+02</rscale>
<asrwt>0</asrwt>
<pdfrwt beam="2">  1        2 0.58380419E+00 0.10337026E+03</pdfrwt>
<pdfrwt beam="1">  1       -3 0.21699002E-02 0.71510067E+02</pdfrwt>
<totfact> 0.33609477E+02</totfact>
</mgrwt>
</event>
<event>
 5    1  0.4149151E-003  0.9060804E+02  0.7546771E-02  0.1363760E+00
          2   -1    0    0  501    0  0.00000000000E+00  0.00000000000E+00  0.44401932954E+03  0.44401932954E+03  0.00000000000E+00 0. -1.
          2   -1    0    0  502    0 -0.00000000000E+00 -0.00000000000E+00 -0.50481617093E+03  0.50481617093E+03  0.00000000000E+00 0.  1.
         25    1    1    2    0    0  0.87230632416E+02 -0.90649674657E+02  0.28817616220E+03  0.33837412313E+03  0.12500000000E+03 0.  0.
          2    1    1    2  501    0 -0.60034933071E+02  0.45809436628E+02  0.11824915217E+03  0.14030523747E+03  0.00000000000E+00 0. -1.
          2    1    1    2  502    0 -0.27195699345E+02  0.44840238030E+02 -0.46722215576E+03  0.47015613986E+03  0.00000000000E+00 0.  1.
<mgrwt>
<rscale>  0 0.68932897E+02</rscale>
<asrwt>0</asrwt>
<pdfrwt beam="1">  1        2 0.68310666E-01 0.90608041E+02</pdfrwt>
<pdfrwt beam="2">  1        2 0.77664026E-01 0.52442855E+02</pdfrwt>
<totfact> 0.70345327E+02</totfact>
</mgrwt>
</event>
<event>
 5    1  0.4149151E-003  0.1045484E+03  0.7546771E-02  0.1407281E+00
         -1   -1    0    0    0  501 -0.00000000000E+00  0.00000000000E+00  0.15061000957E+03  0.15061000957E+03  0.00000000000E+00 0.  1.
          2   -1    0    0  502    0  0.00000000000E+00 -0.00000000000E+00 -0.33220702938E+04  0.33220702938E+04  0.00000000000E+00 0. -1.
         25    1    1    2    0    0 -0.78584575468E+02  0.70139611846E+02 -0.13259666895E+04  0.13360044020E+04  0.12500000000E+03 0.  0.
          2    1    1    2  502    0 -0.16797063937E+02 -0.27190716181E+02 -0.19721491729E+04  0.19724081314E+04  0.00000000000E+00 0. -1.
         -1    1    1    2    0  501  0.95381639405E+02 -0.42948895665E+02  0.12665557816E+03  0.16426776998E+03  0.00000000000E+00 0.  1.
<mgrwt>
<rscale>  0 0.57805040E+02</rscale>
<asrwt>0</asrwt>
<pdfrwt beam="2">  1        2 0.51108769E+00 0.31960544E+02</pdfrwt>
<pdfrwt beam="1">  1       -1 0.23170773E-01 0.10454837E+03</pdfrwt>
<totfact> 0.34626820E+01</totfact>
</mgrwt>
</event>
<event>
 5    1  0.4149151E-003  0.4950423E+02  0.7546771E-02  0.1574809E+00
          2   -1    0    0  501    0  0.00000000000E+00  0.00000000000E+00  0.23960535001E+04  0.23960535001E+04  0.00000000000E+00 0. -1.
          1   -1    0    0  502    0 -0.00000000000E+00 -0.00000000000E+00 -0.48129959700E+01  0.48129959700E+01  0.00000000000E+00 0. -1.
         25    1    1    2    0    0 -0.32354080249E+02 -0.28473633662E+02  0.11932642596E+04  0.12005674190E+04  0.12500000000E+03 0.  0.
          2    1    1    2  501    0  0.21629382617E+02  0.46488490702E+02  0.97231693230E+03  0.97366792430E+03  0.00000000000E+00 0. -1.
          1    1    1    2  502    0  0.10724697632E+02 -0.18014857040E+02  0.22565931224E+03  0.22663115279E+03  0.00000000000E+00 0. -1.
<mgrwt>
<rscale>  0 0.32216198E+02</rscale>
<asrwt>0</asrwt>
<pdfrwt beam="1">  1        2 0.36862266E+00 0.49504233E+02</pdfrwt>
<pdfrwt beam="2">  1        1 0.74046283E-03 0.20965548E+02</pdfrwt>
<totfact> 0.11945298E+04</totfact>
</mgrwt>
</event>
<event>
 5    1  0.4149151E-003  0.3183387E+02  0.7546771E-02  0.1614345E+00
         -1   -1    0    0    0  501 -0.00000000000E+00  0.00000000000E+00  0.10662379886E+03  0.10662379886E+03  0.00000000000E+00 0.  1.
          2   -1    0    0  502    0  0.00000000000E+00 -0.00000000000E+00 -0.14131584460E+03  0.14131584460E+03  0.00000000000E+00 0. -1.
         25    1    1    2    0    0  0.49955196937E+02 -0.21841413101E+02 -0.49254856565E+02  0.14499520655E+03  0.12500000000E+03 0.  0.
          2    1    1    2  502    0 -0.19511251329E+02  0.16661949743E+02 -0.35693512607E+02  0.43958347783E+02  0.00000000000E+00 0. -1.
         -1    1    1    2    0  501 -0.30443945608E+02  0.51794633581E+01  0.50256323436E+02  0.58986089124E+02  0.00000000000E+00 0.  1.
<mgrwt>
<rscale>  0 0.28579342E+02</rscale>
<asrwt>0</asrwt>
<pdfrwt beam="2">  1        2 0.21740899E-01 0.25657543E+02</pdfrwt>
<pdfrwt beam="1">  1       -1 0.16403661E-01 0.31833866E+02</pdfrwt>
<totfact> 0.65700532E+03</totfact>
</mgrwt>
</event>
<event>
 5    1  0.4149151E-003  0.1014369E+03  0.7546771E-02  0.1336096E+00
         -2   -1    0    0    0  501 -0.00000000000E+00  0.00000000000E+00  0.37960907338E+02  0.37960907338E+02  0.00000000000E+00 0.  1.
          2   -1    0    0  502    0  0.00000000000E+00 -0.00000000000E+00 -0.26452879753E+04  0.26452879753E+04  0.00000000000E+00 0. -1.
         25    1    1    2    0    0  0.25719548320E+02  0.61082218096E+02 -0.15114422442E+04  0.15180497982E+04  0.12500000000E+03 0.  0.
          2    1    1    2  502    0 -0.42525961082E+02  0.41352369502E+02 -0.10500533502E+04  0.10517273954E+04  0.00000000000E+00 0. -1.
         -2    1    1    2    0  501  0.16806412763E+02 -0.10243458760E+03 -0.45831473617E+02  0.11347168907E+03  0.00000000000E+00 0.  1.
<mgrwt>
<rscale>  0 0.77568718E+02</rscale>
<asrwt>0</asrwt>
<pdfrwt beam="2">  1        2 0.40696741E+00 0.59316742E+02</pdfrwt>
<pdfrwt beam="1">  1       -2 0.58401392E-02 0.10143689E+03</pdfrwt>
<totfact> 0.58872515E+02</totfact>
</mgrwt>
</event>
<event>
 5    1  0.4149151E-003  0.5222357E+02  0.7546771E-02  0.1462442E+00
         -1   -1    0    0    0  501 -0.00000000000E+00  0.00000000000E+00  0.81945445060E+01  0.81945445060E+01  0.00000000000E+00 0.  1.
          2   -1    0    0  502    0  0.00000000000E+00 -0.00000000000E+00 -0.20700919314E+04  0.20700919314E+04  0.00000000000E+00 0. -1.
         25    1    1    2    0    0  0.20069224447E+02 -0.58195117442E+02 -0.78357958643E+03  0.79587148067E+03  0.12500000000E+03 0.  0.
          2    1    1    2  502    0 -0.41040070837E+02  0.99693087452E+01 -0.82060665677E+03  0.82169274043E+03  0.00000000000E+00 0. -1.
         -1    1    1    2    0  501  0.20970846390E+02  0.48225808697E+02 -0.45771114373E+03  0.46072225485E+03  0.00000000000E+00 0.  1.
<mgrwt>
<rscale>  0 0.46963685E+02</rscale>
<asrwt>0</asrwt>
<pdfrwt beam="2">  1        2 0.31847571E+00 0.42233571E+02</pdfrwt>
<pdfrwt beam="1">  1       -1 0.12606990E-02 0.52223567E+02</pdfrwt>
<totfact> 0.10136134E+04</totfact>
</mgrwt>
</event>
<event>
 5    1  0.4149151E-003  0.4677675E+02  0.7546771E-02  0.1528332E+00
         -1   -1    0    0    0  501 -0.00000000000E+00  0.00000000000E+00  0.85879860979E+01  0.85879860979E+01  0.00000000000E+00 0.  1.
          2   -1    0    0  502    0  0.00000000000E+00 -0.00000000000E+00 -0.19187298712E+04  0.19187298712E+04  0.00000000000E+00 0. -1.
         25    1    1    2    0    0  0.17280170371E+01 -0.64157679332E+02 -0.13940808087E+04  0.14011443519E+04  0.12500000000E+03 0.  0.
          2    1    1    2  502    0  0.18800609915E+02  0.23236387969E+02 -0.40423742521E+03  0.40534095352E+03  0.00000000000E+00 0. -1.
         -1    1    1    2    0  501 -0.20528626953E+02  0.40921291363E+02 -0.11182365117E+03  0.12083255179E+03  0.00000000000E+00 0.  1.
<mgrwt>
<rscale>  0 0.37391736E+02</rscale>
<asrwt>0</asrwt>
<pdfrwt beam="2">  1        2 0.29518924E+00 0.29889675E+02</pdfrwt>
<pdfrwt beam="1">  1       -1 0.13212285E-02 0.46776754E+02</pdfrwt>
<totfact> 0.11482341E+04</totfact>
</mgrwt>
</event>
<event>
 5    1  0.4149151E-003  0.6373366E+02  0.7546771E-02  0.1526381E+00
          2   -1    0    0  502    0  0.00000000000E+00  0.00000000000E+00  0.75325876253E+03  0.75325876253E+03  0.00000000000E+00 0. -1.
          2   -1    0    0  501    0 -0.00000000000E+00 -0.00000000000E+00 -0.23334976579E+03  0.23334976579E+03  0.00000000000E+00 0. -1.
         25    1    1    2    0    0 -0.36216766969E+02 -0.53810291544E+02 -0.15540755889E+03  0.20972293877E+03  0.12500000000E+03 0.  0.
          2    1    1    2  501    0  0.20720097953E+02 -0.80321260399E+01 -0.46880030634E+02  0.51880389167E+02  0.00000000000E+00 0. -1.
          2    1    1    2  502    0  0.15496669016E+02  0.61842417584E+02  0.72219658627E+03  0.72500520038E+03  0.00000000000E+00 0. -1.
<mgrwt>
<rscale>  0 0.37634004E+02</rscale>
<asrwt>0</asrwt>
<pdfrwt beam="1">  1        2 0.11588596E+00 0.63733655E+02</pdfrwt>
<pdfrwt beam="2">  1        2 0.35899964E-01 0.22222455E+02</pdfrwt>
<totfact> 0.85403305E+02</totfact>
</mgrwt>
</event>
<event>
 5    1  0.4149151E-003  0.9017671E+02  0.7546771E-02  0.1419501E+00
          2   -1    0    0  502    0  0.00000000000E+00  0.00000000000E+00  0.36397454918E+04  0.36397454918E+04  0.00000000000E+00 0. -1.
         -1   -1    0    0    0  501 -0.00000000000E+00 -0.00000000000E+00 -0.39095777723E+03  0.39095777723E+03  0.00000000000E+00 0.  1.
         25    1    1    2    0    0  0.24315789673E+02 -0.54420991415E+02 -0.29171651139E+03  0.32291860422E+03  0.12500000000E+03 0.  0.
          2    1    1    2  502    0 -0.20416547729E+02  0.87894561549E+02  0.36201647230E+04  0.36212891228E+04  0.00000000000E+00 0. -1.
         -1    1    1    2    0  501 -0.38992419443E+01 -0.33473570134E+02 -0.79660497078E+02  0.86495541966E+02  0.00000000000E+00 0.  1.
<mgrwt>
<rscale>  0 0.55126646E+02</rscale>
<asrwt>0</asrwt>
<pdfrwt beam="1">  1        2 0.55996082E+00 0.90176710E+02</pdfrwt>
<pdfrwt beam="2">  1       -1 0.60147353E-01 0.33699911E+02</pdfrwt>
<totfact> 0.34531231E+00</totfact>
</mgrwt>
</event>
<event>
 5    1  0.4149151E-003  0.5895675E+02  0.7546771E-02  0.1462708E+00
         -1   -1    0    0    0  501 -0.00000000000E+00  0.00000000000E+00  0.87622332926E+01  0.87622332926E+01  0.00000000000E+00 0.  1.
          2   -1    0    0  502    0  0.00000000000E+00 -0.00000000000E+00 -0.16192624555E+04  0.16192624555E+04  0.00000000000E+00 0. -1.
         25    1    1    2    0    0 -0.23112985095E+02 -0.54844335005E+02 -0.90104506561E+03  0.91161906596E+03  0.12500000000E+03 0.  0.
          2    1    1    2  502    0  0.52877893796E+02  0.32300835926E+02 -0.46680967900E+03  0.47090412194E+03  0.00000000000E+00 0. -1.
         -1    1    1    2    0  501 -0.29764908701E+02  0.22543499079E+02 -0.24264547755E+03  0.24550150084E+03  0.00000000000E+00 0.  1.
<mgrwt>
<rscale>  0 0.46918581E+02</rscale>
<asrwt>0</asrwt>
<pdfrwt beam="2">  1        2 0.24911700E+00 0.58956754E+02</pdfrwt>
<pdfrwt beam="1">  1       -1 0.13480375E-02 0.37338441E+02</pdfrwt>
<totfact> 0.13900957E+04</totfact>
</mgrwt>
</event>
<event>
 5    1  0.4149151E-003  0.2578598E+03  0.7546771E-02  0.1250782E+00
         -1   -1    0    0    0  501 -0.00000000000E+00  0.00000000000E+00  0.32684644206E+03  0.32684644206E+03  0.00000000000E+00 0.  1.
          2   -1    0    0  502    0  0.00000000000E+00 -0.00000000000E+00 -0.61952131334E+03  0.61952131334E+03  0.00000000000E+00 0. -1.
         25    1    1    2    0    0 -0.68525138151E+02  0.20045200618E+03 -0.46566044391E+03  0.52663208254E+03  0.12500000000E+03 0.  0.
          2    1    1    2  502    0 -0.18926268619E+02  0.48108662099E+02 -0.51948212464E+02  0.73288906329E+02  0.00000000000E+00 0. -1.
         -1    1    1    2    0  501  0.87451406770E+02 -0.24856066828E+03  0.22493378510E+03  0.34644676653E+03  0.00000000000E+00 0.  1.
<mgrwt>
<rscale>  0 0.11545885E+03</rscale>
<asrwt>0</asrwt>
<pdfrwt beam="2">  1        2 0.95310970E-01 0.51697650E+02</pdfrwt>
<pdfrwt beam="1">  1       -1 0.50284069E-01 0.25785980E+03</pdfrwt>
<totfact> 0.23640667E+02</totfact>
</mgrwt>
</event>
<event>
 5    1  0.4149151E-003  0.4066730E+02  0.7546771E-02  0.1572588E+00
          1   -1    0    0  501    0  0.00000000000E+00  0.00000000000E+00  0.15954016269E+04  0.15954016269E+04  0.00000000000E+00 0.  1.
          3   -1    0    0  502    0 -0.00000000000E+00 -0.00000000000E+00 -0.93779416230E+02  0.93779416230E+02  0.00000000000E+00 0. -1.
         25    1    1    2    0    0 -0.13500883696E+02 -0.19824685703E+02  0.11494488912E+03  0.17150107743E+03  0.12500000000E+03 0.  0.
          1    1    1    2  501    0 -0.25394018298E+02  0.49741655201E+01  0.14454354120E+04  0.14456670186E+04  0.00000000000E+00 0.  1.
          3    1    1    2  502    0  0.38894901994E+02  0.14850520183E+02 -0.58758090458E+02  0.72012947065E+02  0.00000000000E+00 0. -1.
<mgrwt>
<rscale>  0 0.32439660E+02</rscale>
<asrwt>0</asrwt>
<pdfrwt beam="1">  1        1 0.24544638E+00 0.25876601E+02</pdfrwt>
<pdfrwt beam="2">  1        3 0.14427604E-01 0.40667301E+02</pdfrwt>
<totfact> 0.14341653E+02</totfact>
</mgrwt>
</event>
<event>
 5    1  0.4149151E-003  0.7294237E+02  0.7546771E-02  0.1418653E+00
         -2   -1    0    0    0  501 -0.00000000000E+00  0.00000000000E+00  0.53363988634E+02  0.53363988634E+02  0.00000000000E+00 0.  1.
          1   -1    0    0  502    0  0.00000000000E+00 -0.00000000000E+00 -0.91722475961E+03  0.91722475961E+03  0.00000000000E+00 0. -1.
         25    1    1    2    0    0 -0.12243101787E+01  0.80832632940E+02 -0.16420734599E+03  0.22164039785E+03  0.12500000000E+03 0.  0.
          1    1    1    2  502    0  0.38718115352E+02 -0.62050123553E+02 -0.70307938978E+03  0.70687335402E+03  0.00000000000E+00 0. -1.
         -2    1    1    2    0  501 -0.37493805173E+02 -0.18782509387E+02  0.34259647899E+01  0.42074996375E+02  0.00000000000E+00 0.  1.
<mgrwt>
<rscale>  0 0.55306954E+02</rscale>
<asrwt>0</asrwt>
<pdfrwt beam="2">  1        1 0.14111149E+00 0.72942372E+02</pdfrwt>
<pdfrwt beam="1">  1       -2 0.82098454E-02 0.41935284E+02</pdfrwt>
<totfact> 0.13849089E+03</totfact>
</mgrwt>
</event>
<event>
 5    1  0.4149151E-003  0.5288705E+02  0.7546771E-02  0.1460903E+00
         -1   -1    0    0    0  501 -0.00000000000E+00  0.00000000000E+00  0.21640101354E+02  0.21640101354E+02  0.00000000000E+00 0.  1.
          2   -1    0    0  502    0  0.00000000000E+00 -0.00000000000E+00 -0.86237510400E+03  0.86237510400E+03  0.00000000000E+00 0. -1.
         25    1    1    2    0    0 -0.19212094320E+02  0.86243046750E+02 -0.44133724665E+03  0.46713010283E+03  0.12500000000E+03 0.  0.
          2    1    1    2  502    0  0.27196258432E+01 -0.42083633255E+02 -0.33183048716E+03  0.33449947797E+03  0.00000000000E+00 0. -1.
         -1    1    1    2    0  501  0.16492468477E+02 -0.44159413495E+02 -0.67567268829E+02  0.82385624558E+02  0.00000000000E+00 0.  1.
<mgrwt>
<rscale>  0 0.47226284E+02</rscale>
<asrwt>0</asrwt>
<pdfrwt beam="2">  1        2 0.13267306E+00 0.42171419E+02</pdfrwt>
<pdfrwt beam="1">  1       -1 0.33292472E-02 0.52887050E+02</pdfrwt>
<totfact> 0.10701758E+04</totfact>
</mgrwt>
</event>
<event>
 5    1  0.4149151E-003  0.1501838E+03  0.7546771E-02  0.1318258E+00
          1   -1    0    0  502    0  0.00000000000E+00  0.00000000000E+00  0.46554330981E+03  0.46554330981E+03  0.00000000000E+00 0. -1.
         -1   -1    0    0    0  501 -0.00000000000E+00 -0.00000000000E+00 -0.52897605944E+03  0.52897605944E+03  0.00000000000E+00 0.  1.
         25    1    1    2    0    0 -0.27448165587E+02 -0.10802438033E+03 -0.12249549328E+03  0.20749172132E+03  0.12500000000E+03 0.  0.
          1    1    1    2  502    0  0.60750411553E+02  0.14105205035E+03  0.40748346039E+03  0.43546419360E+03  0.00000000000E+00 0. -1.
         -1    1    1    2    0  501 -0.33302245967E+02 -0.33027670016E+02 -0.34842071674E+03  0.35156345434E+03  0.00000000000E+00 0.  1.
<mgrwt>
<rscale>  0 0.83928723E+02</rscale>
<asrwt>0</asrwt>
<pdfrwt beam="1">  1        1 0.71622048E-01 0.15018379E+03</pdfrwt>
<pdfrwt beam="2">  1       -1 0.81380932E-01 0.46902735E+02</pdfrwt>
<totfact> 0.84573330E+01</totfact>
</mgrwt>
</event>
<event>
 5    1  0.4149151E-003  0.5435829E+02  0.7546771E-02  0.1505303E+00
          2   -1    0    0  501    0  0.00000000000E+00  0.00000000000E+00  0.94851456729E+02  0.94851456729E+02  0.00000000000E+00 0. -1.
          2   -1    0    0  502    0 -0.00000000000E+00 -0.00000000000E+00 -0.11078424242E+04  0.11078424242E+04  0.00000000000E+00 0. -1.
         25    1    1    2    0    0 -0.19775245392E+02 -0.58328668035E+02 -0.45688054207E+03  0.47765900344E+03  0.12500000000E+03 0.  0.
          2    1    1    2  501    0  0.40336242023E+02  0.36451088835E+02  0.75319876053E+02  0.92891216089E+02  0.00000000000E+00 0. -1.
          2    1    1    2  502    0 -0.20560996631E+02  0.21877579201E+02 -0.63143030144E+03  0.63214366139E+03  0.00000000000E+00 0. -1.
<mgrwt>
<rscale>  0 0.40398037E+02</rscale>
<asrwt>0</asrwt>
<pdfrwt beam="1">  1        2 0.14592531E-01 0.54358294E+02</pdfrwt>
<pdfrwt beam="2">  1        2 0.17043730E+00 0.30023042E+02</pdfrwt>
<totfact> 0.14842934E+03</totfact>
</mgrwt>
</event>
<event>
 5    1  0.4149151E-003  0.7070961E+02  0.7546771E-02  0.1478405E+00
         -3   -1    0    0    0  501 -0.00000000000E+00  0.00000000000E+00  0.32200400399E+02  0.32200400399E+02  0.00000000000E+00 0.  1.
          3   -1    0    0  502    0  0.00000000000E+00 -0.00000000000E+00 -0.64529887311E+03  0.64529887311E+03  0.00000000000E+00 0. -1.
         25    1    1    2    0    0  0.22957617405E+02 -0.89113260936E+02 -0.38682958156E+03  0.41680972955E+03  0.12500000000E+03 0.  0.
          3    1    1    2  502    0  0.38806612526E+01  0.27552042486E+02 -0.17230614192E+03  0.17453819387E+03  0.00000000000E+00 0. -1.
         -3    1    1    2    0  501 -0.26838278657E+02  0.61561218450E+02 -0.53962749231E+02  0.86151350093E+02  0.00000000000E+00 0.  1.
<mgrwt>
<rscale>  0 0.44355650E+02</rscale>
<asrwt>0</asrwt>
<pdfrwt beam="2">  1        3 0.99276740E-01 0.27823993E+02</pdfrwt>
<pdfrwt beam="1">  1       -3 0.49539083E-02 0.70709609E+02</pdfrwt>
<totfact> 0.42905643E+02</totfact>
</mgrwt>
</event>
<event>
 5    1  0.4149151E-003  0.5505188E+02  0.7546771E-02  0.1441586E+00
          2   -1    0    0  501    0  0.00000000000E+00  0.00000000000E+00  0.33745329267E+03  0.33745329267E+03  0.00000000000E+00 0. -1.
          2   -1    0    0  502    0 -0.00000000000E+00 -0.00000000000E+00 -0.10217509425E+04  0.10217509425E+04  0.00000000000E+00 0. -1.
         25    1    1    2    0    0  0.58218992902E+02  0.23792909228E+02 -0.27120990653E+03  0.30518087598E+03  0.12500000000E+03 0.  0.
          2    1    1    2  501    0 -0.20425748624E+02 -0.51222185205E+02  0.31734441203E+03  0.32209998340E+03  0.00000000000E+00 0. -1.
          2    1    1    2  502    0 -0.37793244278E+02  0.27429275976E+02 -0.73043215529E+03  0.73192337575E+03  0.00000000000E+00 0. -1.
<mgrwt>
<rscale>  0 0.50703130E+02</rscale>
<asrwt>0</asrwt>
<pdfrwt beam="1">  1        2 0.51915892E-01 0.55051877E+02</pdfrwt>
<pdfrwt beam="2">  1        2 0.15719245E+00 0.46697907E+02</pdfrwt>
<totfact> 0.41605316E+02</totfact>
</mgrwt>
</event>
<event>
 5    1  0.4149151E-003  0.4867755E+03  0.7546771E-02  0.1017290E+00
         -1   -1    0    0    0  501 -0.00000000000E+00  0.00000000000E+00  0.94423168712E+03  0.94423168712E+03  0.00000000000E+00 0.  1.
          2   -1    0    0  502    0  0.00000000000E+00 -0.00000000000E+00 -0.62736304741E+02  0.62736304741E+02  0.00000000000E+00 0. -1.
         25    1    1    2    0    0  0.68300893376E+02  0.19890104534E+03  0.32369172335E+03  0.40574372409E+03  0.12500000000E+03 0.  0.
          2    1    1    2  502    0 -0.36888399559E+02 -0.84495748151E+02  0.14602201354E+03  0.17269254158E+03  0.00000000000E+00 0. -1.
         -1    1    1    2    0  501 -0.31412493817E+02 -0.11440529719E+03  0.41178164549E+03  0.42853172619E+03  0.00000000000E+00 0.  1.
<mgrwt>
<rscale>  0 0.48677554E+03</rscale>
<asrwt>0</asrwt>
<pdfrwt beam="2">  1        2 0.96517399E-02 0.48677554E+03</pdfrwt>
<pdfrwt beam="1">  1       -1 0.14526640E+00 0.48677554E+03</pdfrwt>
<totfact> 0.31110370E+02</totfact>
</mgrwt>
</event>
<event>
 5    1  0.4149151E-003  0.6338924E+02  0.7546771E-02  0.1492648E+00
          2   -1    0    0  502    0  0.00000000000E+00  0.00000000000E+00  0.77449122673E+03  0.77449122673E+03  0.00000000000E+00 0. -1.
         -1   -1    0    0    0  501 -0.00000000000E+00 -0.00000000000E+00 -0.23491135965E+02  0.23491135965E+02  0.00000000000E+00 0.  1.
         25    1    1    2    0    0  0.74191895665E+02 -0.10511001931E+02  0.29726449822E+03  0.33106812055E+03  0.12500000000E+03 0.  0.
          2    1    1    2  502    0 -0.21923517421E+02 -0.17558507854E+02  0.31200976596E+03  0.31327150503E+03  0.00000000000E+00 0. -1.
         -1    1    1    2    0  501 -0.52268378244E+02  0.28069509785E+02  0.14172582658E+03  0.15364273710E+03  0.00000000000E+00 0.  1.
<mgrwt>
<rscale>  0 0.42195780E+02</rscale>
<asrwt>0</asrwt>
<pdfrwt beam="1">  1        2 0.11915248E+00 0.28088108E+02</pdfrwt>
<pdfrwt beam="2">  1       -1 0.36140215E-02 0.63389242E+02</pdfrwt>
<totfact> 0.11222811E+04</totfact>
</mgrwt>
</event>
<event>
 5    1  0.4149151E-003  0.1609282E+03  0.7546771E-02  0.1348983E+00
          2   -1    0    0  501    0  0.00000000000E+00  0.00000000000E+00  0.25924040543E+03  0.25924040543E+03  0.00000000000E+00 0. -1.
          1   -1    0    0  502    0 -0.00000000000E+00 -0.00000000000E+00 -0.22869156689E+03  0.22869156689E+03  0.00000000000E+00 0. -1.
         25    1    1    2    0    0  0.16360090401E+03  0.62895984580E+02  0.44227609621E+00  0.21528203891E+03  0.12500000000E+03 0.  0.
          2    1    1    2  501    0 -0.13443603279E+03 -0.79284184916E+02  0.10670587954E+03  0.18906394055E+03  0.00000000000E+00 0. -1.
          1    1    1    2  502    0 -0.29164871218E+02  0.16388200336E+02 -0.76599317097E+02  0.83585992865E+02  0.00000000000E+00 0. -1.
<mgrwt>
<rscale>  0 0.73373523E+02</rscale>
<asrwt>0</asrwt>
<pdfrwt beam="1">  1        2 0.39883139E-01 0.16092818E+03</pdfrwt>
<pdfrwt beam="2">  1        1 0.35183318E-01 0.33453891E+02</pdfrwt>
<totfact> 0.20798046E+03</totfact>
</mgrwt>
</event>
<event>
 5    1  0.4149151E-003  0.5570716E+02  0.7546771E-02  0.1465091E+00
          1   -1    0    0  502    0  0.00000000000E+00  0.00000000000E+00  0.11296011011E+04  0.11296011011E+04  0.00000000000E+00 0. -1.
         -1   -1    0    0    0  501 -0.00000000000E+00 -0.00000000000E+00 -0.12331251040E+02  0.12331251040E+02  0.00000000000E+00 0.  1.
         25    1    1    2    0    0  0.51736421241E+01 -0.40617940431E+02  0.54837572741E+03  0.56393042307E+03  0.12500000000E+03 0.  0.
          1    1    1    2  502    0 -0.43737456574E+02  0.45257371411E+02  0.37679721456E+03  0.38201745467E+03  0.00000000000E+00 0. -1.
         -1    1    1    2    0  501  0.38563814450E+02 -0.46394309798E+01  0.19209690805E+03  0.19598447435E+03  0.00000000000E+00 0.  1.
<mgrwt>
<rscale>  0 0.46516352E+02</rscale>
<asrwt>0</asrwt>
<pdfrwt beam="1">  1        1 0.17378470E+00 0.55707157E+02</pdfrwt>
<pdfrwt beam="2">  1       -1 0.18971164E-02 0.38841886E+02</pdfrwt>
<totfact> 0.82114685E+03</totfact>
</mgrwt>
</event>
<event>
 5    1  0.4149151E-003  0.7408112E+02  0.7546771E-02  0.1452625E+00
         -1   -1    0    0    0  501 -0.00000000000E+00  0.00000000000E+00  0.12376489556E+03  0.12376489556E+03  0.00000000000E+00 0.  1.
          2   -1    0    0  502    0  0.00000000000E+00 -0.00000000000E+00 -0.15291082949E+03  0.15291082949E+03  0.00000000000E+00 0. -1.
         25    1    1    2    0    0  0.12442293900E+02 -0.72697701891E+02 -0.66849127373E+02  0.15979227881E+03  0.12500000000E+03 0.  0.
          2    1    1    2  502    0  0.19391987770E+02  0.75759225989E+02  0.31492985442E+02  0.84304908779E+02  0.00000000000E+00 0. -1.
         -1    1    1    2    0  501 -0.31834281670E+02 -0.30615240982E+01  0.62102079961E+01  0.32578537453E+02  0.00000000000E+00 0.  1.
<mgrwt>
<rscale>  0 0.48674426E+02</rscale>
<asrwt>0</asrwt>
<pdfrwt beam="2">  1        2 0.23524743E-01 0.74081115E+02</pdfrwt>
<pdfrwt beam="1">  1       -1 0.19040753E-01 0.31981157E+02</pdfrwt>
<totfact> 0.50416061E+03</totfact>
</mgrwt>
</event>
<event>
 5    1  0.4149151E-003  0.4376370E+02  0.7546771E-02  0.1493513E+00
          1   -1    0    0  502    0 -0.00000000000E+00  0.00000000000E+00  0.28745647573E+03  0.28745647573E+03  0.00000000000E+00 0. -1.
          2   -1    0    0  501    0  0.00000000000E+00 -0.00000000000E+00 -0.33796894295E+03  0.33796894295E+03  0.00000000000E+00 0.  1.
         25    1    1    2    0    0 -0.21912030481E+02 -0.31113780909E+01 -0.11414668029E+03  0.17071696569E+03  0.12500000000E+03 0.  0.
          2    1    1    2  501    0  0.29447733928E+02 -0.36620766151E+02 -0.19109551122E+03  0.19678857679E+03  0.00000000000E+00 0.  1.
          1    1    1    2  502    0 -0.75357034468E+01  0.39732144242E+02  0.25472972428E+03  0.25791987621E+03  0.00000000000E+00 0. -1.
<mgrwt>
<rscale>  0 0.42069272E+02</rscale>
<asrwt>0</asrwt>
<pdfrwt beam="2">  1        2 0.51995222E-01 0.43763697E+02</pdfrwt>
<pdfrwt beam="1">  1        1 0.44224074E-01 0.40440451E+02</pdfrwt>
<totfact> 0.11958102E+03</totfact>
</mgrwt>
</event>
<event>
 5    1  0.4149151E-003  0.5010367E+02  0.7546771E-02  0.1517893E+00
          2   -1    0    0  501    0  0.00000000000E+00  0.00000000000E+00  0.79250443889E+02  0.79250443889E+02  0.00000000000E+00 0. -1.
          1   -1    0    0  502    0 -0.00000000000E+00 -0.00000000000E+00 -0.50674327630E+03  0.50674327630E+03  0.00000000000E+00 0. -1.
         25    1    1    2    0    0 -0.46582210741E+02 -0.13031292083E+02 -0.27945544642E+03  0.30993557954E+03  0.12500000000E+03 0.  0.
          2    1    1    2  501    0  0.47554854925E+02 -0.16866472438E+02  0.52783936460E+02  0.73021134390E+02  0.00000000000E+00 0. -1.
          1    1    1    2  502    0 -0.97264418402E+00  0.29897764521E+02 -0.20082132245E+03  0.20303700626E+03  0.00000000000E+00 0. -1.
<mgrwt>
<rscale>  0 0.38714083E+02</rscale>
<asrwt>0</asrwt>
<pdfrwt beam="1">  1        2 0.12192376E-01 0.50103671E+02</pdfrwt>
<pdfrwt beam="2">  1        1 0.77960502E-01 0.29913582E+02</pdfrwt>
<totfact> 0.28918728E+03</totfact>
</mgrwt>
</event>
<event>
 5    1  0.4149151E-003  0.5615900E+02  0.7546771E-02  0.1454421E+00
          2   -1    0    0  501    0  0.00000000000E+00  0.00000000000E+00  0.44229335571E+03  0.44229335571E+03  0.00000000000E+00 0. -1.
          3   -1    0    0  502    0 -0.00000000000E+00 -0.00000000000E+00 -0.23500364285E+03  0.23500364285E+03  0.00000000000E+00 0. -1.
         25    1    1    2    0    0  0.82902421069E+02  0.34646803032E+02  0.10604817582E+03  0.18693428785E+03  0.12500000000E+03 0.  0.
          2    1    1    2  501    0 -0.41271786414E+02 -0.35302837433E+02  0.29103339015E+03  0.29605757019E+03  0.00000000000E+00 0. -1.
          3    1    1    2  502    0 -0.41630634655E+02  0.65603440124E+00 -0.18979185312E+03  0.19430514052E+03  0.00000000000E+00 0. -1.
<mgrwt>
<rscale>  0 0.48355199E+02</rscale>
<asrwt>0</asrwt>
<pdfrwt beam="1">  1        2 0.68045131E-01 0.56159005E+02</pdfrwt>
<pdfrwt beam="2">  1        3 0.36154407E-01 0.41635803E+02</pdfrwt>
<totfact> 0.30187231E+02</totfact>
</mgrwt>
</event>
<event>
 5    1  0.4149151E-003  0.8204555E+02  0.7546771E-02  0.1482545E+00
          2   -1    0    0  502    0  0.00000000000E+00  0.00000000000E+00  0.27757125180E+03  0.27757125180E+03  0.00000000000E+00 0. -1.
         -1   -1    0    0    0  501 -0.00000000000E+00 -0.00000000000E+00 -0.62379747492E+02  0.62379747492E+02  0.00000000000E+00 0.  1.
         25    1    1    2    0    0 -0.59738059491E+02  0.57402426595E+02  0.15598842267E+03  0.21638175140E+03  0.12500000000E+03 0.  0.
          2    1    1    2  502    0  0.18489132513E+02  0.14160692389E+02  0.25002964067E+02  0.34169012894E+02  0.00000000000E+00 0. -1.
         -1    1    1    2    0  501  0.41248926978E+02 -0.71563118984E+02  0.34200117565E+02  0.89400234994E+02  0.00000000000E+00 0.  1.
<mgrwt>
<rscale>  0 0.43712140E+02</rscale>
<asrwt>0</asrwt>
<pdfrwt beam="1">  1        2 0.42703269E-01 0.23288908E+02</pdfrwt>
<pdfrwt beam="2">  1       -1 0.95968844E-02 0.82045546E+02</pdfrwt>
<totfact> 0.78844850E+03</totfact>
</mgrwt>
</event>
<event>
 5    1  0.4149151E-003  0.4477263E+02  0.7546771E-02  0.1481135E+00
          2   -1    0    0  501    0  0.00000000000E+00  0.00000000000E+00  0.14939785605E+03  0.14939785605E+03  0.00000000000E+00 0. -1.
          3   -1    0    0  502    0 -0.00000000000E+00 -0.00000000000E+00 -0.93832395563E+03  0.93832395563E+03  0.00000000000E+00 0. -1.
         25    1    1    2    0    0 -0.37376596139E+02  0.77514867222E+02 -0.10288555503E+03  0.18334667167E+03  0.12500000000E+03 0.  0.
          2    1    1    2  501    0  0.23280117625E+02 -0.36782289671E+02  0.10421708364E+03  0.11294291139E+03  0.00000000000E+00 0. -1.
          3    1    1    2  502    0  0.14096478514E+02 -0.40732577552E+02 -0.79025762819E+03  0.79143222861E+03  0.00000000000E+00 0. -1.
<mgrwt>
<rscale>  0 0.43929797E+02</rscale>
<asrwt>0</asrwt>
<pdfrwt beam="1">  1        2 0.22984285E-01 0.44772634E+02</pdfrwt>
<pdfrwt beam="2">  1        3 0.14435753E+00 0.43102826E+02</pdfrwt>
<totfact> 0.52107061E+01</totfact>
</mgrwt>
</event>
<event>
 5    1  0.4149151E-003  0.7164833E+02  0.7546771E-02  0.1364898E+00
         -1   -1    0    0    0  501 -0.00000000000E+00  0.00000000000E+00  0.91579025926E+02  0.91579025926E+02  0.00000000000E+00 0.  1.
          2   -1    0    0  502    0  0.00000000000E+00 -0.00000000000E+00 -0.80275579056E+03  0.80275579056E+03  0.00000000000E+00 0. -1.
         25    1    1    2    0    0 -0.22529383764E+02  0.36272522524E+02 -0.52589093754E+03  0.54222647225E+03  0.12500000000E+03 0.  0.
          2    1    1    2  502    0 -0.50540192102E+02 -0.41967917008E+02 -0.24743921233E+03  0.25601129052E+03  0.00000000000E+00 0. -1.
         -1    1    1    2    0  501  0.73069575866E+02  0.56953944837E+01  0.62153385238E+02  0.96097053712E+02  0.00000000000E+00 0.  1.
<mgrwt>
<rscale>  0 0.68606264E+02</rscale>
<asrwt>0</asrwt>
<pdfrwt beam="2">  1        2 0.12350089E+00 0.65693356E+02</pdfrwt>
<pdfrwt beam="1">  1       -1 0.14089081E-01 0.71648332E+02</pdfrwt>
<totfact> 0.14167119E+03</totfact>
</mgrwt>
</event>
<event>
 5    1  0.4149151E-003  0.8207553E+02  0.7546771E-02  0.1333488E+00
         -2   -1    0    0    0  501 -0.00000000000E+00  0.00000000000E+00  0.23260864205E+02  0.23260864205E+02  0.00000000000E+00 0.  1.
          2   -1    0    0  502    0  0.00000000000E+00 -0.00000000000E+00 -0.26435984634E+04  0.26435984634E+04  0.00000000000E+00 0. -1.
         25    1    1    2    0    0  0.72892579326E+01  0.16980705700E+02 -0.62399457120E+03  0.63665980126E+03  0.12500000000E+03 0.  0.
          2    1    1    2  502    0 -0.36164069131E+02 -0.86197508627E+02 -0.19230979124E+04  0.19253683884E+04  0.00000000000E+00 0. -1.
         -2    1    1    2    0  501  0.28874811198E+02  0.69216802927E+02 -0.73245115668E+02  0.10483113802E+03  0.00000000000E+00 0.  1.
<mgrwt>
<rscale>  0 0.78457070E+02</rscale>
<asrwt>0</asrwt>
<pdfrwt beam="2">  1        2 0.40670735E+00 0.82075531E+02</pdfrwt>
<pdfrwt beam="1">  1       -2 0.35785955E-02 0.74998137E+02</pdfrwt>
<totfact> 0.11240283E+03</totfact>
</mgrwt>
</event>
<event>
 5    1  0.4149151E-003  0.7463416E+02  0.7546771E-02  0.1504359E+00
          2   -1    0    0  502    0  0.00000000000E+00  0.00000000000E+00  0.20604214794E+04  0.20604214794E+04  0.00000000000E+00 0. -1.
         -1   -1    0    0    0  501 -0.00000000000E+00 -0.00000000000E+00 -0.11047909777E+02  0.11047909777E+02  0.00000000000E+00 0.  1.
         25    1    1    2    0    0  0.84898391017E+02  0.83191485405E+01  0.16016732376E+04  0.16088067332E+04  0.12500000000E+03 0.  0.
          2    1    1    2  502    0 -0.64903054424E+02 -0.17513728713E+02  0.42761578218E+03  0.43286764067E+03  0.00000000000E+00 0. -1.
         -1    1    1    2    0  501 -0.19995336594E+02  0.91945801728E+01  0.20084549861E+02  0.29795015240E+02  0.00000000000E+00 0.  1.
<mgrwt>
<rscale>  0 0.40528405E+02</rscale>
<asrwt>0</asrwt>
<pdfrwt beam="1">  1        2 0.31698761E+00 0.74634164E+02</pdfrwt>
<pdfrwt beam="2">  1       -1 0.16996801E-02 0.22008039E+02</pdfrwt>
<totfact> 0.53904342E+03</totfact>
</mgrwt>
</event>
<event>
 5    1  0.4149151E-003  0.1225206E+03  0.7546771E-02  0.1253191E+00
          1   -1    0    0  501    0  0.00000000000E+00  0.00000000000E+00  0.21989892790E+03  0.21989892790E+03  0.00000000000E+00 0. -1.
          1   -1    0    0  502    0 -0.00000000000E+00 -0.00000000000E+00 -0.13445483178E+04  0.13445483178E+04  0.00000000000E+00 0. -1.
         25    1    1    2    0    0 -0.45690839960E+02  0.19407181025E+02 -0.13655790567E+03  0.19166990669E+03  0.12500000000E+03 0.  0.
          1    1    1    2  501    0  0.12532823838E+03  0.50890803717E+02  0.16581606024E+03  0.21399067052E+03  0.00000000000E+00 0. -1.
          1    1    1    2  502    0 -0.79637398422E+02 -0.70297984742E+02 -0.11539075445E+04  0.11587866685E+04  0.00000000000E+00 0. -1.
<mgrwt>
<rscale>  0 0.11408265E+03</rscale>
<asrwt>0</asrwt>
<pdfrwt beam="1">  1        1 0.33830605E-01 0.12252060E+03</pdfrwt>
<pdfrwt beam="2">  1        1 0.20685359E+00 0.10622581E+03</pdfrwt>
<totfact> 0.15227222E+02</totfact>
</mgrwt>
</event>
<event>
 5    1  0.4149151E-003  0.4730135E+02  0.7546771E-02  0.1528683E+00
         -1   -1    0    0    0  501 -0.00000000000E+00  0.00000000000E+00  0.14383099367E+02  0.14383099367E+02  0.00000000000E+00 0.  1.
          2   -1    0    0  502    0  0.00000000000E+00 -0.00000000000E+00 -0.10782218172E+04  0.10782218172E+04  0.00000000000E+00 0. -1.
         25    1    1    2    0    0  0.24426086773E+02 -0.62446547438E+02 -0.67474808956E+03  0.68949705538E+03  0.12500000000E+03 0.  0.
          2    1    1    2  502    0 -0.29057851457E+02  0.33322774456E+02 -0.35619724528E+03  0.35893069466E+03  0.00000000000E+00 0. -1.
         -1    1    1    2    0  501  0.46317646844E+01  0.29123772981E+02 -0.32893382947E+02  0.44177166483E+02  0.00000000000E+00 0.  1.
<mgrwt>
<rscale>  0 0.37348449E+02</rscale>
<asrwt>0</asrwt>
<pdfrwt beam="2">  1        2 0.16588033E+00 0.47301349E+02</pdfrwt>
<pdfrwt beam="1">  1       -1 0.22127838E-02 0.29489785E+02</pdfrwt>
<totfact> 0.12961616E+04</totfact>
</mgrwt>
</event>
<event>
 5    1  0.4149151E-003  0.7388560E+02  0.7546771E-02  0.1453841E+00
         -3   -1    0    0    0  501 -0.00000000000E+00  0.00000000000E+00  0.31571687309E+03  0.31571687309E+03  0.00000000000E+00 0.  1.
          2   -1    0    0  502    0  0.00000000000E+00 -0.00000000000E+00 -0.28032219470E+03  0.28032219470E+03  0.00000000000E+00 0. -1.
         25    1    1    2    0    0 -0.10424711626E+03  0.94723456361E+01 -0.11889074197E+03  0.20178502201E+03  0.12500000000E+03 0.  0.
          2    1    1    2  502    0  0.31752020961E+02 -0.13626274659E+01 -0.11290082081E+03  0.11728871611E+03  0.00000000000E+00 0. -1.
         -3    1    1    2    0  501  0.72495095298E+02 -0.81097181703E+01  0.26718624117E+03  0.27696532967E+03  0.00000000000E+00 0.  1.
<mgrwt>
<rscale>  0 0.48457987E+02</rscale>
<asrwt>0</asrwt>
<pdfrwt beam="2">  1        2 0.43126491E-01 0.31781246E+02</pdfrwt>
<pdfrwt beam="1">  1       -3 0.48571827E-01 0.73885603E+02</pdfrwt>
<totfact> 0.28543746E+02</totfact>
</mgrwt>
</event>
<event>
 5    1  0.4149151E-003  0.4851392E+02  0.7546771E-02  0.1585574E+00
         -2   -1    0    0    0  501 -0.00000000000E+00  0.00000000000E+00  0.72045067659E+01  0.72045067659E+01  0.00000000000E+00 0.  1.
          1   -1    0    0  502    0  0.00000000000E+00 -0.00000000000E+00 -0.20440720737E+04  0.20440720737E+04  0.00000000000E+00 0. -1.
         25    1    1    2    0    0  0.27075772187E+02 -0.13506046455E+02 -0.70048368943E+03  0.71219232647E+03  0.12500000000E+03 0.  0.
          1    1    1    2  502    0 -0.46163945556E+02  0.19536491856E+02 -0.12171373275E+04  0.12181691420E+04  0.00000000000E+00 0. -1.
         -2    1    1    2    0  501  0.19088173369E+02 -0.60304454011E+01 -0.11924654994E+03  0.12091511198E+03  0.00000000000E+00 0.  1.
<mgrwt>
<rscale>  0 0.31163389E+02</rscale>
<asrwt>0</asrwt>
<pdfrwt beam="2">  1        1 0.31447261E+00 0.48513918E+02</pdfrwt>
<pdfrwt beam="1">  1       -2 0.11083857E-02 0.20018108E+02</pdfrwt>
<totfact> 0.40450319E+03</totfact>
</mgrwt>
</event>
<event>
 5    1  0.4149151E-003  0.3685526E+02  0.7546771E-02  0.1536889E+00
          2   -1    0    0  501    0  0.00000000000E+00  0.00000000000E+00  0.60778763132E+03  0.60778763132E+03  0.00000000000E+00 0.  1.
          1   -1    0    0  502    0 -0.00000000000E+00 -0.00000000000E+00 -0.14259583612E+03  0.14259583612E+03  0.00000000000E+00 0. -1.
         25    1    1    2    0    0  0.51323572039E+02  0.48344157293E+02  0.18238993107E+03  0.23208264379E+03  0.12500000000E+03 0.  0.
          2    1    1    2  501    0 -0.20002091664E+02 -0.29764546215E+02  0.39690770373E+03  0.39852444989E+03  0.00000000000E+00 0.  1.
          1    1    1    2  502    0 -0.31321480375E+02 -0.18579611078E+02 -0.11410583960E+03  0.11977637376E+03  0.00000000000E+00 0. -1.
<mgrwt>
<rscale>  0 0.36354735E+02</rscale>
<asrwt>0</asrwt>
<pdfrwt beam="1">  1        2 0.93505788E-01 0.35861008E+02</pdfrwt>
<pdfrwt beam="2">  1        1 0.21937821E-01 0.36855261E+02</pdfrwt>
<totfact> 0.15009205E+03</totfact>
</mgrwt>
</event>
<event>
 5    1  0.4149151E-003  0.8930280E+02  0.7546771E-02  0.1322134E+00
          1   -1    0    0  502    0  0.00000000000E+00  0.00000000000E+00  0.20103381015E+04  0.20103381015E+04  0.00000000000E+00 0. -1.
         -3   -1    0    0    0  501 -0.00000000000E+00 -0.00000000000E+00 -0.13636127104E+04  0.13636127104E+04  0.00000000000E+00 0.  1.
         25    1    1    2    0    0 -0.10020170081E+03 -0.99887650539E+02 -0.47107822249E+02  0.19458178356E+03  0.12500000000E+03 0.  0.
          1    1    1    2  502    0  0.74681389667E+02  0.15107749602E+02  0.19342731989E+04  0.19357733241E+04  0.00000000000E+00 0. -1.
         -3    1    1    2    0  501  0.25520311139E+02  0.84779900938E+02 -0.12404399856E+04  0.12435957043E+04  0.00000000000E+00 0.  1.
<mgrwt>
<rscale>  0 0.82488512E+02</rscale>
<asrwt>0</asrwt>
<pdfrwt beam="1">  1        1 0.30928279E+00 0.76194187E+02</pdfrwt>
<pdfrwt beam="2">  1       -3 0.20978657E+00 0.89302805E+02</pdfrwt>
<totfact> 0.30441427E-01</totfact>
</mgrwt>
</event>
<event>
 5    1  0.4149151E-003  0.1966818E+03  0.7546771E-02  0.1229548E+00
         -1   -1    0    0    0  501 -0.00000000000E+00  0.00000000000E+00  0.15918191161E+04  0.15918191161E+04  0.00000000000E+00 0.  1.
          2   -1    0    0  502    0  0.00000000000E+00 -0.00000000000E+00 -0.17813830710E+03  0.17813830710E+03  0.00000000000E+00 0. -1.
         25    1    1    2    0    0 -0.77058823578E+02 -0.22933404815E+03  0.19812485225E+03  0.33676494030E+03  0.12500000000E+03 0.  0.
          2    1    1    2  502    0  0.54120040578E+01  0.18532222478E+03 -0.27383072324E+02  0.18741251142E+03  0.00000000000E+00 0. -1.
         -1    1    1    2    0  501  0.71646819520E+02  0.44011823373E+02  0.12429390291E+04  0.12457799715E+04  0.00000000000E+00 0.  1.
<mgrwt>
<rscale>  0 0.12860020E+03</rscale>
<asrwt>0</asrwt>
<pdfrwt beam="2">  1        2 0.27405894E-01 0.19668180E+03</pdfrwt>
<pdfrwt beam="1">  1       -1 0.24489524E+00 0.84085120E+02</pdfrwt>
<totfact> 0.21273613E+01</totfact>
</mgrwt>
</event>
<event>
 5    1  0.4149151E-003  0.1327274E+03  0.7546771E-02  0.1255867E+00
          1   -1    0    0  502    0 -0.00000000000E+00  0.00000000000E+00  0.78647805548E+02  0.78647805548E+02  0.00000000000E+00 0. -1.
          2   -1    0    0  501    0  0.00000000000E+00 -0.00000000000E+00 -0.14655751282E+04  0.14655751282E+04  0.00000000000E+00 0. -1.
         25    1    1    2    0    0 -0.90949701598E+02 -0.52817629031E+02 -0.23637004130E+03  0.28732794257E+03  0.12500000000E+03 0.  0.
          2    1    1    2  501    0  0.42491740226E+02  0.13509770989E+03 -0.11527141526E+04  0.11613814433E+04  0.00000000000E+00 0. -1.
          1    1    1    2  502    0  0.48457961373E+02 -0.82280080862E+02  0.21568713001E+01  0.95513547839E+02  0.00000000000E+00 0. -1.
<mgrwt>
<rscale>  0 0.11257901E+03</rscale>
<asrwt>0</asrwt>
<pdfrwt beam="2">  1        2 0.22547309E+00 0.13272742E+03</pdfrwt>
<pdfrwt beam="1">  1        1 0.12099663E-01 0.95489192E+02</pdfrwt>
<totfact> 0.96218491E+02</totfact>
</mgrwt>
</event>
<event>
 5    1  0.4149151E-003  0.1170273E+03  0.7546771E-02  0.1377520E+00
          2   -1    0    0  501    0  0.00000000000E+00  0.00000000000E+00  0.14615743501E+04  0.14615743501E+04  0.00000000000E+00 0. -1.
          2   -1    0    0  502    0 -0.00000000000E+00 -0.00000000000E+00 -0.99748653600E+02  0.99748653600E+02  0.00000000000E+00 0. -1.
         25    1    1    2    0    0 -0.96784033208E+02 -0.15650275841E+02  0.60522745478E+03  0.62572945611E+03  0.12500000000E+03 0.  0.
          2    1    1    2  501    0 -0.10459189390E+02 -0.34693948086E+02  0.80630314565E+03  0.80711698493E+03  0.00000000000E+00 0. -1.
          2    1    1    2  502    0  0.10724322260E+03  0.50344223927E+02 -0.49704903940E+02  0.12847656266E+03  0.00000000000E+00 0. -1.
<mgrwt>
<rscale>  0 0.65120097E+02</rscale>
<asrwt>0</asrwt>
<pdfrwt beam="1">  1        2 0.22485758E+00 0.36236234E+02</pdfrwt>
<pdfrwt beam="2">  1        2 0.15345948E-01 0.11702725E+03</pdfrwt>
<totfact> 0.95218596E+02</totfact>
</mgrwt>
</event>
<event>
 5    1  0.4149151E-003  0.1375281E+03  0.7546771E-02  0.1241395E+00
         -1   -1    0    0    0  501 -0.00000000000E+00  0.00000000000E+00  0.12559676843E+04  0.12559676843E+04  0.00000000000E+00 0.  1.
          2   -1    0    0  502    0  0.00000000000E+00 -0.00000000000E+00 -0.20870980927E+04  0.20870980927E+04  0.00000000000E+00 0.  1.
         25    1    1    2    0    0  0.13028608421E+02  0.59344190566E+02 -0.20801093192E+02  0.14053171553E+03  0.12500000000E+03 0.  0.
          2    1    1    2  502    0 -0.85875557689E+02  0.63029896325E+02 -0.20007705825E+04  0.20036043279E+04  0.00000000000E+00 0.  1.
         -1    1    1    2    0  501  0.72846949267E+02 -0.12237408689E+03  0.11904412673E+04  0.11989297336E+04  0.00000000000E+00 0.  1.
<mgrwt>
<rscale>  0 0.12103740E+03</rscale>
<asrwt>0</asrwt>
<pdfrwt beam="2">  1        2 0.32109201E+00 0.10652408E+03</pdfrwt>
<pdfrwt beam="1">  1       -1 0.19322580E+00 0.13752808E+03</pdfrwt>
<totfact> 0.16806511E+00</totfact>
</mgrwt>
</event>
<event>
 5    1  0.4149151E-003  0.9760211E+02  0.7546771E-02  0.1376795E+00
          1   -1    0    0  501    0  0.00000000000E+00  0.00000000000E+00  0.55453434972E+03  0.55453434972E+03  0.00000000000E+00 0. -1.
          1   -1    0    0  502    0 -0.00000000000E+00 -0.00000000000E+00 -0.16182496316E+04  0.16182496316E+04  0.00000000000E+00 0. -1.
         25    1    1    2    0    0 -0.61889089949E+02  0.17968759420E+01 -0.15004570158E+02  0.14029834405E+03  0.12500000000E+03 0.  0.
          1    1    1    2  501    0 -0.31206655541E+02  0.30601439131E+02  0.48933569998E+03  0.49128375782E+03  0.00000000000E+00 0. -1.
          1    1    1    2  502    0  0.93095745490E+02 -0.32398315073E+02 -0.15380464117E+04  0.15412018795E+04  0.00000000000E+00 0. -1.
<mgrwt>
<rscale>  0 0.65313837E+02</rscale>
<asrwt>0</asrwt>
<pdfrwt beam="1">  1        1 0.85312976E-01 0.43707018E+02</pdfrwt>
<pdfrwt beam="2">  1        1 0.24896148E+00 0.97602114E+02</pdfrwt>
<totfact> 0.32995383E+01</totfact>
</mgrwt>
</event>
<event>
 5    1  0.4149151E-003  0.6259123E+02  0.7546771E-02  0.1433077E+00
         -1   -1    0    0    0  501 -0.00000000000E+00  0.00000000000E+00  0.40805558537E+03  0.40805558537E+03  0.00000000000E+00 0.  1.
          2   -1    0    0  502    0  0.00000000000E+00 -0.00000000000E+00 -0.74182055124E+02  0.74182055124E+02  0.00000000000E+00 0. -1.
         25    1    1    2    0    0  0.61001049804E+02 -0.19536286434E+02  0.68559985236E+02  0.15629544504E+03  0.12500000000E+03 0.  0.
          2    1    1    2  502    0 -0.27148027654E+02 -0.34346221513E+02 -0.87006495253E+01  0.44636080024E+02  0.00000000000E+00 0. -1.
         -1    1    1    2    0  501 -0.33853022150E+02  0.53882507947E+02  0.27401419454E+03  0.28130611543E+03  0.00000000000E+00 0.  1.
<mgrwt>
<rscale>  0 0.52347273E+02</rscale>
<asrwt>0</asrwt>
<pdfrwt beam="2">  1        2 0.11412624E-01 0.43779885E+02</pdfrwt>
<pdfrwt beam="1">  1       -1 0.62777781E-01 0.62591232E+02</pdfrwt>
<totfact> 0.15238162E+03</totfact>
</mgrwt>
</event>
<event>
 5    1  0.4149151E-003  0.5498032E+02  0.7546771E-02  0.1551800E+00
         -2   -1    0    0    0  501 -0.00000000000E+00  0.00000000000E+00  0.73597801804E+02  0.73597801804E+02  0.00000000000E+00 0.  1.
          1   -1    0    0  502    0  0.00000000000E+00 -0.00000000000E+00 -0.18417591472E+03  0.18417591472E+03  0.00000000000E+00 0. -1.
         25    1    1    2    0    0 -0.21305759685E+02  0.33712607347E+02 -0.98696092915E+02  0.16418402494E+03  0.12500000000E+03 0.  0.
          1    1    1    2  502    0 -0.21116384044E+02  0.55267722039E+01 -0.26154310917E+02  0.34066036835E+02  0.00000000000E+00 0. -1.
         -2    1    1    2    0  501  0.42422143729E+02 -0.39239379551E+02  0.14272290917E+02  0.59523654744E+02  0.00000000000E+00 0.  1.
<mgrwt>
<rscale>  0 0.34642342E+02</rscale>
<asrwt>0</asrwt>
<pdfrwt beam="2">  1        1 0.28334756E-01 0.21827663E+02</pdfrwt>
<pdfrwt beam="1">  1       -2 0.11322739E-01 0.54980319E+02</pdfrwt>
<totfact> 0.66067422E+03</totfact>
</mgrwt>
</event>
<event>
 5    1  0.4149151E-003  0.8750426E+02  0.7546771E-02  0.1424636E+00
          1   -1    0    0  502    0  0.00000000000E+00  0.00000000000E+00  0.23916294380E+04  0.23916294380E+04  0.00000000000E+00 0. -1.
         -1   -1    0    0    0  501 -0.00000000000E+00 -0.00000000000E+00 -0.26769895937E+03  0.26769895937E+03  0.00000000000E+00 0.  1.
         25    1    1    2    0    0  0.75198192971E+02  0.35860054126E+02  0.17318658139E+04  0.17383684618E+04  0.12500000000E+03 0.  0.
          1    1    1    2  502    0  0.12218685115E+02 -0.31072190234E+02  0.64882537639E+03  0.64968388183E+03  0.00000000000E+00 0. -1.
         -1    1    1    2    0  501 -0.87416878085E+02 -0.47878638925E+01 -0.25676071171E+03  0.27127605367E+03  0.00000000000E+00 0.  1.
<mgrwt>
<rscale>  0 0.54051981E+02</rscale>
<asrwt>0</asrwt>
<pdfrwt beam="1">  1        1 0.36794298E+00 0.33388280E+02</pdfrwt>
<pdfrwt beam="2">  1       -1 0.41184457E-01 0.87504255E+02</pdfrwt>
<totfact> 0.15047231E+01</totfact>
</mgrwt>
</event>
<event>
 5    1  0.4149151E-003  0.7574052E+02  0.7546771E-02  0.1402333E+00
         -3   -1    0    0    0  501 -0.00000000000E+00  0.00000000000E+00  0.57727524615E+02  0.57727524615E+02  0.00000000000E+00 0.  1.
          2   -1    0    0  502    0  0.00000000000E+00 -0.00000000000E+00 -0.25940486982E+04  0.25940486982E+04  0.00000000000E+00 0. -1.
         25    1    1    2    0    0 -0.70353903674E+02  0.26916273188E+02 -0.11898026618E+03  0.18829620619E+03  0.12500000000E+03 0.  0.
          2    1    1    2  502    0  0.73611074451E+02  0.18834723527E+02 -0.24164094493E+04  0.24176037648E+04  0.00000000000E+00 0. -1.
         -3    1    1    2    0  501 -0.32571707770E+01 -0.45750996715E+02 -0.93145807985E+00  0.45876251765E+02  0.00000000000E+00 0.  1.
<mgrwt>
<rscale>  0 0.58940436E+02</rscale>
<asrwt>0</asrwt>
<pdfrwt beam="2">  1        2 0.39908440E+00 0.75740523E+02</pdfrwt>
<pdfrwt beam="1">  1       -3 0.88811581E-02 0.45866795E+02</pdfrwt>
<totfact> 0.19508663E+02</totfact>
</mgrwt>
</event>
<event>
 5    1  0.4149151E-003  0.4033534E+02  0.7546771E-02  0.1536100E+00
         -1   -1    0    0    0  501 -0.00000000000E+00  0.00000000000E+00  0.60530012287E+02  0.60530012287E+02  0.00000000000E+00 0.  1.
          2   -1    0    0  502    0  0.00000000000E+00 -0.00000000000E+00 -0.53774747334E+03  0.53774747334E+03  0.00000000000E+00 0.  1.
         25    1    1    2    0    0  0.80491005143E+01  0.18141722106E+02 -0.18319450851E+03  0.22266373312E+03  0.12500000000E+03 0.  0.
          2    1    1    2  502    0  0.18142911381E+02 -0.38111544755E+02 -0.32658328656E+03  0.32929970868E+03  0.00000000000E+00 0.  1.
         -1    1    1    2    0  501 -0.26192011896E+02  0.19969822649E+02  0.32560334018E+02  0.46314043822E+02  0.00000000000E+00 0.  1.
<mgrwt>
<rscale>  0 0.36448681E+02</rscale>
<asrwt>0</asrwt>
<pdfrwt beam="2">  1        2 0.82730385E-01 0.40335341E+02</pdfrwt>
<pdfrwt beam="1">  1       -1 0.93123091E-02 0.32936534E+02</pdfrwt>
<totfact> 0.39341884E+03</totfact>
</mgrwt>
</event>
<event>
 5    1  0.8039605E-003  0.1340851E+03  0.7546771E-02  0.1327528E+00
         -1   -1    0    0    0  501 -0.00000000000E+00  0.00000000000E+00  0.87652481063E+02  0.87652481063E+02  0.00000000000E+00 0.  1.
          2   -1    0    0  502    0  0.00000000000E+00 -0.00000000000E+00 -0.73106542975E+03  0.73106542975E+03  0.00000000000E+00 0. -1.
         25    1    1    2    0    0 -0.26030539075E+01 -0.17360391893E+03 -0.57835594862E+03  0.61665687368E+03  0.12500000000E+03 0.  0.
          2    1    1    2  502    0 -0.16510176892E+02  0.45472218129E+02 -0.53297987155E+02  0.71979052490E+02  0.00000000000E+00 0. -1.
         -1    1    1    2    0  501  0.19113230799E+02  0.12813170080E+03 -0.11759012906E+02  0.13008198463E+03  0.00000000000E+00 0.  1.
<mgrwt>
<rscale>  0 0.80539420E+02</rscale>
<asrwt>0</asrwt>
<pdfrwt beam="2">  1        2 0.11247161E+00 0.48376736E+02</pdfrwt>
<pdfrwt beam="1">  1       -1 0.13484997E-01 0.13408507E+03</pdfrwt>
<totfact> 0.17671836E+03</totfact>
</mgrwt>
</event>
<event>
 5    1  0.4149151E-003  0.1627485E+03  0.7546771E-02  0.1307945E+00
          2   -1    0    0  502    0  0.00000000000E+00  0.00000000000E+00  0.18907014240E+04  0.18907014240E+04  0.00000000000E+00 0. -1.
          2   -1    0    0  501    0 -0.00000000000E+00 -0.00000000000E+00 -0.99260965611E+03  0.99260965611E+03  0.00000000000E+00 0. -1.
         25    1    1    2    0    0 -0.10953819273E+03 -0.72691073071E+02  0.25105349269E+02  0.18313352050E+03  0.12500000000E+03 0.  0.
          2    1    1    2  501    0 -0.27221322868E+01 -0.47428148805E+02 -0.90919161485E+03  0.91043189302E+03  0.00000000000E+00 0. -1.
          2    1    1    2  502    0  0.11226032501E+03  0.12011922188E+03  0.17821780335E+04  0.17897456666E+04  0.00000000000E+00 0. -1.
<mgrwt>
<rscale>  0 0.87929320E+02</rscale>
<asrwt>0</asrwt>
<pdfrwt beam="1">  1        2 0.29087714E+00 0.16274854E+03</pdfrwt>
<pdfrwt beam="2">  1        2 0.15270918E+00 0.47506203E+02</pdfrwt>
<totfact> 0.40406133E+01</totfact>
</mgrwt>
</event>
<event>
 5    1  0.4149151E-003  0.8752082E+02  0.7546771E-02  0.1486686E+00
          2   -1    0    0  501    0  0.00000000000E+00  0.00000000000E+00  0.33678532715E+04  0.33678532715E+04  0.00000000000E+00 0. -1.
          1   -1    0    0  502    0 -0.00000000000E+00 -0.00000000000E+00 -0.21906954579E+02  0.21906954579E+02  0.00000000000E+00 0. -1.
         25    1    1    2    0    0  0.60653242860E+02 -0.34453353344E+02  0.30937964022E+04  0.30971062345E+04  0.12500000000E+03 0.  0.
          2    1    1    2  501    0  0.93708789528E+01 -0.19023888035E+02  0.17275168903E+03  0.17404846380E+03  0.00000000000E+00 0. -1.
          1    1    1    2  502    0 -0.70024121813E+02  0.53477241379E+02  0.79398225705E+02  0.11860552781E+03  0.00000000000E+00 0. -1.
<mgrwt>
<rscale>  0 0.43081582E+02</rscale>
<asrwt>0</asrwt>
<pdfrwt beam="1">  1        2 0.51813086E+00 0.21206643E+02</pdfrwt>
<pdfrwt beam="2">  1        1 0.33703034E-02 0.87520817E+02</pdfrwt>
<totfact> 0.70494620E+02</totfact>
</mgrwt>
</event>
<event>
 5    1  0.4149151E-003  0.5021814E+02  0.7546771E-02  0.1568830E+00
         -2   -1    0    0    0  501 -0.00000000000E+00  0.00000000000E+00  0.49513378088E+01  0.49513378088E+01  0.00000000000E+00 0.  1.
          1   -1    0    0  502    0  0.00000000000E+00 -0.00000000000E+00 -0.23364115230E+04  0.23364115230E+04  0.00000000000E+00 0. -1.
         25    1    1    2    0    0 -0.29617539054E+02 -0.24334179420E+02 -0.12018136695E+04  0.12089046476E+04  0.12500000000E+03 0.  0.
          1    1    1    2  502    0  0.50698560139E+02  0.20355165117E+02 -0.63467686063E+03  0.63702385682E+03  0.00000000000E+00 0. -1.
         -2    1    1    2    0  501 -0.21081021085E+02  0.39790143028E+01 -0.49496965513E+03  0.49543435640E+03  0.00000000000E+00 0.  1.
<mgrwt>
<rscale>  0 0.32822896E+02</rscale>
<asrwt>0</asrwt>
<pdfrwt beam="2">  1        1 0.35944816E+00 0.50218144E+02</pdfrwt>
<pdfrwt beam="1">  1       -2 0.76174379E-03 0.21453252E+02</pdfrwt>
<totfact> 0.44746371E+03</totfact>
</mgrwt>
</event>
<event>
 5    1  0.4149151E-003  0.5743646E+02  0.7546771E-02  0.1419920E+00
         -3   -1    0    0    0  501 -0.00000000000E+00  0.00000000000E+00  0.91677444873E+02  0.91677444873E+02  0.00000000000E+00 0.  1.
          2   -1    0    0  502    0  0.00000000000E+00 -0.00000000000E+00 -0.38704322831E+03  0.38704322831E+03  0.00000000000E+00 0. -1.
         25    1    1    2    0    0 -0.55384042861E+02 -0.34735741201E+02 -0.89171714416E+02  0.16688486622E+03  0.12500000000E+03 0.  0.
          2    1    1    2  502    0  0.47044956670E+02 -0.23837385768E+02 -0.23861322199E+03  0.24437209050E+03  0.00000000000E+00 0. -1.
         -3    1    1    2    0  501  0.83390861906E+01  0.58573126969E+02  0.32419152960E+02  0.67463716471E+02  0.00000000000E+00 0.  1.
<mgrwt>
<rscale>  0 0.55037868E+02</rscale>
<asrwt>0</asrwt>
<pdfrwt beam="2">  1        2 0.59545111E-01 0.52739444E+02</pdfrwt>
<pdfrwt beam="1">  1       -3 0.14104223E-01 0.57436459E+02</pdfrwt>
<totfact> 0.18566414E+03</totfact>
</mgrwt>
</event>
<event>
 5    1  0.4149151E-003  0.8155998E+02  0.7546771E-02  0.1377955E+00
          2   -1    0    0  502    0  0.00000000000E+00  0.00000000000E+00  0.29696693551E+04  0.29696693551E+04  0.00000000000E+00 0. -1.
         -2   -1    0    0    0  501 -0.00000000000E+00 -0.00000000000E+00 -0.45890751162E+03  0.45890751162E+03  0.00000000000E+00 0. -1.
         25    1    1    2    0    0  0.25363068808E+02 -0.60317089187E+02  0.21505641655E+03  0.25720750146E+03  0.12500000000E+03 0.  0.
          2    1    1    2  502    0 -0.72613771596E+02  0.39066852441E+02  0.27313803879E+04  0.27326247093E+04  0.00000000000E+00 0. -1.
         -2    1    1    2    0  501  0.47250702788E+02  0.21250236746E+02 -0.43567496097E+03  0.43874465591E+03  0.00000000000E+00 0. -1.
<mgrwt>
<rscale>  0 0.65004338E+02</rscale>
<asrwt>0</asrwt>
<pdfrwt beam="1">  1        2 0.45687220E+00 0.81559983E+02</pdfrwt>
<pdfrwt beam="2">  1       -2 0.70601158E-01 0.51809280E+02</pdfrwt>
<totfact> 0.50803492E+00</totfact>
</mgrwt>
</event>
<event>
 5    1  0.4149151E-003  0.7505396E+02  0.7546771E-02  0.1392560E+00
          2   -1    0    0  502    0  0.00000000000E+00  0.00000000000E+00  0.14359376421E+04  0.14359376421E+04  0.00000000000E+00 0. -1.
         -1   -1    0    0    0  501 -0.00000000000E+00 -0.00000000000E+00 -0.54761308149E+02  0.54761308149E+02  0.00000000000E+00 0.  1.
         25    1    1    2    0    0 -0.25890416781E+02 -0.48087780601E+02  0.86544441157E+03  0.87612885915E+03  0.12500000000E+03 0.  0.
          2    1    1    2  502    0  0.75554898827E+02  0.54079902606E+02  0.54748848114E+03  0.55531686052E+03  0.00000000000E+00 0. -1.
         -1    1    1    2    0  501 -0.49664482045E+02 -0.59921220048E+01 -0.31756558791E+02  0.59253230538E+02  0.00000000000E+00 0.  1.
<mgrwt>
<rscale>  0 0.61274373E+02</rscale>
<asrwt>0</asrwt>
<pdfrwt beam="1">  1        2 0.22091345E+00 0.75053963E+02</pdfrwt>
<pdfrwt beam="2">  1       -1 0.84248177E-02 0.50024657E+02</pdfrwt>
<totfact> 0.13083516E+03</totfact>
</mgrwt>
</event>
<event>
 5    1  0.4149151E-003  0.1178041E+03  0.7546771E-02  0.1274525E+00
          2   -1    0    0  502    0  0.00000000000E+00  0.00000000000E+00  0.27229227547E+03  0.27229227547E+03  0.00000000000E+00 0. -1.
         -1   -1    0    0    0  501 -0.00000000000E+00 -0.00000000000E+00 -0.34447416998E+03  0.34447416998E+03  0.00000000000E+00 0.  1.
         25    1    1    2    0    0  0.25600508617E+02  0.40511276212E+02 -0.66046750886E+02  0.14927733533E+03  0.12500000000E+03 0.  0.
          2    1    1    2  502    0 -0.10958326700E+03 -0.72020844291E+02  0.20200976263E+03  0.24083903051E+03  0.00000000000E+00 0. -1.
         -1    1    1    2    0  501  0.83982758379E+02  0.31509568078E+02 -0.20814490626E+03  0.22665007961E+03  0.00000000000E+00 0.  1.
<mgrwt>
<rscale>  0 0.10279562E+03</rscale>
<asrwt>0</asrwt>
<pdfrwt beam="1">  1        2 0.41891119E-01 0.11780408E+03</pdfrwt>
<pdfrwt beam="2">  1       -1 0.52996026E-01 0.89699256E+02</pdfrwt>
<totfact> 0.51533051E+02</totfact>
</mgrwt>
</event>
<event>
 5    1  0.4149151E-003  0.1128361E+03  0.7546771E-02  0.1266505E+00
          2   -1    0    0  502    0  0.00000000000E+00  0.00000000000E+00  0.64210060580E+03  0.64210060580E+03  0.00000000000E+00 0. -1.
          2   -1    0    0  501    0 -0.00000000000E+00 -0.00000000000E+00 -0.18169651815E+04  0.18169651815E+04  0.00000000000E+00 0. -1.
         25    1    1    2    0    0 -0.21005375186E+03  0.30331757765E+02  0.18414226980E+03  0.30753206293E+03  0.12500000000E+03 0.  0.
          2    1    1    2  501    0  0.10893209381E+03 -0.26531339363E+02 -0.17469835027E+04  0.17505774681E+04  0.00000000000E+00 0. -1.
          2    1    1    2  502    0  0.10112165805E+03 -0.38004184022E+01  0.38797665722E+03  0.40095625629E+03  0.00000000000E+00 0. -1.
<mgrwt>
<rscale>  0 0.10685611E+03</rscale>
<asrwt>0</asrwt>
<pdfrwt beam="1">  1        2 0.98784710E-01 0.10119305E+03</pdfrwt>
<pdfrwt beam="2">  1        2 0.27953310E+00 0.11283609E+03</pdfrwt>
<totfact> 0.75168148E+01</totfact>
</mgrwt>
</event>
<event>
 5    1  0.4149151E-003  0.2594884E+03  0.7546771E-02  0.1122370E+00
         -1   -1    0    0    0  501 -0.00000000000E+00  0.00000000000E+00  0.27089509218E+03  0.27089509218E+03  0.00000000000E+00 0.  1.
          1   -1    0    0  502    0  0.00000000000E+00 -0.00000000000E+00 -0.65394813297E+03  0.65394813297E+03  0.00000000000E+00 0. -1.
         25    1    1    2    0    0 -0.24368146751E+03  0.59045541878E+02 -0.22490589575E+03  0.35926966970E+03  0.12500000000E+03 0.  0.
          1    1    1    2  502    0  0.18005505319E+03 -0.26436079334E+03 -0.14218719613E+03  0.35003378405E+03  0.00000000000E+00 0. -1.
         -1    1    1    2    0  501  0.63626414326E+02  0.20531525146E+03 -0.15959948907E+02  0.21553977139E+03  0.00000000000E+00 0.  1.
<mgrwt>
<rscale>  0 0.23617057E+03</rscale>
<asrwt>0</asrwt>
<pdfrwt beam="2">  1        1 0.10060740E+00 0.25948844E+03</pdfrwt>
<pdfrwt beam="1">  1       -1 0.41676169E-01 0.21494807E+03</pdfrwt>
<totfact> 0.18082431E+02</totfact>
</mgrwt>
</event>
<event>
 5    1  0.4149151E-003  0.1278825E+03  0.7546771E-02  0.1275673E+00
          1   -1    0    0  502    0 -0.00000000000E+00  0.00000000000E+00  0.14428403617E+04  0.14428403617E+04  0.00000000000E+00 0. -1.
          2   -1    0    0  501    0  0.00000000000E+00 -0.00000000000E+00 -0.86568227842E+02  0.86568227842E+02  0.00000000000E+00 0. -1.
         25    1    1    2    0    0 -0.12084201229E+03  0.26424047768E+02  0.32505945532E+03  0.36958039955E+03  0.12500000000E+03 0.  0.
          2    1    1    2  501    0  0.12098677891E+03  0.55300711804E+02  0.79034890475E+01  0.13326077644E+03  0.00000000000E+00 0. -1.
          1    1    1    2  502    0 -0.14476661884E+00 -0.81724759572E+02  0.10233091895E+04  0.10265674136E+04  0.00000000000E+00 0. -1.
<mgrwt>
<rscale>  0 0.10223104E+03</rscale>
<asrwt>0</asrwt>
<pdfrwt beam="2">  1        2 0.13318190E-01 0.12788254E+03</pdfrwt>
<pdfrwt beam="1">  1        1 0.22197542E+00 0.81724888E+02</pdfrwt>
<totfact> 0.51394051E+02</totfact>
</mgrwt>
</event>
<event>
 5    1  0.4149151E-003  0.5708025E+02  0.7546771E-02  0.1442135E+00
          1   -1    0    0  502    0  0.00000000000E+00  0.00000000000E+00  0.37517955142E+03  0.37517955142E+03  0.00000000000E+00 0. -1.
         -1   -1    0    0    0  501 -0.00000000000E+00 -0.00000000000E+00 -0.11446451917E+03  0.11446451917E+03  0.00000000000E+00 0.  1.
         25    1    1    2    0    0 -0.67172108751E+02 -0.57048134047E+02  0.31421365820E+03  0.34945930349E+03  0.12500000000E+03 0.  0.
          1    1    1    2  502    0  0.44532099528E+02  0.53684697827E+01  0.18664683442E+02  0.48582906090E+02  0.00000000000E+00 0. -1.
         -1    1    1    2    0  501  0.22640009224E+02  0.51679664265E+02 -0.72163309403E+02  0.91601861008E+02  0.00000000000E+00 0.  1.
<mgrwt>
<rscale>  0 0.50599483E+02</rscale>
<asrwt>0</asrwt>
<pdfrwt beam="1">  1        1 0.57719931E-01 0.44854524E+02</pdfrwt>
<pdfrwt beam="2">  1       -1 0.17609926E-01 0.57080254E+02</pdfrwt>
<totfact> 0.15635888E+03</totfact>
</mgrwt>
</event>
<event>
 5    1  0.4149151E-003  0.1210007E+03  0.7546771E-02  0.1305271E+00
         -2   -1    0    0    0  501 -0.00000000000E+00  0.00000000000E+00  0.26122232285E+03  0.26122232285E+03  0.00000000000E+00 0. -1.
          2   -1    0    0  502    0  0.00000000000E+00 -0.00000000000E+00 -0.66188003226E+03  0.66188003226E+03  0.00000000000E+00 0. -1.
         25    1    1    2    0    0 -0.38535376593E+02  0.81647489920E+02 -0.20785785743E+03  0.25880721928E+03  0.12500000000E+03 0.  0.
          2    1    1    2  502    0  0.10351497578E+03 -0.89684764187E+02 -0.41271109682E+03  0.43484383010E+03  0.00000000000E+00 0. -1.
         -2    1    1    2    0  501 -0.64979599186E+02  0.80372742670E+01  0.21991124484E+03  0.22945130572E+03  0.00000000000E+00 0. -1.
<mgrwt>
<rscale>  0 0.89008390E+02</rscale>
<asrwt>0</asrwt>
<pdfrwt beam="2">  1        2 0.10182770E+00 0.12100070E+03</pdfrwt>
<pdfrwt beam="1">  1       -2 0.40188049E-01 0.65474774E+02</pdfrwt>
<totfact> 0.27046028E+02</totfact>
</mgrwt>
</event>
<event>
 5    1  0.4149151E-003  0.8968923E+02  0.7546771E-02  0.1454979E+00
          1   -1    0    0  502    0 -0.00000000000E+00  0.00000000000E+00  0.59058503151E+03  0.59058503151E+03  0.00000000000E+00 0. -1.
          2   -1    0    0  501    0  0.00000000000E+00 -0.00000000000E+00 -0.36909916913E+03  0.36909916913E+03  0.00000000000E+00 0. -1.
         25    1    1    2    0    0 -0.48541748401E+02  0.60323196448E+02 -0.17017856516E+03  0.22490205292E+03  0.12500000000E+03 0.  0.
          2    1    1    2  501    0 -0.24682268196E+02 -0.80566474459E+01 -0.16695653522E+03  0.16896333503E+03  0.00000000000E+00 0. -1.
          1    1    1    2  502    0  0.73224016598E+02 -0.52266549002E+02  0.55862096276E+03  0.56581881269E+03  0.00000000000E+00 0. -1.
<mgrwt>
<rscale>  0 0.48256417E+02</rscale>
<asrwt>0</asrwt>
<pdfrwt beam="2">  1        2 0.56784488E-01 0.25963897E+02</pdfrwt>
<pdfrwt beam="1">  1        1 0.90859236E-01 0.89689226E+02</pdfrwt>
<totfact> 0.44290743E+02</totfact>
</mgrwt>
</event>
<event>
 5    1  0.4149151E-003  0.1260509E+03  0.7546771E-02  0.1283333E+00
          2   -1    0    0  501    0  0.00000000000E+00  0.00000000000E+00  0.16199668789E+04  0.16199668789E+04  0.00000000000E+00 0. -1.
          1   -1    0    0  502    0 -0.00000000000E+00 -0.00000000000E+00 -0.21059163297E+04  0.21059163297E+04  0.00000000000E+00 0. -1.
         25    1    1    2    0    0  0.25504723213E+02 -0.55767733018E+02 -0.12697195077E+03  0.18843409255E+03  0.12500000000E+03 0.  0.
          2    1    1    2  501    0  0.35873193125E+01  0.12714636930E+03  0.15859260871E+04  0.15910187371E+04  0.00000000000E+00 0. -1.
          1    1    1    2  502    0 -0.29092042526E+02 -0.71378636285E+02 -0.19449035872E+04  0.19464303789E+04  0.00000000000E+00 0. -1.
<mgrwt>
<rscale>  0 0.98569509E+02</rscale>
<asrwt>0</asrwt>
<pdfrwt beam="1">  1        2 0.24922567E+00 0.12605092E+03</pdfrwt>
<pdfrwt beam="2">  1        1 0.32398713E+00 0.77079548E+02</pdfrwt>
<totfact> 0.58247856E+00</totfact>
</mgrwt>
</event>
<event>
 5    1  0.4149151E-003  0.1088318E+03  0.7546771E-02  0.1371164E+00
          1   -1    0    0  502    0  0.00000000000E+00  0.00000000000E+00  0.75776795093E+03  0.75776795093E+03  0.00000000000E+00 0. -1.
         -3   -1    0    0    0  501 -0.00000000000E+00 -0.00000000000E+00 -0.69551893665E+02  0.69551893665E+02  0.00000000000E+00 0.  1.
         25    1    1    2    0    0 -0.92940435872E+02 -0.15219401875E+02  0.29823120606E+03  0.33680321715E+03  0.12500000000E+03 0.  0.
          1    1    1    2  502    0  0.11473306191E+03 -0.19575633628E+02  0.42244052220E+03  0.43818132745E+03  0.00000000000E+00 0. -1.
         -3    1    1    2    0  501 -0.21792626041E+02  0.34795035503E+02 -0.32455670999E+02  0.52335299994E+02  0.00000000000E+00 0.  1.
<mgrwt>
<rscale>  0 0.66844777E+02</rscale>
<asrwt>0</asrwt>
<pdfrwt beam="1">  1        1 0.11657968E+00 0.10883185E+03</pdfrwt>
<pdfrwt beam="2">  1       -3 0.10700292E-01 0.41056218E+02</pdfrwt>
<totfact> 0.76986043E+02</totfact>
</mgrwt>
</event>
<event>
 5    1  0.4149151E-003  0.9153605E+02  0.7546771E-02  0.1408807E+00
          2   -1    0    0  501    0  0.00000000000E+00  0.00000000000E+00  0.48111469042E+03  0.48111469042E+03  0.00000000000E+00 0. -1.
          3   -1    0    0  502    0 -0.00000000000E+00 -0.00000000000E+00 -0.34709914840E+03  0.34709914840E+03  0.00000000000E+00 0. -1.
         25    1    1    2    0    0  0.72122966046E+02 -0.24644564939E+02 -0.13627617108E+03  0.20001317861E+03  0.12500000000E+03 0.  0.
          2    1    1    2  501    0  0.27332564645E+02  0.23537422007E+02  0.43462109838E+03  0.43611532705E+03  0.00000000000E+00 0. -1.
          3    1    1    2  502    0 -0.99455530691E+02  0.11071429319E+01 -0.16432938528E+03  0.19208533317E+03  0.00000000000E+00 0. -1.
<mgrwt>
<rscale>  0 0.57460849E+02</rscale>
<asrwt>0</asrwt>
<pdfrwt beam="1">  1        2 0.74017645E-01 0.36070477E+02</pdfrwt>
<pdfrwt beam="2">  1        3 0.53399869E-01 0.91536054E+02</pdfrwt>
<totfact> 0.13901967E+02</totfact>
</mgrwt>
</event>
<event>
 5    1  0.4149151E-003  0.5255765E+02  0.7546771E-02  0.1521300E+00
          2   -1    0    0  501    0  0.00000000000E+00  0.00000000000E+00  0.25860951295E+03  0.25860951295E+03  0.00000000000E+00 0.  1.
          1   -1    0    0  502    0 -0.00000000000E+00 -0.00000000000E+00 -0.10393792939E+04  0.10393792939E+04  0.00000000000E+00 0. -1.
         25    1    1    2    0    0  0.43296509309E+02  0.34299851221E+02 -0.11149809895E+03  0.17637429967E+03  0.12500000000E+03 0.  0.
          2    1    1    2  501    0 -0.19546071132E+02 -0.48890866461E+02  0.22288633643E+03  0.22902114463E+03  0.00000000000E+00 0.  1.
          1    1    1    2  502    0 -0.23750438177E+02  0.14591015239E+02 -0.89215801845E+03  0.89259336258E+03  0.00000000000E+00 0. -1.
<mgrwt>
<rscale>  0 0.38275475E+02</rscale>
<asrwt>0</asrwt>
<pdfrwt beam="1">  1        2 0.39786079E-01 0.52557652E+02</pdfrwt>
<pdfrwt beam="2">  1        1 0.15990451E+00 0.27874380E+02</pdfrwt>
<totfact> 0.30058236E+02</totfact>
</mgrwt>
</event>
<event>
 5    1  0.4149151E-003  0.5246995E+02  0.7546771E-02  0.1556528E+00
         -1   -1    0    0    0  501 -0.00000000000E+00  0.00000000000E+00  0.20892390588E+02  0.20892390588E+02  0.00000000000E+00 0.  1.
          2   -1    0    0  502    0  0.00000000000E+00 -0.00000000000E+00 -0.81795776679E+03  0.81795776679E+03  0.00000000000E+00 0. -1.
         25    1    1    2    0    0 -0.23546610741E+02  0.26101961375E+02 -0.22054014260E+03  0.25592715714E+03  0.12500000000E+03 0.  0.
          2    1    1    2  502    0  0.45557699970E+02 -0.28925854188E+02 -0.50881969167E+03  0.51167341899E+03  0.00000000000E+00 0. -1.
         -1    1    1    2    0  501 -0.22011089229E+02  0.28238928135E+01 -0.67705541931E+02  0.71249581247E+02  0.00000000000E+00 0.  1.
<mgrwt>
<rscale>  0 0.34123109E+02</rscale>
<asrwt>0</asrwt>
<pdfrwt beam="2">  1        2 0.12583965E+00 0.52469949E+02</pdfrwt>
<pdfrwt beam="1">  1       -1 0.32142142E-02 0.22191494E+02</pdfrwt>
<totfact> 0.10438515E+04</totfact>
</mgrwt>
</event>
<event>
 5    1  0.4149151E-003  0.4347310E+02  0.7546771E-02  0.1568509E+00
          2   -1    0    0  502    0  0.00000000000E+00  0.00000000000E+00  0.11996978243E+04  0.11996978243E+04  0.00000000000E+00 0. -1.
         -1   -1    0    0    0  501 -0.00000000000E+00 -0.00000000000E+00 -0.26748884948E+02  0.26748884948E+02  0.00000000000E+00 0.  1.
         25    1    1    2    0    0  0.97329767637E+01  0.21655816540E+02  0.22943205394E+03  0.26235047666E+03  0.12500000000E+03 0.  0.
          2    1    1    2  502    0  0.36170841305E+01  0.24566770939E+02  0.89643928942E+03  0.89678314499E+03  0.00000000000E+00 0. -1.
         -1    1    1    2    0  501 -0.13350060894E+02 -0.46222587479E+02  0.47077596040E+02  0.67313087643E+02  0.00000000000E+00 0.  1.
<mgrwt>
<rscale>  0 0.32855863E+02</rscale>
<asrwt>0</asrwt>
<pdfrwt beam="1">  1        2 0.18456885E+00 0.24831624E+02</pdfrwt>
<pdfrwt beam="2">  1       -1 0.41152140E-02 0.43473103E+02</pdfrwt>
<totfact> 0.51938524E+03</totfact>
</mgrwt>
</event>
<event>
 5    1  0.4149151E-003  0.1052899E+03  0.7546771E-02  0.1336047E+00
          1   -1    0    0  502    0  0.00000000000E+00  0.00000000000E+00  0.16163695280E+03  0.16163695280E+03  0.00000000000E+00 0. -1.
         -2   -1    0    0    0  501 -0.00000000000E+00 -0.00000000000E+00 -0.20599097682E+03  0.20599097682E+03  0.00000000000E+00 0.  1.
         25    1    1    2    0    0  0.12254202705E+03  0.55371445379E+02 -0.88892869376E+02  0.20398403757E+03  0.12500000000E+03 0.  0.
          1    1    1    2  502    0 -0.99146183701E+02 -0.32073469608E+01  0.18876934698E+02  0.10097817329E+03  0.00000000000E+00 0. -1.
         -2    1    1    2    0  501 -0.23395843348E+02 -0.52164098418E+02  0.25661910659E+02  0.62665718766E+02  0.00000000000E+00 0.  1.
<mgrwt>
<rscale>  0 0.77585229E+02</rscale>
<asrwt>0</asrwt>
<pdfrwt beam="1">  1        1 0.24867224E-01 0.10528987E+03</pdfrwt>
<pdfrwt beam="2">  1       -2 0.31690919E-01 0.57170435E+02</pdfrwt>
<totfact> 0.14902557E+03</totfact>
</mgrwt>
</event>
<event>
 5    1  0.4149151E-003  0.1107375E+03  0.7546771E-02  0.1304758E+00
          1   -1    0    0  502    0  0.00000000000E+00  0.00000000000E+00  0.70875561912E+03  0.70875561912E+03  0.00000000000E+00 0. -1.
          1   -1    0    0  501    0 -0.00000000000E+00 -0.00000000000E+00 -0.82308637521E+03  0.82308637521E+03  0.00000000000E+00 0. -1.
         25    1    1    2    0    0 -0.12878951914E+02 -0.17769058162E+03 -0.11994492609E+03  0.24849868309E+03  0.12500000000E+03 0.  0.
          1    1    1    2  501    0 -0.10417606507E+02  0.71120607402E+02 -0.63219726854E+03  0.63627042496E+03  0.00000000000E+00 0. -1.
          1    1    1    2  502    0  0.23296558420E+02  0.10656997422E+03  0.63781143855E+03  0.64707288630E+03  0.00000000000E+00 0. -1.
<mgrwt>
<rscale>  0 0.89217476E+02</rscale>
<asrwt>0</asrwt>
<pdfrwt beam="1">  1        1 0.10903933E+00 0.11073747E+03</pdfrwt>
<pdfrwt beam="2">  1        1 0.12662867E+00 0.71879533E+02</pdfrwt>
<totfact> 0.81748111E+01</totfact>
</mgrwt>
</event>
<event>
 5    1  0.4149151E-003  0.1039716E+03  0.7546771E-02  0.1303065E+00
          1   -1    0    0  502    0 -0.00000000000E+00  0.00000000000E+00  0.44148327859E+03  0.44148327859E+03  0.00000000000E+00 0. -1.
          2   -1    0    0  501    0  0.00000000000E+00 -0.00000000000E+00 -0.25707935161E+03  0.25707935161E+03  0.00000000000E+00 0. -1.
         25    1    1    2    0    0 -0.85763510075E+01 -0.76177100045E+01 -0.55964349632E+02  0.13743577312E+03  0.12500000000E+03 0.  0.
          2    1    1    2  501    0  0.11252969788E+03  0.56709241833E+01 -0.13256081931E+03  0.17397546695E+03  0.00000000000E+00 0. -1.
          1    1    1    2  502    0 -0.10395334687E+03  0.19467858212E+01  0.37292909592E+03  0.38715139014E+03  0.00000000000E+00 0. -1.
<mgrwt>
<rscale>  0 0.89911948E+02</rscale>
<asrwt>0</asrwt>
<pdfrwt beam="2">  1        2 0.39550669E-01 0.77753544E+02</pdfrwt>
<pdfrwt beam="1">  1        1 0.67920504E-01 0.10397157E+03</pdfrwt>
<totfact> 0.94072675E+02</totfact>
</mgrwt>
</event>
<event>
 5    1  0.4149151E-003  0.1244006E+03  0.7546771E-02  0.1316044E+00
          2   -1    0    0  501    0  0.00000000000E+00  0.00000000000E+00  0.30116114682E+03  0.30116114682E+03  0.00000000000E+00 0.  1.
          2   -1    0    0  502    0 -0.00000000000E+00 -0.00000000000E+00 -0.32306762221E+04  0.32306762221E+04  0.00000000000E+00 0. -1.
         25    1    1    2    0    0  0.65409584792E+01  0.69903308717E+02 -0.27892935167E+03  0.31361734635E+03  0.12500000000E+03 0.  0.
          2    1    1    2  501    0 -0.25681537971E+02 -0.12439948825E+03  0.26930492015E+03  0.29775814697E+03  0.00000000000E+00 0.  1.
          2    1    1    2  502    0  0.19140579492E+02  0.54496179536E+02 -0.29198906438E+04  0.29204618756E+04  0.00000000000E+00 0. -1.
<mgrwt>
<rscale>  0 0.84766459E+02</rscale>
<asrwt>0</asrwt>
<pdfrwt beam="1">  1        2 0.46332486E-01 0.12440056E+03</pdfrwt>
<pdfrwt beam="2">  1        2 0.49702709E+00 0.57759808E+02</pdfrwt>
<totfact> 0.33164963E+01</totfact>
</mgrwt>
</event>
<event>
 5    1  0.4149151E-003  0.9180555E+02  0.7546771E-02  0.1310190E+00
          2   -1    0    0  501    0  0.00000000000E+00  0.00000000000E+00  0.17046506668E+03  0.17046506668E+03  0.00000000000E+00 0. -1.
          1   -1    0    0  502    0 -0.00000000000E+00 -0.00000000000E+00 -0.15284849786E+04  0.15284849786E+04  0.00000000000E+00 0.  1.
         25    1    1    2    0    0  0.46199831592E+02 -0.51462559523E+02 -0.56853884271E+03  0.58621176647E+03  0.12500000000E+03 0.  0.
          2    1    1    2  501    0  0.27267242311E+02  0.89031816494E+02  0.14625001170E+03  0.17337598673E+03  0.00000000000E+00 0. -1.
          1    1    1    2  502    0 -0.73467073903E+02 -0.37569256971E+02 -0.93573108086E+03  0.93936229204E+03  0.00000000000E+00 0.  1.
<mgrwt>
<rscale>  0 0.87036829E+02</rscale>
<asrwt>0</asrwt>
<pdfrwt beam="1">  1        2 0.26225396E-01 0.91805547E+02</pdfrwt>
<pdfrwt beam="2">  1        1 0.23515153E+00 0.82515817E+02</pdfrwt>
<totfact> 0.20756092E+02</totfact>
</mgrwt>
</event>
<event>
 5    1  0.4149151E-003  0.9494928E+02  0.7546771E-02  0.1339852E+00
          2   -1    0    0  501    0  0.00000000000E+00  0.00000000000E+00  0.71057559999E+03  0.71057559999E+03  0.00000000000E+00 0. -1.
          3   -1    0    0  502    0 -0.00000000000E+00 -0.00000000000E+00 -0.28803018767E+03  0.28803018767E+03  0.00000000000E+00 0. -1.
         25    1    1    2    0    0  0.12712974161E+03  0.28223400753E+02 -0.63272568580E+02  0.19127715360E+03  0.12500000000E+03 0.  0.
          2    1    1    2  501    0 -0.39322144767E+02 -0.47071525765E+02  0.63242982850E+03  0.63539707867E+03  0.00000000000E+00 0. -1.
          3    1    1    2  502    0 -0.87807596847E+02  0.18848125012E+02 -0.14661184761E+03  0.17193155539E+03  0.00000000000E+00 0. -1.
<mgrwt>
<rscale>  0 0.76313148E+02</rscale>
<asrwt>0</asrwt>
<pdfrwt beam="1">  1        2 0.10931932E+00 0.61334816E+02</pdfrwt>
<pdfrwt beam="2">  1        3 0.44312337E-01 0.94949279E+02</pdfrwt>
<totfact> 0.13047601E+02</totfact>
</mgrwt>
</event>
<event>
 5    1  0.4149151E-003  0.2832408E+02  0.7546771E-02  0.1652479E+00
         -2   -1    0    0    0  501 -0.00000000000E+00  0.00000000000E+00  0.67562566411E+01  0.67562566411E+01  0.00000000000E+00 0.  1.
          1   -1    0    0  502    0  0.00000000000E+00 -0.00000000000E+00 -0.17832093668E+04  0.17832093668E+04  0.00000000000E+00 0. -1.
         25    1    1    2    0    0  0.33925465412E+02 -0.45492418339E+01 -0.80443001491E+03  0.81480321655E+03  0.12500000000E+03 0.  0.
          1    1    1    2  502    0 -0.10337837179E+02  0.20707547544E+02 -0.82828485660E+03  0.82860815653E+03  0.00000000000E+00 0. -1.
         -2    1    1    2    0  501 -0.23587628233E+02 -0.16158305710E+02 -0.14373823867E+03  0.14655425038E+03  0.00000000000E+00 0.  1.
<mgrwt>
<rscale>  0 0.25603713E+02</rscale>
<asrwt>0</asrwt>
<pdfrwt beam="2">  1        1 0.27433992E+00 0.23144619E+02</pdfrwt>
<pdfrwt beam="1">  1       -2 0.10394240E-02 0.28324083E+02</pdfrwt>
<totfact> 0.75765430E+03</totfact>
</mgrwt>
</event>
<event>
 5    1  0.4149151E-003  0.5712966E+02  0.7546771E-02  0.1491435E+00
          2   -1    0    0  501    0  0.00000000000E+00  0.00000000000E+00  0.22969203715E+04  0.22969203715E+04  0.00000000000E+00 0. -1.
          1   -1    0    0  502    0 -0.00000000000E+00 -0.00000000000E+00 -0.26168214167E+02  0.26168214167E+02  0.00000000000E+00 0. -1.
         25    1    1    2    0    0  0.43169843067E+02 -0.42914181386E+02  0.14913903272E+04  0.14978569259E+04  0.12500000000E+03 0.  0.
          2    1    1    2  501    0  0.12330958105E+02  0.28909393917E+02  0.76575033719E+03  0.76639505771E+03  0.00000000000E+00 0. -1.
          1    1    1    2  502    0 -0.55500801172E+02  0.14004787469E+02  0.13611492928E+02  0.58836602065E+02  0.00000000000E+00 0. -1.
<mgrwt>
<rscale>  0 0.42373925E+02</rscale>
<asrwt>0</asrwt>
<pdfrwt beam="1">  1        2 0.35337220E+00 0.31429375E+02</pdfrwt>
<pdfrwt beam="2">  1        1 0.40258809E-02 0.57129662E+02</pdfrwt>
<totfact> 0.17855144E+03</totfact>
</mgrwt>
</event>
<event>
 5    1  0.4149151E-003  0.5254992E+02  0.7546771E-02  0.1503934E+00
         -1   -1    0    0    0  501 -0.00000000000E+00  0.00000000000E+00  0.20454770093E+03  0.20454770093E+03  0.00000000000E+00 0.  1.
          1   -1    0    0  502    0  0.00000000000E+00 -0.00000000000E+00 -0.10876460350E+03  0.10876460350E+03  0.00000000000E+00 0. -1.
         25    1    1    2    0    0 -0.10885199305E+02 -0.76087807465E+02  0.11350741651E+03  0.18551758841E+03  0.12500000000E+03 0.  0.
          1    1    1    2  502    0  0.68726053002E+01  0.30585071438E+02 -0.58625251077E+02  0.66480067406E+02  0.00000000000E+00 0. -1.
         -1    1    1    2    0  501  0.40125940047E+01  0.45502736027E+02  0.40900931998E+02  0.61314648616E+02  0.00000000000E+00 0.  1.
<mgrwt>
<rscale>  0 0.40587188E+02</rscale>
<asrwt>0</asrwt>
<pdfrwt beam="2">  1        1 0.16733016E-01 0.31347716E+02</pdfrwt>
<pdfrwt beam="1">  1       -1 0.31468877E-01 0.52549916E+02</pdfrwt>
<totfact> 0.26880809E+03</totfact>
</mgrwt>
</event>
<event>
 5    1  0.4149151E-003  0.6514951E+02  0.7546771E-02  0.1433126E+00
          1   -1    0    0  502    0 -0.00000000000E+00  0.00000000000E+00  0.13099268701E+03  0.13099268701E+03  0.00000000000E+00 0. -1.
          2   -1    0    0  501    0  0.00000000000E+00 -0.00000000000E+00 -0.21313736541E+04  0.21313736541E+04  0.00000000000E+00 0.  1.
         25    1    1    2    0    0  0.28390445050E+02 -0.81201178398E+02 -0.56760313286E+03  0.58753550121E+03  0.12500000000E+03 0.  0.
          2    1    1    2  501    0 -0.38454991268E+02  0.17000247403E+02 -0.15447742224E+04  0.15453463019E+04  0.00000000000E+00 0.  1.
          1    1    1    2  502    0  0.10064546218E+02  0.64200930994E+02  0.11199638812E+03  0.12948453801E+03  0.00000000000E+00 0. -1.
<mgrwt>
<rscale>  0 0.52337566E+02</rscale>
<asrwt>0</asrwt>
<pdfrwt beam="2">  1        2 0.32790365E+00 0.42045152E+02</pdfrwt>
<pdfrwt beam="1">  1        1 0.20152721E-01 0.65149506E+02</pdfrwt>
<totfact> 0.25855490E+02</totfact>
</mgrwt>
</event>
<event>
 5    1  0.4149151E-003  0.9207848E+02  0.7546771E-02  0.1347420E+00
         -1   -1    0    0    0  501 -0.00000000000E+00  0.00000000000E+00  0.18548630600E+03  0.18548630600E+03  0.00000000000E+00 0.  1.
          3   -1    0    0  502    0  0.00000000000E+00 -0.00000000000E+00 -0.78797446805E+03  0.78797446805E+03  0.00000000000E+00 0. -1.
         25    1    1    2    0    0  0.90139674189E+02  0.36175571882E+02 -0.50454870470E+03  0.52879885427E+03  0.12500000000E+03 0.  0.
          3    1    1    2  502    0 -0.66317495933E+00 -0.59251577116E+02 -0.25534912644E+03  0.26213425104E+03  0.00000000000E+00 0. -1.
         -1    1    1    2    0  501 -0.89476499230E+02  0.23076005234E+02  0.15740966909E+03  0.18252766874E+03  0.00000000000E+00 0.  1.
<mgrwt>
<rscale>  0 0.73865668E+02</rscale>
<asrwt>0</asrwt>
<pdfrwt beam="2">  1        3 0.12122684E+00 0.59255288E+02</pdfrwt>
<pdfrwt beam="1">  1       -1 0.28536355E-01 0.92078479E+02</pdfrwt>
<totfact> 0.28578300E+01</totfact>
</mgrwt>
</event>
<event>
 5    1  0.4149151E-003  0.3793598E+02  0.7546771E-02  0.1533444E+00
          2   -1    0    0  501    0  0.00000000000E+00  0.00000000000E+00  0.10492544673E+04  0.10492544673E+04  0.00000000000E+00 0. -1.
          3   -1    0    0  502    0 -0.00000000000E+00 -0.00000000000E+00 -0.10233480002E+04  0.10233480002E+04  0.00000000000E+00 0. -1.
         25    1    1    2    0    0  0.47593514001E+02  0.37074605914E+02 -0.15408884435E+03  0.20738380103E+03  0.12500000000E+03 0.  0.
          2    1    1    2  501    0 -0.35611354014E+02 -0.12906742949E+01  0.10218737501E+04  0.10224948877E+04  0.00000000000E+00 0. -1.
          3    1    1    2  502    0 -0.11982159988E+02 -0.35783931620E+02 -0.84187843860E+03  0.84272377877E+03  0.00000000000E+00 0. -1.
<mgrwt>
<rscale>  0 0.36767359E+02</rscale>
<asrwt>0</asrwt>
<pdfrwt beam="1">  1        2 0.16142376E+00 0.35634736E+02</pdfrwt>
<pdfrwt beam="2">  1        3 0.15743815E+00 0.37935981E+02</pdfrwt>
<totfact> 0.52272843E+00</totfact>
</mgrwt>
</event>
<event>
 5    1  0.4149151E-003  0.9855547E+02  0.7546771E-02  0.1359221E+00
         -3   -1    0    0    0  501 -0.00000000000E+00  0.00000000000E+00  0.21873232382E+02  0.21873232382E+02  0.00000000000E+00 0.  1.
          2   -1    0    0  502    0  0.00000000000E+00 -0.00000000000E+00 -0.29479978348E+04  0.29479978348E+04  0.00000000000E+00 0. -1.
         25    1    1    2    0    0 -0.75387840006E+02  0.23630653179E+02 -0.11476181856E+04  0.11571059736E+04  0.12500000000E+03 0.  0.
          2    1    1    2  502    0  0.78387582744E+02 -0.73624609202E+02 -0.17534833996E+04  0.17567780818E+04  0.00000000000E+00 0. -1.
         -3    1    1    2    0  501 -0.29997427385E+01  0.49993956023E+02 -0.25023017253E+02  0.55987011778E+02  0.00000000000E+00 0.  1.
<mgrwt>
<rscale>  0 0.70256952E+02</rscale>
<asrwt>0</asrwt>
<pdfrwt beam="2">  1        2 0.45353806E+00 0.98555468E+02</pdfrwt>
<pdfrwt beam="1">  1       -3 0.33651132E-02 0.50083871E+02</pdfrwt>
<totfact> 0.54973075E+02</totfact>
</mgrwt>
</event>
<event>
 5    1  0.4149151E-003  0.1390012E+03  0.7546771E-02  0.1382442E+00
          2   -1    0    0  501    0  0.00000000000E+00  0.00000000000E+00  0.12097734165E+04  0.12097734165E+04  0.00000000000E+00 0. -1.
          1   -1    0    0  502    0 -0.00000000000E+00 -0.00000000000E+00 -0.39241239656E+03  0.39241239656E+03  0.00000000000E+00 0. -1.
         25    1    1    2    0    0  0.73393506916E+02 -0.11367118830E+03  0.19839973783E+03  0.27073086613E+03  0.12500000000E+03 0.  0.
          2    1    1    2  501    0 -0.49605128128E+02  0.13078989679E+03  0.96957756266E+03  0.97961590221E+03  0.00000000000E+00 0. -1.
          1    1    1    2  502    0 -0.23788378788E+02 -0.17118708486E+02 -0.35061628059E+03  0.35183904468E+03  0.00000000000E+00 0. -1.
<mgrwt>
<rscale>  0 0.63826282E+02</rscale>
<asrwt>0</asrwt>
<pdfrwt beam="1">  1        2 0.18611899E+00 0.13900115E+03</pdfrwt>
<pdfrwt beam="2">  1        1 0.60371139E-01 0.29307629E+02</pdfrwt>
<totfact> 0.17913810E+02</totfact>
</mgrwt>
</event>
<event>
 5    1  0.4149151E-003  0.4068098E+02  0.7546771E-02  0.1529918E+00
         -1   -1    0    0    0  501 -0.00000000000E+00  0.00000000000E+00  0.10015557619E+02  0.10015557619E+02  0.00000000000E+00 0.  1.
          2   -1    0    0  502    0  0.00000000000E+00 -0.00000000000E+00 -0.14747327083E+04  0.14747327083E+04  0.00000000000E+00 0. -1.
         25    1    1    2    0    0  0.28840607163E+01 -0.34081774819E+02 -0.51632474082E+03  0.53234023252E+03  0.12500000000E+03 0.  0.
          2    1    1    2  502    0 -0.39794817935E+02  0.84447882149E+01 -0.35695334310E+03  0.35926401314E+03  0.00000000000E+00 0. -1.
         -1    1    1    2    0  501  0.36910757218E+02  0.25636986604E+02 -0.59143906675E+03  0.59314402025E+03  0.00000000000E+00 0.  1.
<mgrwt>
<rscale>  0 0.37196478E+02</rscale>
<asrwt>0</asrwt>
<pdfrwt beam="2">  1        2 0.22688191E+00 0.40680978E+02</pdfrwt>
<pdfrwt beam="1">  1       -1 0.15408553E-02 0.34010440E+02</pdfrwt>
<totfact> 0.13842323E+04</totfact>
</mgrwt>
</event>
<event>
 5    1  0.4149151E-003  0.1280009E+03  0.7546771E-02  0.1293212E+00
          2   -1    0    0  502    0  0.00000000000E+00  0.00000000000E+00  0.31581907178E+03  0.31581907178E+03  0.00000000000E+00 0. -1.
          2   -1    0    0  501    0 -0.00000000000E+00 -0.00000000000E+00 -0.59066268992E+03  0.59066268992E+03  0.00000000000E+00 0. -1.
         25    1    1    2    0    0 -0.63481221630E+02  0.45526909692E+01  0.16467676942E+03  0.21631927995E+03  0.12500000000E+03 0.  0.
          2    1    1    2  501    0  0.12974172756E+03  0.15334562202E+02 -0.54697674362E+03  0.56236253674E+03  0.00000000000E+00 0. -1.
          2    1    1    2  502    0 -0.66260505925E+02 -0.19887253172E+02  0.10745635606E+03  0.12779994500E+03  0.00000000000E+00 0. -1.
<mgrwt>
<rscale>  0 0.94101963E+02</rscale>
<asrwt>0</asrwt>
<pdfrwt beam="1">  1        2 0.48587550E-01 0.69180615E+02</pdfrwt>
<pdfrwt beam="2">  1        2 0.90871183E-01 0.12800088E+03</pdfrwt>
<totfact> 0.83314423E+02</totfact>
</mgrwt>
</event>
<event>
 5    1  0.4149151E-003  0.3134694E+02  0.7546771E-02  0.1650528E+00
          3   -1    0    0  502    0 -0.00000000000E+00  0.00000000000E+00  0.87180991146E+03  0.87180991146E+03  0.00000000000E+00 0. -1.
          1   -1    0    0  501    0  0.00000000000E+00 -0.00000000000E+00 -0.24789621751E+03  0.24789621751E+03  0.00000000000E+00 0. -1.
         25    1    1    2    0    0 -0.64135339851E+01 -0.49780242671E+02  0.40494224510E+03  0.42675804368E+03  0.12500000000E+03 0.  0.
          1    1    1    2  501    0  0.85302038646E+01  0.19346828333E+02 -0.23600487771E+03  0.23695013494E+03  0.00000000000E+00 0. -1.
          3    1    1    2  502    0 -0.21166698794E+01  0.30433414338E+02  0.45497632656E+03  0.45599795035E+03  0.00000000000E+00 0. -1.
<mgrwt>
<rscale>  0 0.25744832E+02</rscale>
<asrwt>0</asrwt>
<pdfrwt beam="2">  1        1 0.38137880E-01 0.21143891E+02</pdfrwt>
<pdfrwt beam="1">  1        3 0.13412460E+00 0.31346943E+02</pdfrwt>
<totfact> 0.26286670E+01</totfact>
</mgrwt>
</event>
<event>
 5    1  0.4585498E-003  0.6296412E+02  0.7546771E-02  0.1399555E+00
         -1   -1    0    0    0  501 -0.00000000000E+00  0.00000000000E+00  0.19758578594E+02  0.19758578594E+02  0.00000000000E+00 0.  1.
          2   -1    0    0  502    0  0.00000000000E+00 -0.00000000000E+00 -0.10607714477E+04  0.10607714477E+04  0.00000000000E+00 0. -1.
         25    1    1    2    0    0  0.58621738401E+02 -0.78919760345E+02 -0.48986654211E+03  0.51503307259E+03  0.12500000000E+03 0.  0.
          2    1    1    2  502    0 -0.54196756430E+02  0.22694491159E+02 -0.39764436318E+03  0.40196189857E+03  0.00000000000E+00 0. -1.
         -1    1    1    2    0  501 -0.44249819713E+01  0.56225269187E+02 -0.15350196385E+03  0.16353505516E+03  0.00000000000E+00 0.  1.
<mgrwt>
<rscale>  0 0.59591285E+02</rscale>
<asrwt>0</asrwt>
<pdfrwt beam="2">  1        2 0.16319568E+00 0.62964119E+02</pdfrwt>
<pdfrwt beam="1">  1       -1 0.30397800E-02 0.56399126E+02</pdfrwt>
<totfact> 0.92266006E+03</totfact>
</mgrwt>
</event>
<event>
 5    1  0.4149151E-003  0.6516320E+02  0.7546771E-02  0.1454860E+00
          1   -1    0    0  502    0  0.00000000000E+00  0.00000000000E+00  0.29750036240E+04  0.29750036240E+04  0.00000000000E+00 0. -1.
         -2   -1    0    0    0  501 -0.00000000000E+00 -0.00000000000E+00 -0.11115600025E+02  0.11115600025E+02  0.00000000000E+00 0.  1.
         25    1    1    2    0    0  0.63157269706E+01 -0.85550659562E+02  0.26054967098E+04  0.26099036205E+04  0.12500000000E+03 0.  0.
          1    1    1    2  502    0  0.22372952210E+02  0.27906182071E+02  0.22804665020E+03  0.23083452657E+03  0.00000000000E+00 0. -1.
         -2    1    1    2    0  501 -0.28688679180E+02  0.57644477492E+02  0.13034466401E+03  0.14538107695E+03  0.00000000000E+00 0.  1.
<mgrwt>
<rscale>  0 0.48277484E+02</rscale>
<asrwt>0</asrwt>
<pdfrwt beam="1">  1        1 0.45769223E+00 0.35767359E+02</pdfrwt>
<pdfrwt beam="2">  1       -2 0.17100947E-02 0.65163196E+02</pdfrwt>
<totfact> 0.76006339E+02</totfact>
</mgrwt>
</event>
<event>
 5    1  0.4149151E-003  0.2366289E+02  0.7546771E-02  0.1682629E+00
         -3   -1    0    0    0  501  0.00000000000E+00  0.00000000000E+00  0.58459593459E+02  0.58459593459E+02  0.00000000000E+00 0.  1.
         -3   -1    0    0    0  502 -0.00000000000E+00 -0.00000000000E+00 -0.63439769643E+03  0.63439769643E+03  0.00000000000E+00 0.  1.
         25    1    1    2    0    0  0.24459318242E+02 -0.25812825862E+02 -0.18371468244E+03  0.22503476347E+03  0.12500000000E+03 0.  0.
         -3    1    1    2    0  502 -0.23345487277E+02  0.22394771067E+01 -0.42598518606E+03  0.42663029168E+03  0.00000000000E+00 0.  1.
         -3    1    1    2    0  501 -0.11138309645E+01  0.23573348755E+02  0.33761765529E+02  0.41192234736E+02  0.00000000000E+00 0.  1.
<mgrwt>
<rscale>  0 0.23557538E+02</rscale>
<asrwt>0</asrwt>
<pdfrwt beam="1">  1       -3 0.89937837E-02 0.23662889E+02</pdfrwt>
<pdfrwt beam="2">  1       -3 0.97599645E-01 0.23452655E+02</pdfrwt>
<totfact> 0.14187110E+02</totfact>
</mgrwt>
</event>
<event>
 5    1  0.4149151E-003  0.5367382E+02  0.7546771E-02  0.1560901E+00
         -2   -1    0    0    0  501 -0.00000000000E+00  0.00000000000E+00  0.43625394381E+02  0.43625394381E+02  0.00000000000E+00 0.  1.
          1   -1    0    0  502    0  0.00000000000E+00 -0.00000000000E+00 -0.31744136111E+03  0.31744136111E+03  0.00000000000E+00 0. -1.
         25    1    1    2    0    0 -0.23010914730E+02 -0.28497925365E+02 -0.91580480334E+02  0.15922819576E+03  0.12500000000E+03 0.  0.
          1    1    1    2  502    0  0.26789469312E+02  0.49256627106E+02 -0.16600463430E+03  0.17521823418E+03  0.00000000000E+00 0. -1.
         -2    1    1    2    0  501 -0.37785545824E+01 -0.20758701741E+02 -0.16230852094E+02  0.26620325550E+02  0.00000000000E+00 0.  1.
<mgrwt>
<rscale>  0 0.33652731E+02</rscale>
<asrwt>0</asrwt>
<pdfrwt beam="2">  1        1 0.48837131E-01 0.53673817E+02</pdfrwt>
<pdfrwt beam="1">  1       -2 0.67115993E-02 0.21099791E+02</pdfrwt>
<totfact> 0.70268954E+03</totfact>
</mgrwt>
</event>
<event>
 5    1  0.4149151E-003  0.1184416E+03  0.7546771E-02  0.1369434E+00
         -3   -1    0    0    0  501 -0.00000000000E+00  0.00000000000E+00  0.73158538705E+03  0.73158538705E+03  0.00000000000E+00 0.  1.
          2   -1    0    0  502    0  0.00000000000E+00 -0.00000000000E+00 -0.19980068824E+03  0.19980068824E+03  0.00000000000E+00 0. -1.
         25    1    1    2    0    0  0.33218995365E+01  0.11787868735E+03  0.16990482608E+03  0.24165899502E+03  0.12500000000E+03 0.  0.
          2    1    1    2  502    0  0.37846602942E+02 -0.56701203622E+01 -0.15477055810E+03  0.15943161943E+03  0.00000000000E+00 0. -1.
         -3    1    1    2    0  501 -0.41168502479E+02 -0.11220856699E+03  0.51665043084E+03  0.53029546084E+03  0.00000000000E+00 0.  1.
<mgrwt>
<rscale>  0 0.67324885E+02</rscale>
<asrwt>0</asrwt>
<pdfrwt beam="2">  1        2 0.30738568E-01 0.38268990E+02</pdfrwt>
<pdfrwt beam="1">  1       -3 0.11255160E+00 0.11844159E+03</pdfrwt>
<totfact> 0.68812317E+01</totfact>
</mgrwt>
</event>
<event>
 5    1  0.4149151E-003  0.1868189E+03  0.7546771E-02  0.1215305E+00
         -3   -1    0    0    0  501 -0.00000000000E+00  0.00000000000E+00  0.27769211642E+03  0.27769211642E+03  0.00000000000E+00 0.  1.
          2   -1    0    0  502    0  0.00000000000E+00 -0.00000000000E+00 -0.12334484703E+04  0.12334484703E+04  0.00000000000E+00 0. -1.
         25    1    1    2    0    0 -0.15453083552E+03  0.40571402703E+02  0.66366779350E+01  0.20296517765E+03  0.12500000000E+03 0.  0.
          2    1    1    2  502    0  0.12937115102E+03 -0.14018278937E+03 -0.11111405228E+04  0.11273958358E+04  0.00000000000E+00 0. -1.
         -3    1    1    2    0  501  0.25159684506E+02  0.99611386671E+02  0.14874749092E+03  0.18077957333E+03  0.00000000000E+00 0.  1.
<mgrwt>
<rscale>  0 0.13854138E+03</rscale>
<asrwt>0</asrwt>
<pdfrwt beam="2">  1        2 0.18976130E+00 0.18681894E+03</pdfrwt>
<pdfrwt beam="1">  1       -3 0.42721864E-01 0.10273966E+03</pdfrwt>
<totfact> 0.64047719E+01</totfact>
</mgrwt>
</event>
<event>
 5    1  0.4149151E-003  0.2585531E+03  0.7546771E-02  0.1271233E+00
         -2   -1    0    0    0  501 -0.00000000000E+00  0.00000000000E+00  0.12121062239E+04  0.12121062239E+04  0.00000000000E+00 0.  1.
          2   -1    0    0  502    0  0.00000000000E+00 -0.00000000000E+00 -0.38537444653E+03  0.38537444653E+03  0.00000000000E+00 0. -1.
         25    1    1    2    0    0 -0.34927604776E+02 -0.21667897960E+03 -0.19719217386E+03  0.32043637622E+03  0.12500000000E+03 0.  0.
          2    1    1    2  502    0  0.25745122743E+01 -0.42106393914E+02 -0.10774693622E+03  0.11571075485E+03  0.00000000000E+00 0. -1.
         -2    1    1    2    0  501  0.32353092502E+02  0.25878537351E+03  0.11316708874E+04  0.11613335393E+04  0.00000000000E+00 0.  1.
<mgrwt>
<rscale>  0 0.10443691E+03</rscale>
<asrwt>0</asrwt>
<pdfrwt beam="2">  1        2 0.59288377E-01 0.42185027E+02</pdfrwt>
<pdfrwt beam="1">  1       -2 0.18647788E+00 0.25855306E+03</pdfrwt>
<totfact> 0.14948662E+01</totfact>
</mgrwt>
</event>
<event>
 5    1  0.4149151E-003  0.2834707E+02  0.7546771E-02  0.1675189E+00
          2   -1    0    0  502    0  0.00000000000E+00  0.00000000000E+00  0.56498578081E+03  0.56498578081E+03  0.00000000000E+00 0.  1.
         -2   -1    0    0    0  501 -0.00000000000E+00 -0.00000000000E+00 -0.34600180744E+02  0.34600180744E+02  0.00000000000E+00 0. -1.
         25    1    1    2    0    0  0.15616830148E+01 -0.19216367449E+02  0.10557230720E+03  0.16474895957E+03  0.12500000000E+03 0.  0.
          2    1    1    2  502    0  0.19120365429E+02 -0.70739640131E+01  0.37042432819E+03  0.37098492187E+03  0.00000000000E+00 0.  1.
         -2    1    1    2    0  501 -0.20682048444E+02  0.26290331463E+02  0.54388964675E+02  0.63852080112E+02  0.00000000000E+00 0. -1.
<mgrwt>
<rscale>  0 0.24039788E+02</rscale>
<asrwt>0</asrwt>
<pdfrwt beam="1">  1        2 0.86920883E-01 0.20386990E+02</pdfrwt>
<pdfrwt beam="2">  1       -2 0.53231051E-02 0.28347069E+02</pdfrwt>
<totfact> 0.80607515E+03</totfact>
</mgrwt>
</event>
<event>
 5    1  0.4149151E-003  0.1132487E+03  0.7546771E-02  0.1365280E+00
          2   -1    0    0  501    0  0.00000000000E+00  0.00000000000E+00  0.27226006822E+03  0.27226006822E+03  0.00000000000E+00 0. -1.
          2   -1    0    0  502    0 -0.00000000000E+00 -0.00000000000E+00 -0.13477169919E+04  0.13477169919E+04  0.00000000000E+00 0.  1.
         25    1    1    2    0    0 -0.11157449820E+03 -0.89892344301E+02 -0.17956197700E+02  0.19098933805E+03  0.12500000000E+03 0.  0.
          2    1    1    2  501    0  0.41379805408E+02  0.20277660656E+01  0.18085314923E+03  0.18553776359E+03  0.00000000000E+00 0. -1.
          2    1    1    2  502    0  0.70194692793E+02  0.87864578235E+02 -0.12383538752E+04  0.12434499585E+04  0.00000000000E+00 0.  1.
<mgrwt>
<rscale>  0 0.68496962E+02</rscale>
<asrwt>0</asrwt>
<pdfrwt beam="1">  1        2 0.41886165E-01 0.41429460E+02</pdfrwt>
<pdfrwt beam="2">  1        2 0.20734107E+00 0.11324873E+03</pdfrwt>
<totfact> 0.32493884E+02</totfact>
</mgrwt>
</event>
<event>
 5    1  0.4149151E-003  0.5595546E+02  0.7546771E-02  0.1491139E+00
         -2   -1    0    0    0  501 -0.00000000000E+00  0.00000000000E+00  0.31267802130E+03  0.31267802130E+03  0.00000000000E+00 0.  1.
          1   -1    0    0  502    0  0.00000000000E+00 -0.00000000000E+00 -0.49493964207E+02  0.49493964207E+02  0.00000000000E+00 0. -1.
         25    1    1    2    0    0 -0.29948278206E+02 -0.47406396888E+02  0.20874988282E+03  0.24969136831E+03  0.12500000000E+03 0.  0.
          1    1    1    2  502    0 -0.24461120670E+02  0.20870845802E+02  0.37950735101E+02  0.49741299979E+02  0.00000000000E+00 0. -1.
         -2    1    1    2    0  501  0.54409398876E+02  0.26535551086E+02  0.16483439174E+02  0.62739317214E+02  0.00000000000E+00 0.  1.
<mgrwt>
<rscale>  0 0.42417487E+02</rscale>
<asrwt>0</asrwt>
<pdfrwt beam="2">  1        1 0.76144562E-02 0.32154916E+02</pdfrwt>
<pdfrwt beam="1">  1       -2 0.48104310E-01 0.55955461E+02</pdfrwt>
<totfact> 0.28671438E+03</totfact>
</mgrwt>
</event>
<event>
 5    1  0.4149151E-003  0.1198988E+03  0.7546771E-02  0.1324190E+00
          2   -1    0    0  501    0  0.00000000000E+00  0.00000000000E+00  0.76710326866E+03  0.76710326866E+03  0.00000000000E+00 0. -1.
          1   -1    0    0  502    0 -0.00000000000E+00 -0.00000000000E+00 -0.43664859582E+03  0.43664859582E+03  0.00000000000E+00 0. -1.
         25    1    1    2    0    0 -0.62527044507E+02 -0.52854128480E+02 -0.11703068296E+03  0.18980087182E+03  0.12500000000E+03 0.  0.
          2    1    1    2  501    0 -0.46113245947E+02 -0.31282541878E+02  0.71290051030E+03  0.71507493766E+03  0.00000000000E+00 0. -1.
          1    1    1    2  502    0  0.10864029045E+03  0.84136670358E+02 -0.26541515451E+03  0.29887605500E+03  0.00000000000E+00 0. -1.
<mgrwt>
<rscale>  0 0.81737954E+02</rscale>
<asrwt>0</asrwt>
<pdfrwt beam="1">  1        2 0.11801589E+00 0.55722786E+02</pdfrwt>
<pdfrwt beam="2">  1        1 0.67176707E-01 0.11989876E+03</pdfrwt>
<totfact> 0.29659715E+02</totfact>
</mgrwt>
</event>
<event>
 5    1  0.4149151E-003  0.7091317E+02  0.7546771E-02  0.1418440E+00
         -3   -1    0    0    0  501 -0.00000000000E+00  0.00000000000E+00  0.19340625648E+02  0.19340625648E+02  0.00000000000E+00 0.  1.
          1   -1    0    0  502    0  0.00000000000E+00 -0.00000000000E+00 -0.24724242672E+04  0.24724242672E+04  0.00000000000E+00 0. -1.
         25    1    1    2    0    0  0.41720471026E+02  0.27494251204E+02 -0.31500993580E+03  0.34256793662E+03  0.12500000000E+03 0.  0.
          1    1    1    2  502    0 -0.72242667337E+02  0.30863814623E+01 -0.20482108180E+04  0.20494867854E+04  0.00000000000E+00 0. -1.
         -3    1    1    2    0  501  0.30522196311E+02 -0.30580632666E+02 -0.89862887783E+02  0.99710170808E+02  0.00000000000E+00 0.  1.
<mgrwt>
<rscale>  0 0.55352434E+02</rscale>
<asrwt>0</asrwt>
<pdfrwt beam="2">  1        1 0.38037310E+00 0.70913174E+02</pdfrwt>
<pdfrwt beam="1">  1       -3 0.29754798E-02 0.43206244E+02</pdfrwt>
<totfact> 0.43341535E+02</totfact>
</mgrwt>
</event>
<event>
 5    1  0.4149151E-003  0.6347573E+02  0.7546771E-02  0.1476455E+00
          1   -1    0    0  502    0  0.00000000000E+00  0.00000000000E+00  0.37912295436E+03  0.37912295436E+03  0.00000000000E+00 0. -1.
          1   -1    0    0  501    0 -0.00000000000E+00 -0.00000000000E+00 -0.17283083591E+04  0.17283083591E+04  0.00000000000E+00 0. -1.
         25    1    1    2    0    0  0.93903003455E+01 -0.88582735795E+02 -0.42956579541E+03  0.45616537726E+03  0.12500000000E+03 0.  0.
          1    1    1    2  501    0  0.12095019360E+02  0.29005559631E+02 -0.12825077241E+04  0.12828926979E+04  0.00000000000E+00 0. -1.
          1    1    1    2  502    0 -0.21485319705E+02  0.59577176164E+02  0.36288811475E+03  0.36837323832E+03  0.00000000000E+00 0. -1.
<mgrwt>
<rscale>  0 0.44663264E+02</rscale>
<asrwt>0</asrwt>
<pdfrwt beam="1">  1        1 0.58326608E-01 0.63475734E+02</pdfrwt>
<pdfrwt beam="2">  1        1 0.26589360E+00 0.31426294E+02</pdfrwt>
<totfact> 0.51109460E+01</totfact>
</mgrwt>
</event>
<event>
 5    1  0.4149151E-003  0.1919070E+03  0.7546771E-02  0.1209675E+00
          2   -1    0    0  501    0  0.00000000000E+00  0.00000000000E+00  0.14492527843E+04  0.14492527843E+04  0.00000000000E+00 0.  1.
          1   -1    0    0  502    0 -0.00000000000E+00 -0.00000000000E+00 -0.99356546432E+03  0.99356546432E+03  0.00000000000E+00 0. -1.
         25    1    1    2    0    0  0.20607565315E+02 -0.94262579735E+02  0.34976000924E+02  0.16173566807E+03  0.12500000000E+03 0.  0.
          2    1    1    2  501    0  0.26518697822E+02 -0.10282114607E+03  0.13377318432E+04  0.13419396088E+04  0.00000000000E+00 0.  1.
          1    1    1    2  502    0 -0.47126263137E+02  0.19708372580E+03 -0.91702052414E+03  0.93914297173E+03  0.00000000000E+00 0. -1.
<mgrwt>
<rscale>  0 0.14275084E+03</rscale>
<asrwt>0</asrwt>
<pdfrwt beam="1">  1        2 0.22296197E+00 0.10618582E+03</pdfrwt>
<pdfrwt beam="2">  1        1 0.15285623E+00 0.19190698E+03</pdfrwt>
<totfact> 0.35501941E+01</totfact>
</mgrwt>
</event>
<event>
 5    1  0.4149151E-003  0.4953053E+02  0.7546771E-02  0.1511524E+00
         -2   -1    0    0    0  501 -0.00000000000E+00  0.00000000000E+00  0.12766979967E+04  0.12766979967E+04  0.00000000000E+00 0.  1.
          2   -1    0    0  502    0  0.00000000000E+00 -0.00000000000E+00 -0.87088407646E+03  0.87088407646E+03  0.00000000000E+00 0. -1.
         25    1    1    2    0    0  0.70017703777E+02 -0.36084371159E+02 -0.95397334838E+02  0.17586987286E+03  0.12500000000E+03 0.  0.
          2    1    1    2  502    0 -0.46663770916E+02  0.14817898579E+02 -0.73423334237E+03  0.73586389957E+03  0.00000000000E+00 0. -1.
         -2    1    1    2    0  501 -0.23353932861E+02  0.21266472580E+02  0.12354445975E+04  0.12358483008E+04  0.00000000000E+00 0.  1.
<mgrwt>
<rscale>  0 0.39553336E+02</rscale>
<asrwt>0</asrwt>
<pdfrwt beam="2">  1        2 0.13398217E+00 0.49530533E+02</pdfrwt>
<pdfrwt beam="1">  1       -2 0.19641508E+00 0.31585899E+02</pdfrwt>
<totfact> 0.60665987E+00</totfact>
</mgrwt>
</event>
<event>
 5    1  0.4149151E-003  0.5249371E+02  0.7546771E-02  0.1450441E+00
          1   -1    0    0  502    0 -0.00000000000E+00  0.00000000000E+00  0.31639365440E+03  0.31639365440E+03  0.00000000000E+00 0. -1.
          2   -1    0    0  501    0  0.00000000000E+00 -0.00000000000E+00 -0.36354905683E+03  0.36354905683E+03  0.00000000000E+00 0. -1.
         25    1    1    2    0    0 -0.68579753108E+02  0.17086738531E+02  0.11091893002E+03  0.18144737035E+03  0.12500000000E+03 0.  0.
          2    1    1    2  501    0  0.21919309782E+02 -0.40286730439E+02 -0.32263635865E+03  0.32587988080E+03  0.00000000000E+00 0. -1.
          1    1    1    2  502    0  0.46660443325E+02  0.23199991908E+02  0.16456202619E+03  0.17261546009E+03  0.00000000000E+00 0. -1.
<mgrwt>
<rscale>  0 0.49066839E+02</rscale>
<asrwt>0</asrwt>
<pdfrwt beam="2">  1        2 0.55930624E-01 0.45863676E+02</pdfrwt>
<pdfrwt beam="1">  1        1 0.48675947E-01 0.52493714E+02</pdfrwt>
<totfact> 0.99204514E+02</totfact>
</mgrwt>
</event>
<event>
 5    1  0.4149151E-003  0.2118754E+03  0.7546771E-02  0.1269408E+00
         -1   -1    0    0    0  501 -0.00000000000E+00  0.00000000000E+00  0.13174961738E+04  0.13174961738E+04  0.00000000000E+00 0.  1.
          2   -1    0    0  502    0  0.00000000000E+00 -0.00000000000E+00 -0.33803582240E+03  0.33803582240E+03  0.00000000000E+00 0. -1.
         25    1    1    2    0    0 -0.24575281245E+03 -0.28332179303E+02  0.14974926652E+03  0.31503491875E+03  0.12500000000E+03 0.  0.
          2    1    1    2  502    0  0.20581039113E+03 -0.55769722050E+01 -0.21313425533E+03  0.29633634693E+03  0.00000000000E+00 0. -1.
         -1    1    1    2    0  501  0.39942421318E+02  0.33909151508E+02  0.10428453402E+04  0.10441607305E+04  0.00000000000E+00 0.  1.
<mgrwt>
<rscale>  0 0.10536220E+03</rscale>
<asrwt>0</asrwt>
<pdfrwt beam="2">  1        2 0.52005512E-01 0.21187538E+03</pdfrwt>
<pdfrwt beam="1">  1       -1 0.20269172E+00 0.52394919E+02</pdfrwt>
<totfact> 0.20423712E+01</totfact>
</mgrwt>
</event>
<event>
 5    1  0.4149151E-003  0.1426132E+03  0.7546771E-02  0.1302749E+00
          1   -1    0    0  502    0 -0.00000000000E+00  0.00000000000E+00  0.10494762156E+04  0.10494762156E+04  0.00000000000E+00 0. -1.
          2   -1    0    0  501    0  0.00000000000E+00 -0.00000000000E+00 -0.37365681665E+03  0.37365681665E+03  0.00000000000E+00 0.  1.
         25    1    1    2    0    0  0.10251324830E+03  0.23967848847E+02  0.22427915422E+03  0.27750596907E+03  0.12500000000E+03 0.  0.
          2    1    1    2  501    0 -0.12314855204E+03 -0.76941387471E+02 -0.33077724343E+03  0.36124663008E+03  0.00000000000E+00 0.  1.
          1    1    1    2  502    0  0.20635303738E+02  0.52973538624E+02  0.78231748811E+03  0.78438043305E+03  0.00000000000E+00 0. -1.
<mgrwt>
<rscale>  0 0.90042624E+02</rscale>
<asrwt>0</asrwt>
<pdfrwt beam="2">  1        2 0.57485664E-01 0.14261324E+03</pdfrwt>
<pdfrwt beam="1">  1        1 0.16145788E+00 0.56850783E+02</pdfrwt>
<totfact> 0.19244686E+02</totfact>
</mgrwt>
</event>
<event>
 5    1  0.4149151E-003  0.1007012E+03  0.7546771E-02  0.1466758E+00
          1   -1    0    0  502    0  0.00000000000E+00  0.00000000000E+00  0.14117672131E+04  0.14117672131E+04  0.00000000000E+00 0. -1.
         -3   -1    0    0    0  501 -0.00000000000E+00 -0.00000000000E+00 -0.33752761188E+02  0.33752761188E+02  0.00000000000E+00 0.  1.
         25    1    1    2    0    0  0.20397965488E+02 -0.80410546716E+02  0.91730883047E+03  0.92949578992E+03  0.12500000000E+03 0.  0.
          1    1    1    2  502    0  0.13458420338E+02 -0.16419840443E+02  0.39197235070E+03  0.39254689395E+03  0.00000000000E+00 0. -1.
         -3    1    1    2    0  501 -0.33856385827E+02  0.96830387159E+02  0.68733270711E+02  0.12347729039E+03  0.00000000000E+00 0.  1.
<mgrwt>
<rscale>  0 0.46237976E+02</rscale>
<asrwt>0</asrwt>
<pdfrwt beam="1">  1        1 0.21719491E+00 0.21230644E+02</pdfrwt>
<pdfrwt beam="2">  1       -3 0.51927336E-02 0.10070116E+03</pdfrwt>
<totfact> 0.11141333E+03</totfact>
</mgrwt>
</event>
<event>
 5    1  0.4149151E-003  0.1885332E+03  0.7546771E-02  0.1229323E+00
         -3   -1    0    0    0  501 -0.00000000000E+00  0.00000000000E+00  0.14916625468E+03  0.14916625468E+03  0.00000000000E+00 0.  1.
          1   -1    0    0  502    0  0.00000000000E+00 -0.00000000000E+00 -0.23934289021E+04  0.23934289021E+04  0.00000000000E+00 0. -1.
         25    1    1    2    0    0  0.40402831590E+02  0.10611992817E+03 -0.82053602410E+02  0.18775415208E+03  0.12500000000E+03 0.  0.
          1    1    1    2  502    0 -0.26571691710E+02 -0.19294873592E+03 -0.22332972810E+04  0.22417743006E+04  0.00000000000E+00 0. -1.
         -3    1    1    2    0  501 -0.13831139880E+02  0.86828807751E+02  0.71088235978E+02  0.11306670412E+03  0.00000000000E+00 0.  1.
<mgrwt>
<rscale>  0 0.12874974E+03</rscale>
<asrwt>0</asrwt>
<pdfrwt beam="2">  1        1 0.36821980E+00 0.18853316E+03</pdfrwt>
<pdfrwt beam="1">  1       -3 0.22948656E-01 0.87923502E+02</pdfrwt>
<totfact> 0.17549307E+01</totfact>
</mgrwt>
</event>
<event>
 5    1  0.4149151E-003  0.1223989E+03  0.7546771E-02  0.1428833E+00
          2   -1    0    0  502    0  0.00000000000E+00  0.00000000000E+00  0.13594481344E+04  0.13594481344E+04  0.00000000000E+00 0. -1.
          2   -1    0    0  501    0 -0.00000000000E+00 -0.00000000000E+00 -0.46324262492E+03  0.46324262492E+03  0.00000000000E+00 0. -1.
         25    1    1    2    0    0 -0.58879787696E+02  0.88110543453E+02  0.90237967411E+02  0.18707802658E+03  0.12500000000E+03 0.  0.
          2    1    1    2  501    0  0.81508799711E+02 -0.92843885123E+02 -0.40551094965E+03  0.42391367249E+03  0.00000000000E+00 0. -1.
          2    1    1    2  502    0 -0.22629012016E+02  0.47333416698E+01  0.12114784917E+04  0.12116990603E+04  0.00000000000E+00 0. -1.
<mgrwt>
<rscale>  0 0.53195009E+02</rscale>
<asrwt>0</asrwt>
<pdfrwt beam="1">  1        2 0.20914587E+00 0.23118752E+02</pdfrwt>
<pdfrwt beam="2">  1        2 0.71268097E-01 0.12239886E+03</pdfrwt>
<totfact> 0.20902874E+02</totfact>
</mgrwt>
</event>
<event>
 5    1  0.4149151E-003  0.6915748E+02  0.7546771E-02  0.1468613E+00
          2   -1    0    0  501    0  0.00000000000E+00  0.00000000000E+00  0.20484926654E+04  0.20484926654E+04  0.00000000000E+00 0. -1.
          2   -1    0    0  502    0 -0.00000000000E+00 -0.00000000000E+00 -0.78809539560E+03  0.78809539560E+03  0.00000000000E+00 0. -1.
         25    1    1    2    0    0 -0.83120086424E+02  0.54119605123E+02  0.40354999190E+03  0.43395331130E+03  0.12500000000E+03 0.  0.
          2    1    1    2  501    0  0.27495167514E+02 -0.13212140738E+02  0.16280557380E+04  0.16283414970E+04  0.00000000000E+00 0. -1.
          2    1    1    2  502    0  0.55624918909E+02 -0.40907464385E+02 -0.77120846009E+03  0.77429325269E+03  0.00000000000E+00 0. -1.
<mgrwt>
<rscale>  0 0.45930790E+02</rscale>
<asrwt>0</asrwt>
<pdfrwt beam="1">  1        2 0.31515271E+00 0.30504834E+02</pdfrwt>
<pdfrwt beam="2">  1        2 0.12124545E+00 0.69157479E+02</pdfrwt>
<totfact> 0.53377126E+01</totfact>
</mgrwt>
</event>
<event>
 5    1  0.4149151E-003  0.5417171E+02  0.7546771E-02  0.1475606E+00
          1   -1    0    0  502    0 -0.00000000000E+00  0.00000000000E+00  0.15600225644E+04  0.15600225644E+04  0.00000000000E+00 0.  1.
          2   -1    0    0  501    0  0.00000000000E+00 -0.00000000000E+00 -0.12195705924E+04  0.12195705924E+04  0.00000000000E+00 0.  1.
         25    1    1    2    0    0 -0.90877119338E+02 -0.77059027891E+00  0.35886716385E+03  0.39072993988E+03  0.12500000000E+03 0.  0.
          2    1    1    2  501    0  0.54027047030E+02 -0.30387433941E+01 -0.12027412320E+04  0.12039579008E+04  0.00000000000E+00 0.  1.
          1    1    1    2  502    0  0.36850072308E+02  0.38093336730E+01  0.11843260402E+04  0.11849053162E+04  0.00000000000E+00 0.  1.
<mgrwt>
<rscale>  0 0.44798093E+02</rscale>
<asrwt>0</asrwt>
<pdfrwt beam="2">  1        2 0.18762624E+00 0.54171711E+02</pdfrwt>
<pdfrwt beam="1">  1        1 0.24000347E+00 0.37046442E+02</pdfrwt>
<totfact> 0.23713049E+01</totfact>
</mgrwt>
</event>
<event>
 5    1  0.4149151E-003  0.7238431E+02  0.7546771E-02  0.1398054E+00
          1   -1    0    0  502    0 -0.00000000000E+00  0.00000000000E+00  0.56858202287E+03  0.56858202287E+03  0.00000000000E+00 0. -1.
          2   -1    0    0  501    0  0.00000000000E+00 -0.00000000000E+00 -0.13853401799E+04  0.13853401799E+04  0.00000000000E+00 0.  1.
         25    1    1    2    0    0 -0.69164562122E+02 -0.52961854194E+02  0.10147264043E+03  0.18305843714E+03  0.12500000000E+03 0.  0.
          2    1    1    2  501    0  0.47024482205E+02 -0.15922139173E+02 -0.13410146091E+04  0.13419333062E+04  0.00000000000E+00 0.  1.
          1    1    1    2  502    0  0.22140079917E+02  0.68883993367E+02  0.42278381162E+03  0.42893045946E+03  0.00000000000E+00 0. -1.
<mgrwt>
<rscale>  0 0.59947125E+02</rscale>
<asrwt>0</asrwt>
<pdfrwt beam="2">  1        2 0.21312925E+00 0.49646918E+02</pdfrwt>
<pdfrwt beam="1">  1        1 0.87474159E-01 0.72384307E+02</pdfrwt>
<totfact> 0.96708717E+01</totfact>
</mgrwt>
</event>
<event>
 5    1  0.4149151E-003  0.9981852E+02  0.7546771E-02  0.1448937E+00
          2   -1    0    0  502    0  0.00000000000E+00  0.00000000000E+00  0.18621115397E+03  0.18621115397E+03  0.00000000000E+00 0. -1.
         -1   -1    0    0    0  501 -0.00000000000E+00 -0.00000000000E+00 -0.22659510889E+03  0.22659510889E+03  0.00000000000E+00 0.  1.
         25    1    1    2    0    0 -0.10004732310E+03 -0.21795950072E+01  0.12533586187E+03  0.20334280357E+03  0.12500000000E+03 0.  0.
          2    1    1    2  502    0  0.98694269234E+02 -0.22171046476E+02 -0.14821659001E+03  0.17944434133E+03  0.00000000000E+00 0. -1.
         -1    1    1    2    0  501  0.13530538636E+01  0.24350641483E+02 -0.17503226783E+02  0.30019117962E+02  0.00000000000E+00 0.  1.
<mgrwt>
<rscale>  0 0.49339584E+02</rscale>
<asrwt>0</asrwt>
<pdfrwt beam="1">  1        2 0.28647870E-01 0.99818524E+02</pdfrwt>
<pdfrwt beam="2">  1       -1 0.34860786E-01 0.24388204E+02</pdfrwt>
<totfact> 0.15672825E+03</totfact>
</mgrwt>
</event>
<event>
 5    1  0.4149151E-003  0.4592205E+02  0.7546771E-02  0.1550186E+00
          2   -1    0    0  502    0  0.00000000000E+00  0.00000000000E+00  0.31739755503E+04  0.31739755503E+04  0.00000000000E+00 0. -1.
         -1   -1    0    0    0  501 -0.00000000000E+00 -0.00000000000E+00 -0.45579393252E+01  0.45579393252E+01  0.00000000000E+00 0.  1.
         25    1    1    2    0    0  0.56649843116E+02 -0.17574013740E+02  0.20684872964E+04  0.20731094390E+04  0.12500000000E+03 0.  0.
          2    1    1    2  502    0 -0.43658360999E+02 -0.54141898632E+01  0.10039457291E+04  0.10049091466E+04  0.00000000000E+00 0. -1.
         -1    1    1    2    0  501 -0.12991482117E+02  0.22988203603E+02  0.96984585418E+02  0.10051490398E+03  0.00000000000E+00 0.  1.
<mgrwt>
<rscale>  0 0.34822151E+02</rscale>
<asrwt>0</asrwt>
<pdfrwt beam="1">  1        2 0.48830216E+00 0.45922048E+02</pdfrwt>
<pdfrwt beam="2">  1       -1 0.70122397E-03 0.26405229E+02</pdfrwt>
<totfact> 0.51739079E+03</totfact>
</mgrwt>
</event>
<event>
 5    1  0.4149151E-003  0.2464552E+03  0.7546771E-02  0.1204407E+00
          1   -1    0    0  502    0  0.00000000000E+00  0.00000000000E+00  0.10730513654E+04  0.10730513654E+04  0.00000000000E+00 0. -1.
         -2   -1    0    0    0  501 -0.00000000000E+00 -0.00000000000E+00 -0.58780695208E+03  0.58780695208E+03  0.00000000000E+00 0.  1.
         25    1    1    2    0    0  0.24344101829E+03  0.59762758159E+01  0.23523210982E+02  0.27473184511E+03  0.12500000000E+03 0.  0.
          1    1    1    2  502    0 -0.23080480363E+03 -0.92550992547E+02  0.90281692428E+03  0.93643736703E+03  0.00000000000E+00 0. -1.
         -2    1    1    2    0  501 -0.12636214659E+02  0.86574716731E+02 -0.44109572197E+03  0.44968910531E+03  0.00000000000E+00 0.  1.
<mgrwt>
<rscale>  0 0.14684298E+03</rscale>
<asrwt>0</asrwt>
<pdfrwt beam="1">  1        1 0.16508482E+00 0.24645515E+03</pdfrwt>
<pdfrwt beam="2">  1       -2 0.90431839E-01 0.87492031E+02</pdfrwt>
<totfact> 0.14132898E+01</totfact>
</mgrwt>
</event>
<event>
 5    1  0.4149151E-003  0.1561608E+03  0.7546771E-02  0.1223246E+00
          1   -1    0    0  502    0  0.00000000000E+00  0.00000000000E+00  0.17053944709E+04  0.17053944709E+04  0.00000000000E+00 0. -1.
         -2   -1    0    0    0  501 -0.00000000000E+00 -0.00000000000E+00 -0.12021480262E+03  0.12021480262E+03  0.00000000000E+00 0.  1.
         25    1    1    2    0    0  0.66529951114E+02  0.10327355783E+01  0.41334703359E+02  0.14751562168E+03  0.12500000000E+03 0.  0.
          1    1    1    2  502    0  0.11724692399E+03 -0.10314730059E+03  0.14309749981E+04  0.14394706152E+04  0.00000000000E+00 0. -1.
         -2    1    1    2    0  501 -0.18377687511E+03  0.10211456501E+03  0.11286996683E+03  0.23862303666E+03  0.00000000000E+00 0.  1.
<mgrwt>
<rscale>  0 0.13287827E+03</rscale>
<asrwt>0</asrwt>
<pdfrwt beam="1">  1        1 0.26236836E+00 0.15616084E+03</pdfrwt>
<pdfrwt beam="2">  1       -2 0.18494586E-01 0.11306699E+03</pdfrwt>
<totfact> 0.11434962E+02</totfact>
</mgrwt>
</event>
<event>
 5    1  0.4149151E-003  0.1107438E+03  0.7546771E-02  0.1336252E+00
          2   -1    0    0  501    0  0.00000000000E+00  0.00000000000E+00  0.11156686358E+04  0.11156686358E+04  0.00000000000E+00 0. -1.
          1   -1    0    0  502    0 -0.00000000000E+00 -0.00000000000E+00 -0.32508240867E+03  0.32508240867E+03  0.00000000000E+00 0. -1.
         25    1    1    2    0    0  0.90128070899E+02  0.92328041765E+02 -0.65507626009E+02  0.19121659323E+03  0.12500000000E+03 0.  0.
          2    1    1    2  501    0 -0.53363518899E+02  0.98115806381E+01  0.10370750332E+04  0.10384934072E+04  0.00000000000E+00 0. -1.
          1    1    1    2  502    0 -0.36764552001E+02 -0.10213962240E+03 -0.18098118006E+03  0.21104104407E+03  0.00000000000E+00 0. -1.
<mgrwt>
<rscale>  0 0.77516044E+02</rscale>
<asrwt>0</asrwt>
<pdfrwt beam="1">  1        2 0.17164133E+00 0.54258016E+02</pdfrwt>
<pdfrwt beam="2">  1        1 0.50012679E-01 0.11074377E+03</pdfrwt>
<totfact> 0.26667670E+02</totfact>
</mgrwt>
</event>
<event>
 5    1  0.4149151E-003  0.3151452E+03  0.7546771E-02  0.1274027E+00
          2   -1    0    0  502    0  0.00000000000E+00  0.00000000000E+00  0.20381758428E+04  0.20381758428E+04  0.00000000000E+00 0. -1.
         -2   -1    0    0    0  501 -0.00000000000E+00 -0.00000000000E+00 -0.19299960924E+03  0.19299960924E+03  0.00000000000E+00 0.  1.
         25    1    1    2    0    0 -0.30054474949E+03  0.33050142159E+02  0.13881041438E+03  0.35540510616E+03  0.12500000000E+03 0.  0.
          2    1    1    2  502    0 -0.27556712090E+02  0.19383482426E+02  0.14642803463E+04  0.14646678888E+04  0.00000000000E+00 0. -1.
         -2    1    1    2    0  501  0.32810146158E+03 -0.52433624585E+02  0.24208547284E+03  0.41110245711E+03  0.00000000000E+00 0.  1.
<mgrwt>
<rscale>  0 0.10304171E+03</rscale>
<asrwt>0</asrwt>
<pdfrwt beam="1">  1        2 0.31356550E+00 0.33691123E+02</pdfrwt>
<pdfrwt beam="2">  1       -2 0.29692249E-01 0.31514515E+03</pdfrwt>
<totfact> 0.94504627E+01</totfact>
</mgrwt>
</event>
<event>
 5    1  0.4149151E-003  0.2088930E+03  0.7546771E-02  0.1276570E+00
          2   -1    0    0  502    0  0.00000000000E+00  0.00000000000E+00  0.16808710321E+04  0.16808710321E+04  0.00000000000E+00 0.  1.
         -1   -1    0    0    0  501 -0.00000000000E+00 -0.00000000000E+00 -0.92756223603E+03  0.92756223603E+03  0.00000000000E+00 0.  1.
         25    1    1    2    0    0  0.37574293998E+02 -0.24607030651E+03  0.12282685914E+03  0.30442381747E+03  0.12500000000E+03 0.  0.
          2    1    1    2  502    0 -0.88571037824E+01  0.20562489590E+03  0.14592829056E+04  0.14737254306E+04  0.00000000000E+00 0.  1.
         -1    1    1    2    0  501 -0.28717190216E+02  0.40445410609E+02 -0.82880096871E+03  0.83028402007E+03  0.00000000000E+00 0.  1.
<mgrwt>
<rscale>  0 0.10179305E+03</rscale>
<asrwt>0</asrwt>
<pdfrwt beam="1">  1        2 0.25859554E+00 0.20889296E+03</pdfrwt>
<pdfrwt beam="2">  1       -1 0.14270188E+00 0.49603510E+02</pdfrwt>
<totfact> 0.62103060E+00</totfact>
</mgrwt>
</event>
<event>
 5    1  0.4149151E-003  0.4576827E+03  0.7546771E-02  0.1025455E+00
         -1   -1    0    0    0  501 -0.00000000000E+00  0.00000000000E+00  0.18817558114E+03  0.18817558114E+03  0.00000000000E+00 0.  1.
          2   -1    0    0  502    0  0.00000000000E+00 -0.00000000000E+00 -0.27829515381E+03  0.27829515381E+03  0.00000000000E+00 0. -1.
         25    1    1    2    0    0  0.19629325189E+03 -0.39253516350E+02  0.11024215535E+01  0.23600443771E+03  0.12500000000E+03 0.  0.
          2    1    1    2  502    0 -0.17527984062E+03  0.18526072471E+02 -0.95782035616E+02  0.20060019002E+03  0.00000000000E+00 0. -1.
         -1    1    1    2    0  501 -0.21013411275E+02  0.20727443879E+02  0.45600413969E+01  0.29866107224E+02  0.00000000000E+00 0.  1.
<mgrwt>
<rscale>  0 0.45768265E+03</rscale>
<asrwt>0</asrwt>
<pdfrwt beam="2">  1        2 0.42814639E-01 0.45768265E+03</pdfrwt>
<pdfrwt beam="1">  1       -1 0.28950090E-01 0.45768265E+03</pdfrwt>
<totfact> 0.14753957E+03</totfact>
</mgrwt>
</event>
<event>
 5    1  0.4149151E-003  0.1693622E+03  0.7546771E-02  0.1214183E+00
         -2   -1    0    0    0  501 -0.00000000000E+00  0.00000000000E+00  0.16009379655E+03  0.16009379655E+03  0.00000000000E+00 0.  1.
          2   -1    0    0  502    0  0.00000000000E+00 -0.00000000000E+00 -0.60861549797E+03  0.60861549797E+03  0.00000000000E+00 0. -1.
         25    1    1    2    0    0 -0.31805626909E+02 -0.81791284824E+02 -0.18140777800E+03  0.23713960887E+03  0.12500000000E+03 0.  0.
          2    1    1    2  502    0 -0.29159188239E+02 -0.11091546778E+03 -0.30507179320E+03  0.32591609082E+03  0.00000000000E+00 0. -1.
         -2    1    1    2    0  501  0.60964815148E+02  0.19270675261E+03  0.37957869787E+02  0.20565359483E+03  0.00000000000E+00 0.  1.
<mgrwt>
<rscale>  0 0.13936714E+03</rscale>
<asrwt>0</asrwt>
<pdfrwt beam="2">  1        2 0.93633152E-01 0.11468435E+03</pdfrwt>
<pdfrwt beam="1">  1       -2 0.24629815E-01 0.16936225E+03</pdfrwt>
<totfact> 0.73444690E+02</totfact>
</mgrwt>
</event>
<event>
 5    1  0.4149151E-003  0.4833064E+02  0.7546771E-02  0.1501755E+00
          1   -1    0    0  502    0 -0.00000000000E+00  0.00000000000E+00  0.28368347246E+03  0.28368347246E+03  0.00000000000E+00 0. -1.
          2   -1    0    0  501    0  0.00000000000E+00 -0.00000000000E+00 -0.42168400541E+03  0.42168400541E+03  0.00000000000E+00 0. -1.
         25    1    1    2    0    0 -0.22368595962E+02  0.25447631166E+02 -0.21536224219E+03  0.25130426056E+03  0.12500000000E+03 0.  0.
          2    1    1    2  501    0 -0.26117999405E+02 -0.22688794432E+02 -0.18451039630E+03  0.18772591092E+03  0.00000000000E+00 0. -1.
          1    1    1    2  502    0  0.48486595366E+02 -0.27588367333E+01  0.26187210554E+03  0.26633730638E+03  0.00000000000E+00 0. -1.
<mgrwt>
<rscale>  0 0.40891080E+02</rscale>
<asrwt>0</asrwt>
<pdfrwt beam="2">  1        2 0.64874462E-01 0.34596695E+02</pdfrwt>
<pdfrwt beam="1">  1        1 0.43643612E-01 0.48330640E+02</pdfrwt>
<totfact> 0.97132916E+02</totfact>
</mgrwt>
</event>
<event>
 5    1  0.4149151E-003  0.7279325E+02  0.7546771E-02  0.1503273E+00
          2   -1    0    0  501    0  0.00000000000E+00  0.00000000000E+00  0.97122740556E+03  0.97122740556E+03  0.00000000000E+00 0. -1.
          1   -1    0    0  502    0 -0.00000000000E+00 -0.00000000000E+00 -0.39377727173E+03  0.39377727173E+03  0.00000000000E+00 0. -1.
         25    1    1    2    0    0 -0.86181978579E+01 -0.58604390756E+02  0.11527588933E+03  0.18006187440E+03  0.12500000000E+03 0.  0.
          2    1    1    2  501    0 -0.21186808189E+02 -0.82395551792E+01  0.81969381701E+03  0.82000897846E+03  0.00000000000E+00 0. -1.
          1    1    1    2  502    0  0.29805006047E+02  0.66843945935E+02 -0.35751957251E+03  0.36493382444E+03  0.00000000000E+00 0. -1.
<mgrwt>
<rscale>  0 0.40678984E+02</rscale>
<asrwt>0</asrwt>
<pdfrwt beam="1">  1        2 0.14941960E+00 0.22732600E+02</pdfrwt>
<pdfrwt beam="2">  1        1 0.60581119E-01 0.72793245E+02</pdfrwt>
<totfact> 0.26628960E+02</totfact>
</mgrwt>
</event>
<event>
 5    1  0.4149151E-003  0.7351268E+02  0.7546771E-02  0.1471479E+00
          2   -1    0    0  502    0  0.00000000000E+00  0.00000000000E+00  0.55344771044E+03  0.55344771044E+03  0.00000000000E+00 0. -1.
         -1   -1    0    0    0  501 -0.00000000000E+00 -0.00000000000E+00 -0.11108219967E+03  0.11108219967E+03  0.00000000000E+00 0.  1.
         25    1    1    2    0    0  0.38099563984E+01  0.83469938188E+02 -0.47291849332E+02  0.15761746528E+03  0.12500000000E+03 0.  0.
          2    1    1    2  502    0 -0.61013739145E+01 -0.27444503751E+02  0.40117718819E+03  0.40216111681E+03  0.00000000000E+00 0. -1.
         -1    1    1    2    0  501  0.22914175161E+01 -0.56025434437E+02  0.88480171914E+02  0.10475132801E+03  0.00000000000E+00 0.  1.
<mgrwt>
<rscale>  0 0.45461803E+02</rscale>
<asrwt>0</asrwt>
<pdfrwt beam="1">  1        2 0.85145800E-01 0.28114543E+02</pdfrwt>
<pdfrwt beam="2">  1       -1 0.17089570E-01 0.73512684E+02</pdfrwt>
<totfact> 0.16289417E+03</totfact>
</mgrwt>
</event>
<event>
 5    1  0.4149151E-003  0.1121867E+03  0.7546771E-02  0.1438663E+00
         -1   -1    0    0    0  501 -0.00000000000E+00  0.00000000000E+00  0.43479458624E+02  0.43479458624E+02  0.00000000000E+00 0.  1.
          2   -1    0    0  502    0  0.00000000000E+00 -0.00000000000E+00 -0.58053131625E+03  0.58053131625E+03  0.00000000000E+00 0. -1.
         25    1    1    2    0    0  0.10426569886E+03  0.38290722000E+02 -0.37564399212E+03  0.41118234905E+03  0.12500000000E+03 0.  0.
          2    1    1    2  502    0 -0.97523632135E+02 -0.60720740900E+02 -0.12755128805E+03  0.17166012432E+03  0.00000000000E+00 0. -1.
         -1    1    1    2    0  501 -0.67420667262E+01  0.22430018900E+02 -0.33856577457E+02  0.41168301504E+02  0.00000000000E+00 0.  1.
<mgrwt>
<rscale>  0 0.51259800E+02</rscale>
<asrwt>0</asrwt>
<pdfrwt beam="2">  1        2 0.89312509E-01 0.11218667E+03</pdfrwt>
<pdfrwt beam="1">  1       -1 0.66891475E-02 0.23421384E+02</pdfrwt>
<totfact> 0.55033073E+03</totfact>
</mgrwt>
</event>
<event>
 5    1  0.4149151E-003  0.9496637E+02  0.7546771E-02  0.1430139E+00
         -1   -1    0    0    0  501 -0.00000000000E+00  0.00000000000E+00  0.79049296776E+02  0.79049296776E+02  0.00000000000E+00 0.  1.
          2   -1    0    0  502    0  0.00000000000E+00 -0.00000000000E+00 -0.30130378315E+03  0.30130378315E+03  0.00000000000E+00 0. -1.
         25    1    1    2    0    0 -0.85935480614E+02 -0.57990420230E+02 -0.63398779058E+02  0.17433359072E+03  0.12500000000E+03 0.  0.
          2    1    1    2  502    0  0.89126590002E+02  0.28660442031E+02 -0.14687659985E+03  0.17417722459E+03  0.00000000000E+00 0. -1.
         -1    1    1    2    0  501 -0.31911093880E+01  0.29329978199E+02 -0.11979107466E+02  0.31842264617E+02  0.00000000000E+00 0.  1.
<mgrwt>
<rscale>  0 0.52932021E+02</rscale>
<asrwt>0</asrwt>
<pdfrwt beam="2">  1        2 0.46354428E-01 0.94966368E+02</pdfrwt>
<pdfrwt beam="1">  1       -1 0.12161430E-01 0.29503064E+02</pdfrwt>
<totfact> 0.48056824E+03</totfact>
</mgrwt>
</event>
<event>
 5    1  0.4149151E-003  0.1609451E+03  0.7546771E-02  0.1324733E+00
         -1   -1    0    0    0  501 -0.00000000000E+00  0.00000000000E+00  0.39168334816E+03  0.39168334816E+03  0.00000000000E+00 0.  1.
          1   -1    0    0  502    0  0.00000000000E+00 -0.00000000000E+00 -0.38162010763E+03  0.38162010763E+03  0.00000000000E+00 0. -1.
         25    1    1    2    0    0  0.17210841243E+03  0.83681888071E+02  0.12248219745E+03  0.25932769369E+03  0.12500000000E+03 0.  0.
          1    1    1    2  502    0 -0.13103730349E+03 -0.88138615224E+02 -0.29077825979E+03  0.33089452514E+03  0.00000000000E+00 0. -1.
         -1    1    1    2    0  501 -0.41071108941E+02  0.44567271534E+01  0.17835930287E+03  0.18308123696E+03  0.00000000000E+00 0.  1.
<mgrwt>
<rscale>  0 0.81541382E+02</rscale>
<asrwt>0</asrwt>
<pdfrwt beam="2">  1        1 0.58710786E-01 0.16094509E+03</pdfrwt>
<pdfrwt beam="1">  1       -1 0.60258976E-01 0.41312207E+02</pdfrwt>
<totfact> 0.19398583E+02</totfact>
</mgrwt>
</event>
<event>
 5    1  0.4149151E-003  0.5527120E+02  0.7546771E-02  0.1502175E+00
         -1   -1    0    0    0  501 -0.00000000000E+00  0.00000000000E+00  0.10052067268E+02  0.10052067268E+02  0.00000000000E+00 0.  1.
          2   -1    0    0  502    0  0.00000000000E+00 -0.00000000000E+00 -0.15347123499E+04  0.15347123499E+04  0.00000000000E+00 0. -1.
         25    1    1    2    0    0  0.13771551965E+02 -0.53145279605E+02 -0.63339620396E+03  0.64794276567E+03  0.12500000000E+03 0.  0.
          2    1    1    2  502    0 -0.40502809596E+02  0.39167411505E+02 -0.76218416950E+03  0.76426387586E+03  0.00000000000E+00 0. -1.
         -1    1    1    2    0  501  0.26731257631E+02  0.13977868101E+02 -0.12907990920E+03  0.13255777567E+03  0.00000000000E+00 0.  1.
<mgrwt>
<rscale>  0 0.40832198E+02</rscale>
<asrwt>0</asrwt>
<pdfrwt beam="2">  1        2 0.23610969E+00 0.55271203E+02</pdfrwt>
<pdfrwt beam="1">  1       -1 0.15464712E-02 0.30165227E+02</pdfrwt>
<totfact> 0.12244014E+04</totfact>
</mgrwt>
</event>
<event>
 5    1  0.4149151E-003  0.5840771E+02  0.7546771E-02  0.1504220E+00
         -2   -1    0    0    0  501 -0.00000000000E+00  0.00000000000E+00  0.13644716380E+02  0.13644716380E+02  0.00000000000E+00 0.  1.
          1   -1    0    0  502    0  0.00000000000E+00 -0.00000000000E+00 -0.95747224340E+03  0.95747224340E+03  0.00000000000E+00 0. -1.
         25    1    1    2    0    0  0.11210251332E+02  0.46719453222E+02 -0.62960898515E+03  0.64369313436E+03  0.12500000000E+03 0.  0.
          1    1    1    2  502    0 -0.23987027046E+02  0.14730123503E+02 -0.12252379761E+03  0.12571569109E+03  0.00000000000E+00 0. -1.
         -2    1    1    2    0  501  0.12776775714E+02 -0.61449576725E+02 -0.19169474426E+03  0.20170813433E+03  0.00000000000E+00 0.  1.
<mgrwt>
<rscale>  0 0.40547576E+02</rscale>
<asrwt>0</asrwt>
<pdfrwt beam="2">  1        1 0.14730346E+00 0.28148783E+02</pdfrwt>
<pdfrwt beam="1">  1       -2 0.20991866E-02 0.58407709E+02</pdfrwt>
<totfact> 0.10360202E+04</totfact>
</mgrwt>
</event>
<event>
 5    1  0.4149151E-003  0.9808666E+02  0.7546771E-02  0.1379273E+00
         -1   -1    0    0    0  501 -0.00000000000E+00  0.00000000000E+00  0.59404320536E+02  0.59404320536E+02  0.00000000000E+00 0.  1.
          1   -1    0    0  502    0  0.00000000000E+00 -0.00000000000E+00 -0.20472541786E+04  0.20472541786E+04  0.00000000000E+00 0. -1.
         25    1    1    2    0    0  0.55148739983E+01  0.66107396331E+02 -0.42001075634E+03  0.44320947319E+03  0.12500000000E+03 0.  0.
          1    1    1    2  502    0 -0.35187199674E+02 -0.96699609457E+02 -0.16041576145E+04  0.16074546979E+04  0.00000000000E+00 0. -1.
         -1    1    1    2    0  501  0.29672325676E+02  0.30592213126E+02  0.36318512740E+02  0.55994328129E+02  0.00000000000E+00 0.  1.
<mgrwt>
<rscale>  0 0.64655234E+02</rscale>
<asrwt>0</asrwt>
<pdfrwt beam="2">  1        1 0.31496218E+00 0.98086659E+02</pdfrwt>
<pdfrwt beam="1">  1       -1 0.91391264E-02 0.42618428E+02</pdfrwt>
<totfact> 0.21933250E+02</totfact>
</mgrwt>
</event>
<event>
 5    1  0.4149151E-003  0.4630279E+02  0.7546771E-02  0.1528248E+00
          2   -1    0    0  502    0  0.00000000000E+00  0.00000000000E+00  0.16263807691E+03  0.16263807691E+03  0.00000000000E+00 0. -1.
         -1   -1    0    0    0  501 -0.00000000000E+00 -0.00000000000E+00 -0.11190186213E+03  0.11190186213E+03  0.00000000000E+00 0.  1.
         25    1    1    2    0    0  0.96797157091E+01 -0.42987985477E+02 -0.47653012023E+02  0.14084556559E+03  0.12500000000E+03 0.  0.
          2    1    1    2  502    0  0.20524284080E+02  0.42271988972E+02  0.91266701662E+02  0.10265368050E+03  0.00000000000E+00 0. -1.
         -1    1    1    2    0  501 -0.30203999789E+02  0.71599650547E+00  0.71225251342E+01  0.31040692946E+02  0.00000000000E+00 0.  1.
<mgrwt>
<rscale>  0 0.37402169E+02</rscale>
<asrwt>0</asrwt>
<pdfrwt beam="1">  1        2 0.25021243E-01 0.46302785E+02</pdfrwt>
<pdfrwt beam="2">  1       -1 0.17215671E-01 0.30212485E+02</pdfrwt>
<totfact> 0.53887372E+03</totfact>
</mgrwt>
</event>
<event>
 5    1  0.4149151E-003  0.2466084E+03  0.7546771E-02  0.1178959E+00
         -3   -1    0    0    0  501  0.00000000000E+00  0.00000000000E+00  0.33168809681E+04  0.33168809681E+04  0.00000000000E+00 0.  1.
         -3   -1    0    0    0  502 -0.00000000000E+00 -0.00000000000E+00 -0.34029270238E+02  0.34029270238E+02  0.00000000000E+00 0.  1.
         25    1    1    2    0    0  0.52389846472E+02 -0.24404429396E+03  0.15651366912E+04  0.15898365248E+04  0.12500000000E+03 0.  0.
         -3    1    1    2    0  502 -0.15900227916E+03  0.19901699396E+03  0.90526571853E+03  0.94042304832E+03  0.00000000000E+00 0.  1.
         -3    1    1    2    0  501  0.10661243269E+03  0.45027299999E+02  0.81244928811E+03  0.82065066520E+03  0.00000000000E+00 0.  1.
<mgrwt>
<rscale>  0 0.16893858E+03</rscale>
<asrwt>0</asrwt>
<pdfrwt beam="1">  1       -3 0.51028912E+00 0.11573102E+03</pdfrwt>
<pdfrwt beam="2">  1       -3 0.52352750E-02 0.24660842E+03</pdfrwt>
<totfact> 0.20230239E+00</totfact>
</mgrwt>
</event>
<event>
 5    1  0.4149151E-003  0.4606879E+02  0.7546771E-02  0.1563830E+00
          2   -1    0    0  502    0  0.00000000000E+00  0.00000000000E+00  0.12437067740E+03  0.12437067740E+03  0.00000000000E+00 0. -1.
         -2   -1    0    0    0  501 -0.00000000000E+00 -0.00000000000E+00 -0.11871892901E+03  0.11871892901E+03  0.00000000000E+00 0.  1.
         25    1    1    2    0    0 -0.40301967920E+02 -0.18074265403E+00 -0.19380738650E+02  0.13275878245E+03  0.12500000000E+03 0.  0.
          2    1    1    2  502    0  0.45079130673E+02 -0.23473845826E+02 -0.23602618696E+02  0.56037782517E+02  0.00000000000E+00 0.  1.
         -2    1    1    2    0  501 -0.47771627533E+01  0.23654588480E+02  0.48635105728E+02  0.54293041445E+02  0.00000000000E+00 0. -1.
<mgrwt>
<rscale>  0 0.33342751E+02</rscale>
<asrwt>0</asrwt>
<pdfrwt beam="1">  1        2 0.19133950E-01 0.46068788E+02</pdfrwt>
<pdfrwt beam="2">  1       -2 0.18264451E-01 0.24132154E+02</pdfrwt>
<totfact> 0.59477323E+03</totfact>
</mgrwt>
</event>
<event>
 5    1  0.4149151E-003  0.1371345E+03  0.7546771E-02  0.1414984E+00
          2   -1    0    0  501    0  0.00000000000E+00  0.00000000000E+00  0.53964660408E+03  0.53964660408E+03  0.00000000000E+00 0. -1.
          1   -1    0    0  502    0 -0.00000000000E+00 -0.00000000000E+00 -0.14172675015E+04  0.14172675015E+04  0.00000000000E+00 0. -1.
         25    1    1    2    0    0  0.38231488019E+01 -0.14773132649E+03 -0.65195227605E+03  0.68007788638E+03  0.12500000000E+03 0.  0.
          2    1    1    2  501    0  0.15945929298E+02  0.13608039776E+03  0.51647426052E+03  0.53433866517E+03  0.00000000000E+00 0. -1.
          1    1    1    2  502    0 -0.19769078100E+02  0.11650928732E+02 -0.74214288195E+03  0.74249755408E+03  0.00000000000E+00 0. -1.
<mgrwt>
<rscale>  0 0.56096451E+02</rscale>
<asrwt>0</asrwt>
<pdfrwt beam="1">  1        2 0.83022554E-01 0.13713446E+03</pdfrwt>
<pdfrwt beam="2">  1        1 0.21804115E+00 0.22946908E+02</pdfrwt>
<totfact> 0.81333004E+01</totfact>
</mgrwt>
</event>
<event>
 5    1  0.4149151E-003  0.1876981E+03  0.7546771E-02  0.1288068E+00
         -2   -1    0    0    0  501 -0.00000000000E+00  0.00000000000E+00  0.13732560579E+03  0.13732560579E+03  0.00000000000E+00 0. -1.
          1   -1    0    0  502    0  0.00000000000E+00 -0.00000000000E+00 -0.25536863023E+04  0.25536863023E+04  0.00000000000E+00 0. -1.
         25    1    1    2    0    0  0.16998968586E+03  0.55996916135E+01 -0.27730628656E+03  0.34849910532E+03  0.12500000000E+03 0.  0.
          1    1    1    2  502    0 -0.18258862275E+03 -0.53473163520E+02 -0.22304616689E+04  0.22385614222E+04  0.00000000000E+00 0. -1.
         -2    1    1    2    0  501  0.12598936892E+02  0.47873471907E+02  0.91407258999E+02  0.10395138056E+03  0.00000000000E+00 0. -1.
<mgrwt>
<rscale>  0 0.96393593E+02</rscale>
<asrwt>0</asrwt>
<pdfrwt beam="2">  1        1 0.39287481E+00 0.18769811E+03</pdfrwt>
<pdfrwt beam="1">  1       -2 0.21127017E-01 0.49503561E+02</pdfrwt>
<totfact> 0.24505563E+01</totfact>
</mgrwt>
</event>
<event>
 5    1  0.4185368E-003  0.8568729E+02  0.7546771E-02  0.1467521E+00
          2   -1    0    0  502    0  0.00000000000E+00  0.00000000000E+00  0.61987930867E+02  0.61987930867E+02  0.00000000000E+00 0. -1.
         -1   -1    0    0    0  501 -0.00000000000E+00 -0.00000000000E+00 -0.34680835296E+03  0.34680835296E+03  0.00000000000E+00 0.  1.
         25    1    1    2    0    0 -0.30798427494E+02 -0.77733465622E+02 -0.72860568341E+02  0.16710684376E+03  0.12500000000E+03 0.  0.
          2    1    1    2  502    0  0.92274206210E+01  0.89998367603E+02 -0.15343095500E+03  0.17811768417E+03  0.00000000000E+00 0. -1.
         -1    1    1    2    0  501  0.21571006873E+02 -0.12264901981E+02 -0.58528898747E+02  0.63571755888E+02  0.00000000000E+00 0.  1.
<mgrwt>
<rscale>  0 0.46111247E+02</rscale>
<asrwt>0</asrwt>
<pdfrwt beam="1">  1        2 0.95366049E-02 0.85687290E+02</pdfrwt>
<pdfrwt beam="2">  1       -1 0.53355131E-01 0.24814031E+02</pdfrwt>
<totfact> 0.26737596E+03</totfact>
</mgrwt>
</event>
<event>
 5    1  0.4149151E-003  0.8917661E+02  0.7546771E-02  0.1335696E+00
          2   -1    0    0  501    0  0.00000000000E+00  0.00000000000E+00  0.15266683110E+03  0.15266683110E+03  0.00000000000E+00 0. -1.
          2   -1    0    0  502    0 -0.00000000000E+00 -0.00000000000E+00 -0.28548837335E+04  0.28548837335E+04  0.00000000000E+00 0. -1.
         25    1    1    2    0    0 -0.54080707963E+02  0.70044736379E+02 -0.46460158961E+03  0.48919385230E+03  0.12500000000E+03 0.  0.
          2    1    1    2  501    0  0.89130670276E+02 -0.12115542032E+02  0.12542567847E+03  0.15434592176E+03  0.00000000000E+00 0. -1.
          2    1    1    2  502    0 -0.35049962314E+02 -0.57929194347E+02 -0.23630409913E+04  0.23640107906E+04  0.00000000000E+00 0. -1.
<mgrwt>
<rscale>  0 0.77704030E+02</rscale>
<asrwt>0</asrwt>
<pdfrwt beam="1">  1        2 0.23487207E-01 0.89176615E+02</pdfrwt>
<pdfrwt beam="2">  1        2 0.43921283E+00 0.67707396E+02</pdfrwt>
<totfact> 0.10819372E+02</totfact>
</mgrwt>
</event>
<event>
 5    1  0.4149151E-003  0.7472331E+02  0.7546771E-02  0.1433378E+00
         -2   -1    0    0    0  501 -0.00000000000E+00  0.00000000000E+00  0.49782991680E+02  0.49782991680E+02  0.00000000000E+00 0.  1.
          2   -1    0    0  502    0  0.00000000000E+00 -0.00000000000E+00 -0.39158029044E+03  0.39158029044E+03  0.00000000000E+00 0. -1.
         25    1    1    2    0    0  0.61808967237E+02 -0.24986679506E+02 -0.99062409015E+02  0.17286712661E+03  0.12500000000E+03 0.  0.
          2    1    1    2  502    0 -0.50403295599E+02  0.59752074238E+02 -0.16561488213E+03  0.18313681161E+03  0.00000000000E+00 0. -1.
         -2    1    1    2    0  501 -0.11405671638E+02 -0.34765394732E+02 -0.77120007612E+02  0.85359343897E+02  0.00000000000E+00 0.  1.
<mgrwt>
<rscale>  0 0.52287832E+02</rscale>
<asrwt>0</asrwt>
<pdfrwt beam="2">  1        2 0.60243123E-01 0.74723305E+02</pdfrwt>
<pdfrwt beam="1">  1       -2 0.76589217E-02 0.36588550E+02</pdfrwt>
<totfact> 0.70614224E+03</totfact>
</mgrwt>
</event>
<event>
 5    1  0.4149151E-003  0.5954608E+02  0.7546771E-02  0.1523288E+00
          2   -1    0    0  502    0  0.00000000000E+00  0.00000000000E+00  0.18900714130E+03  0.18900714130E+03  0.00000000000E+00 0. -1.
         -1   -1    0    0    0  501 -0.00000000000E+00 -0.00000000000E+00 -0.71599099732E+02  0.71599099732E+02  0.00000000000E+00 0.  1.
         25    1    1    2    0    0  0.48671742642E+02  0.17640821022E+02  0.69623100576E+02  0.15215949932E+03  0.12500000000E+03 0.  0.
          2    1    1    2  502    0 -0.63258889990E+02  0.17676123441E+01  0.54214471992E+02  0.83330790165E+02  0.00000000000E+00 0. -1.
         -1    1    1    2    0  501  0.14587147348E+02 -0.19408433367E+02 -0.64295309997E+01  0.25115951552E+02  0.00000000000E+00 0.  1.
<mgrwt>
<rscale>  0 0.38022651E+02</rscale>
<asrwt>0</asrwt>
<pdfrwt beam="1">  1        2 0.29078022E-01 0.59546075E+02</pdfrwt>
<pdfrwt beam="2">  1       -1 0.11015246E-01 0.24279048E+02</pdfrwt>
<totfact> 0.88262717E+03</totfact>
</mgrwt>
</event>
<event>
 5    1  0.4149151E-003  0.4128734E+02  0.7546771E-02  0.1517998E+00
          1   -1    0    0  502    0  0.00000000000E+00  0.00000000000E+00  0.65018111755E+03  0.65018111755E+03  0.00000000000E+00 0. -1.
         -2   -1    0    0    0  501 -0.00000000000E+00 -0.00000000000E+00 -0.21649187650E+02  0.21649187650E+02  0.00000000000E+00 0.  1.
         25    1    1    2    0    0 -0.32032696972E+02 -0.42675138298E+02  0.42473537784E+03  0.44595112097E+03  0.12500000000E+03 0.  0.
          1    1    1    2  502    0  0.36242815770E+02  0.15439323479E+01  0.16581148879E+03  0.16973324729E+03  0.00000000000E+00 0. -1.
         -2    1    1    2    0  501 -0.42101187976E+01  0.41131205950E+02  0.37985063271E+02  0.56145936940E+02  0.00000000000E+00 0.  1.
<mgrwt>
<rscale>  0 0.38700474E+02</rscale>
<asrwt>0</asrwt>
<pdfrwt beam="1">  1        1 0.10002785E+00 0.36275686E+02</pdfrwt>
<pdfrwt beam="2">  1       -2 0.33306447E-02 0.41287342E+02</pdfrwt>
<totfact> 0.87026203E+03</totfact>
</mgrwt>
</event>
<event>
 5    1  0.4149151E-003  0.9079084E+02  0.7546771E-02  0.1415514E+00
          2   -1    0    0  501    0  0.00000000000E+00  0.00000000000E+00  0.12476671179E+04  0.12476671179E+04  0.00000000000E+00 0. -1.
          2   -1    0    0  502    0 -0.00000000000E+00 -0.00000000000E+00 -0.95974164672E+02  0.95974164672E+02  0.00000000000E+00 0.  1.
         25    1    1    2    0    0  0.86721923345E+02 -0.88180661080E+02  0.72079232161E+03  0.74193199949E+03  0.12500000000E+03 0.  0.
          2    1    1    2  501    0 -0.20126225428E+02  0.28043181714E+02  0.49196336926E+03  0.49317283145E+03  0.00000000000E+00 0. -1.
          2    1    1    2  502    0 -0.66595697916E+02  0.60137479366E+02 -0.61062737635E+02  0.10853645163E+03  0.00000000000E+00 0.  1.
<mgrwt>
<rscale>  0 0.55981323E+02</rscale>
<asrwt>0</asrwt>
<pdfrwt beam="1">  1        2 0.19194878E+00 0.34517894E+02</pdfrwt>
<pdfrwt beam="2">  1        2 0.14765257E-01 0.90790837E+02</pdfrwt>
<totfact> 0.12620994E+03</totfact>
</mgrwt>
</event>
<event>
 5    1  0.4149151E-003  0.6287119E+02  0.7546771E-02  0.1512382E+00
         -3   -1    0    0    0  501 -0.00000000000E+00  0.00000000000E+00  0.10581039456E+03  0.10581039456E+03  0.00000000000E+00 0.  1.
          1   -1    0    0  502    0  0.00000000000E+00 -0.00000000000E+00 -0.18286897477E+04  0.18286897477E+04  0.00000000000E+00 0. -1.
         25    1    1    2    0    0  0.39044532982E+02  0.73143090536E+02 -0.40095767328E+03  0.42809630109E+03  0.12500000000E+03 0.  0.
          1    1    1    2  502    0 -0.38633796894E+02 -0.48406665231E+02 -0.14118127003E+04  0.14131705050E+04  0.00000000000E+00 0. -1.
         -3    1    1    2    0  501 -0.41073608856E+00 -0.24736425305E+02  0.89891020366E+02  0.93233336224E+02  0.00000000000E+00 0.  1.
<mgrwt>
<rscale>  0 0.39438849E+02</rscale>
<asrwt>0</asrwt>
<pdfrwt beam="2">  1        1 0.28133688E+00 0.62871186E+02</pdfrwt>
<pdfrwt beam="1">  1       -3 0.16278522E-01 0.24739835E+02</pdfrwt>
<totfact> 0.70432149E+01</totfact>
</mgrwt>
</event>
<event>
 5    1  0.4149151E-003  0.1389125E+03  0.7546771E-02  0.1348428E+00
         -1   -1    0    0    0  501 -0.00000000000E+00  0.00000000000E+00  0.25262104857E+02  0.25262104857E+02  0.00000000000E+00 0.  1.
          2   -1    0    0  502    0  0.00000000000E+00 -0.00000000000E+00 -0.15105352681E+04  0.15105352681E+04  0.00000000000E+00 0. -1.
         25    1    1    2    0    0  0.14443703213E+03  0.31644755779E+02 -0.10852677362E+04  0.11024039668E+04  0.12500000000E+03 0.  0.
          2    1    1    2  502    0 -0.11432601015E+03 -0.56336077313E+02 -0.29288459139E+03  0.31941442371E+03  0.00000000000E+00 0. -1.
         -1    1    1    2    0  501 -0.30111021975E+02  0.24691321534E+02 -0.10712083566E+03  0.11397898243E+03  0.00000000000E+00 0.  1.
<mgrwt>
<rscale>  0 0.73547773E+02</rscale>
<asrwt>0</asrwt>
<pdfrwt beam="2">  1        2 0.23239010E+00 0.13891255E+03</pdfrwt>
<pdfrwt beam="1">  1       -1 0.38864768E-02 0.38940146E+02</pdfrwt>
<totfact> 0.33776773E+03</totfact>
</mgrwt>
</event>
<event>
 5    1  0.4149151E-003  0.7569089E+02  0.7546771E-02  0.1383569E+00
          2   -1    0    0  501    0  0.00000000000E+00  0.00000000000E+00  0.33716762468E+04  0.33716762468E+04  0.00000000000E+00 0. -1.
          3   -1    0    0  502    0 -0.00000000000E+00 -0.00000000000E+00 -0.26518716712E+02  0.26518716712E+02  0.00000000000E+00 0. -1.
         25    1    1    2    0    0 -0.12563282243E+02  0.60573663272E+02  0.12030432067E+04  0.12111007233E+04  0.12500000000E+03 0.  0.
          2    1    1    2  501    0 -0.39851570728E+02 -0.70417933800E+02  0.21311024881E+04  0.21326379551E+04  0.00000000000E+00 0. -1.
          3    1    1    2  502    0  0.52414852971E+02  0.98442705281E+01  0.11011835392E+02  0.54456285155E+02  0.00000000000E+00 0. -1.
<mgrwt>
<rscale>  0 0.63534972E+02</rscale>
<asrwt>0</asrwt>
<pdfrwt beam="1">  1        2 0.51871908E+00 0.75690887E+02</pdfrwt>
<pdfrwt beam="2">  1        3 0.40798052E-02 0.53331290E+02</pdfrwt>
<totfact> 0.24473564E+02</totfact>
</mgrwt>
</event>
<event>
 5    1  0.4149151E-003  0.5402731E+02  0.7546771E-02  0.1559782E+00
         -2   -1    0    0    0  501 -0.00000000000E+00  0.00000000000E+00  0.22322476850E+02  0.22322476850E+02  0.00000000000E+00 0.  1.
          2   -1    0    0  502    0  0.00000000000E+00 -0.00000000000E+00 -0.57963675592E+03  0.57963675592E+03  0.00000000000E+00 0. -1.
         25    1    1    2    0    0 -0.34958055195E+02  0.12174437403E+02 -0.28785857678E+03  0.31600291577E+03  0.12500000000E+03 0.  0.
          2    1    1    2  502    0  0.55609197556E+02 -0.16556134783E+02 -0.25191120395E+03  0.25850675644E+03  0.00000000000E+00 0. -1.
         -2    1    1    2    0  501 -0.20651142360E+02  0.43816973808E+01 -0.17544498342E+02  0.27449560558E+02  0.00000000000E+00 0.  1.
<mgrwt>
<rscale>  0 0.33772231E+02</rscale>
<asrwt>0</asrwt>
<pdfrwt beam="2">  1        2 0.89174886E-01 0.54027305E+02</pdfrwt>
<pdfrwt beam="1">  1       -2 0.34342272E-02 0.21110873E+02</pdfrwt>
<totfact> 0.13717075E+04</totfact>
</mgrwt>
</event>
<event>
 5    1  0.4149151E-003  0.6859527E+02  0.7546771E-02  0.1369556E+00
          1   -1    0    0  502    0  0.00000000000E+00  0.00000000000E+00  0.21349760125E+03  0.21349760125E+03  0.00000000000E+00 0. -1.
          1   -1    0    0  501    0 -0.00000000000E+00 -0.00000000000E+00 -0.14171434366E+04  0.14171434366E+04  0.00000000000E+00 0. -1.
         25    1    1    2    0    0  0.69007267626E+02  0.10977115607E+03 -0.22767189511E+03  0.29029502496E+03  0.12500000000E+03 0.  0.
          1    1    1    2  501    0 -0.21236517049E+02 -0.62501700712E+02 -0.11509843791E+04  0.11528757493E+04  0.00000000000E+00 0. -1.
          1    1    1    2  502    0 -0.47770750577E+02 -0.47269455361E+02  0.17501043890E+03  0.18747026363E+03  0.00000000000E+00 0. -1.
<mgrwt>
<rscale>  0 0.67290731E+02</rscale>
<asrwt>0</asrwt>
<pdfrwt beam="1">  1        1 0.32845786E-01 0.68595270E+02</pdfrwt>
<pdfrwt beam="2">  1        1 0.21802206E+00 0.66011001E+02</pdfrwt>
<totfact> 0.14672275E+02</totfact>
</mgrwt>
</event>
<event>
 5    1  0.4149151E-003  0.6427150E+02  0.7546771E-02  0.1387506E+00
          2   -1    0    0  502    0  0.00000000000E+00  0.00000000000E+00  0.15448281840E+04  0.15448281840E+04  0.00000000000E+00 0.  1.
          2   -1    0    0  501    0 -0.00000000000E+00 -0.00000000000E+00 -0.11190189665E+04  0.11190189665E+04  0.00000000000E+00 0. -1.
         25    1    1    2    0    0  0.72346874963E+02  0.10110995708E+03 -0.21784358804E+02  0.17764248373E+03  0.12500000000E+03 0.  0.
          2    1    1    2  501    0 -0.36051555613E+02 -0.52284464111E+02 -0.10176844594E+04  0.10196641794E+04  0.00000000000E+00 0. -1.
          2    1    1    2  502    0 -0.36295319350E+02 -0.48825492972E+02  0.14652780358E+04  0.14665404874E+04  0.00000000000E+00 0.  1.
<mgrwt>
<rscale>  0 0.62531257E+02</rscale>
<asrwt>0</asrwt>
<pdfrwt beam="1">  1        2 0.23766587E+00 0.60838137E+02</pdfrwt>
<pdfrwt beam="2">  1        2 0.17215676E+00 0.64271496E+02</pdfrwt>
<totfact> 0.55337626E+01</totfact>
</mgrwt>
</event>
<event>
 5    1  0.4149151E-003  0.3907438E+02  0.7546771E-02  0.1582581E+00
         -3   -1    0    0    0  501 -0.00000000000E+00  0.00000000000E+00  0.61489937544E+03  0.61489937544E+03  0.00000000000E+00 0.  1.
          2   -1    0    0  502    0  0.00000000000E+00 -0.00000000000E+00 -0.13382265196E+03  0.13382265196E+03  0.00000000000E+00 0. -1.
         25    1    1    2    0    0  0.31269429641E+02 -0.12229397246E+02 -0.33047470421E+02  0.13358319763E+03  0.12500000000E+03 0.  0.
          2    1    1    2  502    0 -0.39326982001E+02 -0.11769155973E+02 -0.41830458495E+02  0.58608120628E+02  0.00000000000E+00 0. -1.
         -3    1    1    2    0  501  0.80575523605E+01  0.23998553219E+02  0.55595465239E+03  0.55653070915E+03  0.00000000000E+00 0.  1.
<mgrwt>
<rscale>  0 0.31451108E+02</rscale>
<asrwt>0</asrwt>
<pdfrwt beam="2">  1        2 0.20588101E-01 0.39074382E+02</pdfrwt>
<pdfrwt beam="1">  1       -3 0.94599902E-01 0.25315108E+02</pdfrwt>
<totfact> 0.14769317E+02</totfact>
</mgrwt>
</event>
<event>
 5    1  0.4149151E-003  0.1483193E+03  0.7546771E-02  0.1356554E+00
         -3   -1    0    0    0  501 -0.00000000000E+00  0.00000000000E+00  0.56323908015E+03  0.56323908015E+03  0.00000000000E+00 0.  1.
          2   -1    0    0  502    0  0.00000000000E+00 -0.00000000000E+00 -0.13281415200E+04  0.13281415200E+04  0.00000000000E+00 0. -1.
         25    1    1    2    0    0  0.78507310450E+02 -0.10458032244E+03  0.11243629205E+03  0.21299615350E+03  0.12500000000E+03 0.  0.
          2    1    1    2  502    0  0.34033283778E+02 -0.48603293999E+00 -0.12628279463E+04  0.12632865560E+04  0.00000000000E+00 0. -1.
         -3    1    1    2    0  501 -0.11254059423E+03  0.10506635538E+03  0.38548921442E+03  0.41509789064E+03  0.00000000000E+00 0.  1.
<mgrwt>
<rscale>  0 0.71051432E+02</rscale>
<asrwt>0</asrwt>
<pdfrwt beam="2">  1        2 0.20432946E+00 0.34036754E+02</pdfrwt>
<pdfrwt beam="1">  1       -3 0.86652166E-01 0.14831925E+03</pdfrwt>
<totfact> 0.15141053E+01</totfact>
</mgrwt>
</event>
<event>
 5    1  0.4149151E-003  0.4579678E+02  0.7546771E-02  0.1509455E+00
          2   -1    0    0  502    0  0.00000000000E+00  0.00000000000E+00  0.14750411157E+03  0.14750411157E+03  0.00000000000E+00 0. -1.
         -2   -1    0    0    0  501 -0.00000000000E+00 -0.00000000000E+00 -0.41298490374E+03  0.41298490374E+03  0.00000000000E+00 0.  1.
         25    1    1    2    0    0  0.61877819983E+01 -0.63004859611E+02 -0.16042094212E+03  0.21299713531E+03  0.12500000000E+03 0.  0.
          2    1    1    2  502    0  0.20398176407E+02  0.40793602077E+02  0.11552543802E+03  0.12420277936E+03  0.00000000000E+00 0. -1.
         -2    1    1    2    0  501 -0.26585958405E+02  0.22211257534E+02 -0.22058528808E+03  0.22328910063E+03  0.00000000000E+00 0.  1.
<mgrwt>
<rscale>  0 0.39831498E+02</rscale>
<asrwt>0</asrwt>
<pdfrwt beam="1">  1        2 0.22692940E-01 0.45796779E+02</pdfrwt>
<pdfrwt beam="2">  1       -2 0.63536140E-01 0.34643227E+02</pdfrwt>
<totfact> 0.54239500E+02</totfact>
</mgrwt>
</event>
<event>
 5    1  0.4149151E-003  0.8410916E+02  0.7546771E-02  0.1333902E+00
          2   -1    0    0  501    0  0.00000000000E+00  0.00000000000E+00  0.60634324926E+03  0.60634324926E+03  0.00000000000E+00 0. -1.
          1   -1    0    0  502    0 -0.00000000000E+00 -0.00000000000E+00 -0.11546872993E+03  0.11546872993E+03  0.00000000000E+00 0. -1.
         25    1    1    2    0    0 -0.33704275997E+02 -0.66315295549E+01  0.74660494619E+02  0.14959660712E+03  0.12500000000E+03 0.  0.
          2    1    1    2  501    0 -0.40917079732E+02 -0.60358831064E+02  0.45786083043E+03  0.46363124997E+03  0.00000000000E+00 0. -1.
          1    1    1    2  502    0  0.74621355729E+02  0.66990360619E+02 -0.41646805725E+02  0.10858412211E+03  0.00000000000E+00 0. -1.
<mgrwt>
<rscale>  0 0.78315259E+02</rscale>
<asrwt>0</asrwt>
<pdfrwt beam="1">  1        2 0.93283575E-01 0.72920477E+02</pdfrwt>
<pdfrwt beam="2">  1        1 0.17764420E-01 0.84109157E+02</pdfrwt>
<totfact> 0.19913729E+03</totfact>
</mgrwt>
</event>
<event>
 5    1  0.4149151E-003  0.1446533E+03  0.7546771E-02  0.1328765E+00
         -1   -1    0    0    0  501 -0.00000000000E+00  0.00000000000E+00  0.79316563265E+02  0.79316563265E+02  0.00000000000E+00 0.  1.
          2   -1    0    0  502    0  0.00000000000E+00 -0.00000000000E+00 -0.17605566445E+04  0.17605566445E+04  0.00000000000E+00 0. -1.
         25    1    1    2    0    0 -0.65224751834E+02 -0.89743032130E+02 -0.45109942831E+03  0.48106524951E+03  0.12500000000E+03 0.  0.
          2    1    1    2  502    0  0.94116344378E+02  0.12339867090E+03 -0.12815475722E+04  0.12909102595E+04  0.00000000000E+00 0. -1.
         -1    1    1    2    0  501 -0.28891592545E+02 -0.33655638767E+02  0.51406919302E+02  0.67897698729E+02  0.00000000000E+00 0.  1.
<mgrwt>
<rscale>  0 0.80101143E+02</rscale>
<asrwt>0</asrwt>
<pdfrwt beam="2">  1        2 0.27085486E+00 0.14465325E+03</pdfrwt>
<pdfrwt beam="1">  1       -1 0.12202549E-01 0.44355678E+02</pdfrwt>
<totfact> 0.48312383E+02</totfact>
</mgrwt>
</event>
<event>
 5    1  0.4149151E-003  0.4199632E+02  0.7546771E-02  0.1527275E+00
          2   -1    0    0  502    0  0.00000000000E+00  0.00000000000E+00  0.10408370079E+03  0.10408370079E+03  0.00000000000E+00 0. -1.
         -1   -1    0    0    0  501 -0.00000000000E+00 -0.00000000000E+00 -0.12257681228E+03  0.12257681228E+03  0.00000000000E+00 0.  1.
         25    1    1    2    0    0 -0.18275795086E+02  0.39930536359E+02  0.20524195907E+01  0.13250533893E+03  0.12500000000E+03 0.  0.
          2    1    1    2  502    0 -0.22456866507E+02 -0.24893092741E+02  0.16236077931E+02  0.37250330819E+02  0.00000000000E+00 0. -1.
         -1    1    1    2    0  501  0.40732661594E+02 -0.15037443618E+02 -0.36781609011E+02  0.56904843313E+02  0.00000000000E+00 0.  1.
<mgrwt>
<rscale>  0 0.37522776E+02</rscale>
<asrwt>0</asrwt>
<pdfrwt beam="1">  1        2 0.16012877E-01 0.33525765E+02</pdfrwt>
<pdfrwt beam="2">  1       -1 0.18857971E-01 0.41996319E+02</pdfrwt>
<totfact> 0.76313574E+03</totfact>
</mgrwt>
</event>
<event>
 5    1  0.4149151E-003  0.9166816E+02  0.7546771E-02  0.1416373E+00
          1   -1    0    0  502    0  0.00000000000E+00  0.00000000000E+00  0.98117143020E+03  0.98117143020E+03  0.00000000000E+00 0. -1.
          1   -1    0    0  501    0 -0.00000000000E+00 -0.00000000000E+00 -0.48851406975E+02  0.48851406975E+02  0.00000000000E+00 0. -1.
         25    1    1    2    0    0 -0.10897193443E+02 -0.62519764117E+02  0.12116815917E+03  0.18529487993E+03  0.12500000000E+03 0.  0.
          1    1    1    2  501    0 -0.22308976358E+02 -0.25605926026E+02  0.64920718369E+01  0.34576015828E+02  0.00000000000E+00 0. -1.
          1    1    1    2  502    0  0.33206169802E+02  0.88125690144E+02  0.80465979222E+03  0.81015194142E+03  0.00000000000E+00 0. -1.
<mgrwt>
<rscale>  0 0.55795595E+02</rscale>
<asrwt>0</asrwt>
<pdfrwt beam="1">  1        1 0.15094944E+00 0.91668165E+02</pdfrwt>
<pdfrwt beam="2">  1        1 0.75156018E-02 0.33961064E+02</pdfrwt>
<totfact> 0.16985428E+03</totfact>
</mgrwt>
</event>
<event>
 5    1  0.4149151E-003  0.5333367E+02  0.7546771E-02  0.1459019E+00
          1   -1    0    0  502    0  0.00000000000E+00  0.00000000000E+00  0.11693084816E+04  0.11693084816E+04  0.00000000000E+00 0. -1.
         -1   -1    0    0    0  501 -0.00000000000E+00 -0.00000000000E+00 -0.14370297657E+03  0.14370297657E+03  0.00000000000E+00 0.  1.
         25    1    1    2    0    0 -0.26697249179E+02 -0.27091617339E+02  0.36364090585E+03  0.38640187273E+03  0.12500000000E+03 0.  0.
          1    1    1    2  502    0  0.55611772157E+02 -0.39125758320E+01  0.78988353192E+03  0.79184845233E+03  0.00000000000E+00 0. -1.
         -1    1    1    2    0  501 -0.28914522978E+02  0.31004193171E+02 -0.12791893276E+03  0.13476113309E+03  0.00000000000E+00 0.  1.
<mgrwt>
<rscale>  0 0.47550650E+02</rscale>
<asrwt>0</asrwt>
<pdfrwt beam="1">  1        1 0.17989361E+00 0.53333669E+02</pdfrwt>
<pdfrwt beam="2">  1       -1 0.22108151E-01 0.42394689E+02</pdfrwt>
<totfact> 0.22083245E+02</totfact>
</mgrwt>
</event>
<event>
 5    1  0.4149151E-003  0.1970622E+03  0.7546771E-02  0.1287778E+00
          1   -1    0    0  501    0  0.00000000000E+00  0.00000000000E+00  0.33622815753E+03  0.33622815753E+03  0.00000000000E+00 0. -1.
          1   -1    0    0  502    0 -0.00000000000E+00 -0.00000000000E+00 -0.73817944489E+03  0.73817944489E+03  0.00000000000E+00 0. -1.
         25    1    1    2    0    0 -0.72281637180E+02  0.16362413261E+03  0.22547072067E+03  0.31378262814E+03  0.12500000000E+03 0.  0.
          1    1    1    2  501    0  0.35516732111E+02  0.31208376615E+02  0.41516983448E+02  0.62921069169E+02  0.00000000000E+00 0. -1.
          1    1    1    2  502    0  0.36764905069E+02 -0.19483250922E+03 -0.66893899147E+03  0.69770390511E+03  0.00000000000E+00 0. -1.
<mgrwt>
<rscale>  0 0.96525161E+02</rscale>
<asrwt>0</asrwt>
<pdfrwt beam="1">  1        1 0.51727409E-01 0.47280028E+02</pdfrwt>
<pdfrwt beam="2">  1        1 0.11356607E+00 0.19706221E+03</pdfrwt>
<totfact> 0.24252171E+02</totfact>
</mgrwt>
</event>
<event>
 5    1  0.4149151E-003  0.1559248E+03  0.7546771E-02  0.1388913E+00
          2   -1    0    0  501    0  0.00000000000E+00  0.00000000000E+00  0.87776655159E+03  0.87776655159E+03  0.00000000000E+00 0. -1.
          1   -1    0    0  502    0 -0.00000000000E+00 -0.00000000000E+00 -0.32906776262E+03  0.32906776262E+03  0.00000000000E+00 0. -1.
         25    1    1    2    0    0  0.17143294069E+03  0.24506952542E+02 -0.12242116022E+03  0.24617429668E+03  0.12500000000E+03 0.  0.
          2    1    1    2  501    0 -0.15516047897E+03 -0.57993075242E+01  0.80737389264E+03  0.82216847953E+03  0.00000000000E+00 0. -1.
          1    1    1    2  502    0 -0.16272461721E+02 -0.18707645018E+02 -0.13625394346E+03  0.13849153801E+03  0.00000000000E+00 0. -1.
<mgrwt>
<rscale>  0 0.62177842E+02</rscale>
<asrwt>0</asrwt>
<pdfrwt beam="1">  1        2 0.13504101E+00 0.15592484E+03</pdfrwt>
<pdfrwt beam="2">  1        1 0.50625810E-01 0.24794536E+02</pdfrwt>
<totfact> 0.34377215E+02</totfact>
</mgrwt>
</event>
<event>
 5    1  0.4149151E-003  0.1090177E+03  0.7546771E-02  0.1287350E+00
         -1   -1    0    0    0  501 -0.00000000000E+00  0.00000000000E+00  0.15452042861E+04  0.15452042861E+04  0.00000000000E+00 0.  1.
          2   -1    0    0  502    0  0.00000000000E+00 -0.00000000000E+00 -0.66398359745E+03  0.66398359745E+03  0.00000000000E+00 0.  1.
         25    1    1    2    0    0 -0.93753558290E+02  0.53896226723E+02  0.40120421479E+03  0.43391745172E+03  0.12500000000E+03 0.  0.
          2    1    1    2  502    0 -0.16266150283E+02 -0.84252810243E+02 -0.64187668796E+03  0.64758691018E+03  0.00000000000E+00 0.  1.
         -1    1    1    2    0  501  0.11001970857E+03  0.30356583520E+02  0.11218931619E+04  0.11276835217E+04  0.00000000000E+00 0.  1.
<mgrwt>
<rscale>  0 0.96719512E+02</rscale>
<asrwt>0</asrwt>
<pdfrwt beam="2">  1        2 0.10215132E+00 0.85808646E+02</pdfrwt>
<pdfrwt beam="1">  1       -1 0.23772374E+00 0.10901773E+03</pdfrwt>
<totfact> 0.55365529E+00</totfact>
</mgrwt>
</event>
<event>
 5    1  0.4149151E-003  0.7767951E+02  0.7546771E-02  0.1363527E+00
          1   -1    0    0  502    0 -0.00000000000E+00  0.00000000000E+00  0.47266932185E+03  0.47266932185E+03  0.00000000000E+00 0. -1.
          2   -1    0    0  501    0  0.00000000000E+00 -0.00000000000E+00 -0.16442388298E+04  0.16442388298E+04  0.00000000000E+00 0. -1.
         25    1    1    2    0    0  0.12796442284E+03  0.10984142507E+02 -0.71906762602E+03  0.74106598605E+03  0.12500000000E+03 0.  0.
          2    1    1    2  501    0 -0.70736506082E+02  0.10958641870E+02 -0.91072728296E+03  0.91353594841E+03  0.00000000000E+00 0. -1.
          1    1    1    2  502    0 -0.57227916758E+02 -0.21942784377E+02  0.45822540105E+03  0.46230621715E+03  0.00000000000E+00 0. -1.
<mgrwt>
<rscale>  0 0.69000091E+02</rscale>
<asrwt>0</asrwt>
<pdfrwt beam="2">  1        2 0.25295982E+00 0.77679507E+02</pdfrwt>
<pdfrwt beam="1">  1        1 0.72718357E-01 0.61290458E+02</pdfrwt>
<totfact> 0.87795906E+01</totfact>
</mgrwt>
</event>
<event>
 5    1  0.4149151E-003  0.5673743E+02  0.7546771E-02  0.1467560E+00
         -1   -1    0    0    0  501 -0.00000000000E+00  0.00000000000E+00  0.91247073782E+01  0.91247073782E+01  0.00000000000E+00 0.  1.
          2   -1    0    0  502    0  0.00000000000E+00 -0.00000000000E+00 -0.18609038131E+04  0.18609038131E+04  0.00000000000E+00 0. -1.
         25    1    1    2    0    0 -0.51805591230E+01 -0.74643405690E+02 -0.86784104380E+03  0.87998383707E+03  0.12500000000E+03 0.  0.
          2    1    1    2  502    0 -0.22861679759E+02  0.29680966114E+02 -0.71239752283E+03  0.71338197810E+03  0.00000000000E+00 0. -1.
         -1    1    1    2    0  501  0.28042238882E+02  0.44962439577E+02 -0.27154053914E+03  0.27666270535E+03  0.00000000000E+00 0.  1.
<mgrwt>
<rscale>  0 0.46104882E+02</rscale>
<asrwt>0</asrwt>
<pdfrwt beam="2">  1        2 0.28629317E+00 0.37464866E+02</pdfrwt>
<pdfrwt beam="1">  1       -1 0.14037998E-02 0.56737429E+02</pdfrwt>
<totfact> 0.11318022E+04</totfact>
</mgrwt>
</event>
<event>
 5    1  0.4149151E-003  0.6288178E+02  0.7546771E-02  0.1480767E+00
         -1   -1    0    0    0  501 -0.00000000000E+00  0.00000000000E+00  0.74469750330E+03  0.74469750330E+03  0.00000000000E+00 0.  1.
          1   -1    0    0  502    0  0.00000000000E+00 -0.00000000000E+00 -0.20905102246E+02  0.20905102246E+02  0.00000000000E+00 0. -1.
         25    1    1    2    0    0  0.60597691275E+02  0.37365840396E+01  0.36112070558E+03  0.38693566164E+03  0.12500000000E+03 0.  0.
          1    1    1    2  502    0 -0.15553541575E+01 -0.30730221278E+02  0.45553379415E+02  0.54971592686E+02  0.00000000000E+00 0. -1.
         -1    1    1    2    0  501 -0.59042337117E+02  0.26993637238E+02  0.31711831606E+03  0.32369535122E+03  0.00000000000E+00 0.  1.
<mgrwt>
<rscale>  0 0.43986868E+02</rscale>
<asrwt>0</asrwt>
<pdfrwt beam="2">  1        1 0.32161701E-02 0.30769557E+02</pdfrwt>
<pdfrwt beam="1">  1       -1 0.11456883E+00 0.62881782E+02</pdfrwt>
<totfact> 0.19134634E+03</totfact>
</mgrwt>
</event>
<event>
 5    1  0.4149151E-003  0.1127210E+03  0.7546771E-02  0.1373102E+00
          1   -1    0    0  502    0  0.00000000000E+00  0.00000000000E+00  0.47088131509E+03  0.47088131509E+03  0.00000000000E+00 0. -1.
          1   -1    0    0  501    0 -0.00000000000E+00 -0.00000000000E+00 -0.43106382253E+03  0.43106382253E+03  0.00000000000E+00 0. -1.
         25    1    1    2    0    0 -0.37513542009E+01  0.89513113910E+02  0.10975826741E+03  0.18894059248E+03  0.12500000000E+03 0.  0.
          1    1    1    2  501    0 -0.29168973293E+02 -0.11044349097E+03 -0.38189885572E+03  0.39861677047E+03  0.00000000000E+00 0. -1.
          1    1    1    2  502    0  0.32920327494E+02  0.20930377059E+02  0.31195808087E+03  0.31438777468E+03  0.00000000000E+00 0. -1.
<mgrwt>
<rscale>  0 0.66312276E+02</rscale>
<asrwt>0</asrwt>
<pdfrwt beam="1">  1        1 0.72443279E-01 0.39010622E+02</pdfrwt>
<pdfrwt beam="2">  1        1 0.66317511E-01 0.11272104E+03</pdfrwt>
<totfact> 0.34056669E+02</totfact>
</mgrwt>
</event>
<event>
 5    1  0.4149151E-003  0.1494312E+03  0.7546771E-02  0.1262592E+00
         -1   -1    0    0    0  501 -0.00000000000E+00  0.00000000000E+00  0.41446341547E+03  0.41446341547E+03  0.00000000000E+00 0. -1.
          3   -1    0    0  502    0  0.00000000000E+00 -0.00000000000E+00 -0.12832599242E+04  0.12832599242E+04  0.00000000000E+00 0. -1.
         25    1    1    2    0    0 -0.31718777838E+02 -0.72296235430E+02 -0.11376937384E+03  0.18655105722E+03  0.12500000000E+03 0.  0.
          3    1    1    2  502    0 -0.48298238479E+02 -0.63001264520E+02 -0.11152894630E+04  0.11181111150E+04  0.00000000000E+00 0. -1.
         -1    1    1    2    0  501  0.80017016317E+02  0.13529749995E+03  0.36026232806E+03  0.39306116752E+03  0.00000000000E+00 0. -1.
<mgrwt>
<rscale>  0 0.10891510E+03</rscale>
<asrwt>0</asrwt>
<pdfrwt beam="2">  1        3 0.19742460E+00 0.79384376E+02</pdfrwt>
<pdfrwt beam="1">  1       -1 0.63763603E-01 0.14943116E+03</pdfrwt>
<totfact> 0.20573851E+00</totfact>
</mgrwt>
</event>
<event>
 5    1  0.4149151E-003  0.1116627E+03  0.7546771E-02  0.1265270E+00
         -1   -1    0    0    0  501 -0.00000000000E+00  0.00000000000E+00  0.12203724513E+03  0.12203724513E+03  0.00000000000E+00 0.  1.
          2   -1    0    0  502    0  0.00000000000E+00 -0.00000000000E+00 -0.55055044930E+03  0.55055044930E+03  0.00000000000E+00 0. -1.
         25    1    1    2    0    0 -0.38140259358E+02  0.83549033984E+02 -0.10788058830E+03  0.18894004815E+03  0.12500000000E+03 0.  0.
          2    1    1    2  502    0  0.12328648802E+03 -0.24719654247E+02 -0.35339069137E+03  0.37509412176E+03  0.00000000000E+00 0. -1.
         -1    1    1    2    0  501 -0.85146228667E+02 -0.58829379736E+02  0.32758075497E+02  0.10855352452E+03  0.00000000000E+00 0.  1.
<mgrwt>
<rscale>  0 0.10750023E+03</rscale>
<asrwt>0</asrwt>
<pdfrwt beam="2">  1        2 0.84700069E-01 0.11166275E+03</pdfrwt>
<pdfrwt beam="1">  1       -1 0.18774961E-01 0.10349288E+03</pdfrwt>
<totfact> 0.14008270E+03</totfact>
</mgrwt>
</event>
<event>
 5    1  0.4149151E-003  0.7631313E+02  0.7546771E-02  0.1476138E+00
          2   -1    0    0  501    0  0.00000000000E+00  0.00000000000E+00  0.92500688301E+03  0.92500688301E+03  0.00000000000E+00 0. -1.
          2   -1    0    0  502    0 -0.00000000000E+00 -0.00000000000E+00 -0.74902996062E+02  0.74902996062E+02  0.00000000000E+00 0.  1.
         25    1    1    2    0    0  0.89171804545E+02 -0.45687443337E+02  0.26376963843E+03  0.30860715377E+03  0.12500000000E+03 0.  0.
          2    1    1    2  501    0 -0.22230563421E+02  0.13862430590E+02  0.61222833025E+03  0.61278862040E+03  0.00000000000E+00 0. -1.
          2    1    1    2  502    0 -0.66941241124E+02  0.31825012747E+02 -0.25894081727E+02  0.78514104899E+02  0.00000000000E+00 0.  1.
<mgrwt>
<rscale>  0 0.44713473E+02</rscale>
<asrwt>0</asrwt>
<pdfrwt beam="1">  1        2 0.14230874E+00 0.26198567E+02</pdfrwt>
<pdfrwt beam="2">  1        2 0.11523539E-01 0.76313130E+02</pdfrwt>
<totfact> 0.25272867E+03</totfact>
</mgrwt>
</event>
<event>
 5    1  0.4149151E-003  0.6221597E+02  0.7546771E-02  0.1511832E+00
          2   -1    0    0  501    0  0.00000000000E+00  0.00000000000E+00  0.71585513318E+03  0.71585513318E+03  0.00000000000E+00 0. -1.
          1   -1    0    0  502    0 -0.00000000000E+00 -0.00000000000E+00 -0.51546477017E+02  0.51546477017E+02  0.00000000000E+00 0. -1.
         25    1    1    2    0    0  0.69513511402E+02  0.19765061838E+02  0.37277591858E+03  0.39976201847E+03  0.12500000000E+03 0.  0.
          2    1    1    2  501    0 -0.19206161986E+02  0.16149427650E+02  0.30362168941E+03  0.30465687413E+03  0.00000000000E+00 0. -1.
          1    1    1    2  502    0 -0.50307349416E+02 -0.35914489488E+02 -0.12088951827E+02  0.62982717604E+02  0.00000000000E+00 0. -1.
<mgrwt>
<rscale>  0 0.39512183E+02</rscale>
<asrwt>0</asrwt>
<pdfrwt beam="1">  1        2 0.11013155E+00 0.25093439E+02</pdfrwt>
<pdfrwt beam="2">  1        1 0.79302277E-02 0.62215968E+02</pdfrwt>
<totfact> 0.47254515E+03</totfact>
</mgrwt>
</event>
<event>
 5    1  0.4149151E-003  0.5018352E+02  0.7546771E-02  0.1500967E+00
          2   -1    0    0  502    0  0.00000000000E+00  0.00000000000E+00  0.14974478598E+04  0.14974478598E+04  0.00000000000E+00 0. -1.
         -1   -1    0    0    0  501 -0.00000000000E+00 -0.00000000000E+00 -0.89997072854E+01  0.89997072854E+01  0.00000000000E+00 0.  1.
         25    1    1    2    0    0  0.14642750654E+02 -0.41964313021E+02  0.10531045780E+04  0.10614281257E+04  0.12500000000E+03 0.  0.
          2    1    1    2  502    0  0.16175797480E+02  0.55096468368E+02  0.31017961394E+03  0.31544994873E+03  0.00000000000E+00 0. -1.
         -1    1    1    2    0  501 -0.30818548134E+02 -0.13132155347E+02  0.12516396058E+03  0.12956949271E+03  0.00000000000E+00 0.  1.
<mgrwt>
<rscale>  0 0.41001681E+02</rscale>
<asrwt>0</asrwt>
<pdfrwt beam="1">  1        2 0.23037640E+00 0.50183524E+02</pdfrwt>
<pdfrwt beam="2">  1       -1 0.13845715E-02 0.33499797E+02</pdfrwt>
<totfact> 0.15298258E+04</totfact>
</mgrwt>
</event>
<event>
 5    1  0.4149151E-003  0.1295804E+03  0.7546771E-02  0.1391175E+00
         -2   -1    0    0    0  501 -0.00000000000E+00  0.00000000000E+00  0.13403905218E+02  0.13403905218E+02  0.00000000000E+00 0.  1.
          1   -1    0    0  502    0  0.00000000000E+00 -0.00000000000E+00 -0.38270323552E+04  0.38270323552E+04  0.00000000000E+00 0. -1.
         25    1    1    2    0    0  0.80017855448E+02 -0.11592884933E+03 -0.77016661513E+03  0.79285810229E+03  0.12500000000E+03 0.  0.
          1    1    1    2  502    0 -0.50782994915E+02  0.11785305843E+03 -0.25821410086E+04  0.25853279182E+04  0.00000000000E+00 0. -1.
         -2    1    1    2    0  501 -0.29234860533E+02 -0.19242091000E+01 -0.46132082626E+03  0.46225024001E+03  0.00000000000E+00 0.  1.
<mgrwt>
<rscale>  0 0.61615437E+02</rscale>
<asrwt>0</asrwt>
<pdfrwt beam="2">  1        1 0.58877482E+00 0.12958041E+03</pdfrwt>
<pdfrwt beam="1">  1       -2 0.20621371E-02 0.29298117E+02</pdfrwt>
<totfact> 0.96491006E+01</totfact>
</mgrwt>
</event>
<event>
 5    1  0.4149151E-003  0.7020639E+02  0.7546771E-02  0.1409674E+00
          2   -1    0    0  501    0  0.00000000000E+00  0.00000000000E+00  0.25130774860E+04  0.25130774860E+04  0.00000000000E+00 0. -1.
          1   -1    0    0  502    0 -0.00000000000E+00 -0.00000000000E+00 -0.11643710278E+04  0.11643710278E+04  0.00000000000E+00 0. -1.
         25    1    1    2    0    0  0.79294109508E+02 -0.62711695650E+02  0.11701810336E+03  0.19884302625E+03  0.12500000000E+03 0.  0.
          2    1    1    2  501    0 -0.11443068896E+02  0.45288554362E+02  0.23538229545E+04  0.23542864096E+04  0.00000000000E+00 0. -1.
          1    1    1    2  502    0 -0.67851040612E+02  0.17423141287E+02 -0.11221345997E+04  0.11243190781E+04  0.00000000000E+00 0. -1.
<mgrwt>
<rscale>  0 0.57266661E+02</rscale>
<asrwt>0</asrwt>
<pdfrwt beam="1">  1        2 0.38662730E+00 0.46711851E+02</pdfrwt>
<pdfrwt beam="2">  1        1 0.17913400E+00 0.70206392E+02</pdfrwt>
<totfact> 0.92432209E+00</totfact>
</mgrwt>
</event>
<event>
 5    1  0.4149151E-003  0.3502271E+03  0.7546771E-02  0.1062522E+00
          2   -1    0    0  502    0  0.00000000000E+00  0.00000000000E+00  0.12613806636E+04  0.12613806636E+04  0.00000000000E+00 0. -1.
         -1   -1    0    0    0  501 -0.00000000000E+00 -0.00000000000E+00 -0.24310467263E+02  0.24310467263E+02  0.00000000000E+00 0.  1.
         25    1    1    2    0    0  0.12164392805E+03  0.50998035334E+02  0.44557012665E+03  0.48120243412E+03  0.12500000000E+03 0.  0.
          2    1    1    2  502    0 -0.71786117086E+02 -0.26211813158E+02  0.60637351741E+03  0.61117031045E+03  0.00000000000E+00 0. -1.
         -1    1    1    2    0  501 -0.49857810961E+02 -0.24786222177E+02  0.18512655232E+03  0.19331838634E+03  0.00000000000E+00 0.  1.
<mgrwt>
<rscale>  0 0.35022709E+03</rscale>
<asrwt>0</asrwt>
<pdfrwt beam="1">  1        2 0.19405851E+00 0.35022709E+03</pdfrwt>
<pdfrwt beam="2">  1       -1 0.37400729E-02 0.35022709E+03</pdfrwt>
<totfact> 0.57243948E+03</totfact>
</mgrwt>
</event>
<event>
 5    1  0.4149151E-003  0.1085193E+03  0.7546771E-02  0.1340200E+00
          2   -1    0    0  502    0  0.00000000000E+00  0.00000000000E+00  0.32571721818E+03  0.32571721818E+03  0.00000000000E+00 0.  1.
          2   -1    0    0  501    0 -0.00000000000E+00 -0.00000000000E+00 -0.27579243977E+03  0.27579243977E+03  0.00000000000E+00 0. -1.
         25    1    1    2    0    0 -0.11587484728E+03 -0.22930480171E+02 -0.10303081450E+03  0.20048225829E+03  0.12500000000E+03 0.  0.
          2    1    1    2  501    0  0.10389952129E+03 -0.29215691184E+02 -0.97180399728E+02  0.14523325111E+03  0.00000000000E+00 0. -1.
          2    1    1    2  502    0  0.11975325992E+02  0.52146171355E+02  0.25013599264E+03  0.25579414855E+03  0.00000000000E+00 0.  1.
<mgrwt>
<rscale>  0 0.76198216E+02</rscale>
<asrwt>0</asrwt>
<pdfrwt beam="1">  1        2 0.50110341E-01 0.53503566E+02</pdfrwt>
<pdfrwt beam="2">  1        2 0.42429606E-01 0.10851927E+03</pdfrwt>
<totfact> 0.18269718E+03</totfact>
</mgrwt>
</event>
<event>
 5    1  0.4149151E-003  0.2042145E+03  0.7546771E-02  0.1306056E+00
          2   -1    0    0  501    0  0.00000000000E+00  0.00000000000E+00  0.14991870708E+03  0.14991870708E+03  0.00000000000E+00 0. -1.
          2   -1    0    0  502    0 -0.00000000000E+00 -0.00000000000E+00 -0.95567159364E+03  0.95567159364E+03  0.00000000000E+00 0. -1.
         25    1    1    2    0    0  0.11396870193E+03  0.15610992033E+03 -0.39581667107E+03  0.45788099910E+03  0.12500000000E+03 0.  0.
          2    1    1    2  501    0 -0.18095550904E+02  0.34002405205E+02  0.93487211264E+02  0.10111118233E+03  0.00000000000E+00 0. -1.
          2    1    1    2  502    0 -0.95873151026E+02 -0.19011232553E+03 -0.50342342676E+03  0.54659811929E+03  0.00000000000E+00 0. -1.
<mgrwt>
<rscale>  0 0.88689742E+02</rscale>
<asrwt>0</asrwt>
<pdfrwt beam="1">  1        2 0.23064418E-01 0.38517691E+02</pdfrwt>
<pdfrwt beam="2">  1        2 0.14702639E+00 0.20421448E+03</pdfrwt>
<totfact> 0.97086185E+02</totfact>
</mgrwt>
</event>
<event>
 5    1  0.4149151E-003  0.6654293E+02  0.7546771E-02  0.1389887E+00
          2   -1    0    0  502    0  0.00000000000E+00  0.00000000000E+00  0.95878748466E+03  0.95878748466E+03  0.00000000000E+00 0. -1.
          2   -1    0    0  501    0 -0.00000000000E+00 -0.00000000000E+00 -0.13772984632E+04  0.13772984632E+04  0.00000000000E+00 0. -1.
         25    1    1    2    0    0 -0.56854366704E+02  0.41408498601E+02 -0.11601932904E+03  0.18447917899E+03  0.12500000000E+03 0.  0.
          2    1    1    2  501    0  0.51466270395E+01 -0.66890343511E+02 -0.12252321041E+04  0.12270674450E+04  0.00000000000E+00 0. -1.
          2    1    1    2  502    0  0.51707739664E+02  0.25481844909E+02  0.92274045458E+03  0.92453932382E+03  0.00000000000E+00 0. -1.
<mgrwt>
<rscale>  0 0.61934701E+02</rscale>
<asrwt>0</asrwt>
<pdfrwt beam="1">  1        2 0.14750577E+00 0.57645596E+02</pdfrwt>
<pdfrwt beam="2">  1        2 0.21189207E+00 0.66542935E+02</pdfrwt>
<totfact> 0.82696322E+01</totfact>
</mgrwt>
</event>
<event>
 5    1  0.4149151E-003  0.1477238E+03  0.7546771E-02  0.1321848E+00
         -3   -1    0    0    0  501 -0.00000000000E+00  0.00000000000E+00  0.21631394386E+03  0.21631394386E+03  0.00000000000E+00 0.  1.
          1   -1    0    0  502    0  0.00000000000E+00 -0.00000000000E+00 -0.13256150346E+04  0.13256150346E+04  0.00000000000E+00 0. -1.
         25    1    1    2    0    0  0.12072254326E+03  0.52079226779E+01 -0.59619525253E+03  0.62102724099E+03  0.12500000000E+03 0.  0.
          1    1    1    2  502    0  0.21027945687E+02  0.41113381897E+02 -0.68885981349E+03  0.69040591488E+03  0.00000000000E+00 0. -1.
         -3    1    1    2    0  501 -0.14175048894E+03 -0.46321304575E+02  0.17575397531E+03  0.23049582255E+03  0.00000000000E+00 0.  1.
<mgrwt>
<rscale>  0 0.82593667E+02</rscale>
<asrwt>0</asrwt>
<pdfrwt beam="2">  1        1 0.20394078E+00 0.46178834E+02</pdfrwt>
<pdfrwt beam="1">  1       -3 0.33279068E-01 0.14772382E+03</pdfrwt>
<totfact> 0.51527122E+01</totfact>
</mgrwt>
</event>
<event>
 5    1  0.4149151E-003  0.1106429E+03  0.7546771E-02  0.1441245E+00
          1   -1    0    0  501    0  0.00000000000E+00  0.00000000000E+00  0.16144933810E+04  0.16144933810E+04  0.00000000000E+00 0. -1.
          1   -1    0    0  502    0 -0.00000000000E+00 -0.00000000000E+00 -0.63050020862E+03  0.63050020862E+03  0.00000000000E+00 0. -1.
         25    1    1    2    0    0  0.11692810056E+03 -0.21805999580E+02 -0.46219382403E+03  0.49335161223E+03  0.12500000000E+03 0.  0.
          1    1    1    2  501    0 -0.11061649335E+03 -0.61690535940E+00  0.15961006807E+04  0.15999293022E+04  0.00000000000E+00 0. -1.
          1    1    1    2  502    0 -0.63116072046E+01  0.22422904939E+02 -0.14991368432E+03  0.15171267514E+03  0.00000000000E+00 0. -1.
<mgrwt>
<rscale>  0 0.50767574E+02</rscale>
<asrwt>0</asrwt>
<pdfrwt beam="1">  1        1 0.24838360E+00 0.11064294E+03</pdfrwt>
<pdfrwt beam="2">  1        1 0.97000033E-01 0.23294271E+02</pdfrwt>
<totfact> 0.28374665E+01</totfact>
</mgrwt>
</event>
<event>
 5    1  0.4149151E-003  0.9639401E+02  0.7546771E-02  0.1370100E+00
          2   -1    0    0  501    0  0.00000000000E+00  0.00000000000E+00  0.51432794467E+03  0.51432794467E+03  0.00000000000E+00 0. -1.
          1   -1    0    0  502    0 -0.00000000000E+00 -0.00000000000E+00 -0.33178730673E+03  0.33178730673E+03  0.00000000000E+00 0. -1.
         25    1    1    2    0    0 -0.41611923237E+02  0.30506847020E+02 -0.11451503992E+03  0.17720303112E+03  0.12500000000E+03 0.  0.
          2    1    1    2  501    0  0.73555974576E+02 -0.64659226725E+02  0.47496650963E+03  0.48495822734E+03  0.00000000000E+00 0. -1.
          1    1    1    2  502    0 -0.31944051339E+02  0.34152379705E+02 -0.17791083177E+03  0.18395399294E+03  0.00000000000E+00 0. -1.
<mgrwt>
<rscale>  0 0.67139431E+02</rscale>
<asrwt>0</asrwt>
<pdfrwt beam="1">  1        2 0.79127376E-01 0.96394008E+02</pdfrwt>
<pdfrwt beam="2">  1        1 0.51044201E-01 0.46763313E+02</pdfrwt>
<totfact> 0.64833669E+02</totfact>
</mgrwt>
</event>
<event>
 5    1  0.4149151E-003  0.6492553E+02  0.7546771E-02  0.1493077E+00
         -1   -1    0    0    0  501 -0.00000000000E+00  0.00000000000E+00  0.48519835899E+02  0.48519835899E+02  0.00000000000E+00 0.  1.
          1   -1    0    0  502    0  0.00000000000E+00 -0.00000000000E+00 -0.35350695003E+03  0.35350695003E+03  0.00000000000E+00 0. -1.
         25    1    1    2    0    0  0.47349312320E+02 -0.10430719835E+00 -0.25500017730E+03  0.28790980998E+03  0.12500000000E+03 0.  0.
          1    1    1    2  502    0  0.17294347699E+02  0.21177512073E+02 -0.35138070657E+02  0.44522640189E+02  0.00000000000E+00 0. -1.
         -1    1    1    2    0  501 -0.64643660019E+02 -0.21073204875E+02 -0.14848866180E+02  0.69594335769E+02  0.00000000000E+00 0.  1.
<mgrwt>
<rscale>  0 0.42133000E+02</rscale>
<asrwt>0</asrwt>
<pdfrwt beam="2">  1        1 0.54385683E-01 0.27341936E+02</pdfrwt>
<pdfrwt beam="1">  1       -1 0.74645904E-02 0.64925530E+02</pdfrwt>
<totfact> 0.61765638E+03</totfact>
</mgrwt>
</event>
<event>
 5    1  0.4149151E-003  0.7518051E+02  0.7546771E-02  0.1382973E+00
         -1   -1    0    0    0  501  0.00000000000E+00  0.00000000000E+00  0.25659489760E+03  0.25659489760E+03  0.00000000000E+00 0.  1.
         -1   -1    0    0    0  502 -0.00000000000E+00 -0.00000000000E+00 -0.56330549070E+03  0.56330549070E+03  0.00000000000E+00 0.  1.
         25    1    1    2    0    0  0.32061872498E+02 -0.78845150788E+01 -0.31075650162E+03  0.33657797394E+03  0.12500000000E+03 0.  0.
         -1    1    1    2    0  502  0.37449394793E+02  0.38839786114E+02 -0.23050615329E+03  0.23673629393E+03  0.00000000000E+00 0.  1.
         -1    1    1    2    0  501 -0.69511267291E+02 -0.30955271035E+02  0.23455206182E+03  0.24658612043E+03  0.00000000000E+00 0.  1.
<mgrwt>
<rscale>  0 0.63688742E+02</rscale>
<asrwt>0</asrwt>
<pdfrwt beam="1">  1       -1 0.39476138E-01 0.75180510E+02</pdfrwt>
<pdfrwt beam="2">  1       -1 0.86662382E-01 0.53953556E+02</pdfrwt>
<totfact> 0.77998537E+01</totfact>
</mgrwt>
</event>
<event>
 5    1  0.4149151E-003  0.7353055E+02  0.7546771E-02  0.1352446E+00
          2   -1    0    0  502    0  0.00000000000E+00  0.00000000000E+00  0.47638406300E+03  0.47638406300E+03  0.00000000000E+00 0. -1.
         -1   -1    0    0    0  501 -0.00000000000E+00 -0.00000000000E+00 -0.74363503394E+03  0.74363503394E+03  0.00000000000E+00 0.  1.
         25    1    1    2    0    0 -0.56556174981E+01 -0.44204557991E+02 -0.14041934746E+03  0.19320616475E+03  0.12500000000E+03 0.  0.
          2    1    1    2  502    0 -0.68574998675E+02  0.26536976101E+02  0.44443308271E+03  0.45047475684E+03  0.00000000000E+00 0. -1.
         -1    1    1    2    0  501  0.74230616173E+02  0.17667581890E+02 -0.57126470619E+03  0.57633817535E+03  0.00000000000E+00 0.  1.
<mgrwt>
<rscale>  0 0.72298674E+02</rscale>
<asrwt>0</asrwt>
<pdfrwt beam="1">  1        2 0.73289856E-01 0.73530548E+02</pdfrwt>
<pdfrwt beam="2">  1       -1 0.11440539E+00 0.71087438E+02</pdfrwt>
<totfact> 0.60920636E+01</totfact>
</mgrwt>
</event>
<event>
 5    1  0.4149151E-003  0.1067603E+03  0.7546771E-02  0.1319624E+00
         -2   -1    0    0    0  501 -0.00000000000E+00  0.00000000000E+00  0.67633173158E+03  0.67633173158E+03  0.00000000000E+00 0.  1.
          1   -1    0    0  502    0  0.00000000000E+00 -0.00000000000E+00 -0.10644069471E+03  0.10644069471E+03  0.00000000000E+00 0. -1.
         25    1    1    2    0    0 -0.67970750537E+02  0.60620907786E+02  0.33378157161E+03  0.36787233510E+03  0.12500000000E+03 0.  0.
          1    1    1    2  502    0 -0.53938678043E+02 -0.36590318334E+02 -0.63221975849E+02  0.90803362355E+02  0.00000000000E+00 0. -1.
         -2    1    1    2    0  501  0.12190942858E+03 -0.24030589453E+02  0.29933144111E+03  0.32409672884E+03  0.00000000000E+00 0.  1.
<mgrwt>
<rscale>  0 0.83417450E+02</rscale>
<asrwt>0</asrwt>
<pdfrwt beam="2">  1        1 0.16375492E-01 0.65178466E+02</pdfrwt>
<pdfrwt beam="1">  1       -2 0.10405103E+00 0.10676027E+03</pdfrwt>
<totfact> 0.22248509E+02</totfact>
</mgrwt>
</event>
<event>
 5    1  0.4149151E-003  0.5468791E+02  0.7546771E-02  0.1483310E+00
          2   -1    0    0  501    0  0.00000000000E+00  0.00000000000E+00  0.30714388047E+04  0.30714388047E+04  0.00000000000E+00 0. -1.
          2   -1    0    0  502    0 -0.00000000000E+00 -0.00000000000E+00 -0.62698387844E+02  0.62698387844E+02  0.00000000000E+00 0.  1.
         25    1    1    2    0    0  0.84597182658E+02 -0.22020574971E+01  0.43523442217E+03  0.46066857351E+03  0.12500000000E+03 0.  0.
          2    1    1    2  501    0 -0.52100018434E+02  0.14515086171E+02  0.26171333228E+04  0.26176920997E+04  0.00000000000E+00 0. -1.
          2    1    1    2  502    0 -0.32497164224E+02 -0.12313028674E+02 -0.43627328069E+02  0.55776519362E+02  0.00000000000E+00 0.  1.
<mgrwt>
<rscale>  0 0.43594662E+02</rscale>
<asrwt>0</asrwt>
<pdfrwt beam="1">  1        2 0.47252893E+00 0.54687912E+02</pdfrwt>
<pdfrwt beam="2">  1        2 0.96459082E-02 0.34751638E+02</pdfrwt>
<totfact> 0.22160665E+02</totfact>
</mgrwt>
</event>
<event>
 5    1  0.4149151E-003  0.2467283E+02  0.7546771E-02  0.1687520E+00
         -1   -1    0    0    0  501 -0.00000000000E+00  0.00000000000E+00  0.20386851250E+02  0.20386851250E+02  0.00000000000E+00 0.  1.
          2   -1    0    0  502    0  0.00000000000E+00 -0.00000000000E+00 -0.69060794610E+03  0.69060794610E+03  0.00000000000E+00 0. -1.
         25    1    1    2    0    0  0.31702658412E+00 -0.11844456225E+02 -0.56165752749E+03  0.57552112892E+03  0.12500000000E+03 0.  0.
          2    1    1    2  502    0 -0.21883323074E+02 -0.98733308924E+00 -0.10818015120E+03  0.11037572092E+03  0.00000000000E+00 0. -1.
         -1    1    1    2    0  501  0.21566296490E+02  0.12831789314E+02 -0.38341616520E+00  0.25097947510E+02  0.00000000000E+00 0.  1.
<mgrwt>
<rscale>  0 0.23248070E+02</rscale>
<asrwt>0</asrwt>
<pdfrwt beam="2">  1        2 0.10624738E+00 0.21905585E+02</pdfrwt>
<pdfrwt beam="1">  1       -1 0.31364386E-02 0.24672830E+02</pdfrwt>
<totfact> 0.13718500E+04</totfact>
</mgrwt>
</event>
<event>
 5    1  0.4149151E-003  0.5395876E+02  0.7546771E-02  0.1562203E+00
          2   -1    0    0  501    0  0.00000000000E+00  0.00000000000E+00  0.29905607374E+03  0.29905607374E+03  0.00000000000E+00 0. -1.
          1   -1    0    0  502    0 -0.00000000000E+00 -0.00000000000E+00 -0.16864219169E+03  0.16864219169E+03  0.00000000000E+00 0. -1.
         25    1    1    2    0    0 -0.98838501651E+01  0.32933158687E+02  0.92939025429E+01  0.12997561333E+03  0.12500000000E+03 0.  0.
          2    1    1    2  501    0  0.12643808453E+02 -0.53565627317E+02  0.22507370494E+03  0.23170523295E+03  0.00000000000E+00 0. -1.
          1    1    1    2  502    0 -0.27599582876E+01  0.20632468630E+02 -0.10395372543E+03  0.10601741915E+03  0.00000000000E+00 0. -1.
<mgrwt>
<rscale>  0 0.33514457E+02</rscale>
<asrwt>0</asrwt>
<pdfrwt beam="1">  1        2 0.46008627E-01 0.53958758E+02</pdfrwt>
<pdfrwt beam="2">  1        1 0.25944953E-01 0.20816247E+02</pdfrwt>
<totfact> 0.24908086E+03</totfact>
</mgrwt>
</event>
<event>
 5    1  0.4149151E-003  0.2801406E+03  0.7546771E-02  0.1254044E+00
          2   -1    0    0  501    0  0.00000000000E+00  0.00000000000E+00  0.13500880520E+04  0.13500880520E+04  0.00000000000E+00 0.  1.
          1   -1    0    0  502    0 -0.00000000000E+00 -0.00000000000E+00 -0.24948722324E+03  0.24948722324E+03  0.00000000000E+00 0. -1.
         25    1    1    2    0    0 -0.45841634297E+02 -0.31164193228E+03  0.33909224422E+03  0.47940661184E+03  0.12500000000E+03 0.  0.
          2    1    1    2  501    0  0.20169459770E+02  0.41416298769E+02  0.83712436786E+03  0.83839091370E+03  0.00000000000E+00 0.  1.
          1    1    1    2  502    0  0.25672174527E+02  0.27022563351E+03 -0.75615783308E+02  0.28177774971E+03  0.00000000000E+00 0. -1.
<mgrwt>
<rscale>  0 0.11360054E+03</rscale>
<asrwt>0</asrwt>
<pdfrwt beam="1">  1        2 0.20770585E+00 0.46066440E+02</pdfrwt>
<pdfrwt beam="2">  1        1 0.38382651E-01 0.28014065E+03</pdfrwt>
<totfact> 0.28280998E+02</totfact>
</mgrwt>
</event>
<event>
 5    1  0.4149151E-003  0.5714258E+02  0.7546771E-02  0.1436220E+00
          1   -1    0    0  502    0  0.00000000000E+00  0.00000000000E+00  0.64116632893E+02  0.64116632893E+02  0.00000000000E+00 0. -1.
         -1   -1    0    0    0  501 -0.00000000000E+00 -0.00000000000E+00 -0.23984599645E+03  0.23984599645E+03  0.00000000000E+00 0.  1.
         25    1    1    2    0    0 -0.10500902720E+02 -0.59132090247E+02 -0.11127554872E+03  0.17780360176E+03  0.12500000000E+03 0.  0.
          1    1    1    2  502    0 -0.35331214903E+02  0.49501911220E+02 -0.28759797821E+02  0.67274511753E+02  0.00000000000E+00 0. -1.
         -1    1    1    2    0  501  0.45832117623E+02  0.96301790277E+01 -0.35694017010E+02  0.58884515827E+02  0.00000000000E+00 0.  1.
<mgrwt>
<rscale>  0 0.51731562E+02</rscale>
<asrwt>0</asrwt>
<pdfrwt beam="1">  1        1 0.98640974E-02 0.57142582E+02</pdfrwt>
<pdfrwt beam="2">  1       -1 0.36899384E-01 0.46832930E+02</pdfrwt>
<totfact> 0.41640532E+03</totfact>
</mgrwt>
</event>
<event>
 5    1  0.4149151E-003  0.1070320E+03  0.7546771E-02  0.1295184E+00
          2   -1    0    0  501    0  0.00000000000E+00  0.00000000000E+00  0.50714741731E+02  0.50714741731E+02  0.00000000000E+00 0. -1.
          1   -1    0    0  502    0 -0.00000000000E+00 -0.00000000000E+00 -0.18818428655E+04  0.18818428655E+04  0.00000000000E+00 0. -1.
         25    1    1    2    0    0 -0.63229339110E+01 -0.29208319292E+02 -0.13398146645E+04  0.13459648734E+04  0.12500000000E+03 0.  0.
          2    1    1    2  501    0  0.29630372144E+02  0.10702250580E+03 -0.25748481758E+02  0.11399456133E+03  0.00000000000E+00 0. -1.
          1    1    1    2  502    0 -0.23307438233E+02 -0.77814186504E+02 -0.46556497758E+03  0.47259817250E+03  0.00000000000E+00 0. -1.
<mgrwt>
<rscale>  0 0.93242654E+02</rscale>
<asrwt>0</asrwt>
<pdfrwt beam="1">  1        2 0.78022697E-02 0.10703202E+03</pdfrwt>
<pdfrwt beam="2">  1        1 0.28951422E+00 0.81229824E+02</pdfrwt>
<totfact> 0.51718316E+02</totfact>
</mgrwt>
</event>
<event>
 5    1  0.4149151E-003  0.1313152E+03  0.7546771E-02  0.1229409E+00
          2   -1    0    0  502    0  0.00000000000E+00  0.00000000000E+00  0.39101770502E+03  0.39101770502E+03  0.00000000000E+00 0. -1.
          2   -1    0    0  501    0 -0.00000000000E+00 -0.00000000000E+00 -0.83132725254E+03  0.83132725254E+03  0.00000000000E+00 0. -1.
         25    1    1    2    0    0  0.47848004645E+02 -0.33285905626E+02 -0.62286723400E+02  0.15133413023E+03  0.12500000000E+03 0.  0.
          2    1    1    2  501    0 -0.57319957795E+02 -0.11234436776E+03 -0.70328752249E+03  0.71450694455E+03  0.00000000000E+00 0. -1.
          2    1    1    2  502    0  0.94719531503E+01  0.14563027339E+03  0.32526469837E+03  0.35650388277E+03  0.00000000000E+00 0. -1.
<mgrwt>
<rscale>  0 0.12869254E+03</rscale>
<asrwt>0</asrwt>
<pdfrwt beam="1">  1        2 0.60156571E-01 0.13131516E+03</pdfrwt>
<pdfrwt beam="2">  1        2 0.12789650E+00 0.12612230E+03</pdfrwt>
<totfact> 0.44412807E+02</totfact>
</mgrwt>
</event>
<event>
 5    1  0.4149151E-003  0.8057207E+02  0.7546771E-02  0.1477838E+00
         -1   -1    0    0    0  501 -0.00000000000E+00  0.00000000000E+00  0.94454368985E+02  0.94454368985E+02  0.00000000000E+00 0.  1.
          2   -1    0    0  502    0  0.00000000000E+00 -0.00000000000E+00 -0.17671159634E+03  0.17671159634E+03  0.00000000000E+00 0. -1.
         25    1    1    2    0    0 -0.70396393564E+02  0.21910663296E+02 -0.36091400651E+02  0.14954370128E+03  0.12500000000E+03 0.  0.
          2    1    1    2  502    0 -0.31487059918E+01  0.24313396581E+02 -0.32397349327E+01  0.24729567024E+02  0.00000000000E+00 0. -1.
         -1    1    1    2    0  501  0.73545099555E+02 -0.46224059877E+02 -0.42926091768E+02  0.96892697014E+02  0.00000000000E+00 0.  1.
<mgrwt>
<rscale>  0 0.44444796E+02</rscale>
<asrwt>0</asrwt>
<pdfrwt beam="2">  1        2 0.27186399E-01 0.24516435E+02</pdfrwt>
<pdfrwt beam="1">  1       -1 0.14531442E-01 0.80572066E+02</pdfrwt>
<totfact> 0.66071711E+03</totfact>
</mgrwt>
</event>
<event>
 5    1  0.4149151E-003  0.9569455E+02  0.7546771E-02  0.1292696E+00
         -2   -1    0    0    0  501 -0.00000000000E+00  0.00000000000E+00  0.14983140576E+02  0.14983140576E+02  0.00000000000E+00 0.  1.
          2   -1    0    0  502    0  0.00000000000E+00 -0.00000000000E+00 -0.30107195807E+04  0.30107195807E+04  0.00000000000E+00 0. -1.
         25    1    1    2    0    0 -0.28913819704E+02  0.42851905835E+02 -0.69467259422E+03  0.70771979481E+03  0.12500000000E+03 0.  0.
          2    1    1    2  502    0 -0.13259523726E+02  0.92031524048E+02 -0.16064374387E+04  0.16091261171E+04  0.00000000000E+00 0. -1.
         -2    1    1    2    0  501  0.42173343431E+02 -0.13488342988E+03 -0.69462640722E+03  0.70885680935E+03  0.00000000000E+00 0.  1.
<mgrwt>
<rscale>  0 0.94328425E+02</rscale>
<asrwt>0</asrwt>
<pdfrwt beam="2">  1        2 0.46318748E+00 0.92981807E+02</pdfrwt>
<pdfrwt beam="1">  1       -2 0.23050993E-02 0.95694546E+02</pdfrwt>
<totfact> 0.13480513E+03</totfact>
</mgrwt>
</event>
<event>
 5    1  0.4149151E-003  0.4060945E+02  0.7546771E-02  0.1557803E+00
          3   -1    0    0  502    0 -0.00000000000E+00  0.00000000000E+00  0.18164920392E+03  0.18164920392E+03  0.00000000000E+00 0. -1.
          1   -1    0    0  501    0  0.00000000000E+00 -0.00000000000E+00 -0.88252842906E+03  0.88252842906E+03  0.00000000000E+00 0. -1.
         25    1    1    2    0    0 -0.70455069795E+01  0.10861743244E+02 -0.10907342539E+03  0.16640200948E+03  0.12500000000E+03 0.  0.
          1    1    1    2  501    0 -0.20344138006E+02  0.19875101895E+02 -0.74174343953E+03  0.74228851110E+03  0.00000000000E+00 0. -1.
          3    1    1    2  502    0  0.27389644986E+02 -0.30736845138E+02  0.14993763977E+03  0.15548711240E+03  0.00000000000E+00 0. -1.
<mgrwt>
<rscale>  0 0.33985038E+02</rscale>
<asrwt>0</asrwt>
<pdfrwt beam="2">  1        1 0.13577361E+00 0.28441231E+02</pdfrwt>
<pdfrwt beam="1">  1        3 0.27946031E-01 0.40609451E+02</pdfrwt>
<totfact> 0.13094540E+02</totfact>
</mgrwt>
</event>
<event>
 5    1  0.4149151E-003  0.7483029E+02  0.7546771E-02  0.1408947E+00
          2   -1    0    0  502    0  0.00000000000E+00  0.00000000000E+00  0.43943773670E+04  0.43943773670E+04  0.00000000000E+00 0. -1.
         -1   -1    0    0    0  501 -0.00000000000E+00 -0.00000000000E+00 -0.75667586392E+01  0.75667586392E+01  0.00000000000E+00 0.  1.
         25    1    1    2    0    0 -0.87272207118E+02 -0.51542902699E+02  0.10358405377E+04  0.10482670120E+04  0.12500000000E+03 0.  0.
          2    1    1    2  502    0  0.72650845092E+02  0.99639217570E+01  0.27953373345E+04  0.27962990253E+04  0.00000000000E+00 0. -1.
         -1    1    1    2    0  501  0.14621362026E+02  0.41578980942E+02  0.55563273615E+03  0.55737808835E+03  0.00000000000E+00 0.  1.
<mgrwt>
<rscale>  0 0.57429408E+02</rscale>
<asrwt>0</asrwt>
<pdfrwt beam="1">  1        2 0.67605602E+00 0.74830293E+02</pdfrwt>
<pdfrwt beam="2">  1       -1 0.11641202E-02 0.44074889E+02</pdfrwt>
<totfact> 0.37301558E+02</totfact>
</mgrwt>
</event>
<event>
 5    1  0.4149151E-003  0.4858822E+03  0.7546771E-02  0.1017531E+00
         -1   -1    0    0    0  501 -0.00000000000E+00  0.00000000000E+00  0.98099998517E+02  0.98099998517E+02  0.00000000000E+00 0.  1.
          2   -1    0    0  502    0  0.00000000000E+00 -0.00000000000E+00 -0.60163476724E+03  0.60163476724E+03  0.00000000000E+00 0. -1.
         25    1    1    2    0    0 -0.92950295356E+02  0.17665073723E+03 -0.39410143543E+03  0.45911456280E+03  0.12500000000E+03 0.  0.
          2    1    1    2  502    0  0.58347663130E+02 -0.13690702063E+03 -0.11437086915E+03  0.18769304143E+03  0.00000000000E+00 0. -1.
         -1    1    1    2    0  501  0.34602632226E+02 -0.39743716598E+02  0.49375358629E+01  0.52927161518E+02  0.00000000000E+00 0.  1.
<mgrwt>
<rscale>  0 0.48588217E+03</rscale>
<asrwt>0</asrwt>
<pdfrwt beam="2">  1        2 0.92559196E-01 0.48588217E+03</pdfrwt>
<pdfrwt beam="1">  1       -1 0.15092307E-01 0.48588217E+03</pdfrwt>
<totfact> 0.18292496E+03</totfact>
</mgrwt>
</event>
<event>
 5    1  0.4149151E-003  0.6314026E+02  0.7546771E-02  0.1385871E+00
          2   -1    0    0  502    0  0.00000000000E+00  0.00000000000E+00  0.21396696093E+03  0.21396696093E+03  0.00000000000E+00 0.  1.
         -1   -1    0    0    0  501 -0.00000000000E+00 -0.00000000000E+00 -0.25971381473E+03  0.25971381473E+03  0.00000000000E+00 0.  1.
         25    1    1    2    0    0 -0.20504646721E+02  0.34113519797E+01  0.59246614937E+02  0.13988294836E+03  0.12500000000E+03 0.  0.
          2    1    1    2  502    0  0.72898052966E+02  0.31122969417E+02  0.95270724854E+02  0.12393254764E+03  0.00000000000E+00 0.  1.
         -1    1    1    2    0  501 -0.52393406244E+02 -0.34534321397E+02 -0.20026419359E+03  0.20986527966E+03  0.00000000000E+00 0.  1.
<mgrwt>
<rscale>  0 0.62945333E+02</rscale>
<asrwt>0</asrwt>
<pdfrwt beam="1">  1        2 0.32917994E-01 0.63140264E+02</pdfrwt>
<pdfrwt beam="2">  1       -1 0.39955971E-01 0.62751003E+02</pdfrwt>
<totfact> 0.10837931E+03</totfact>
</mgrwt>
</event>
<event>
 5    1  0.4149151E-003  0.6213083E+02  0.7546771E-02  0.1429135E+00
         -1   -1    0    0    0  501 -0.00000000000E+00  0.00000000000E+00  0.76670213453E+02  0.76670213453E+02  0.00000000000E+00 0.  1.
          2   -1    0    0  502    0  0.00000000000E+00 -0.00000000000E+00 -0.22932902578E+03  0.22932902578E+03  0.00000000000E+00 0. -1.
         25    1    1    2    0    0  0.38508646809E+02  0.58840982566E+02 -0.13212882405E+03  0.19500821330E+03  0.12500000000E+03 0.  0.
          2    1    1    2  502    0  0.21767992728E+02 -0.39886594713E+02 -0.13566611043E+02  0.47421924047E+02  0.00000000000E+00 0. -1.
         -1    1    1    2    0  501 -0.60276639536E+02 -0.18954387853E+02 -0.69633772343E+01  0.63569101891E+02  0.00000000000E+00 0.  1.
<mgrwt>
<rscale>  0 0.53133980E+02</rscale>
<asrwt>0</asrwt>
<pdfrwt beam="2">  1        2 0.35281389E-01 0.45439916E+02</pdfrwt>
<pdfrwt beam="1">  1       -1 0.11795417E-01 0.62130833E+02</pdfrwt>
<totfact> 0.69852086E+03</totfact>
</mgrwt>
</event>
<event>
 5    1  0.4149151E-003  0.7901862E+02  0.7546771E-02  0.1357172E+00
          2   -1    0    0  501    0  0.00000000000E+00  0.00000000000E+00  0.51617626828E+03  0.51617626828E+03  0.00000000000E+00 0. -1.
          1   -1    0    0  502    0 -0.00000000000E+00 -0.00000000000E+00 -0.17758381337E+03  0.17758381337E+03  0.00000000000E+00 0. -1.
         25    1    1    2    0    0  0.11978401099E+03 -0.63967519968E+02  0.13442387579E+03  0.22833053077E+03  0.12500000000E+03 0.  0.
          2    1    1    2  501    0 -0.59344860105E+02  0.44312018911E+02  0.32261613884E+03  0.33100836920E+03  0.00000000000E+00 0. -1.
          1    1    1    2  502    0 -0.60439150886E+02  0.19655501057E+02 -0.11844755972E+03  0.13442118168E+03  0.00000000000E+00 0. -1.
<mgrwt>
<rscale>  0 0.70866237E+02</rscale>
<asrwt>0</asrwt>
<pdfrwt beam="1">  1        2 0.79411733E-01 0.79018625E+02</pdfrwt>
<pdfrwt beam="2">  1        1 0.27320587E-01 0.63554934E+02</pdfrwt>
<totfact> 0.13777976E+03</totfact>
</mgrwt>
</event>
<event>
 5    1  0.4149151E-003  0.6780582E+02  0.7546771E-02  0.1499628E+00
          1   -1    0    0  502    0  0.00000000000E+00  0.00000000000E+00  0.95736126697E+02  0.95736126697E+02  0.00000000000E+00 0. -1.
          1   -1    0    0  501    0 -0.00000000000E+00 -0.00000000000E+00 -0.20958091557E+04  0.20958091557E+04  0.00000000000E+00 0. -1.
         25    1    1    2    0    0 -0.60411002905E+02 -0.38171008166E+02 -0.20406520833E+03  0.24974812189E+03  0.12500000000E+03 0.  0.
          1    1    1    2  501    0  0.19363775811E+02 -0.15848252847E+02 -0.18530133828E+04  0.18531823224E+04  0.00000000000E+00 0. -1.
          1    1    1    2  502    0  0.41047227094E+02  0.54019261013E+02  0.57005562199E+02  0.88614838115E+02  0.00000000000E+00 0. -1.
<mgrwt>
<rscale>  0 0.41190626E+02</rscale>
<asrwt>0</asrwt>
<pdfrwt beam="1">  1        1 0.14728634E-01 0.67805821E+02</pdfrwt>
<pdfrwt beam="2">  1        1 0.32243220E+00 0.25022449E+02</pdfrwt>
<totfact> 0.17220519E+02</totfact>
</mgrwt>
</event>
<event>
 5    1  0.4149151E-003  0.4442647E+02  0.7546771E-02  0.1515137E+00
         -2   -1    0    0    0  501  0.00000000000E+00  0.00000000000E+00  0.27078040364E+03  0.27078040364E+03  0.00000000000E+00 0.  1.
         -3   -1    0    0    0  502 -0.00000000000E+00 -0.00000000000E+00 -0.91750731168E+02  0.91750731168E+02  0.00000000000E+00 0.  1.
         25    1    1    2    0    0 -0.22341352386E+02  0.88277661260E+01  0.98273056559E+02  0.16080938756E+03  0.12500000000E+03 0.  0.
         -2    1    1    2    0  501 -0.19887079546E+02 -0.28028231601E+02  0.12976604791E+03  0.13423972918E+03  0.00000000000E+00 0.  1.
         -3    1    1    2    0  502  0.42228431932E+02  0.19200465475E+02 -0.49009432000E+02  0.67482018070E+02  0.00000000000E+00 0.  1.
<mgrwt>
<rscale>  0 0.39074238E+02</rscale>
<asrwt>0</asrwt>
<pdfrwt beam="1">  1       -2 0.41658523E-01 0.34366811E+02</pdfrwt>
<pdfrwt beam="2">  1       -3 0.14115497E-01 0.44426470E+02</pdfrwt>
<totfact> 0.75525911E+02</totfact>
</mgrwt>
</event>
<event>
 5    1  0.4149151E-003  0.2869013E+02  0.7546771E-02  0.1639074E+00
          2   -1    0    0  502    0  0.00000000000E+00  0.00000000000E+00  0.79535856707E+03  0.79535856707E+03  0.00000000000E+00 0. -1.
          2   -1    0    0  501    0 -0.00000000000E+00 -0.00000000000E+00 -0.35566383262E+04  0.35566383262E+04  0.00000000000E+00 0.  1.
         25    1    1    2    0    0  0.97051813599E+01 -0.35531989288E+02 -0.18841345048E+04  0.18886356306E+04  0.12500000000E+03 0.  0.
          2    1    1    2  501    0 -0.22583419776E+02  0.98944261096E+01 -0.16699027593E+04  0.16700847691E+04  0.00000000000E+00 0.  1.
          2    1    1    2  502    0  0.12878238416E+02  0.25637563179E+02  0.79275750495E+03  0.79327649362E+03  0.00000000000E+00 0. -1.
<mgrwt>
<rscale>  0 0.26596602E+02</rscale>
<asrwt>0</asrwt>
<pdfrwt beam="1">  1        2 0.12236286E+00 0.28690128E+02</pdfrwt>
<pdfrwt beam="2">  1        2 0.54717512E+00 0.24655841E+02</pdfrwt>
<totfact> 0.91126148E+00</totfact>
</mgrwt>
</event>
<event>
 5    1  0.4149151E-003  0.6438353E+02  0.7546771E-02  0.1416704E+00
          2   -1    0    0  502    0  0.00000000000E+00  0.00000000000E+00  0.76761622919E+03  0.76761622919E+03  0.00000000000E+00 0. -1.
         -3   -1    0    0    0  501 -0.00000000000E+00 -0.00000000000E+00 -0.59024028203E+03  0.59024028203E+03  0.00000000000E+00 0.  1.
         25    1    1    2    0    0 -0.62318081576E+01  0.28625840737E+02 -0.18962856750E+03  0.22900276811E+03  0.12500000000E+03 0.  0.
          2    1    1    2  502    0  0.28940201991E+02  0.38582221973E+02  0.74383848510E+03  0.74540043940E+03  0.00000000000E+00 0. -1.
         -3    1    1    2    0  501 -0.22708393834E+02 -0.67208062710E+02 -0.37683397044E+03  0.38345330370E+03  0.00000000000E+00 0.  1.
<mgrwt>
<rscale>  0 0.55724422E+02</rscale>
<asrwt>0</asrwt>
<pdfrwt beam="1">  1        2 0.11809480E+00 0.48229899E+02</pdfrwt>
<pdfrwt beam="2">  1       -3 0.90806198E-01 0.64383530E+02</pdfrwt>
<totfact> 0.27017216E+01</totfact>
</mgrwt>
</event>
<event>
 5    1  0.4149151E-003  0.6161603E+02  0.7546771E-02  0.1439124E+00
         -1   -1    0    0    0  501 -0.00000000000E+00  0.00000000000E+00  0.14189428075E+04  0.14189428075E+04  0.00000000000E+00 0.  1.
          2   -1    0    0  502    0  0.00000000000E+00 -0.00000000000E+00 -0.12382729164E+02  0.12382729164E+02  0.00000000000E+00 0. -1.
         25    1    1    2    0    0 -0.22397851407E+02 -0.58559954965E+02  0.53998030292E+03  0.55779446001E+03  0.12500000000E+03 0.  0.
          2    1    1    2  502    0  0.57714006941E+02  0.34921181982E+02  0.52199226087E+03  0.52633289462E+03  0.00000000000E+00 0. -1.
         -1    1    1    2    0  501 -0.35316155535E+02  0.23638772983E+02  0.34458751453E+03  0.34719818202E+03  0.00000000000E+00 0.  1.
<mgrwt>
<rscale>  0 0.51171439E+02</rscale>
<asrwt>0</asrwt>
<pdfrwt beam="2">  1        2 0.19050364E-02 0.61616026E+02</pdfrwt>
<pdfrwt beam="1">  1       -1 0.21829876E+00 0.42497323E+02</pdfrwt>
<totfact> 0.83908040E+02</totfact>
</mgrwt>
</event>
<event>
 5    1  0.4149151E-003  0.7040820E+02  0.7546771E-02  0.1432850E+00
          1   -1    0    0  502    0 -0.00000000000E+00  0.00000000000E+00  0.13498987544E+04  0.13498987544E+04  0.00000000000E+00 0. -1.
          2   -1    0    0  501    0  0.00000000000E+00 -0.00000000000E+00 -0.14609523768E+03  0.14609523768E+03  0.00000000000E+00 0. -1.
         25    1    1    2    0    0 -0.46673504701E+02 -0.19333635294E+02  0.32521420960E+02  0.13868975563E+03  0.12500000000E+03 0.  0.
          2    1    1    2  501    0  0.57075883026E+01 -0.38566046568E+02 -0.87883447759E+02  0.96142690321E+02  0.00000000000E+00 0. -1.
          1    1    1    2  502    0  0.40965916398E+02  0.57899681863E+02  0.12591655435E+04  0.12611615461E+04  0.00000000000E+00 0. -1.
<mgrwt>
<rscale>  0 0.52392191E+02</rscale>
<asrwt>0</asrwt>
<pdfrwt beam="2">  1        2 0.22476191E-01 0.38986107E+02</pdfrwt>
<pdfrwt beam="1">  1        1 0.20767672E+00 0.70408202E+02</pdfrwt>
<totfact> 0.31371088E+02</totfact>
</mgrwt>
</event>
<event>
 5    1  0.4149151E-003  0.7666817E+02  0.7546771E-02  0.1397614E+00
         -2   -1    0    0    0  501 -0.00000000000E+00  0.00000000000E+00  0.27763880742E+03  0.27763880742E+03  0.00000000000E+00 0.  1.
          2   -1    0    0  502    0  0.00000000000E+00 -0.00000000000E+00 -0.84418561987E+02  0.84418561987E+02  0.00000000000E+00 0. -1.
         25    1    1    2    0    0  0.79846662830E+02  0.50348084720E+02  0.42610266776E+02  0.16233007742E+03  0.12500000000E+03 0.  0.
          2    1    1    2  502    0 -0.45786304693E+01 -0.46813448048E+02  0.25046351619E+02  0.53289609724E+02  0.00000000000E+00 0. -1.
         -2    1    1    2    0  501 -0.75268032361E+02 -0.35346366720E+01  0.12556362703E+03  0.14643768226E+03  0.00000000000E+00 0.  1.
<mgrwt>
<rscale>  0 0.60051871E+02</rscale>
<asrwt>0</asrwt>
<pdfrwt beam="2">  1        2 0.12987471E-01 0.47036824E+02</pdfrwt>
<pdfrwt beam="1">  1       -2 0.42713662E-01 0.76668171E+02</pdfrwt>
<totfact> 0.22055664E+03</totfact>
</mgrwt>
</event>
<event>
 5    1  0.4149151E-003  0.8448360E+02  0.7546771E-02  0.1330987E+00
          2   -1    0    0  502    0  0.00000000000E+00  0.00000000000E+00  0.15742672947E+03  0.15742672947E+03  0.00000000000E+00 0. -1.
         -2   -1    0    0    0  501 -0.00000000000E+00 -0.00000000000E+00 -0.90924586620E+03  0.90924586620E+03  0.00000000000E+00 0.  1.
         25    1    1    2    0    0 -0.88171729127E+02  0.75487224587E+02 -0.24876863692E+03  0.30163456302E+03  0.12500000000E+03 0.  0.
          2    1    1    2  502    0  0.14074507530E+02 -0.82986604368E+02  0.11500211382E+03  0.14251440085E+03  0.00000000000E+00 0. -1.
         -2    1    1    2    0  501  0.74097221597E+02  0.74993797812E+01 -0.61805261363E+03  0.62252363181E+03  0.00000000000E+00 0.  1.
<mgrwt>
<rscale>  0 0.79322005E+02</rscale>
<asrwt>0</asrwt>
<pdfrwt beam="1">  1        2 0.24219497E-01 0.84483601E+02</pdfrwt>
<pdfrwt beam="2">  1       -2 0.13988398E+00 0.74475761E+02</pdfrwt>
<totfact> 0.87372478E+01</totfact>
</mgrwt>
</event>
<event>
 5    1  0.4149151E-003  0.5804297E+02  0.7546771E-02  0.1481643E+00
         -2   -1    0    0    0  501 -0.00000000000E+00  0.00000000000E+00  0.29649509836E+03  0.29649509836E+03  0.00000000000E+00 0.  1.
          2   -1    0    0  502    0  0.00000000000E+00 -0.00000000000E+00 -0.22882119148E+03  0.22882119148E+03  0.00000000000E+00 0. -1.
         25    1    1    2    0    0 -0.47444343991E+02 -0.16747488080E+02  0.80053870289E+02  0.15673246722E+03  0.12500000000E+03 0.  0.
          2    1    1    2  502    0  0.56700936897E+02 -0.15062465093E+02 -0.18434569053E+03  0.19345595808E+03  0.00000000000E+00 0. -1.
         -2    1    1    2    0  501 -0.92565929059E+01  0.31809953174E+02  0.17196572712E+03  0.17512786454E+03  0.00000000000E+00 0.  1.
<mgrwt>
<rscale>  0 0.43851217E+02</rscale>
<asrwt>0</asrwt>
<pdfrwt beam="2">  1        2 0.35203260E-01 0.58042970E+02</pdfrwt>
<pdfrwt beam="1">  1       -2 0.45614630E-01 0.33129407E+02</pdfrwt>
<totfact> 0.65586375E+02</totfact>
</mgrwt>
</event>
<event>
 5    1  0.4149151E-003  0.9440315E+02  0.7546771E-02  0.1328530E+00
          1   -1    0    0  501    0  0.00000000000E+00  0.00000000000E+00  0.48634300180E+03  0.48634300180E+03  0.00000000000E+00 0. -1.
          1   -1    0    0  502    0 -0.00000000000E+00 -0.00000000000E+00 -0.24620761628E+04  0.24620761628E+04  0.00000000000E+00 0. -1.
         25    1    1    2    0    0 -0.13771795252E+03 -0.66837993536E+02 -0.33470825598E+03  0.38870061544E+03  0.12500000000E+03 0.  0.
          1    1    1    2  501    0  0.67798889180E+02  0.64670471932E+01  0.45579978824E+03  0.46086002109E+03  0.00000000000E+00 0. -1.
          1    1    1    2  502    0  0.69919063336E+02  0.60370946343E+02 -0.20968246933E+04  0.20988585281E+04  0.00000000000E+00 0. -1.
<mgrwt>
<rscale>  0 0.80184037E+02</rscale>
<asrwt>0</asrwt>
<pdfrwt beam="1">  1        1 0.74822000E-01 0.68106623E+02</pdfrwt>
<pdfrwt beam="2">  1        1 0.37878095E+00 0.94403150E+02</pdfrwt>
<totfact> 0.11343614E+01</totfact>
</mgrwt>
</event>
<event>
 5    1  0.4149151E-003  0.7718758E+02  0.7546771E-02  0.1484196E+00
         -1   -1    0    0    0  501 -0.00000000000E+00  0.00000000000E+00  0.33837531727E+02  0.33837531727E+02  0.00000000000E+00 0.  1.
          1   -1    0    0  502    0  0.00000000000E+00 -0.00000000000E+00 -0.52536446662E+03  0.52536446662E+03  0.00000000000E+00 0. -1.
         25    1    1    2    0    0  0.54602662084E+02 -0.24570694517E+02 -0.38314975334E+03  0.40744803745E+03  0.12500000000E+03 0.  0.
          1    1    1    2  502    0  0.13791164777E+02 -0.20212324103E+02 -0.24384570624E+02  0.34544776104E+02  0.00000000000E+00 0. -1.
         -1    1    1    2    0  501 -0.68393826861E+02  0.44783018620E+02 -0.83992610929E+02  0.11720918479E+03  0.00000000000E+00 0.  1.
<mgrwt>
<rscale>  0 0.43459251E+02</rscale>
<asrwt>0</asrwt>
<pdfrwt beam="2">  1        1 0.80825300E-01 0.24469047E+02</pdfrwt>
<pdfrwt beam="1">  1       -1 0.52057743E-02 0.77187579E+02</pdfrwt>
<totfact> 0.66531683E+03</totfact>
</mgrwt>
</event>
<event>
 5    1  0.6086049E-003  0.7528944E+02  0.7546771E-02  0.1370269E+00
          2   -1    0    0  502    0  0.00000000000E+00  0.00000000000E+00  0.69958506847E+03  0.69958506847E+03  0.00000000000E+00 0. -1.
         -1   -1    0    0    0  501 -0.00000000000E+00 -0.00000000000E+00 -0.39507708979E+02  0.39507708979E+02  0.00000000000E+00 0.  1.
         25    1    1    2    0    0 -0.10988834901E+02  0.12185027516E+03  0.26219618800E+03  0.31518262174E+03  0.12500000000E+03 0.  0.
          2    1    1    2  502    0  0.26137386197E+02 -0.64013413950E+02  0.31001405677E+03  0.31763122567E+03  0.00000000000E+00 0. -1.
         -1    1    1    2    0  501 -0.15148551296E+02 -0.57836861208E+02  0.87867114728E+02  0.10627893004E+03  0.00000000000E+00 0.  1.
<mgrwt>
<rscale>  0 0.67092399E+02</rscale>
<asrwt>0</asrwt>
<pdfrwt beam="1">  1        2 0.10762846E+00 0.75289440E+02</pdfrwt>
<pdfrwt beam="2">  1       -1 0.60781096E-02 0.59787801E+02</pdfrwt>
<totfact> 0.57271511E+03</totfact>
</mgrwt>
</event>
<event>
 5    1  0.4149151E-003  0.4079792E+02  0.7546771E-02  0.1509989E+00
          1   -1    0    0  502    0  0.00000000000E+00  0.00000000000E+00  0.16969515569E+03  0.16969515569E+03  0.00000000000E+00 0. -1.
         -2   -1    0    0    0  501 -0.00000000000E+00 -0.00000000000E+00 -0.70504954482E+02  0.70504954482E+02  0.00000000000E+00 0.  1.
         25    1    1    2    0    0  0.18453949998E+02 -0.30539879025E+02  0.74182631228E+02  0.14967062256E+03  0.12500000000E+03 0.  0.
          1    1    1    2  502    0 -0.40367858878E+02 -0.59081512310E+01  0.25288921381E+02  0.47999998187E+02  0.00000000000E+00 0. -1.
         -2    1    1    2    0  501  0.21913908880E+02  0.36448030256E+02 -0.28135140409E+00  0.42529489423E+02  0.00000000000E+00 0.  1.
<mgrwt>
<rscale>  0 0.39759439E+02</rscale>
<asrwt>0</asrwt>
<pdfrwt beam="1">  1        1 0.26106947E-01 0.40797920E+02</pdfrwt>
<pdfrwt beam="2">  1       -2 0.10846916E-01 0.38747392E+02</pdfrwt>
<totfact> 0.77409274E+03</totfact>
</mgrwt>
</event>
<event>
 5    1  0.4149151E-003  0.5577681E+02  0.7546771E-02  0.1433599E+00
          1   -1    0    0  502    0 -0.00000000000E+00  0.00000000000E+00  0.97929008728E+02  0.97929008728E+02  0.00000000000E+00 0. -1.
          2   -1    0    0  501    0  0.00000000000E+00 -0.00000000000E+00 -0.18531632623E+03  0.18531632623E+03  0.00000000000E+00 0. -1.
         25    1    1    2    0    0 -0.47890658918E+02 -0.53401373504E+02 -0.78530606637E+02  0.16412579956E+03  0.12500000000E+03 0.  0.
          2    1    1    2  501    0 -0.10223999464E+01  0.54879689758E+02 -0.33525534705E+02  0.64317860093E+02  0.00000000000E+00 0. -1.
          1    1    1    2  502    0  0.48913058865E+02 -0.14783162548E+01  0.24668823839E+02  0.54801675303E+02  0.00000000000E+00 0. -1.
<mgrwt>
<rscale>  0 0.52244237E+02</rscale>
<asrwt>0</asrwt>
<pdfrwt beam="2">  1        2 0.28510204E-01 0.55776814E+02</pdfrwt>
<pdfrwt beam="1">  1        1 0.15066001E-01 0.48935394E+02</pdfrwt>
<totfact> 0.82564647E+03</totfact>
</mgrwt>
</event>
<event>
 5    1  0.4149151E-003  0.8519231E+02  0.7546771E-02  0.1469163E+00
          1   -1    0    0  502    0 -0.00000000000E+00  0.00000000000E+00  0.32521594131E+03  0.32521594131E+03  0.00000000000E+00 0. -1.
          2   -1    0    0  501    0  0.00000000000E+00 -0.00000000000E+00 -0.99823993457E+02  0.99823993457E+02  0.00000000000E+00 0. -1.
         25    1    1    2    0    0  0.36188241367E+02  0.90718339184E+02  0.83102619762E+02  0.17908224727E+03  0.12500000000E+03 0.  0.
          2    1    1    2  501    0 -0.23138232543E+02 -0.85450715336E+01 -0.39194669741E+02  0.46310022553E+02  0.00000000000E+00 0. -1.
          1    1    1    2  502    0 -0.13050008824E+02 -0.82173267650E+02  0.18148399784E+03  0.19964766494E+03  0.00000000000E+00 0. -1.
<mgrwt>
<rscale>  0 0.45840231E+02</rscale>
<asrwt>0</asrwt>
<pdfrwt beam="2">  1        2 0.15357538E-01 0.24665686E+02</pdfrwt>
<pdfrwt beam="1">  1        1 0.50033221E-01 0.85192313E+02</pdfrwt>
<totfact> 0.36000464E+03</totfact>
</mgrwt>
</event>
<event>
 5    1  0.6614764E-003  0.1177403E+03  0.7546771E-02  0.1378046E+00
         -2   -1    0    0    0  501 -0.00000000000E+00  0.00000000000E+00  0.17354535206E+02  0.17354535206E+02  0.00000000000E+00 0.  1.
          1   -1    0    0  502    0  0.00000000000E+00 -0.00000000000E+00 -0.17055840248E+04  0.17055840248E+04  0.00000000000E+00 0. -1.
         25    1    1    2    0    0 -0.26398518950E+02  0.13397016256E+03 -0.86223283509E+03  0.88188170871E+03  0.12500000000E+03 0.  0.
          1    1    1    2  502    0  0.42681903100E+02 -0.10201801770E+03 -0.73458252413E+03  0.74285995016E+03  0.00000000000E+00 0. -1.
         -2    1    1    2    0  501 -0.16283384150E+02 -0.31952144856E+02 -0.91414130331E+02  0.98196901094E+02  0.00000000000E+00 0.  1.
<mgrwt>
<rscale>  0 0.64980072E+02</rscale>
<asrwt>0</asrwt>
<pdfrwt beam="2">  1        1 0.26239758E+00 0.11774026E+03</pdfrwt>
<pdfrwt beam="1">  1       -2 0.26699281E-02 0.35862071E+02</pdfrwt>
<totfact> 0.19720511E+03</totfact>
</mgrwt>
</event>
<event>
 5    1  0.4149151E-003  0.5960108E+02  0.7546771E-02  0.1416916E+00
         -1   -1    0    0    0  501 -0.00000000000E+00  0.00000000000E+00  0.17269429629E+02  0.17269429629E+02  0.00000000000E+00 0.  1.
          2   -1    0    0  502    0  0.00000000000E+00 -0.00000000000E+00 -0.12027536637E+04  0.12027536637E+04  0.00000000000E+00 0. -1.
         25    1    1    2    0    0 -0.88617664050E+02  0.42320056202E+02 -0.72227381526E+03  0.73955969451E+03  0.12500000000E+03 0.  0.
          2    1    1    2  502    0  0.51996656009E+02 -0.53822534383E+01 -0.37040652604E+03  0.37407701803E+03  0.00000000000E+00 0. -1.
         -1    1    1    2    0  501  0.36621008041E+02 -0.36937802763E+02 -0.92803892789E+02  0.10638638080E+03  0.00000000000E+00 0.  1.
<mgrwt>
<rscale>  0 0.55678678E+02</rscale>
<asrwt>0</asrwt>
<pdfrwt beam="2">  1        2 0.18503904E+00 0.59601076E+02</pdfrwt>
<pdfrwt beam="1">  1       -1 0.26568350E-02 0.52014416E+02</pdfrwt>
<totfact> 0.92734872E+03</totfact>
</mgrwt>
</event>
<event>
 5    1  0.4149151E-003  0.4219724E+02  0.7546771E-02  0.1497967E+00
         -1   -1    0    0    0  501 -0.00000000000E+00  0.00000000000E+00  0.30002675634E+03  0.30002675634E+03  0.00000000000E+00 0.  1.
          2   -1    0    0  502    0  0.00000000000E+00 -0.00000000000E+00 -0.51486026128E+03  0.51486026128E+03  0.00000000000E+00 0. -1.
         25    1    1    2    0    0  0.41762587272E+01 -0.31069596864E+02 -0.20007397067E+03  0.23798603893E+03  0.12500000000E+03 0.  0.
          2    1    1    2  502    0 -0.39848496323E+02  0.81347407128E+01 -0.29281705237E+03  0.29562798045E+03  0.00000000000E+00 0. -1.
         -1    1    1    2    0  501  0.35672237596E+02  0.22934856151E+02  0.27805751811E+03  0.28127299824E+03  0.00000000000E+00 0.  1.
<mgrwt>
<rscale>  0 0.41426755E+02</rscale>
<asrwt>0</asrwt>
<pdfrwt beam="2">  1        2 0.79209270E-01 0.40670341E+02</pdfrwt>
<pdfrwt beam="1">  1       -1 0.46157963E-01 0.42197237E+02</pdfrwt>
<totfact> 0.34005331E+02</totfact>
</mgrwt>
</event>
<event>
 5    1  0.4149151E-003  0.1209410E+03  0.7546771E-02  0.1346364E+00
          1   -1    0    0  502    0 -0.00000000000E+00  0.00000000000E+00  0.11000312451E+03  0.11000312451E+03  0.00000000000E+00 0. -1.
          2   -1    0    0  501    0  0.00000000000E+00 -0.00000000000E+00 -0.19581210325E+04  0.19581210325E+04  0.00000000000E+00 0. -1.
         25    1    1    2    0    0  0.36776495563E+02  0.80017214250E+02 -0.57042489029E+02  0.16319960403E+03  0.12500000000E+03 0.  0.
          2    1    1    2  501    0 -0.80713230008E+02 -0.91935293690E+02 -0.18365255480E+04  0.18405957765E+04  0.00000000000E+00 0. -1.
          1    1    1    2  502    0  0.43936734445E+02  0.11918079440E+02  0.45450129095E+02  0.64328776499E+02  0.00000000000E+00 0. -1.
<mgrwt>
<rscale>  0 0.74200918E+02</rscale>
<asrwt>0</asrwt>
<pdfrwt beam="2">  1        2 0.30124939E+00 0.12094103E+03</pdfrwt>
<pdfrwt beam="1">  1        1 0.16923558E-01 0.45524469E+02</pdfrwt>
<totfact> 0.34083466E+02</totfact>
</mgrwt>
</event>
<event>
 5    1  0.4149151E-003  0.9554004E+02  0.7546771E-02  0.1316418E+00
         -3   -1    0    0    0  501  0.00000000000E+00  0.00000000000E+00  0.32377558475E+03  0.32377558475E+03  0.00000000000E+00 0.  1.
         -3   -1    0    0    0  502 -0.00000000000E+00 -0.00000000000E+00 -0.79140870210E+03  0.79140870210E+03  0.00000000000E+00 0.  1.
         25    1    1    2    0    0  0.35627456001E+02  0.15649227357E+03 -0.36329014080E+03  0.41636987609E+03  0.12500000000E+03 0.  0.
         -3    1    1    2    0  501  0.60700375420E+01 -0.94205358762E+02  0.28608441256E+03  0.30125701001E+03  0.00000000000E+00 0.  1.
         -3    1    1    2    0  502 -0.41697493543E+02 -0.62286914807E+02 -0.39042738911E+03  0.39755740075E+03  0.00000000000E+00 0.  1.
<mgrwt>
<rscale>  0 0.84624229E+02</rscale>
<asrwt>0</asrwt>
<pdfrwt beam="1">  1       -3 0.49811629E-01 0.95540039E+02</pdfrwt>
<pdfrwt beam="2">  1       -3 0.12175518E+00 0.74955592E+02</pdfrwt>
<totfact> 0.54361089E+00</totfact>
</mgrwt>
</event>
<event>
 5    1  0.4149151E-003  0.5701504E+02  0.7546771E-02  0.1430485E+00
         -3   -1    0    0    0  501 -0.00000000000E+00  0.00000000000E+00  0.37363761423E+02  0.37363761423E+02  0.00000000000E+00 0.  1.
          2   -1    0    0  502    0  0.00000000000E+00 -0.00000000000E+00 -0.70476798425E+03  0.70476798425E+03  0.00000000000E+00 0. -1.
         25    1    1    2    0    0  0.84851561691E+01 -0.17912763646E+02 -0.20936175101E+03  0.24464302108E+03  0.12500000000E+03 0.  0.
          2    1    1    2  502    0  0.37907918821E+02 -0.31068575082E+02 -0.41406575405E+03  0.41695649095E+03  0.00000000000E+00 0. -1.
         -3    1    1    2    0  501 -0.46393074990E+02  0.48981338728E+02 -0.43976717772E+02  0.80532233650E+02  0.00000000000E+00 0.  1.
<mgrwt>
<rscale>  0 0.52862781E+02</rscale>
<asrwt>0</asrwt>
<pdfrwt beam="2">  1        2 0.10842584E+00 0.49012923E+02</pdfrwt>
<pdfrwt beam="1">  1       -3 0.57482711E-02 0.57015037E+02</pdfrwt>
<totfact> 0.41453734E+03</totfact>
</mgrwt>
</event>
<event>
 5    1  0.4149151E-003  0.7040569E+02  0.7546771E-02  0.1364873E+00
          2   -1    0    0  502    0  0.00000000000E+00  0.00000000000E+00  0.18311834015E+04  0.18311834015E+04  0.00000000000E+00 0. -1.
         -1   -1    0    0    0  501 -0.00000000000E+00 -0.00000000000E+00 -0.47678056912E+02  0.47678056912E+02  0.00000000000E+00 0.  1.
         25    1    1    2    0    0 -0.47778827968E+02 -0.17320755293E+02  0.46668439809E+03  0.48580052736E+03  0.12500000000E+03 0.  0.
          2    1    1    2  502    0  0.47962819682E+02 -0.53084693091E+02  0.13206165366E+04  0.13225530059E+04  0.00000000000E+00 0. -1.
         -1    1    1    2    0  501 -0.18399171401E+00  0.70405448384E+02 -0.37955900166E+01  0.70507925219E+02  0.00000000000E+00 0.  1.
<mgrwt>
<rscale>  0 0.68613449E+02</rscale>
<asrwt>0</asrwt>
<pdfrwt beam="1">  1        2 0.28172047E+00 0.66866831E+02</pdfrwt>
<pdfrwt beam="2">  1       -1 0.73350871E-02 0.70405689E+02</pdfrwt>
<totfact> 0.10602864E+03</totfact>
</mgrwt>
</event>
<event>
 5    1  0.4149151E-003  0.1238189E+03  0.7546771E-02  0.1393856E+00
          2   -1    0    0  501    0  0.00000000000E+00  0.00000000000E+00  0.36042918546E+03  0.36042918546E+03  0.00000000000E+00 0. -1.
          3   -1    0    0  502    0 -0.00000000000E+00 -0.00000000000E+00 -0.22589313824E+03  0.22589313824E+03  0.00000000000E+00 0.  1.
         25    1    1    2    0    0  0.98026375837E+02  0.21487682040E+02  0.20935200327E+02  0.16166067380E+03  0.12500000000E+03 0.  0.
          2    1    1    2  501    0 -0.12358302876E+03 -0.37219230508E+02  0.25195562659E+03  0.28308951567E+03  0.00000000000E+00 0. -1.
          3    1    1    2  502    0  0.25556652919E+02  0.15731548468E+02 -0.13835477970E+03  0.14157213423E+03  0.00000000000E+00 0.  1.
<mgrwt>
<rscale>  0 0.60957807E+02</rscale>
<asrwt>0</asrwt>
<pdfrwt beam="1">  1        2 0.55450644E-01 0.12381888E+03</pdfrwt>
<pdfrwt beam="2">  1        3 0.34752791E-01 0.30010400E+02</pdfrwt>
<totfact> 0.38725758E+02</totfact>
</mgrwt>
</event>
<event>
 5    1  0.4149151E-003  0.7298178E+02  0.7546771E-02  0.1507848E+00
          2   -1    0    0  501    0  0.00000000000E+00  0.00000000000E+00  0.27048575708E+04  0.27048575708E+04  0.00000000000E+00 0.  1.
          3   -1    0    0  502    0 -0.00000000000E+00 -0.00000000000E+00 -0.80426297878E+02  0.80426297878E+02  0.00000000000E+00 0. -1.
         25    1    1    2    0    0 -0.32002047516E+02  0.83519092813E+02  0.23274113093E+04  0.23324810766E+04  0.12500000000E+03 0.  0.
          2    1    1    2  501    0 -0.57758339682E+01 -0.21204926870E+02  0.35745604293E+03  0.35813102604E+03  0.00000000000E+00 0.  1.
          3    1    1    2  502    0  0.37777881484E+02 -0.62314165943E+02 -0.60436079315E+02  0.94671766064E+02  0.00000000000E+00 0. -1.
<mgrwt>
<rscale>  0 0.40049406E+02</rscale>
<asrwt>0</asrwt>
<pdfrwt beam="1">  1        2 0.41613186E+00 0.21977470E+02</pdfrwt>
<pdfrwt beam="2">  1        3 0.12373279E-01 0.72981784E+02</pdfrwt>
<totfact> 0.13028710E+02</totfact>
</mgrwt>
</event>
<event>
 5    1  0.4149151E-003  0.4802050E+02  0.7546771E-02  0.1551076E+00
          3   -1    0    0  502    0 -0.00000000000E+00  0.00000000000E+00  0.21598211434E+03  0.21598211434E+03  0.00000000000E+00 0. -1.
          2   -1    0    0  501    0  0.00000000000E+00 -0.00000000000E+00 -0.49492891888E+03  0.49492891888E+03  0.00000000000E+00 0. -1.
         25    1    1    2    0    0 -0.20485338347E+02 -0.13348790050E+02 -0.99763296347E+02  0.16178861079E+03  0.12500000000E+03 0.  0.
          2    1    1    2  501    0  0.43869314775E+02  0.22490504687E+02 -0.36162074734E+03  0.36496562097E+03  0.00000000000E+00 0. -1.
          3    1    1    2  502    0 -0.23383976427E+02 -0.91417146373E+01  0.18243723915E+03  0.18415680147E+03  0.00000000000E+00 0. -1.
<mgrwt>
<rscale>  0 0.34722756E+02</rscale>
<asrwt>0</asrwt>
<pdfrwt beam="2">  1        2 0.76142910E-01 0.48020505E+02</pdfrwt>
<pdfrwt beam="1">  1        3 0.33228018E-01 0.25107395E+02</pdfrwt>
<totfact> 0.29583829E+02</totfact>
</mgrwt>
</event>
<event>
 5    1  0.4149151E-003  0.1296568E+03  0.7546771E-02  0.1396660E+00
         -1   -1    0    0    0  501 -0.00000000000E+00  0.00000000000E+00  0.25022801966E+02  0.25022801966E+02  0.00000000000E+00 0.  1.
          2   -1    0    0  502    0  0.00000000000E+00 -0.00000000000E+00 -0.12633277706E+04  0.12633277706E+04  0.00000000000E+00 0. -1.
         25    1    1    2    0    0  0.13487543585E+03  0.85666184161E+01 -0.84143910645E+03  0.86134170920E+03  0.12500000000E+03 0.  0.
          2    1    1    2  502    0 -0.11942205823E+03 -0.31946622076E+02 -0.26809975534E+03  0.29522820575E+03  0.00000000000E+00 0. -1.
         -1    1    1    2    0  501 -0.15453377624E+02  0.23380003660E+02 -0.12876610688E+03  0.13178065766E+03  0.00000000000E+00 0.  1.
<mgrwt>
<rscale>  0 0.60280208E+02</rscale>
<asrwt>0</asrwt>
<pdfrwt beam="2">  1        2 0.19435815E+00 0.12965681E+03</pdfrwt>
<pdfrwt beam="1">  1       -1 0.38496612E-02 0.28025550E+02</pdfrwt>
<totfact> 0.44416896E+03</totfact>
</mgrwt>
</event>
<event>
 5    1  0.4149151E-003  0.9513970E+02  0.7546771E-02  0.1365753E+00
          1   -1    0    0  502    0  0.00000000000E+00  0.00000000000E+00  0.82676395693E+03  0.82676395693E+03  0.00000000000E+00 0. -1.
          1   -1    0    0  501    0 -0.00000000000E+00 -0.00000000000E+00 -0.88112818423E+02  0.88112818423E+02  0.00000000000E+00 0. -1.
         25    1    1    2    0    0  0.10632270042E+03  0.87519984749E+02  0.23579953358E+03  0.30031763916E+03  0.12500000000E+03 0.  0.
          1    1    1    2  501    0 -0.64281315423E+02 -0.62115151935E+02 -0.18178529780E+02  0.91218630539E+02  0.00000000000E+00 0. -1.
          1    1    1    2  502    0 -0.42041385000E+02 -0.25404832814E+02  0.52103013471E+03  0.52334050565E+03  0.00000000000E+00 0. -1.
<mgrwt>
<rscale>  0 0.68362037E+02</rscale>
<asrwt>0</asrwt>
<pdfrwt beam="1">  1        1 0.12719445E+00 0.49121111E+02</pdfrwt>
<pdfrwt beam="2">  1        1 0.13555819E-01 0.95139705E+02</pdfrwt>
<totfact> 0.11586879E+03</totfact>
</mgrwt>
</event>
<event>
 5    1  0.4149151E-003  0.7071170E+02  0.7546771E-02  0.1406918E+00
          1   -1    0    0  502    0  0.00000000000E+00  0.00000000000E+00  0.29050260984E+03  0.29050260984E+03  0.00000000000E+00 0. -1.
         -1   -1    0    0    0  501 -0.00000000000E+00 -0.00000000000E+00 -0.91575590274E+02  0.91575590274E+02  0.00000000000E+00 0.  1.
         25    1    1    2    0    0 -0.27450038971E+01  0.92692156873E+02  0.19889485832E+03  0.25255402523E+03  0.12500000000E+03 0.  0.
          1    1    1    2  502    0  0.28369062632E+02 -0.52828708228E+02  0.36081267063E+02  0.69982383216E+02  0.00000000000E+00 0. -1.
         -1    1    1    2    0  501 -0.25624058735E+02 -0.39863448645E+02 -0.36049105825E+02  0.59541791665E+02  0.00000000000E+00 0.  1.
<mgrwt>
<rscale>  0 0.57887253E+02</rscale>
<asrwt>0</asrwt>
<pdfrwt beam="1">  1        1 0.44692709E-01 0.70711700E+02</pdfrwt>
<pdfrwt beam="2">  1       -1 0.14088552E-01 0.47388679E+02</pdfrwt>
<totfact> 0.29603765E+03</totfact>
</mgrwt>
</event>
<event>
 5    1  0.4149151E-003  0.2996618E+03  0.7546771E-02  0.1179396E+00
          2   -1    0    0  502    0  0.00000000000E+00  0.00000000000E+00  0.36371618993E+04  0.36371618993E+04  0.00000000000E+00 0. -1.
          2   -1    0    0  501    0 -0.00000000000E+00 -0.00000000000E+00 -0.17429575274E+04  0.17429575274E+04  0.00000000000E+00 0. -1.
         25    1    1    2    0    0 -0.37508054808E+03 -0.98213822715E+02  0.37547941256E+03  0.55402270871E+03  0.12500000000E+03 0.  0.
          2    1    1    2  501    0  0.91088434105E+02  0.26174909425E+02 -0.16455548201E+04  0.16482818007E+04  0.00000000000E+00 0. -1.
          2    1    1    2  502    0  0.28399211397E+03  0.72038913290E+02  0.31642797794E+04  0.31778149172E+04  0.00000000000E+00 0. -1.
<mgrwt>
<rscale>  0 0.16852399E+03</rscale>
<asrwt>0</asrwt>
<pdfrwt beam="1">  1        2 0.55956337E+00 0.29966180E+03</pdfrwt>
<pdfrwt beam="2">  1        2 0.26814731E+00 0.94774621E+02</pdfrwt>
<totfact> 0.14127893E+00</totfact>
</mgrwt>
</event>
<event>
 5    1  0.4149151E-003  0.3476135E+03  0.7546771E-02  0.1215446E+00
          1   -1    0    0  501    0  0.00000000000E+00  0.00000000000E+00  0.23651859621E+04  0.23651859621E+04  0.00000000000E+00 0. -1.
          1   -1    0    0  502    0 -0.00000000000E+00 -0.00000000000E+00 -0.65820894687E+03  0.65820894687E+03  0.00000000000E+00 0. -1.
         25    1    1    2    0    0  0.54093316595E+02 -0.37465279800E+03  0.60756461314E+03  0.72667087811E+03  0.12500000000E+03 0.  0.
          1    1    1    2  501    0 -0.84424548829E+02  0.32861234408E+03  0.16798010415E+04  0.17137225902E+04  0.00000000000E+00 0. -1.
          1    1    1    2  502    0  0.30331232235E+02  0.46040453920E+02 -0.58038863942E+03  0.58300144066E+03  0.00000000000E+00 0. -1.
<mgrwt>
<rscale>  0 0.13843830E+03</rscale>
<asrwt>0</asrwt>
<pdfrwt beam="1">  1        1 0.36387476E+00 0.34761351E+03</pdfrwt>
<pdfrwt beam="2">  1        1 0.10126292E+00 0.55133538E+02</pdfrwt>
<totfact> 0.74819707E+00</totfact>
</mgrwt>
</event>
<event>
 5    1  0.4149151E-003  0.1762205E+03  0.7546771E-02  0.1320357E+00
          3   -1    0    0  502    0  0.00000000000E+00  0.00000000000E+00  0.26301024851E+03  0.26301024851E+03  0.00000000000E+00 0. -1.
         -3   -1    0    0    0  501 -0.00000000000E+00 -0.00000000000E+00 -0.20955370027E+03  0.20955370027E+03  0.00000000000E+00 0.  1.
         25    1    1    2    0    0  0.14507985943E+03 -0.13357996951E+03 -0.38041035891E+02  0.23656689176E+03  0.12500000000E+03 0.  0.
          3    1    1    2  502    0 -0.14045167539E+03  0.94624371611E+02  0.98840150213E+02  0.19608625683E+03  0.00000000000E+00 0. -1.
         -3    1    1    2    0  501 -0.46281840383E+01  0.38955597897E+02 -0.73425660721E+01  0.39910800186E+02  0.00000000000E+00 0.  1.
<mgrwt>
<rscale>  0 0.83144775E+02</rscale>
<asrwt>0</asrwt>
<pdfrwt beam="1">  1        3 0.40463115E-01 0.17622051E+03</pdfrwt>
<pdfrwt beam="2">  1       -3 0.32239031E-01 0.39229564E+02</pdfrwt>
<totfact> 0.12237728E+02</totfact>
</mgrwt>
</event>
<event>
 5    1  0.4149151E-003  0.5935150E+03  0.7546771E-02  0.1142480E+00
          2   -1    0    0  502    0  0.00000000000E+00  0.00000000000E+00  0.20187893212E+04  0.20187893212E+04  0.00000000000E+00 0. -1.
          2   -1    0    0  501    0 -0.00000000000E+00 -0.00000000000E+00 -0.90326664748E+03  0.90326664748E+03  0.00000000000E+00 0.  1.
         25    1    1    2    0    0  0.33475538597E+03  0.42974177119E+03  0.25422851320E+03  0.61400024044E+03  0.12500000000E+03 0.  0.
          2    1    1    2  501    0  0.10546431466E+02  0.72730560950E+02 -0.66263240233E+03  0.66669532946E+03  0.00000000000E+00 0.  1.
          2    1    1    2  502    0 -0.34530181744E+03 -0.50247233214E+03  0.15239265629E+04  0.16413603988E+04  0.00000000000E+00 0. -1.
<mgrwt>
<rscale>  0 0.20884958E+03</rscale>
<asrwt>0</asrwt>
<pdfrwt beam="1">  1        2 0.31058297E+00 0.59351496E+03</pdfrwt>
<pdfrwt beam="2">  1        2 0.13896410E+00 0.73491236E+02</pdfrwt>
<totfact> 0.33806000E+01</totfact>
</mgrwt>
</event>
<event>
 5    1  0.4149151E-003  0.1232995E+03  0.7546771E-02  0.1306024E+00
          1   -1    0    0  502    0  0.00000000000E+00  0.00000000000E+00  0.16182382613E+04  0.16182382613E+04  0.00000000000E+00 0. -1.
         -3   -1    0    0    0  501 -0.00000000000E+00 -0.00000000000E+00 -0.93463626040E+03  0.93463626040E+03  0.00000000000E+00 0.  1.
         25    1    1    2    0    0 -0.14226970633E+03  0.16853483108E+02 -0.68956890221E+02  0.20224925696E+03  0.12500000000E+03 0.  0.
          1    1    1    2  502    0  0.11606327834E+03  0.41330544992E+02  0.15478663604E+04  0.15527617873E+04  0.00000000000E+00 0. -1.
         -3    1    1    2    0  501  0.26206427986E+02 -0.58184028100E+02 -0.79530746925E+03  0.79786347745E+03  0.00000000000E+00 0.  1.
<mgrwt>
<rscale>  0 0.88702687E+02</rscale>
<asrwt>0</asrwt>
<pdfrwt beam="1">  1        1 0.24895973E+00 0.12329948E+03</pdfrwt>
<pdfrwt beam="2">  1       -3 0.14379019E+00 0.63813462E+02</pdfrwt>
<totfact> 0.13502947E+00</totfact>
</mgrwt>
</event>
<event>
 5    1  0.4149151E-003  0.6919313E+02  0.7546771E-02  0.1367902E+00
          2   -1    0    0  502    0  0.00000000000E+00  0.00000000000E+00  0.10692411183E+04  0.10692411183E+04  0.00000000000E+00 0. -1.
          2   -1    0    0  501    0 -0.00000000000E+00 -0.00000000000E+00 -0.91463673547E+03  0.91463673547E+03  0.00000000000E+00 0. -1.
         25    1    1    2    0    0 -0.10014787172E+03  0.89972659764E+02  0.19907876256E+03  0.27089117633E+03  0.12500000000E+03 0.  0.
          2    1    1    2  501    0  0.46976946598E+02 -0.50293108151E+02 -0.87605987517E+03  0.87875886063E+03  0.00000000000E+00 0. -1.
          2    1    1    2  502    0  0.53170925119E+02 -0.39679551613E+02  0.83158549550E+03  0.83422781686E+03  0.00000000000E+00 0. -1.
<mgrwt>
<rscale>  0 0.67753929E+02</rscale>
<asrwt>0</asrwt>
<pdfrwt beam="1">  1        2 0.16449863E+00 0.66344661E+02</pdfrwt>
<pdfrwt beam="2">  1        2 0.14071334E+00 0.69193131E+02</pdfrwt>
<totfact> 0.12708045E+02</totfact>
</mgrwt>
</event>
<event>
 5    1  0.4149151E-003  0.4496753E+02  0.7546771E-02  0.1476131E+00
          2   -1    0    0  502    0  0.00000000000E+00  0.00000000000E+00  0.16577496518E+04  0.16577496518E+04  0.00000000000E+00 0. -1.
         -1   -1    0    0    0  501 -0.00000000000E+00 -0.00000000000E+00 -0.10240031096E+02  0.10240031096E+02  0.00000000000E+00 0.  1.
         25    1    1    2    0    0  0.44462973988E+02 -0.26395916111E+02  0.55247206241E+03  0.56879177226E+03  0.12500000000E+03 0.  0.
          2    1    1    2  502    0 -0.10757415941E+01  0.44954656256E+02  0.39022882668E+03  0.39281117029E+03  0.00000000000E+00 0. -1.
         -1    1    1    2    0  501 -0.43387232394E+02 -0.18558740145E+02  0.70480873160E+03  0.70638674033E+03  0.00000000000E+00 0.  1.
<mgrwt>
<rscale>  0 0.44714636E+02</rscale>
<asrwt>0</asrwt>
<pdfrwt beam="1">  1        2 0.25503819E+00 0.44967525E+02</pdfrwt>
<pdfrwt beam="2">  1       -1 0.15753907E-02 0.44463169E+02</pdfrwt>
<totfact> 0.11361558E+04</totfact>
</mgrwt>
</event>
<event>
 5    1  0.4149151E-003  0.1038514E+03  0.7546771E-02  0.1279007E+00
          2   -1    0    0  502    0  0.00000000000E+00  0.00000000000E+00  0.24299927296E+04  0.24299927296E+04  0.00000000000E+00 0. -1.
          2   -1    0    0  501    0 -0.00000000000E+00 -0.00000000000E+00 -0.10713233460E+04  0.10713233460E+04  0.00000000000E+00 0. -1.
         25    1    1    2    0    0 -0.84362513518E+02 -0.31945661755E+01 -0.15459315625E+03  0.21598908051E+03  0.12500000000E+03 0.  0.
          2    1    1    2  501    0  0.30660870725E+02  0.92533168901E+02 -0.88221420741E+03  0.88758345190E+03  0.00000000000E+00 0. -1.
          2    1    1    2  502    0  0.53701642793E+02 -0.89338602726E+02  0.23954767473E+04  0.23977435432E+04  0.00000000000E+00 0. -1.
<mgrwt>
<rscale>  0 0.10061560E+03</rscale>
<asrwt>0</asrwt>
<pdfrwt beam="1">  1        2 0.37384503E+00 0.10385136E+03</pdfrwt>
<pdfrwt beam="2">  1        2 0.16481898E+00 0.97480646E+02</pdfrwt>
<totfact> 0.19424787E+01</totfact>
</mgrwt>
</event>
<event>
 5    1  0.4149151E-003  0.1033972E+03  0.7546771E-02  0.1423694E+00
         -2   -1    0    0    0  501 -0.00000000000E+00  0.00000000000E+00  0.38311470679E+03  0.38311470679E+03  0.00000000000E+00 0.  1.
          1   -1    0    0  502    0  0.00000000000E+00 -0.00000000000E+00 -0.93761649532E+02  0.93761649532E+02  0.00000000000E+00 0. -1.
         25    1    1    2    0    0 -0.11943538308E+03  0.36230650830E+02  0.31213347042E+02  0.17937877195E+03  0.12500000000E+03 0.  0.
          1    1    1    2  502    0  0.27889903391E+02  0.56698648908E+01  0.10779571667E+02  0.30433423145E+02  0.00000000000E+00 0. -1.
         -2    1    1    2    0  501  0.91545479693E+02 -0.41900515720E+02  0.24736013855E+03  0.26706416123E+03  0.00000000000E+00 0.  1.
<mgrwt>
<rscale>  0 0.54246902E+02</rscale>
<asrwt>0</asrwt>
<pdfrwt beam="2">  1        1 0.14424869E-01 0.28460395E+02</pdfrwt>
<pdfrwt beam="1">  1       -2 0.58940723E-01 0.10339724E+03</pdfrwt>
<totfact> 0.85173497E+02</totfact>
</mgrwt>
</event>
<event>
 5    1  0.4149151E-003  0.3561196E+02  0.7546771E-02  0.1608506E+00
          1   -1    0    0  502    0 -0.00000000000E+00  0.00000000000E+00  0.36913604855E+03  0.36913604855E+03  0.00000000000E+00 0. -1.
          2   -1    0    0  501    0  0.00000000000E+00 -0.00000000000E+00 -0.77150441570E+02  0.77150441570E+02  0.00000000000E+00 0. -1.
         25    1    1    2    0    0  0.46361609925E+02  0.26500336898E+00  0.24680903014E+03  0.28051589342E+03  0.12500000000E+03 0.  0.
          2    1    1    2  501    0 -0.16230799158E+02 -0.17329433138E+02 -0.54931270746E+02  0.59843066432E+02  0.00000000000E+00 0. -1.
          1    1    1    2  502    0 -0.30130810766E+02  0.17064429769E+02  0.10010784758E+03  0.10592753026E+03  0.00000000000E+00 0. -1.
<mgrwt>
<rscale>  0 0.29078311E+02</rscale>
<asrwt>0</asrwt>
<pdfrwt beam="2">  1        2 0.11869299E-01 0.23743380E+02</pdfrwt>
<pdfrwt beam="1">  1        1 0.56790160E-01 0.35611955E+02</pdfrwt>
<totfact> 0.41160138E+03</totfact>
</mgrwt>
</event>
<event>
 5    1  0.4149151E-003  0.1265059E+03  0.7546771E-02  0.1316400E+00
          1   -1    0    0  502    0 -0.00000000000E+00  0.00000000000E+00  0.21921790135E+04  0.21921790135E+04  0.00000000000E+00 0. -1.
          2   -1    0    0  501    0  0.00000000000E+00 -0.00000000000E+00 -0.97694609238E+03  0.97694609238E+03  0.00000000000E+00 0. -1.
         25    1    1    2    0    0  0.11320669408E+03  0.40573428516E+02  0.25749116247E+03  0.31046522742E+03  0.12500000000E+03 0.  0.
          2    1    1    2  501    0 -0.12593954545E+03  0.14593601904E+02 -0.94580839748E+03  0.95426792205E+03  0.00000000000E+00 0. -1.
          1    1    1    2  502    0  0.12732851367E+02 -0.55167030420E+02  0.19035501561E+04  0.19043919564E+04  0.00000000000E+00 0. -1.
<mgrwt>
<rscale>  0 0.84631138E+02</rscale>
<asrwt>0</asrwt>
<pdfrwt beam="2">  1        2 0.15029940E+00 0.12650586E+03</pdfrwt>
<pdfrwt beam="1">  1        1 0.33725831E+00 0.56617371E+02</pdfrwt>
<totfact> 0.12019373E+01</totfact>
</mgrwt>
</event>
<event>
 5    1  0.4149151E-003  0.5392025E+02  0.7546771E-02  0.1527748E+00
         -2   -1    0    0    0  501 -0.00000000000E+00  0.00000000000E+00  0.40779491079E+03  0.40779491079E+03  0.00000000000E+00 0.  1.
          1   -1    0    0  502    0  0.00000000000E+00 -0.00000000000E+00 -0.40687414626E+02  0.40687414626E+02  0.00000000000E+00 0. -1.
         25    1    1    2    0    0 -0.32830300297E+02 -0.67557016140E+02  0.24522495660E+03  0.28531045965E+03  0.12500000000E+03 0.  0.
          1    1    1    2  502    0  0.14336068380E+02  0.49239300112E+02  0.15388740638E+02  0.53542925495E+02  0.00000000000E+00 0. -1.
         -2    1    1    2    0  501  0.18494231917E+02  0.18317716028E+02  0.10649379893E+03  0.10962894027E+03  0.00000000000E+00 0.  1.
<mgrwt>
<rscale>  0 0.37464102E+02</rscale>
<asrwt>0</asrwt>
<pdfrwt beam="2">  1        1 0.62596025E-02 0.53920247E+02</pdfrwt>
<pdfrwt beam="1">  1       -2 0.62737676E-01 0.26030277E+02</pdfrwt>
<totfact> 0.22971805E+03</totfact>
</mgrwt>
</event>
<event>
 5    1  0.4149151E-003  0.1023089E+03  0.7546771E-02  0.1366994E+00
         -3   -1    0    0    0  501 -0.00000000000E+00  0.00000000000E+00  0.66588254610E+03  0.66588254610E+03  0.00000000000E+00 0.  1.
          3   -1    0    0  502    0  0.00000000000E+00 -0.00000000000E+00 -0.48783921524E+02  0.48783921524E+02  0.00000000000E+00 0. -1.
         25    1    1    2    0    0 -0.94788959381E+02 -0.22422562088E+02  0.29402202007E+03  0.33400848252E+03  0.12500000000E+03 0.  0.
          3    1    1    2  502    0  0.10409925520E+03 -0.21817909263E+02  0.79156754737E+02  0.13258381469E+03  0.00000000000E+00 0. -1.
         -3    1    1    2    0  501 -0.93102958176E+01  0.44240471351E+02  0.24391984977E+03  0.24807417041E+03  0.00000000000E+00 0.  1.
<mgrwt>
<rscale>  0 0.68009841E+02</rscale>
<asrwt>0</asrwt>
<pdfrwt beam="2">  1        3 0.75052192E-02 0.10230894E+03</pdfrwt>
<pdfrwt beam="1">  1       -3 0.10244346E+00 0.45209522E+02</pdfrwt>
<totfact> 0.22343191E+02</totfact>
</mgrwt>
</event>
<event>
 5    1  0.4149151E-003  0.8267339E+02  0.7546771E-02  0.1360754E+00
          1   -1    0    0  502    0 -0.00000000000E+00  0.00000000000E+00  0.84585107266E+03  0.84585107266E+03  0.00000000000E+00 0. -1.
          2   -1    0    0  501    0  0.00000000000E+00 -0.00000000000E+00 -0.36980976042E+04  0.36980976042E+04  0.00000000000E+00 0. -1.
         25    1    1    2    0    0  0.82902222594E+02  0.11147385449E+03 -0.89944258530E+03  0.91865181816E+03  0.12500000000E+03 0.  0.
          2    1    1    2  501    0 -0.44892612828E+02 -0.38193664923E+02 -0.27867007166E+04  0.27873239831E+04  0.00000000000E+00 0. -1.
          1    1    1    2  502    0 -0.38009609766E+02 -0.73280189569E+02  0.83389677038E+03  0.83797287562E+03  0.00000000000E+00 0. -1.
<mgrwt>
<rscale>  0 0.69806127E+02</rscale>
<asrwt>0</asrwt>
<pdfrwt beam="2">  1        2 0.56893808E+00 0.58941520E+02</pdfrwt>
<pdfrwt beam="1">  1        1 0.13013094E+00 0.82673392E+02</pdfrwt>
<totfact> 0.30966862E+00</totfact>
</mgrwt>
</event>
<event>
 5    1  0.4149151E-003  0.3191090E+02  0.7546771E-02  0.1656480E+00
         -2   -1    0    0    0  501 -0.00000000000E+00  0.00000000000E+00  0.33422969669E+01  0.33422969669E+01  0.00000000000E+00 0.  1.
          2   -1    0    0  502    0  0.00000000000E+00 -0.00000000000E+00 -0.36911156347E+04  0.36911156347E+04  0.00000000000E+00 0. -1.
         25    1    1    2    0    0  0.70586380916E+01  0.68517502882E+00 -0.17062202116E+04  0.17108076175E+04  0.12500000000E+03 0.  0.
          2    1    1    2  502    0  0.10509907860E+02  0.30130506857E+02 -0.29441325869E+03  0.29613759048E+03  0.00000000000E+00 0.  1.
         -2    1    1    2    0  501 -0.17568545952E+02 -0.30815681886E+02 -0.16871398674E+04  0.16875127236E+04  0.00000000000E+00 0. -1.
<mgrwt>
<rscale>  0 0.25317728E+02</rscale>
<asrwt>0</asrwt>
<pdfrwt beam="2">  1        2 0.56786074E+00 0.31910901E+02</pdfrwt>
<pdfrwt beam="1">  1       -2 0.51420243E-03 0.20086784E+02</pdfrwt>
<totfact> 0.38277629E+03</totfact>
</mgrwt>
</event>
<event>
 5    1  0.4149151E-003  0.9890113E+02  0.7546771E-02  0.1367639E+00
          2   -1    0    0  502    0  0.00000000000E+00  0.00000000000E+00  0.58655192860E+03  0.58655192860E+03  0.00000000000E+00 0.  1.
         -1   -1    0    0    0  501 -0.00000000000E+00 -0.00000000000E+00 -0.29278475273E+03  0.29278475273E+03  0.00000000000E+00 0.  1.
         25    1    1    2    0    0 -0.12663582561E+03  0.20350791281E+02  0.12887921222E+03  0.22064822315E+03  0.12500000000E+03 0.  0.
          2    1    1    2  502    0  0.39767049283E+02  0.24134381875E+02  0.40074527068E+03  0.40343606503E+03  0.00000000000E+00 0.  1.
         -1    1    1    2    0  501  0.86868776329E+02 -0.44485173156E+02 -0.23585730703E+03  0.25525239316E+03  0.00000000000E+00 0.  1.
<mgrwt>
<rscale>  0 0.67828037E+02</rscale>
<asrwt>0</asrwt>
<pdfrwt beam="1">  1        2 0.90238758E-01 0.46517594E+02</pdfrwt>
<pdfrwt beam="2">  1       -1 0.45043808E-01 0.98901129E+02</pdfrwt>
<totfact> 0.30890786E+02</totfact>
</mgrwt>
</event>
<event>
 5    1  0.4149151E-003  0.1417019E+03  0.7546771E-02  0.1221500E+00
          3   -1    0    0  502    0 -0.00000000000E+00  0.00000000000E+00  0.26145934063E+03  0.26145934063E+03  0.00000000000E+00 0. -1.
          1   -1    0    0  501    0  0.00000000000E+00 -0.00000000000E+00 -0.12368252864E+04  0.12368252864E+04  0.00000000000E+00 0. -1.
         25    1    1    2    0    0  0.15795942376E+03 -0.37923789031E+01 -0.49418390622E+03  0.53367433409E+03  0.12500000000E+03 0.  0.
          1    1    1    2  501    0 -0.10272514992E+03 -0.11045625147E+03 -0.69760512360E+03  0.71372680235E+03  0.00000000000E+00 0. -1.
          3    1    1    2  502    0 -0.55234273834E+02  0.11424863038E+03  0.21642308405E+03  0.25088349060E+03  0.00000000000E+00 0. -1.
<mgrwt>
<rscale>  0 0.13409679E+03</rscale>
<asrwt>0</asrwt>
<pdfrwt beam="2">  1        1 0.19028081E+00 0.14170188E+03</pdfrwt>
<pdfrwt beam="1">  1        3 0.40224514E-01 0.12689986E+03</pdfrwt>
<totfact> 0.37081152E+01</totfact>
</mgrwt>
</event>
<event>
 5    1  0.4149151E-003  0.1075562E+03  0.7546771E-02  0.1404269E+00
          2   -1    0    0  501    0  0.00000000000E+00  0.00000000000E+00  0.12203352720E+03  0.12203352720E+03  0.00000000000E+00 0. -1.
          2   -1    0    0  502    0 -0.00000000000E+00 -0.00000000000E+00 -0.19031198722E+04  0.19031198722E+04  0.00000000000E+00 0. -1.
         25    1    1    2    0    0 -0.12774091921E+03 -0.20196713173E+02 -0.45115453215E+03  0.48568617599E+03  0.12500000000E+03 0.  0.
          2    1    1    2  501    0  0.10014242312E+03  0.36014558396E+02  0.77516161265E+02  0.13165982144E+03  0.00000000000E+00 0. -1.
          2    1    1    2  502    0  0.27598496093E+02 -0.15817845223E+02 -0.14074479742E+04  0.14078074020E+04  0.00000000000E+00 0. -1.
<mgrwt>
<rscale>  0 0.58492481E+02</rscale>
<asrwt>0</asrwt>
<pdfrwt beam="1">  1        2 0.18774389E-01 0.10755617E+03</pdfrwt>
<pdfrwt beam="2">  1        2 0.29278768E+00 0.31810080E+02</pdfrwt>
<totfact> 0.46939324E+02</totfact>
</mgrwt>
</event>
<event>
 5    1  0.4149151E-003  0.1848321E+03  0.7546771E-02  0.1202650E+00
          1   -1    0    0  502    0 -0.00000000000E+00  0.00000000000E+00  0.84388487009E+03  0.84388487009E+03  0.00000000000E+00 0. -1.
          2   -1    0    0  501    0  0.00000000000E+00 -0.00000000000E+00 -0.67327213447E+03  0.67327213447E+03  0.00000000000E+00 0. -1.
         25    1    1    2    0    0  0.10764199112E+03 -0.44699808998E+02 -0.12079985237E+03  0.20929040950E+03  0.12500000000E+03 0.  0.
          2    1    1    2  501    0  0.78104471448E+02  0.89643407817E+02 -0.48959133444E+03  0.50382132129E+03  0.00000000000E+00 0. -1.
          1    1    1    2  502    0 -0.18574646257E+03 -0.44943598819E+02  0.78100392243E+03  0.80404527378E+03  0.00000000000E+00 0. -1.
<mgrwt>
<rscale>  0 0.14824232E+03</rscale>
<asrwt>0</asrwt>
<pdfrwt beam="2">  1        2 0.10358033E+00 0.11889596E+03</pdfrwt>
<pdfrwt beam="1">  1        1 0.12982844E+00 0.18483207E+03</pdfrwt>
<totfact> 0.13349107E+02</totfact>
</mgrwt>
</event>
<event>
 5    1  0.4149151E-003  0.4638159E+02  0.7546771E-02  0.1469636E+00
         -1   -1    0    0    0  501  0.00000000000E+00  0.00000000000E+00  0.43434670706E+03  0.43434670706E+03  0.00000000000E+00 0.  1.
         -1   -1    0    0    0  502 -0.00000000000E+00 -0.00000000000E+00 -0.29005872071E+03  0.29005872071E+03  0.00000000000E+00 0.  1.
         25    1    1    2    0    0  0.32741217093E+02 -0.69347727384E+02  0.89946053613E+02  0.17203600539E+03  0.12500000000E+03 0.  0.
         -1    1    1    2    0  501 -0.38475000674E+02  0.23629768303E+02  0.29951759187E+03  0.30290176538E+03  0.00000000000E+00 0.  1.
         -1    1    1    2    0  502  0.57337835804E+01  0.45717959081E+02 -0.24517565914E+03  0.24946765700E+03  0.00000000000E+00 0.  1.
<mgrwt>
<rscale>  0 0.45762603E+02</rscale>
<asrwt>0</asrwt>
<pdfrwt beam="1">  1       -1 0.66822570E-01 0.45151873E+02</pdfrwt>
<pdfrwt beam="2">  1       -1 0.44624419E-01 0.46381593E+02</pdfrwt>
<totfact> 0.10530006E+02</totfact>
</mgrwt>
</event>
<event>
 5    1  0.4149151E-003  0.3907871E+02  0.7546771E-02  0.1544736E+00
         -1   -1    0    0    0  501 -0.00000000000E+00  0.00000000000E+00  0.44949045509E+02  0.44949045509E+02  0.00000000000E+00 0.  1.
          1   -1    0    0  502    0  0.00000000000E+00 -0.00000000000E+00 -0.50291390101E+03  0.50291390101E+03  0.00000000000E+00 0. -1.
         25    1    1    2    0    0  0.11852334526E+02 -0.24823113219E+02 -0.17829641600E+03  0.21947955882E+03  0.12500000000E+03 0.  0.
          1    1    1    2  502    0  0.28106110427E+02  0.15585884146E+02 -0.28519531458E+03  0.28700041931E+03  0.00000000000E+00 0. -1.
         -1    1    1    2    0  501 -0.39958444954E+02  0.92372290737E+01  0.55268750759E+01  0.41382968383E+02  0.00000000000E+00 0.  1.
<mgrwt>
<rscale>  0 0.35439032E+02</rscale>
<asrwt>0</asrwt>
<pdfrwt beam="2">  1        1 0.77371370E-01 0.32138345E+02</pdfrwt>
<pdfrwt beam="1">  1       -1 0.69152377E-02 0.39078708E+02</pdfrwt>
<totfact> 0.43106439E+03</totfact>
</mgrwt>
</event>
<event>
 5    1  0.4149151E-003  0.6163401E+02  0.7546771E-02  0.1419800E+00
          2   -1    0    0  501    0  0.00000000000E+00  0.00000000000E+00  0.74435770921E+03  0.74435770921E+03  0.00000000000E+00 0. -1.
          3   -1    0    0  502    0 -0.00000000000E+00 -0.00000000000E+00 -0.32836737637E+02  0.32836737637E+02  0.00000000000E+00 0. -1.
         25    1    1    2    0    0  0.62704417486E+02 -0.40137436209E+02  0.25112976401E+03  0.29023097032E+03  0.12500000000E+03 0.  0.
          2    1    1    2  501    0 -0.45261573406E+02 -0.19269986302E+02  0.39052235976E+03  0.39360850584E+03  0.00000000000E+00 0. -1.
          3    1    1    2  502    0 -0.17442844080E+02  0.59407422512E+02  0.69868847801E+02  0.93354970688E+02  0.00000000000E+00 0. -1.
<mgrwt>
<rscale>  0 0.55063203E+02</rscale>
<asrwt>0</asrwt>
<pdfrwt beam="1">  1        2 0.11451656E+00 0.49192910E+02</pdfrwt>
<pdfrwt beam="2">  1        3 0.50518063E-02 0.61634010E+02</pdfrwt>
<totfact> 0.48232548E+03</totfact>
</mgrwt>
</event>
<event>
 5    1  0.4149151E-003  0.8271457E+02  0.7546771E-02  0.1482314E+00
         -2   -1    0    0    0  501 -0.00000000000E+00  0.00000000000E+00  0.19738238660E+02  0.19738238660E+02  0.00000000000E+00 0.  1.
          2   -1    0    0  502    0  0.00000000000E+00 -0.00000000000E+00 -0.10568986076E+04  0.10568986076E+04  0.00000000000E+00 0. -1.
         25    1    1    2    0    0  0.63738591631E+02 -0.39896176629E+02 -0.34758510300E+03  0.37695452882E+03  0.12500000000E+03 0.  0.
          2    1    1    2  502    0  0.68255334343E+01 -0.22108511095E+02 -0.18459694741E+03  0.18604141250E+03  0.00000000000E+00 0. -1.
         -2    1    1    2    0  501 -0.70564125065E+02  0.62004687724E+02 -0.50497831854E+03  0.51364090495E+03  0.00000000000E+00 0.  1.
<mgrwt>
<rscale>  0 0.43747714E+02</rscale>
<asrwt>0</asrwt>
<pdfrwt beam="2">  1        2 0.16259981E+00 0.23138154E+02</pdfrwt>
<pdfrwt beam="1">  1       -2 0.30366517E-02 0.82714571E+02</pdfrwt>
<totfact> 0.10183336E+04</totfact>
</mgrwt>
</event>
<event>
 5    1  0.4149151E-003  0.5743486E+02  0.7546771E-02  0.1488618E+00
          2   -1    0    0  501    0  0.00000000000E+00  0.00000000000E+00  0.61098149997E+02  0.61098149997E+02  0.00000000000E+00 0. -1.
          3   -1    0    0  502    0 -0.00000000000E+00 -0.00000000000E+00 -0.36652681254E+04  0.36652681254E+04  0.00000000000E+00 0. -1.
         25    1    1    2    0    0  0.14665032521E+02  0.21574047563E+02 -0.19164362288E+03  0.23028847322E+03  0.12500000000E+03 0.  0.
          2    1    1    2  501    0  0.14087689308E+02  0.28600599640E+02  0.35414930061E+02  0.47651595576E+02  0.00000000000E+00 0. -1.
          3    1    1    2  502    0 -0.28752721829E+02 -0.50174647202E+02 -0.34479412826E+04  0.34484262066E+04  0.00000000000E+00 0. -1.
<mgrwt>
<rscale>  0 0.42791752E+02</rscale>
<asrwt>0</asrwt>
<pdfrwt beam="1">  1        2 0.93997168E-02 0.31881927E+02</pdfrwt>
<pdfrwt beam="2">  1        3 0.56388732E+00 0.57434859E+02</pdfrwt>
<totfact> 0.10165303E+00</totfact>
</mgrwt>
</event>
<event>
 5    1  0.4149151E-003  0.4940760E+02  0.7546771E-02  0.1479747E+00
         -2   -1    0    0    0  501 -0.00000000000E+00  0.00000000000E+00  0.92835556271E+02  0.92835556271E+02  0.00000000000E+00 0.  1.
          1   -1    0    0  502    0  0.00000000000E+00 -0.00000000000E+00 -0.15122412761E+03  0.15122412761E+03  0.00000000000E+00 0. -1.
         25    1    1    2    0    0 -0.27802551748E+02  0.41837310085E+02 -0.30592451115E+01  0.13475051532E+03  0.12500000000E+03 0.  0.
          1    1    1    2  502    0 -0.10685841551E+02 -0.50467465448E+02 -0.45195403650E+02  0.68584085541E+02  0.00000000000E+00 0. -1.
         -2    1    1    2    0  501  0.38488393299E+02  0.86301553632E+01 -0.10133922582E+02  0.40725083023E+02  0.00000000000E+00 0.  1.
<mgrwt>
<rscale>  0 0.44145639E+02</rscale>
<asrwt>0</asrwt>
<pdfrwt beam="2">  1        1 0.23265250E-01 0.49407595E+02</pdfrwt>
<pdfrwt beam="1">  1       -2 0.14282394E-01 0.39444087E+02</pdfrwt>
<totfact> 0.58592289E+03</totfact>
</mgrwt>
</event>
<event>
 5    1  0.4149151E-003  0.8043370E+02  0.7546771E-02  0.1387021E+00
          2   -1    0    0  501    0  0.00000000000E+00  0.00000000000E+00  0.55497683309E+03  0.55497683309E+03  0.00000000000E+00 0. -1.
          1   -1    0    0  502    0 -0.00000000000E+00 -0.00000000000E+00 -0.98514807106E+02  0.98514807106E+02  0.00000000000E+00 0. -1.
         25    1    1    2    0    0  0.11331455468E+03  0.44242048907E+02  0.89298705546E+02  0.19595102961E+03  0.12500000000E+03 0.  0.
          2    1    1    2  501    0 -0.76773535977E+02 -0.11890898194E+02  0.39417637331E+03  0.40175935902E+03  0.00000000000E+00 0. -1.
          1    1    1    2  502    0 -0.36541018705E+02 -0.32351150713E+02 -0.27013052870E+02  0.55781251562E+02  0.00000000000E+00 0. -1.
<mgrwt>
<rscale>  0 0.62653785E+02</rscale>
<asrwt>0</asrwt>
<pdfrwt beam="1">  1        2 0.85381049E-01 0.80433702E+02</pdfrwt>
<pdfrwt beam="2">  1        1 0.15156125E-01 0.48804129E+02</pdfrwt>
<totfact> 0.26053882E+03</totfact>
</mgrwt>
</event>
<event>
 5    1  0.4149151E-003  0.7302125E+02  0.7546771E-02  0.1351644E+00
         -1   -1    0    0    0  501 -0.00000000000E+00  0.00000000000E+00  0.15694197441E+03  0.15694197441E+03  0.00000000000E+00 0.  1.
          2   -1    0    0  502    0  0.00000000000E+00 -0.00000000000E+00 -0.69052912649E+03  0.69052912649E+03  0.00000000000E+00 0. -1.
         25    1    1    2    0    0  0.40605120627E+01  0.12516364398E+01 -0.31471738640E+03  0.33865925007E+03  0.12500000000E+03 0.  0.
          2    1    1    2  502    0  0.34152457092E+02  0.63468120336E+02 -0.35017630939E+03  0.35751648953E+03  0.00000000000E+00 0. -1.
         -1    1    1    2    0  501 -0.38212969155E+02 -0.64719756776E+02  0.13130654371E+03  0.15129536130E+03  0.00000000000E+00 0.  1.
<mgrwt>
<rscale>  0 0.72545840E+02</rscale>
<asrwt>0</asrwt>
<pdfrwt beam="2">  1        2 0.10623525E+00 0.72073522E+02</pdfrwt>
<pdfrwt beam="1">  1       -1 0.24144919E-01 0.73021254E+02</pdfrwt>
<totfact> 0.72505710E+02</totfact>
</mgrwt>
</event>
<event>
 5    1  0.4149151E-003  0.4096487E+02  0.7546771E-02  0.1611364E+00
         -2   -1    0    0    0  501 -0.00000000000E+00  0.00000000000E+00  0.95030872315E+02  0.95030872315E+02  0.00000000000E+00 0.  1.
          2   -1    0    0  502    0  0.00000000000E+00 -0.00000000000E+00 -0.50568278109E+03  0.50568278109E+03  0.00000000000E+00 0. -1.
         25    1    1    2    0    0  0.25345435536E+02  0.20352501973E+02 -0.12128754782E+03  0.17717868014E+03  0.12500000000E+03 0.  0.
          2    1    1    2  502    0 -0.94279138299E+01  0.17970424017E+02 -0.34970999468E+03  0.35029830442E+03  0.00000000000E+00 0. -1.
         -2    1    1    2    0  501 -0.15917521707E+02 -0.38322925990E+02  0.60345633728E+02  0.73236668846E+02  0.00000000000E+00 0.  1.
<mgrwt>
<rscale>  0 0.28832551E+02</rscale>
<asrwt>0</asrwt>
<pdfrwt beam="2">  1        2 0.77797353E-01 0.20293391E+02</pdfrwt>
<pdfrwt beam="1">  1       -2 0.14620134E-01 0.40964866E+02</pdfrwt>
<totfact> 0.20582584E+03</totfact>
</mgrwt>
</event>
<event>
 5    1  0.4149151E-003  0.8252449E+02  0.7546771E-02  0.1428562E+00
         -3   -1    0    0    0  501 -0.00000000000E+00  0.00000000000E+00  0.29853886585E+03  0.29853886585E+03  0.00000000000E+00 0.  1.
          2   -1    0    0  502    0  0.00000000000E+00 -0.00000000000E+00 -0.31855268585E+03  0.31855268585E+03  0.00000000000E+00 0. -1.
         25    1    1    2    0    0  0.10569256522E+03  0.22129391962E+02 -0.12628538577E+03  0.20792697514E+03  0.12500000000E+03 0.  0.
          2    1    1    2  502    0 -0.31892679432E+02  0.12785019442E+02 -0.14289266900E+03  0.14696569184E+03  0.00000000000E+00 0. -1.
         -3    1    1    2    0  501 -0.73799885792E+02 -0.34914411404E+02  0.24916423476E+03  0.26219888473E+03  0.00000000000E+00 0.  1.
<mgrwt>
<rscale>  0 0.53249691E+02</rscale>
<asrwt>0</asrwt>
<pdfrwt beam="2">  1        2 0.49008106E-01 0.34359856E+02</pdfrwt>
<pdfrwt beam="1">  1       -3 0.45929056E-01 0.82524490E+02</pdfrwt>
<totfact> 0.28227424E+02</totfact>
</mgrwt>
</event>
<event>
 5    1  0.4149151E-003  0.8205615E+02  0.7546771E-02  0.1413737E+00
          2   -1    0    0  502    0  0.00000000000E+00  0.00000000000E+00  0.84930874723E+02  0.84930874723E+02  0.00000000000E+00 0. -1.
          2   -1    0    0  501    0 -0.00000000000E+00 -0.00000000000E+00 -0.70090523517E+03  0.70090523517E+03  0.00000000000E+00 0. -1.
         25    1    1    2    0    0 -0.72109723670E+02  0.16645793467E+02 -0.35775657060E+03  0.38612389009E+03  0.12500000000E+03 0.  0.
          2    1    1    2  501    0  0.85544278074E+02  0.19671093868E+02 -0.31721897114E+03  0.32913925791E+03  0.00000000000E+00 0. -1.
          2    1    1    2  502    0 -0.13434554405E+02 -0.36316887335E+02  0.59001181291E+02  0.70572961901E+02  0.00000000000E+00 0. -1.
<mgrwt>
<rscale>  0 0.56368336E+02</rscale>
<asrwt>0</asrwt>
<pdfrwt beam="1">  1        2 0.13066289E-01 0.38722133E+02</pdfrwt>
<pdfrwt beam="2">  1        2 0.10783157E+00 0.82056155E+02</pdfrwt>
<totfact> 0.27769307E+03</totfact>
</mgrwt>
</event>
<event>
 5    1  0.4149151E-003  0.1158307E+03  0.7546771E-02  0.1380818E+00
          3   -1    0    0  502    0 -0.00000000000E+00  0.00000000000E+00  0.12504701271E+03  0.12504701271E+03  0.00000000000E+00 0. -1.
          2   -1    0    0  501    0  0.00000000000E+00 -0.00000000000E+00 -0.14822052307E+04  0.14822052307E+04  0.00000000000E+00 0. -1.
         25    1    1    2    0    0 -0.14013915024E+03  0.29391021221E+02 -0.52707032314E+03  0.56029540342E+03  0.12500000000E+03 0.  0.
          2    1    1    2  501    0  0.11012636762E+03 -0.10174106658E+02 -0.93223454061E+03  0.93877184022E+03  0.00000000000E+00 0. -1.
          3    1    1    2  502    0  0.30012782624E+02 -0.19216914562E+02  0.10214664578E+03  0.10818499975E+03  0.00000000000E+00 0. -1.
<mgrwt>
<rscale>  0 0.64249196E+02</rscale>
<asrwt>0</asrwt>
<pdfrwt beam="2">  1        2 0.22803158E+00 0.11583073E+03</pdfrwt>
<pdfrwt beam="1">  1        3 0.19238001E-01 0.35637858E+02</pdfrwt>
<totfact> 0.18633975E+02</totfact>
</mgrwt>
</event>
<event>
 5    1  0.4149151E-003  0.1065595E+03  0.7546771E-02  0.1450644E+00
         -1   -1    0    0    0  501 -0.00000000000E+00  0.00000000000E+00  0.15140133372E+04  0.15140133372E+04  0.00000000000E+00 0.  1.
          1   -1    0    0  502    0  0.00000000000E+00 -0.00000000000E+00 -0.24034008330E+03  0.24034008330E+03  0.00000000000E+00 0. -1.
         25    1    1    2    0    0  0.84100279507E+02  0.19078757723E+02 -0.17733417120E+02  0.15289319832E+03  0.12500000000E+03 0.  0.
          1    1    1    2  502    0  0.22005434757E+02 -0.49704437867E+01 -0.15221397819E+03  0.15387670267E+03  0.00000000000E+00 0. -1.
         -1    1    1    2    0  501 -0.10610571426E+03 -0.14108313937E+02  0.14436206492E+04  0.14475835195E+04  0.00000000000E+00 0.  1.
<mgrwt>
<rscale>  0 0.49030191E+02</rscale>
<asrwt>0</asrwt>
<pdfrwt beam="2">  1        1 0.36975398E-01 0.22559798E+02</pdfrwt>
<pdfrwt beam="1">  1       -1 0.23292512E+00 0.10655945E+03</pdfrwt>
<totfact> 0.12671263E+01</totfact>
</mgrwt>
</event>
<event>
 5    1  0.4149151E-003  0.3633656E+03  0.7546771E-02  0.1199396E+00
          2   -1    0    0  501    0  0.00000000000E+00  0.00000000000E+00  0.56165124190E+03  0.56165124190E+03  0.00000000000E+00 0. -1.
          2   -1    0    0  502    0 -0.00000000000E+00 -0.00000000000E+00 -0.14866272348E+04  0.14866272348E+04  0.00000000000E+00 0. -1.
         25    1    1    2    0    0  0.30987365404E+03  0.60639885690E+02  0.26552828031E+03  0.43107904710E+03  0.12500000000E+03 0.  0.
          2    1    1    2  501    0  0.40499060599E+02  0.47799872545E+02  0.18411975550E+03  0.19448672472E+03  0.00000000000E+00 0. -1.
          2    1    1    2  502    0 -0.35037271463E+03 -0.10843975823E+03 -0.13746240287E+04  0.14227127048E+04  0.00000000000E+00 0. -1.
<mgrwt>
<rscale>  0 0.15088006E+03</rscale>
<asrwt>0</asrwt>
<pdfrwt beam="1">  1        2 0.86407883E-01 0.62649834E+02</pdfrwt>
<pdfrwt beam="2">  1        2 0.22871188E+00 0.36336558E+03</pdfrwt>
<totfact> 0.11904367E+02</totfact>
</mgrwt>
</event>
<event>
 5    1  0.4149151E-003  0.5465017E+02  0.7546771E-02  0.1441790E+00
          1   -1    0    0  502    0 -0.00000000000E+00  0.00000000000E+00  0.18627293781E+04  0.18627293781E+04  0.00000000000E+00 0. -1.
          2   -1    0    0  501    0  0.00000000000E+00 -0.00000000000E+00 -0.93757996083E+01  0.93757996083E+01  0.00000000000E+00 0. -1.
         25    1    1    2    0    0 -0.24442887738E+02 -0.19009723572E+02  0.11934415455E+04  0.12003693377E+04  0.12500000000E+03 0.  0.
          2    1    1    2  501    0 -0.44378007941E+02 -0.15385831397E+02  0.20066469604E+03  0.20608845585E+03  0.00000000000E+00 0. -1.
          1    1    1    2  502    0  0.68820895679E+02  0.34395554970E+02  0.45924733689E+03  0.46564738410E+03  0.00000000000E+00 0. -1.
<mgrwt>
<rscale>  0 0.50664481E+02</rscale>
<asrwt>0</asrwt>
<pdfrwt beam="2">  1        2 0.14424322E-02 0.46969473E+02</pdfrwt>
<pdfrwt beam="1">  1        1 0.28657346E+00 0.54650168E+02</pdfrwt>
<totfact> 0.45753026E+03</totfact>
</mgrwt>
</event>
<event>
 5    1  0.4149151E-003  0.4627528E+02  0.7546771E-02  0.1491391E+00
          2   -1    0    0  502    0  0.00000000000E+00  0.00000000000E+00  0.75035983568E+03  0.75035983568E+03  0.00000000000E+00 0. -1.
         -1   -1    0    0    0  501 -0.00000000000E+00 -0.00000000000E+00 -0.23145680804E+02  0.23145680804E+02  0.00000000000E+00 0.  1.
         25    1    1    2    0    0 -0.41590934431E+02  0.22846300456E+02  0.60359108783E+03  0.61822241999E+03  0.12500000000E+03 0.  0.
          2    1    1    2  502    0  0.50613889529E+02  0.14903727100E+02  0.87971145353E+02  0.10258074532E+03  0.00000000000E+00 0. -1.
         -1    1    1    2    0  501 -0.90229550983E+01 -0.37750027557E+02  0.35651921694E+02  0.52702351178E+02  0.00000000000E+00 0.  1.
<mgrwt>
<rscale>  0 0.42380419E+02</rscale>
<asrwt>0</asrwt>
<pdfrwt beam="1">  1        2 0.11543996E+00 0.46275279E+02</pdfrwt>
<pdfrwt beam="2">  1       -1 0.35608745E-02 0.38813378E+02</pdfrwt>
<totfact> 0.10961642E+04</totfact>
</mgrwt>
</event>
<event>
 5    1  0.4149151E-003  0.4973733E+02  0.7546771E-02  0.1497475E+00
         -1   -1    0    0    0  501 -0.00000000000E+00  0.00000000000E+00  0.12991046500E+03  0.12991046500E+03  0.00000000000E+00 0. -1.
          1   -1    0    0  502    0  0.00000000000E+00 -0.00000000000E+00 -0.13116276601E+03  0.13116276601E+03  0.00000000000E+00 0.  1.
         25    1    1    2    0    0 -0.19903497701E+02  0.85134666925E+00 -0.70716857387E+02  0.14499223404E+03  0.12500000000E+03 0.  0.
          1    1    1    2  502    0 -0.34615592519E+02 -0.66556529015E+00  0.43776927156E+02  0.55813095003E+02  0.00000000000E+00 0. -1.
         -1    1    1    2    0  501  0.54519090220E+02 -0.18578137911E+00  0.25687629214E+02  0.60267901969E+02  0.00000000000E+00 0.  1.
<mgrwt>
<rscale>  0 0.41497054E+02</rscale>
<asrwt>0</asrwt>
<pdfrwt beam="2">  1        1 0.20178887E-01 0.34621990E+02</pdfrwt>
<pdfrwt beam="1">  1       -1 0.19986225E-01 0.49737335E+02</pdfrwt>
<totfact> 0.44411982E+03</totfact>
</mgrwt>
</event>
<event>
 5    1  0.4149151E-003  0.1791565E+03  0.7546771E-02  0.1278185E+00
          2   -1    0    0  501    0  0.00000000000E+00  0.00000000000E+00  0.31145780396E+04  0.31145780396E+04  0.00000000000E+00 0. -1.
          1   -1    0    0  502    0 -0.00000000000E+00 -0.00000000000E+00 -0.11696010371E+04  0.11696010371E+04  0.00000000000E+00 0. -1.
         25    1    1    2    0    0  0.82211518619E+02 -0.21864572150E+03 -0.12528439562E+03  0.29306290299E+03  0.12500000000E+03 0.  0.
          2    1    1    2  501    0 -0.74400028229E+02  0.16223319083E+03  0.30272137764E+04  0.30324706462E+04  0.00000000000E+00 0. -1.
          1    1    1    2  502    0 -0.78114903891E+01  0.56412530674E+02 -0.95695237829E+03  0.95864552746E+03  0.00000000000E+00 0. -1.
<mgrwt>
<rscale>  0 0.10101042E+03</rscale>
<asrwt>0</asrwt>
<pdfrwt beam="1">  1        2 0.47916585E+00 0.17915649E+03</pdfrwt>
<pdfrwt beam="2">  1        1 0.17993862E+00 0.56950795E+02</pdfrwt>
<totfact> 0.35348445E+00</totfact>
</mgrwt>
</event>
<event>
 5    1  0.4149151E-003  0.9261235E+02  0.7546771E-02  0.1424947E+00
          2   -1    0    0  502    0  0.00000000000E+00  0.00000000000E+00  0.69887415081E+03  0.69887415081E+03  0.00000000000E+00 0. -1.
         -1   -1    0    0    0  501 -0.00000000000E+00 -0.00000000000E+00 -0.41904984214E+03  0.41904984214E+03  0.00000000000E+00 0.  1.
         25    1    1    2    0    0 -0.71690811408E+02  0.65414326910E+02  0.42970023203E+03  0.45791472569E+03  0.12500000000E+03 0.  0.
          2    1    1    2  502    0  0.44139138593E+02 -0.80625691489E+02  0.24614112345E+03  0.26274363615E+03  0.00000000000E+00 0. -1.
         -1    1    1    2    0  501  0.27551672815E+02  0.15211364579E+02 -0.39601704681E+03  0.39726563110E+03  0.00000000000E+00 0.  1.
<mgrwt>
<rscale>  0 0.53987835E+02</rscale>
<asrwt>0</asrwt>
<pdfrwt beam="1">  1        2 0.10751910E+00 0.92612350E+02</pdfrwt>
<pdfrwt beam="2">  1       -1 0.64469207E-01 0.31471897E+02</pdfrwt>
<totfact> 0.13124356E+02</totfact>
</mgrwt>
</event>
<event>
 5    1  0.4149151E-003  0.8979630E+02  0.7546771E-02  0.1488569E+00
          3   -1    0    0  502    0 -0.00000000000E+00  0.00000000000E+00  0.63690002654E+02  0.63690002654E+02  0.00000000000E+00 0. -1.
          2   -1    0    0  501    0  0.00000000000E+00 -0.00000000000E+00 -0.10713042477E+04  0.10713042477E+04  0.00000000000E+00 0. -1.
         25    1    1    2    0    0 -0.75549841110E+02  0.74014582769E+02 -0.18440151705E+03  0.24660668370E+03  0.12500000000E+03 0.  0.
          2    1    1    2  501    0  0.12378335250E+02 -0.16214057531E+02 -0.79919930005E+03  0.79945959250E+03  0.00000000000E+00 0. -1.
          3    1    1    2  502    0  0.63171505860E+02 -0.57800525238E+02 -0.24013427987E+02  0.88927974194E+02  0.00000000000E+00 0. -1.
<mgrwt>
<rscale>  0 0.42798996E+02</rscale>
<asrwt>0</asrwt>
<pdfrwt beam="2">  1        2 0.16481603E+00 0.20398991E+02</pdfrwt>
<pdfrwt beam="1">  1        3 0.97984624E-02 0.89796304E+02</pdfrwt>
<totfact> 0.11901419E+03</totfact>
</mgrwt>
</event>
<event>
 5    1  0.5706484E-003  0.1249258E+03  0.7546771E-02  0.1404825E+00
          2   -1    0    0  502    0  0.00000000000E+00  0.00000000000E+00  0.12327544853E+04  0.12327544853E+04  0.00000000000E+00 0. -1.
         -1   -1    0    0    0  501 -0.00000000000E+00 -0.00000000000E+00 -0.27751163757E+02  0.27751163757E+02  0.00000000000E+00 0.  1.
         25    1    1    2    0    0  0.11192403707E+03  0.67261812811E+02  0.91520617314E+03  0.93288717479E+03  0.12500000000E+03 0.  0.
          2    1    1    2  502    0  0.53295796705E+01 -0.26741765619E+02  0.71652365494E+02  0.76665428511E+02  0.00000000000E+00 0. -1.
         -1    1    1    2    0  501 -0.11725361674E+03 -0.40520047192E+02  0.21814478289E+03  0.25095304574E+03  0.00000000000E+00 0.  1.
<mgrwt>
<rscale>  0 0.58364696E+02</rscale>
<asrwt>0</asrwt>
<pdfrwt beam="1">  1        2 0.18965449E+00 0.27267681E+02</pdfrwt>
<pdfrwt beam="2">  1       -1 0.42694108E-02 0.12492583E+03</pdfrwt>
<totfact> 0.52861776E+03</totfact>
</mgrwt>
</event>
<event>
 5    1  0.4149151E-003  0.6089555E+02  0.7546771E-02  0.1469925E+00
         -1   -1    0    0    0  501 -0.00000000000E+00  0.00000000000E+00  0.20349858549E+02  0.20349858549E+02  0.00000000000E+00 0.  1.
          2   -1    0    0  502    0  0.00000000000E+00 -0.00000000000E+00 -0.10640065267E+04  0.10640065267E+04  0.00000000000E+00 0. -1.
         25    1    1    2    0    0 -0.37935158963E+02  0.59244124721E+01 -0.23722664324E+03  0.27087941083E+03  0.12500000000E+03 0.  0.
          2    1    1    2  502    0  0.59893441995E+02  0.20450752285E+02 -0.66231342277E+03  0.66533038984E+03  0.00000000000E+00 0. -1.
         -1    1    1    2    0  501 -0.21958283033E+02 -0.26375164757E+02 -0.14411660214E+03  0.14814658458E+03  0.00000000000E+00 0.  1.
<mgrwt>
<rscale>  0 0.45715354E+02</rscale>
<asrwt>0</asrwt>
<pdfrwt beam="2">  1        2 0.16369337E+00 0.60895549E+02</pdfrwt>
<pdfrwt beam="1">  1       -1 0.31307464E-02 0.34319317E+02</pdfrwt>
<totfact> 0.82353764E+03</totfact>
</mgrwt>
</event>
<event>
 5    1  0.4149151E-003  0.1086525E+03  0.7546771E-02  0.1461317E+00
          2   -1    0    0  501    0  0.00000000000E+00  0.00000000000E+00  0.68465052959E+02  0.68465052959E+02  0.00000000000E+00 0. -1.
          1   -1    0    0  502    0 -0.00000000000E+00 -0.00000000000E+00 -0.98051683024E+03  0.98051683024E+03  0.00000000000E+00 0. -1.
         25    1    1    2    0    0 -0.92944145050E+02 -0.83439126098E+02 -0.39724892610E+03  0.43477857715E+03  0.12500000000E+03 0.  0.
          2    1    1    2  501    0  0.15688015474E+02  0.13142662852E+02  0.42513660294E+02  0.47183203875E+02  0.00000000000E+00 0. -1.
          1    1    1    2  502    0  0.77256129576E+02  0.70296463247E+02 -0.55731651148E+03  0.56702010217E+03  0.00000000000E+00 0. -1.
<mgrwt>
<rscale>  0 0.47155550E+02</rscale>
<asrwt>0</asrwt>
<pdfrwt beam="1">  1        2 0.10533085E-01 0.20465664E+02</pdfrwt>
<pdfrwt beam="2">  1        1 0.15084875E+00 0.10865251E+03</pdfrwt>
<totfact> 0.11960585E+03</totfact>
</mgrwt>
</event>
<event>
 5    1  0.4149151E-003  0.1393621E+03  0.7546771E-02  0.1310452E+00
          1   -1    0    0  501    0  0.00000000000E+00  0.00000000000E+00  0.57339912164E+03  0.57339912164E+03  0.00000000000E+00 0. -1.
          1   -1    0    0  502    0 -0.00000000000E+00 -0.00000000000E+00 -0.11872951305E+04  0.11872951305E+04  0.00000000000E+00 0. -1.
         25    1    1    2    0    0 -0.98565022083E+02 -0.53296969219E+02 -0.18890126799E+03  0.25271390851E+03  0.12500000000E+03 0.  0.
          1    1    1    2  501    0  0.13965436104E+03  0.17906790768E+02  0.53155935384E+03  0.54989029848E+03  0.00000000000E+00 0. -1.
          1    1    1    2  502    0 -0.41089338956E+02  0.35390178451E+02 -0.95655409470E+03  0.95809004514E+03  0.00000000000E+00 0. -1.
<mgrwt>
<rscale>  0 0.86933786E+02</rscale>
<asrwt>0</asrwt>
<pdfrwt beam="1">  1        1 0.88215250E-01 0.13936206E+03</pdfrwt>
<pdfrwt beam="2">  1        1 0.18266079E+00 0.54229130E+02</pdfrwt>
<totfact> 0.60975447E+01</totfact>
</mgrwt>
</event>
<event>
 5    1  0.4149151E-003  0.1081053E+03  0.7546771E-02  0.1380490E+00
          2   -1    0    0  501    0  0.00000000000E+00  0.00000000000E+00  0.94016486916E+03  0.94016486916E+03  0.00000000000E+00 0. -1.
          1   -1    0    0  502    0 -0.00000000000E+00 -0.00000000000E+00 -0.32897628521E+04  0.32897628521E+04  0.00000000000E+00 0. -1.
         25    1    1    2    0    0  0.75039118266E+02  0.10425926643E+03 -0.17292430302E+03  0.24905557308E+03  0.12500000000E+03 0.  0.
          2    1    1    2  501    0  0.92254612750E+01 -0.37158719186E+02  0.90075026612E+03  0.90156359813E+03  0.00000000000E+00 0. -1.
          1    1    1    2  502    0 -0.84264579541E+02 -0.67100547242E+02 -0.30774239460E+04  0.30793085500E+04  0.00000000000E+00 0. -1.
<mgrwt>
<rscale>  0 0.64335123E+02</rscale>
<asrwt>0</asrwt>
<pdfrwt beam="1">  1        2 0.14464075E+00 0.38286806E+02</pdfrwt>
<pdfrwt beam="2">  1        1 0.50611737E+00 0.10810534E+03</pdfrwt>
<totfact> 0.22777224E+00</totfact>
</mgrwt>
</event>
<event>
 5    1  0.4149151E-003  0.6683564E+02  0.7546771E-02  0.1501959E+00
         -2   -1    0    0    0  501 -0.00000000000E+00  0.00000000000E+00  0.14435140675E+02  0.14435140675E+02  0.00000000000E+00 0.  1.
          1   -1    0    0  502    0  0.00000000000E+00 -0.00000000000E+00 -0.99571320332E+03  0.99571320332E+03  0.00000000000E+00 0. -1.
         25    1    1    2    0    0  0.25957011867E+02  0.52206174419E+02 -0.63480637578E+03  0.64961787679E+03  0.12500000000E+03 0.  0.
          1    1    1    2  502    0 -0.11396415617E+02 -0.72507023063E+02 -0.28178465701E+03  0.29118677787E+03  0.00000000000E+00 0. -1.
         -2    1    1    2    0  501 -0.14560596250E+02  0.20300848644E+02 -0.64687029853E+02  0.69343689331E+02  0.00000000000E+00 0.  1.
<mgrwt>
<rscale>  0 0.40862390E+02</rscale>
<asrwt>0</asrwt>
<pdfrwt beam="2">  1        1 0.15318668E+00 0.66835640E+02</pdfrwt>
<pdfrwt beam="1">  1       -2 0.22207904E-02 0.24982702E+02</pdfrwt>
<totfact> 0.73840790E+03</totfact>
</mgrwt>
</event>
<event>
 5    1  0.4149151E-003  0.3038314E+02  0.7546771E-02  0.1626352E+00
          2   -1    0    0  502    0  0.00000000000E+00  0.00000000000E+00  0.22379209771E+03  0.22379209771E+03  0.00000000000E+00 0. -1.
         -2   -1    0    0    0  501 -0.00000000000E+00 -0.00000000000E+00 -0.52802937783E+02  0.52802937783E+02  0.00000000000E+00 0.  1.
         25    1    1    2    0    0  0.77336839984E+01 -0.91052724735E+00  0.10271971107E+03  0.16197832562E+03  0.12500000000E+03 0.  0.
          2    1    1    2  502    0 -0.35178041213E+02 -0.12125660052E+02 -0.28106778785E+01  0.37315226455E+02  0.00000000000E+00 0.  1.
         -2    1    1    2    0  501  0.27444357215E+02  0.13036187299E+02  0.71080126737E+02  0.77301483421E+02  0.00000000000E+00 0. -1.
<mgrwt>
<rscale>  0 0.27591089E+02</rscale>
<asrwt>0</asrwt>
<pdfrwt beam="1">  1        2 0.34429553E-01 0.25055617E+02</pdfrwt>
<pdfrwt beam="2">  1       -2 0.81235290E-02 0.30383135E+02</pdfrwt>
<totfact> 0.11044589E+04</totfact>
</mgrwt>
</event>
<event>
 5    1  0.5169591E-003  0.3688463E+03  0.7546771E-02  0.1055135E+00
          1   -1    0    0  502    0  0.00000000000E+00  0.00000000000E+00  0.11828583375E+04  0.11828583375E+04  0.00000000000E+00 0. -1.
         -2   -1    0    0    0  501 -0.00000000000E+00 -0.00000000000E+00 -0.28753987187E+02  0.28753987187E+02  0.00000000000E+00 0.  1.
         25    1    1    2    0    0 -0.58185640422E+02 -0.13976044942E+03  0.67391322336E+03  0.70192776309E+03  0.12500000000E+03 0.  0.
          1    1    1    2  502    0  0.75120203149E+02  0.85073162245E+02  0.32821574048E+03  0.34728383227E+03  0.00000000000E+00 0. -1.
         -2    1    1    2    0  501 -0.16934562727E+02  0.54687287176E+02  0.15197538644E+03  0.16240072930E+03  0.00000000000E+00 0.  1.
<mgrwt>
<rscale>  0 0.36884627E+03</rscale>
<asrwt>0</asrwt>
<pdfrwt beam="1">  1        1 0.18197817E+00 0.36884627E+03</pdfrwt>
<pdfrwt beam="2">  1       -2 0.44236913E-02 0.36884627E+03</pdfrwt>
<totfact> 0.24456493E+03</totfact>
</mgrwt>
</event>
<event>
 5    1  0.4149151E-003  0.3950075E+02  0.7546771E-02  0.1546856E+00
         -2   -1    0    0    0  501 -0.00000000000E+00  0.00000000000E+00  0.30482653765E+01  0.30482653765E+01  0.00000000000E+00 0.  1.
          1   -1    0    0  502    0  0.00000000000E+00 -0.00000000000E+00 -0.36096697320E+04  0.36096697320E+04  0.00000000000E+00 0. -1.
         25    1    1    2    0    0 -0.15019563304E+02  0.14480952252E+01 -0.22194582295E+04  0.22230266568E+04  0.12500000000E+03 0.  0.
          1    1    1    2  502    0  0.46037312741E+02 -0.60854279573E+01 -0.10631743554E+04  0.10641880363E+04  0.00000000000E+00 0. -1.
         -2    1    1    2    0  501 -0.31017749437E+02  0.46373327321E+01 -0.32398888171E+03  0.32550330429E+03  0.00000000000E+00 0.  1.
<mgrwt>
<rscale>  0 0.35197186E+02</rscale>
<asrwt>0</asrwt>
<pdfrwt beam="2">  1        1 0.55533197E+00 0.39500754E+02</pdfrwt>
<pdfrwt beam="1">  1       -2 0.46896545E-03 0.31362488E+02</pdfrwt>
<totfact> 0.14066694E+03</totfact>
</mgrwt>
</event>
<event>
 5    1  0.4149151E-003  0.1018610E+03  0.7546771E-02  0.1302092E+00
          1   -1    0    0  502    0 -0.00000000000E+00  0.00000000000E+00  0.15952606841E+03  0.15952606841E+03  0.00000000000E+00 0. -1.
          2   -1    0    0  501    0  0.00000000000E+00 -0.00000000000E+00 -0.10947690037E+04  0.10947690037E+04  0.00000000000E+00 0. -1.
         25    1    1    2    0    0 -0.40601150939E+02 -0.49722985732E+02 -0.86765955272E+02  0.16514890179E+03  0.12500000000E+03 0.  0.
          2    1    1    2  501    0 -0.17487166303E+02  0.10484101060E+03 -0.95219730110E+03  0.95811123504E+03  0.00000000000E+00 0. -1.
          1    1    1    2  502    0  0.58088317242E+02 -0.55118024871E+02  0.10372032107E+03  0.13103493530E+03  0.00000000000E+00 0. -1.
<mgrwt>
<rscale>  0 0.90314299E+02</rscale>
<asrwt>0</asrwt>
<pdfrwt beam="2">  1        2 0.16842600E+00 0.10186098E+03</pdfrwt>
<pdfrwt beam="1">  1        1 0.24542472E-01 0.80076521E+02</pdfrwt>
<totfact> 0.62973765E+02</totfact>
</mgrwt>
</event>
<event>
 5    1  0.4149151E-003  0.4784512E+03  0.7546771E-02  0.1199259E+00
          1   -1    0    0  502    0 -0.00000000000E+00  0.00000000000E+00  0.68535618734E+03  0.68535618734E+03  0.00000000000E+00 0. -1.
          2   -1    0    0  501    0  0.00000000000E+00 -0.00000000000E+00 -0.24274771418E+04  0.24274771418E+04  0.00000000000E+00 0. -1.
         25    1    1    2    0    0 -0.51617519487E+03 -0.19527747296E+02 -0.63010773524E+03  0.82430511506E+03  0.12500000000E+03 0.  0.
          2    1    1    2  501    0  0.42670588620E+02  0.21208752389E+02 -0.16045742868E+04  0.16052816676E+04  0.00000000000E+00 0. -1.
          1    1    1    2  502    0  0.47350460625E+03 -0.16810050937E+01  0.49256106763E+03  0.68324654647E+03  0.00000000000E+00 0. -1.
<mgrwt>
<rscale>  0 0.15099186E+03</rscale>
<asrwt>0</asrwt>
<pdfrwt beam="2">  1        2 0.37345801E+00 0.47650712E+02</pdfrwt>
<pdfrwt beam="1">  1        1 0.10543942E+00 0.47845124E+03</pdfrwt>
<totfact> 0.21584727E+01</totfact>
</mgrwt>
</event>
<event>
 5    1  0.4149151E-003  0.5436676E+02  0.7546771E-02  0.1476010E+00
          2   -1    0    0  502    0  0.00000000000E+00  0.00000000000E+00  0.82639976023E+03  0.82639976023E+03  0.00000000000E+00 0. -1.
         -2   -1    0    0    0  501 -0.00000000000E+00 -0.00000000000E+00 -0.13967684982E+03  0.13967684982E+03  0.00000000000E+00 0.  1.
         25    1    1    2    0    0 -0.51946816123E+02 -0.68618133081E+02  0.23598473689E+03  0.28057212253E+03  0.12500000000E+03 0.  0.
          2    1    1    2  502    0  0.31541047774E+02  0.18972851912E+02  0.56135094609E+03  0.56255638960E+03  0.00000000000E+00 0. -1.
         -2    1    1    2    0  501  0.20405768349E+02  0.49645281170E+02 -0.11061277258E+03  0.12294809792E+03  0.00000000000E+00 0.  1.
<mgrwt>
<rscale>  0 0.44733829E+02</rscale>
<asrwt>0</asrwt>
<pdfrwt beam="1">  1        2 0.12713842E+00 0.36807700E+02</pdfrwt>
<pdfrwt beam="2">  1       -2 0.21488747E-01 0.54366762E+02</pdfrwt>
<totfact> 0.64996284E+02</totfact>
</mgrwt>
</event>
<event>
 5    1  0.4149151E-003  0.1102620E+03  0.7546771E-02  0.1299385E+00
          1   -1    0    0  502    0 -0.00000000000E+00  0.00000000000E+00  0.29480801136E+03  0.29480801136E+03  0.00000000000E+00 0. -1.
          2   -1    0    0  501    0  0.00000000000E+00 -0.00000000000E+00 -0.12559076943E+04  0.12559076943E+04  0.00000000000E+00 0. -1.
         25    1    1    2    0    0  0.15009102313E+02 -0.43634804048E+02 -0.20254851937E+03  0.24244622492E+03  0.12500000000E+03 0.  0.
          2    1    1    2  501    0 -0.33508948483E+02  0.11718663010E+03 -0.10244964207E+04  0.10317211212E+04  0.00000000000E+00 0. -1.
          1    1    1    2  502    0  0.18499846170E+02 -0.73551826049E+02  0.26594525709E+03  0.27654835959E+03  0.00000000000E+00 0. -1.
<mgrwt>
<rscale>  0 0.91447062E+02</rscale>
<asrwt>0</asrwt>
<pdfrwt beam="2">  1        2 0.19321657E+00 0.11026196E+03</pdfrwt>
<pdfrwt beam="1">  1        1 0.45355078E-01 0.75842702E+02</pdfrwt>
<totfact> 0.24128555E+02</totfact>
</mgrwt>
</event>
<event>
 5    1  0.4149151E-003  0.1638868E+03  0.7546771E-02  0.1186760E+00
          2   -1    0    0  502    0  0.00000000000E+00  0.00000000000E+00  0.90282805220E+03  0.90282805220E+03  0.00000000000E+00 0. -1.
         -1   -1    0    0    0  501 -0.00000000000E+00 -0.00000000000E+00 -0.44090933903E+03  0.44090933903E+03  0.00000000000E+00 0.  1.
         25    1    1    2    0    0 -0.36224244179E+02  0.62878076182E+02  0.83642446584E+02  0.16699373402E+03  0.12500000000E+03 0.  0.
          2    1    1    2  502    0  0.19455269676E+03 -0.42791747669E+02  0.74798569163E+03  0.77405715575E+03  0.00000000000E+00 0. -1.
         -1    1    1    2    0  501 -0.15832845258E+03 -0.20086328513E+02 -0.36970942504E+03  0.40268650146E+03  0.00000000000E+00 0.  1.
<mgrwt>
<rscale>  0 0.16172794E+03</rscale>
<asrwt>0</asrwt>
<pdfrwt beam="1">  1        2 0.13889662E+00 0.16388683E+03</pdfrwt>
<pdfrwt beam="2">  1       -1 0.67832206E-01 0.15959749E+03</pdfrwt>
<totfact> 0.82496940E+01</totfact>
</mgrwt>
</event>
<event>
 5    1  0.4149151E-003  0.1377215E+03  0.7546771E-02  0.1291839E+00
         -3   -1    0    0    0  501 -0.00000000000E+00  0.00000000000E+00  0.25920252742E+03  0.25920252742E+03  0.00000000000E+00 0.  1.
          2   -1    0    0  502    0  0.00000000000E+00 -0.00000000000E+00 -0.14390962015E+04  0.14390962015E+04  0.00000000000E+00 0. -1.
         25    1    1    2    0    0 -0.65238134208E+01  0.16420118563E+03 -0.75513664651E+03  0.78285435709E+03  0.12500000000E+03 0.  0.
          2    1    1    2  502    0  0.54587291547E+02 -0.35519657040E+02 -0.64911555659E+03  0.65237445094E+03  0.00000000000E+00 0. -1.
         -3    1    1    2    0  501 -0.48063478126E+02 -0.12868152859E+03  0.22435852902E+03  0.26306992089E+03  0.00000000000E+00 0.  1.
<mgrwt>
<rscale>  0 0.94706238E+02</rscale>
<asrwt>0</asrwt>
<pdfrwt beam="2">  1        2 0.22139941E+00 0.65126173E+02</pdfrwt>
<pdfrwt beam="1">  1       -3 0.39877312E-01 0.13772146E+03</pdfrwt>
<totfact> 0.62319752E+01</totfact>
</mgrwt>
</event>
<event>
 5    1  0.4149151E-003  0.2351170E+03  0.7546771E-02  0.1241957E+00
          1   -1    0    0  502    0 -0.00000000000E+00  0.00000000000E+00  0.91794083681E+03  0.91794083681E+03  0.00000000000E+00 0. -1.
          2   -1    0    0  501    0  0.00000000000E+00 -0.00000000000E+00 -0.13016204344E+03  0.13016204344E+03  0.00000000000E+00 0. -1.
         25    1    1    2    0    0  0.57537396370E+02 -0.18032132790E+03  0.10972821452E+03  0.25197542408E+03  0.12500000000E+03 0.  0.
          2    1    1    2  501    0  0.13370421668E+01 -0.61941727052E+02 -0.11388871778E+02  0.62994219039E+02  0.00000000000E+00 0. -1.
          1    1    1    2  502    0 -0.58874438537E+02  0.24226305495E+03  0.68943945062E+03  0.73313323713E+03  0.00000000000E+00 0. -1.
<mgrwt>
<rscale>  0 0.12069361E+03</rscale>
<asrwt>0</asrwt>
<pdfrwt beam="2">  1        2 0.20024930E-01 0.61956156E+02</pdfrwt>
<pdfrwt beam="1">  1        1 0.14122166E+00 0.23511704E+03</pdfrwt>
<totfact> 0.66819817E+02</totfact>
</mgrwt>
</event>
<event>
 5    1  0.4149151E-003  0.7391359E+02  0.7546771E-02  0.1472933E+00
          1   -1    0    0  502    0  0.00000000000E+00  0.00000000000E+00  0.19704665735E+04  0.19704665735E+04  0.00000000000E+00 0. -1.
         -1   -1    0    0    0  501 -0.00000000000E+00 -0.00000000000E+00 -0.11040115229E+02  0.11040115229E+02  0.00000000000E+00 0.  1.
         25    1    1    2    0    0  0.48057798178E+02 -0.80740444013E+02  0.12616712699E+04  0.12713252788E+04  0.12500000000E+03 0.  0.
          1    1    1    2  502    0 -0.38485184497E+02  0.54775616684E+02  0.65991558455E+03  0.66330238680E+03  0.00000000000E+00 0. -1.
         -1    1    1    2    0  501 -0.95726136814E+01  0.25964827328E+02  0.37839603852E+02  0.46879023140E+02  0.00000000000E+00 0.  1.
<mgrwt>
<rscale>  0 0.45226398E+02</rscale>
<asrwt>0</asrwt>
<pdfrwt beam="1">  1        1 0.30314842E+00 0.73913588E+02</pdfrwt>
<pdfrwt beam="2">  1       -1 0.16984808E-02 0.27673222E+02</pdfrwt>
<totfact> 0.25671081E+03</totfact>
</mgrwt>
</event>
<event>
 5    1  0.4149151E-003  0.4697955E+03  0.7546771E-02  0.1021978E+00
          2   -1    0    0  502    0  0.00000000000E+00  0.00000000000E+00  0.14496670942E+03  0.14496670942E+03  0.00000000000E+00 0. -1.
         -1   -1    0    0    0  501 -0.00000000000E+00 -0.00000000000E+00 -0.38061804720E+03  0.38061804720E+03  0.00000000000E+00 0.  1.
         25    1    1    2    0    0  0.60373955523E+02  0.19997448083E+03 -0.88749842738E+02  0.25910681596E+03  0.12500000000E+03 0.  0.
          2    1    1    2  502    0 -0.17020619154E+02 -0.14905515856E+03 -0.73104716611E+02  0.16688751110E+03  0.00000000000E+00 0. -1.
         -1    1    1    2    0  501 -0.43353336370E+02 -0.50919322272E+02 -0.73796778428E+02  0.99590429567E+02  0.00000000000E+00 0.  1.
<mgrwt>
<rscale>  0 0.46979547E+03</rscale>
<asrwt>0</asrwt>
<pdfrwt beam="1">  1        2 0.22302571E-01 0.46979547E+03</pdfrwt>
<pdfrwt beam="2">  1       -1 0.58556623E-01 0.46979547E+03</pdfrwt>
<totfact> 0.85189833E+02</totfact>
</mgrwt>
</event>
<event>
 5    1  0.4149151E-003  0.5326531E+02  0.7546771E-02  0.1482810E+00
          2   -1    0    0  501    0  0.00000000000E+00  0.00000000000E+00  0.20513676838E+03  0.20513676838E+03  0.00000000000E+00 0. -1.
          1   -1    0    0  502    0 -0.00000000000E+00 -0.00000000000E+00 -0.19492647597E+03  0.19492647597E+03  0.00000000000E+00 0. -1.
         25    1    1    2    0    0 -0.39958726571E+02 -0.62082511664E+02 -0.48409923266E+02  0.15303417512E+03  0.12500000000E+03 0.  0.
          2    1    1    2  501    0 -0.39916123888E+01  0.35582385307E+02  0.14346737694E+03  0.14786793892E+03  0.00000000000E+00 0. -1.
          1    1    1    2  502    0  0.43950338960E+02  0.26500126357E+02 -0.84847161258E+02  0.99161130314E+02  0.00000000000E+00 0. -1.
<mgrwt>
<rscale>  0 0.43671442E+02</rscale>
<asrwt>0</asrwt>
<pdfrwt beam="1">  1        2 0.31559503E-01 0.35805574E+02</pdfrwt>
<pdfrwt beam="2">  1        1 0.29988689E-01 0.53265306E+02</pdfrwt>
<totfact> 0.31593862E+03</totfact>
</mgrwt>
</event>
<event>
 5    1  0.4149151E-003  0.2083319E+03  0.7546771E-02  0.1151938E+00
          1   -1    0    0  501    0  0.00000000000E+00  0.00000000000E+00  0.50563072258E+03  0.50563072258E+03  0.00000000000E+00 0. -1.
          3   -1    0    0  502    0 -0.00000000000E+00 -0.00000000000E+00 -0.31282688141E+03  0.31282688141E+03  0.00000000000E+00 0.  1.
         25    1    1    2    0    0 -0.21317464234E+02 -0.43293741521E+02 -0.72868938301E+02  0.15252430792E+03  0.12500000000E+03 0.  0.
          1    1    1    2  501    0  0.22956156480E+03  0.49341687554E+02  0.36588912984E+03  0.43475046809E+03  0.00000000000E+00 0. -1.
          3    1    1    2  502    0 -0.20824410057E+03 -0.60479460335E+01 -0.10021635037E+03  0.23118282798E+03  0.00000000000E+00 0.  1.
<mgrwt>
<rscale>  0 0.19741583E+03</rscale>
<asrwt>0</asrwt>
<pdfrwt beam="1">  1        1 0.77789342E-01 0.18707173E+03</pdfrwt>
<pdfrwt beam="2">  1        3 0.48127212E-01 0.20833191E+03</pdfrwt>
<totfact> 0.10509739E+02</totfact>
</mgrwt>
</event>
<event>
 5    1  0.4149151E-003  0.8653808E+02  0.7546771E-02  0.1429759E+00
         -1   -1    0    0    0  501 -0.00000000000E+00  0.00000000000E+00  0.15775679735E+02  0.15775679735E+02  0.00000000000E+00 0.  1.
          1   -1    0    0  502    0  0.00000000000E+00 -0.00000000000E+00 -0.14840777925E+04  0.14840777925E+04  0.00000000000E+00 0. -1.
         25    1    1    2    0    0  0.17736349668E+02  0.10424646191E+03 -0.89275870134E+03  0.90764806051E+03  0.12500000000E+03 0.  0.
          1    1    1    2  502    0 -0.23779136009E+02 -0.22109872822E+02 -0.36003273277E+03  0.36149393141E+03  0.00000000000E+00 0. -1.
         -1    1    1    2    0  501  0.60427863407E+01 -0.82136589085E+02 -0.21551067864E+03  0.23071148030E+03  0.00000000000E+00 0.  1.
<mgrwt>
<rscale>  0 0.53008321E+02</rscale>
<asrwt>0</asrwt>
<pdfrwt beam="2">  1        1 0.22831964E+00 0.32469890E+02</pdfrwt>
<pdfrwt beam="1">  1       -1 0.24270278E-02 0.86538085E+02</pdfrwt>
<totfact> 0.40815671E+03</totfact>
</mgrwt>
</event>
<event>
 5    1  0.4149151E-003  0.6798217E+02  0.7546771E-02  0.1444997E+00
          1   -1    0    0  501    0  0.00000000000E+00  0.00000000000E+00  0.96396032933E+03  0.96396032933E+03  0.00000000000E+00 0. -1.
          1   -1    0    0  502    0 -0.00000000000E+00 -0.00000000000E+00 -0.21476679011E+03  0.21476679011E+03  0.00000000000E+00 0. -1.
         25    1    1    2    0    0 -0.96539945826E+02 -0.32216327380E+02  0.56617693298E+02  0.17084617667E+03  0.12500000000E+03 0.  0.
          1    1    1    2  501    0  0.32101978959E+02  0.18131180164E+02  0.84290865686E+03  0.84371457292E+03  0.00000000000E+00 0. -1.
          1    1    1    2  502    0  0.64437966867E+02  0.14085147217E+02 -0.15033281094E+03  0.16416636985E+03  0.00000000000E+00 0. -1.
<mgrwt>
<rscale>  0 0.50063879E+02</rscale>
<asrwt>0</asrwt>
<pdfrwt beam="1">  1        1 0.14830159E+00 0.36868371E+02</pdfrwt>
<pdfrwt beam="2">  1        1 0.33041045E-01 0.67982175E+02</pdfrwt>
<totfact> 0.30431196E+02</totfact>
</mgrwt>
</event>
<event>
 5    1  0.4149151E-003  0.4964334E+02  0.7546771E-02  0.1564995E+00
         -1   -1    0    0    0  501 -0.00000000000E+00  0.00000000000E+00  0.50374156082E+01  0.50374156082E+01  0.00000000000E+00 0.  1.
          2   -1    0    0  502    0  0.00000000000E+00 -0.00000000000E+00 -0.27252535280E+04  0.27252535280E+04  0.00000000000E+00 0. -1.
         25    1    1    2    0    0  0.21826196298E+02  0.29972862297E+02 -0.20726711863E+04  0.20767680665E+04  0.12500000000E+03 0.  0.
          2    1    1    2  502    0 -0.37223542823E+02 -0.46007905027E+02 -0.56308097419E+03  0.56618239372E+03  0.00000000000E+00 0. -1.
         -1    1    1    2    0  501  0.15397346525E+02  0.16035042730E+02 -0.84463951845E+02  0.87340483378E+02  0.00000000000E+00 0.  1.
<mgrwt>
<rscale>  0 0.33220517E+02</rscale>
<asrwt>0</asrwt>
<pdfrwt beam="2">  1        2 0.41927115E+00 0.49643344E+02</pdfrwt>
<pdfrwt beam="1">  1       -1 0.77498447E-03 0.22230629E+02</pdfrwt>
<totfact> 0.75421478E+03</totfact>
</mgrwt>
</event>
<event>
 5    1  0.4149151E-003  0.5436446E+02  0.7546771E-02  0.1500080E+00
          1   -1    0    0  502    0  0.00000000000E+00  0.00000000000E+00  0.39779913562E+03  0.39779913562E+03  0.00000000000E+00 0. -1.
         -2   -1    0    0    0  501 -0.00000000000E+00 -0.00000000000E+00 -0.38407440763E+02  0.38407440763E+02  0.00000000000E+00 0.  1.
         25    1    1    2    0    0  0.13871776505E+02  0.34915168245E+02  0.30331992118E+03  0.33021125017E+03  0.12500000000E+03 0.  0.
          1    1    1    2  502    0 -0.22077699987E+02  0.21921498635E+02  0.28905810816E+02  0.42467903622E+02  0.00000000000E+00 0. -1.
         -2    1    1    2    0  501  0.82059234822E+01 -0.56836666880E+02  0.27165962862E+02  0.63527422586E+02  0.00000000000E+00 0.  1.
<mgrwt>
<rscale>  0 0.41126692E+02</rscale>
<asrwt>0</asrwt>
<pdfrwt beam="1">  1        1 0.61199864E-01 0.31112328E+02</pdfrwt>
<pdfrwt beam="2">  1       -2 0.59088373E-02 0.54364456E+02</pdfrwt>
<totfact> 0.72312062E+03</totfact>
</mgrwt>
</event>
<event>
 5    1  0.4149151E-003  0.3588306E+02  0.7546771E-02  0.1550961E+00
         -1   -1    0    0    0  501 -0.00000000000E+00  0.00000000000E+00  0.37184375376E+03  0.37184375376E+03  0.00000000000E+00 0.  1.
          2   -1    0    0  502    0  0.00000000000E+00 -0.00000000000E+00 -0.50123176776E+02  0.50123176776E+02  0.00000000000E+00 0. -1.
         25    1    1    2    0    0 -0.81612228771E+01 -0.22924279083E+02  0.48354498855E+02  0.13621778771E+03  0.12500000000E+03 0.  0.
          2    1    1    2  502    0  0.33412339504E+02 -0.37736233133E+01  0.56161516999E+02  0.65457930426E+02  0.00000000000E+00 0. -1.
         -1    1    1    2    0  501 -0.25251116627E+02  0.26697902396E+02  0.21720456113E+03  0.22029121240E+03  0.00000000000E+00 0.  1.
<mgrwt>
<rscale>  0 0.34735564E+02</rscale>
<asrwt>0</asrwt>
<pdfrwt beam="2">  1        2 0.77112582E-02 0.33624763E+02</pdfrwt>
<pdfrwt beam="1">  1       -1 0.57206729E-01 0.35883060E+02</pdfrwt>
<totfact> 0.28289052E+03</totfact>
</mgrwt>
</event>
<event>
 5    1  0.4149151E-003  0.5527938E+02  0.7546771E-02  0.1455018E+00
         -3   -1    0    0    0  501 -0.00000000000E+00  0.00000000000E+00  0.81479969653E+03  0.81479969653E+03  0.00000000000E+00 0.  1.
          2   -1    0    0  502    0  0.00000000000E+00 -0.00000000000E+00 -0.18577427173E+03  0.18577427173E+03  0.00000000000E+00 0. -1.
         25    1    1    2    0    0  0.12404075620E+02  0.16104225109E+02  0.26642861638E+03  0.29499561825E+03  0.12500000000E+03 0.  0.
          2    1    1    2  502    0  0.40642091250E+02  0.11035475791E+02 -0.16720974650E+03  0.17243161147E+03  0.00000000000E+00 0. -1.
         -3    1    1    2    0  501 -0.53046166870E+02 -0.27139700900E+02  0.52980655493E+03  0.53314673855E+03  0.00000000000E+00 0.  1.
<mgrwt>
<rscale>  0 0.48249535E+02</rscale>
<asrwt>0</asrwt>
<pdfrwt beam="2">  1        2 0.28580658E-01 0.42113671E+02</pdfrwt>
<pdfrwt beam="1">  1       -3 0.12535380E+00 0.55279381E+02</pdfrwt>
<totfact> 0.57517592E+01</totfact>
</mgrwt>
</event>
<event>
 5    1  0.4149151E-003  0.3845006E+02  0.7546771E-02  0.1581034E+00
          2   -1    0    0  501    0  0.00000000000E+00  0.00000000000E+00  0.13012204873E+03  0.13012204873E+03  0.00000000000E+00 0. -1.
          1   -1    0    0  502    0 -0.00000000000E+00 -0.00000000000E+00 -0.10359172559E+04  0.10359172559E+04  0.00000000000E+00 0. -1.
         25    1    1    2    0    0 -0.26599486538E+02 -0.54527184156E+02 -0.72509511007E+01  0.13913418986E+03  0.12500000000E+03 0.  0.
          2    1    1    2  501    0  0.23134216469E+02  0.28786901844E+02  0.58676991718E+02  0.69331573229E+02  0.00000000000E+00 0. -1.
          1    1    1    2  502    0  0.34652700692E+01  0.25740282312E+02 -0.95722124776E+03  0.95757354150E+03  0.00000000000E+00 0. -1.
<mgrwt>
<rscale>  0 0.31601325E+02</rscale>
<asrwt>0</asrwt>
<pdfrwt beam="1">  1        2 0.20018777E-01 0.38450057E+02</pdfrwt>
<pdfrwt beam="2">  1        1 0.15937188E+00 0.25972490E+02</pdfrwt>
<totfact> 0.61872079E+02</totfact>
</mgrwt>
</event>
<event>
 5    1  0.4149151E-003  0.5054179E+02  0.7546771E-02  0.1495143E+00
          1   -1    0    0  502    0  0.00000000000E+00  0.00000000000E+00  0.11411462252E+03  0.11411462252E+03  0.00000000000E+00 0. -1.
         -3   -1    0    0    0  501 -0.00000000000E+00 -0.00000000000E+00 -0.14949408395E+03  0.14949408395E+03  0.00000000000E+00 0.  1.
         25    1    1    2    0    0 -0.51348892953E+02 -0.95081236775E+01 -0.11055949561E+02  0.13592037097E+03  0.12500000000E+03 0.  0.
          1    1    1    2  502    0  0.17563638683E+02 -0.29838782767E+02  0.34766957642E+02  0.49067053147E+02  0.00000000000E+00 0. -1.
         -3    1    1    2    0  501  0.33785254270E+02  0.39346906445E+02 -0.59090469507E+02  0.78621282357E+02  0.00000000000E+00 0.  1.
<mgrwt>
<rscale>  0 0.41832624E+02</rscale>
<asrwt>0</asrwt>
<pdfrwt beam="1">  1        1 0.17556096E-01 0.34624188E+02</pdfrwt>
<pdfrwt beam="2">  1       -3 0.22999090E-01 0.50541791E+02</pdfrwt>
<totfact> 0.23202909E+03</totfact>
</mgrwt>
</event>
<event>
 5    1  0.4149151E-003  0.1359209E+03  0.7546771E-02  0.1263262E+00
          1   -1    0    0  501    0  0.00000000000E+00  0.00000000000E+00  0.63484638017E+03  0.63484638017E+03  0.00000000000E+00 0. -1.
          3   -1    0    0  502    0 -0.00000000000E+00 -0.00000000000E+00 -0.21535060642E+03  0.21535060642E+03  0.00000000000E+00 0. -1.
         25    1    1    2    0    0 -0.19611244086E+02 -0.11727855936E+03  0.29067505660E+03  0.33801752899E+03  0.12500000000E+03 0.  0.
          1    1    1    2  501    0  0.86565483125E+02 -0.49144691211E+01  0.28792051016E+03  0.30069245924E+03  0.00000000000E+00 0. -1.
          3    1    1    2  502    0 -0.66954239039E+02  0.12219302849E+03 -0.15909979300E+03  0.21148699834E+03  0.00000000000E+00 0. -1.
<mgrwt>
<rscale>  0 0.10855875E+03</rscale>
<asrwt>0</asrwt>
<pdfrwt beam="1">  1        1 0.97668673E-01 0.86704872E+02</pdfrwt>
<pdfrwt beam="2">  1        3 0.33130863E-01 0.13592087E+03</pdfrwt>
<totfact> 0.16003117E+02</totfact>
</mgrwt>
</event>
<event>
 5    1  0.4149151E-003  0.5895650E+02  0.7546771E-02  0.1474591E+00
          2   -1    0    0  502    0  0.00000000000E+00  0.00000000000E+00  0.23425970073E+04  0.23425970073E+04  0.00000000000E+00 0. -1.
          2   -1    0    0  501    0 -0.00000000000E+00 -0.00000000000E+00 -0.17491894447E+03  0.17491894447E+03  0.00000000000E+00 0. -1.
         25    1    1    2    0    0 -0.91105274031E+02 -0.19050752419E+01  0.11411653695E+03  0.19222742852E+03  0.12500000000E+03 0.  0.
          2    1    1    2  501    0  0.57233858507E+02  0.72237793479E+01 -0.12959921211E+03  0.14185856805E+03  0.00000000000E+00 0. -1.
          2    1    1    2  502    0  0.33871415524E+02 -0.53187041060E+01  0.21831607380E+04  0.21834299552E+04  0.00000000000E+00 0. -1.
<mgrwt>
<rscale>  0 0.44960092E+02</rscale>
<asrwt>0</asrwt>
<pdfrwt beam="1">  1        2 0.36039952E+00 0.34286461E+02</pdfrwt>
<pdfrwt beam="2">  1        2 0.26910608E-01 0.58956503E+02</pdfrwt>
<totfact> 0.18849310E+02</totfact>
</mgrwt>
</event>
<event>
 5    1  0.4149151E-003  0.4453977E+02  0.7546771E-02  0.1524328E+00
         -1   -1    0    0    0  501 -0.00000000000E+00  0.00000000000E+00  0.31063121321E+02  0.31063121321E+02  0.00000000000E+00 0.  1.
          2   -1    0    0  502    0  0.00000000000E+00 -0.00000000000E+00 -0.15022404105E+04  0.15022404105E+04  0.00000000000E+00 0. -1.
         25    1    1    2    0    0  0.57577110703E+02 -0.28064700312E+02 -0.14026616706E+04  0.14096763860E+04  0.12500000000E+03 0.  0.
          2    1    1    2  502    0 -0.31306711228E+02 -0.76813545473E+01 -0.72244089300E+02  0.79109555772E+02  0.00000000000E+00 0. -1.
         -1    1    1    2    0  501 -0.26270399474E+02  0.35746054860E+02  0.37284707538E+01  0.44517590015E+02  0.00000000000E+00 0.  1.
<mgrwt>
<rscale>  0 0.37891320E+02</rscale>
<asrwt>0</asrwt>
<pdfrwt beam="2">  1        2 0.23111390E+00 0.32235282E+02</pdfrwt>
<pdfrwt beam="1">  1       -1 0.47789418E-02 0.44539774E+02</pdfrwt>
<totfact> 0.29275732E+03</totfact>
</mgrwt>
</event>
<event>
 5    1  0.4149151E-003  0.3412173E+02  0.7546771E-02  0.1601934E+00
          1   -1    0    0  502    0  0.00000000000E+00  0.00000000000E+00  0.12177232032E+04  0.12177232032E+04  0.00000000000E+00 0. -1.
         -3   -1    0    0    0  501 -0.00000000000E+00 -0.00000000000E+00 -0.10219787387E+02  0.10219787387E+02  0.00000000000E+00 0.  1.
         25    1    1    2    0    0  0.95845690262E+01  0.20936414533E+02  0.10058667537E+04  0.10138654367E+04  0.12500000000E+03 0.  0.
          1    1    1    2  502    0  0.23831320579E+02 -0.98139672217E+01  0.14581087973E+03  0.14807112629E+03  0.00000000000E+00 0. -1.
         -3    1    1    2    0  501 -0.33415889605E+02 -0.11122447311E+02  0.55825782345E+02  0.66006427617E+02  0.00000000000E+00 0.  1.
<mgrwt>
<rscale>  0 0.29654988E+02</rscale>
<asrwt>0</asrwt>
<pdfrwt beam="1">  1        1 0.18734192E+00 0.25772966E+02</pdfrwt>
<pdfrwt beam="2">  1       -3 0.15722759E-02 0.34121734E+02</pdfrwt>
<totfact> 0.70849354E+03</totfact>
</mgrwt>
</event>
<event>
 5    1  0.4149151E-003  0.3866672E+02  0.7546771E-02  0.1606641E+00
          2   -1    0    0  501    0  0.00000000000E+00  0.00000000000E+00  0.12667767905E+04  0.12667767905E+04  0.00000000000E+00 0. -1.
          1   -1    0    0  502    0 -0.00000000000E+00 -0.00000000000E+00 -0.68330965923E+02  0.68330965923E+02  0.00000000000E+00 0. -1.
         25    1    1    2    0    0 -0.80287595361E+01 -0.33800080674E+02  0.33072934569E+03  0.35526582517E+03  0.12500000000E+03 0.  0.
          2    1    1    2  501    0 -0.13926891770E+02  0.36424638308E+02  0.92117019437E+03  0.92199524922E+03  0.00000000000E+00 0. -1.
          1    1    1    2  502    0  0.21955651306E+02 -0.26245576347E+01 -0.53453715465E+02  0.57846682049E+02  0.00000000000E+00 0. -1.
<mgrwt>
<rscale>  0 0.29240334E+02</rscale>
<asrwt>0</asrwt>
<pdfrwt beam="1">  1        2 0.19488872E+00 0.38666721E+02</pdfrwt>
<pdfrwt beam="2">  1        1 0.10512457E-01 0.22111963E+02</pdfrwt>
<totfact> 0.14368111E+03</totfact>
</mgrwt>
</event>
<event>
 5    1  0.4149151E-003  0.7239860E+02  0.7546771E-02  0.1363836E+00
          2   -1    0    0  502    0  0.00000000000E+00  0.00000000000E+00  0.49461221005E+02  0.49461221005E+02  0.00000000000E+00 0. -1.
          2   -1    0    0  501    0 -0.00000000000E+00 -0.00000000000E+00 -0.24836178060E+04  0.24836178060E+04  0.00000000000E+00 0. -1.
         25    1    1    2    0    0  0.13445163687E+02 -0.73978540822E+01 -0.30688694274E+03  0.33172292097E+03  0.12500000000E+03 0.  0.
          2    1    1    2  501    0  0.64323701284E+02 -0.12831687957E+02 -0.21196214562E+04  0.21206360622E+04  0.00000000000E+00 0. -1.
          2    1    1    2  502    0 -0.77768864971E+02  0.20229542039E+02 -0.76481860870E+01  0.80720043858E+02  0.00000000000E+00 0. -1.
<mgrwt>
<rscale>  0 0.68910835E+02</rscale>
<asrwt>0</asrwt>
<pdfrwt beam="1">  1        2 0.76094199E-02 0.72398603E+02</pdfrwt>
<pdfrwt beam="2">  1        2 0.38209498E+00 0.65591088E+02</pdfrwt>
<totfact> 0.63047684E+02</totfact>
</mgrwt>
</event>
<event>
 5    1  0.4149151E-003  0.3302733E+02  0.7546771E-02  0.1590596E+00
          1   -1    0    0  502    0  0.00000000000E+00  0.00000000000E+00  0.42510068287E+03  0.42510068287E+03  0.00000000000E+00 0. -1.
         -2   -1    0    0    0  501 -0.00000000000E+00 -0.00000000000E+00 -0.15159859083E+03  0.15159859083E+03  0.00000000000E+00 0.  1.
         25    1    1    2    0    0  0.17232264947E+02 -0.28209552517E+02  0.40158077805E+03  0.42188250865E+03  0.12500000000E+03 0.  0.
          1    1    1    2  502    0  0.84191482991E+01  0.40666529327E+02 -0.26387837824E+02  0.49203319508E+02  0.00000000000E+00 0. -1.
         -2    1    1    2    0  501 -0.25651413246E+02 -0.12456976810E+02 -0.10169084819E+03  0.10561344554E+03  0.00000000000E+00 0.  1.
<mgrwt>
<rscale>  0 0.30688965E+02</rscale>
<asrwt>0</asrwt>
<pdfrwt beam="1">  1        1 0.65400105E-01 0.33027330E+02</pdfrwt>
<pdfrwt beam="2">  1       -2 0.23322860E-01 0.28516158E+02</pdfrwt>
<totfact> 0.75599803E+02</totfact>
</mgrwt>
</event>
<event>
 5    1  0.4720374E-003  0.6689652E+02  0.7546771E-02  0.1391391E+00
          2   -1    0    0  502    0  0.00000000000E+00  0.00000000000E+00  0.13622055785E+04  0.13622055785E+04  0.00000000000E+00 0. -1.
         -1   -1    0    0    0  501 -0.00000000000E+00 -0.00000000000E+00 -0.17517175513E+02  0.17517175513E+02  0.00000000000E+00 0.  1.
         25    1    1    2    0    0  0.86852145185E+02  0.73031741390E+02  0.67491177348E+03  0.69570671433E+03  0.12500000000E+03 0.  0.
          2    1    1    2  502    0 -0.45671796091E+02 -0.33521185675E+02  0.53027017276E+03  0.53328795127E+03  0.00000000000E+00 0. -1.
         -1    1    1    2    0  501 -0.41180349094E+02 -0.39510555715E+02  0.13950645669E+03  0.15072808837E+03  0.00000000000E+00 0.  1.
<mgrwt>
<rscale>  0 0.61562171E+02</rscale>
<asrwt>0</asrwt>
<pdfrwt beam="1">  1        2 0.20957001E+00 0.56653180E+02</pdfrwt>
<pdfrwt beam="2">  1       -1 0.26949511E-02 0.66896524E+02</pdfrwt>
<totfact> 0.78003903E+03</totfact>
</mgrwt>
</event>
<event>
 5    1  0.4149151E-003  0.3602894E+03  0.7546771E-02  0.1236974E+00
          2   -1    0    0  502    0  0.00000000000E+00  0.00000000000E+00  0.89857429379E+03  0.89857429379E+03  0.00000000000E+00 0. -1.
         -2   -1    0    0    0  501 -0.00000000000E+00 -0.00000000000E+00 -0.26077866758E+03  0.26077866758E+03  0.00000000000E+00 0.  1.
         25    1    1    2    0    0 -0.13526270637E+03  0.32375644826E+03  0.45029580596E+03  0.58438476229E+03  0.12500000000E+03 0.  0.
          2    1    1    2  502    0  0.17738141592E+03 -0.32966798330E+03  0.28374734581E+03  0.46974216564E+03  0.00000000000E+00 0. -1.
         -2    1    1    2    0  501 -0.42118709551E+02  0.59115350348E+01 -0.96247525553E+02  0.10522603345E+03  0.00000000000E+00 0.  1.
<mgrwt>
<rscale>  0 0.12378879E+03</rscale>
<asrwt>0</asrwt>
<pdfrwt beam="1">  1        2 0.13824220E+00 0.36028941E+03</pdfrwt>
<pdfrwt beam="2">  1       -2 0.40119795E-01 0.42531541E+02</pdfrwt>
<totfact> 0.17687167E+02</totfact>
</mgrwt>
</event>
<event>
 5    1  0.4149151E-003  0.9320971E+02  0.7546771E-02  0.1332701E+00
          2   -1    0    0  501    0  0.00000000000E+00  0.00000000000E+00  0.16280283446E+04  0.16280283446E+04  0.00000000000E+00 0. -1.
          2   -1    0    0  502    0 -0.00000000000E+00 -0.00000000000E+00 -0.34559673472E+03  0.34559673472E+03  0.00000000000E+00 0. -1.
         25    1    1    2    0    0  0.14503863729E+03 -0.65262462352E+01  0.52011800897E+03  0.55428020121E+03  0.12500000000E+03 0.  0.
          2    1    1    2  501    0 -0.56735658682E+02  0.34681299781E+02  0.10832523006E+04  0.10852913315E+04  0.00000000000E+00 0. -1.
          2    1    1    2  502    0 -0.88302978605E+02 -0.28155053545E+02 -0.32093869966E+03  0.33405354662E+03  0.00000000000E+00 0. -1.
<mgrwt>
<rscale>  0 0.78727881E+02</rscale>
<asrwt>0</asrwt>
<pdfrwt beam="1">  1        2 0.25046589E+00 0.66496071E+02</pdfrwt>
<pdfrwt beam="2">  1        2 0.53168729E-01 0.93209706E+02</pdfrwt>
<totfact> 0.19222564E+02</totfact>
</mgrwt>
</event>
<event>
 5    1  0.4470256E-003  0.3412248E+02  0.7546771E-02  0.1572436E+00
          2   -1    0    0  502    0  0.00000000000E+00  0.00000000000E+00  0.36619387847E+04  0.36619387847E+04  0.00000000000E+00 0. -1.
         -1   -1    0    0    0  501 -0.00000000000E+00 -0.00000000000E+00 -0.33120125150E+01  0.33120125150E+01  0.00000000000E+00 0.  1.
         25    1    1    2    0    0 -0.12157682720E+02  0.29971432899E+01  0.15626064049E+04  0.15676481011E+04  0.12500000000E+03 0.  0.
          2    1    1    2  502    0 -0.32657605194E+02  0.98906201654E+01  0.75235104892E+03  0.75312445475E+03  0.00000000000E+00 0. -1.
         -1    1    1    2    0  501  0.44815287914E+02 -0.12887763455E+02  0.13436693183E+04  0.13444782414E+04  0.00000000000E+00 0.  1.
<mgrwt>
<rscale>  0 0.32455039E+02</rscale>
<asrwt>0</asrwt>
<pdfrwt beam="1">  1        2 0.56337196E+00 0.34122479E+02</pdfrwt>
<pdfrwt beam="2">  1       -1 0.50954331E-03 0.30869082E+02</pdfrwt>
<totfact> 0.44657776E+03</totfact>
</mgrwt>
</event>
<event>
 5    1  0.4149151E-003  0.9266753E+02  0.7546771E-02  0.1445243E+00
          2   -1    0    0  502    0  0.00000000000E+00  0.00000000000E+00  0.18173648189E+04  0.18173648189E+04  0.00000000000E+00 0. -1.
         -1   -1    0    0    0  501 -0.00000000000E+00 -0.00000000000E+00 -0.13893309697E+02  0.13893309697E+02  0.00000000000E+00 0.  1.
         25    1    1    2    0    0 -0.64748080700E+02  0.89658534503E+02  0.12899087159E+04  0.13006615479E+04  0.12500000000E+03 0.  0.
          2    1    1    2  502    0  0.10208401486E+01 -0.26978488581E+02  0.26644513739E+03  0.26780943262E+03  0.00000000000E+00 0. -1.
         -1    1    1    2    0  501  0.63727240551E+02 -0.62680045922E+02  0.24711765592E+03  0.26278714811E+03  0.00000000000E+00 0.  1.
<mgrwt>
<rscale>  0 0.50018186E+02</rscale>
<asrwt>0</asrwt>
<pdfrwt beam="1">  1        2 0.27959440E+00 0.26997795E+02</pdfrwt>
<pdfrwt beam="2">  1       -1 0.21374337E-02 0.92667525E+02</pdfrwt>
<totfact> 0.73139424E+03</totfact>
</mgrwt>
</event>
<event>
 5    1  0.4149151E-003  0.7393011E+02  0.7546771E-02  0.1381450E+00
          2   -1    0    0  502    0  0.00000000000E+00  0.00000000000E+00  0.44663798405E+03  0.44663798405E+03  0.00000000000E+00 0. -1.
         -3   -1    0    0    0  501 -0.00000000000E+00 -0.00000000000E+00 -0.30143435520E+03  0.30143435520E+03  0.00000000000E+00 0.  1.
         25    1    1    2    0    0 -0.97496535987E+02 -0.15143672292E+02 -0.62596431384E+02  0.17110879160E+03  0.12500000000E+03 0.  0.
          2    1    1    2  502    0  0.66770041349E+02 -0.31134112933E+02  0.38462568436E+03  0.39161778366E+03  0.00000000000E+00 0. -1.
         -3    1    1    2    0  501  0.30726494639E+02  0.46277785225E+02 -0.17682562413E+03  0.18534576398E+03  0.00000000000E+00 0.  1.
<mgrwt>
<rscale>  0 0.64084190E+02</rscale>
<asrwt>0</asrwt>
<pdfrwt beam="1">  1        2 0.68713536E-01 0.73930113E+02</pdfrwt>
<pdfrwt beam="2">  1       -3 0.46374516E-01 0.55549535E+02</pdfrwt>
<totfact> 0.19109063E+02</totfact>
</mgrwt>
</event>
<event>
 5    1  0.4555165E-003  0.4279143E+02  0.7546771E-02  0.1526753E+00
         -1   -1    0    0    0  501 -0.00000000000E+00  0.00000000000E+00  0.38707056202E+01  0.38707056202E+01  0.00000000000E+00 0.  1.
          2   -1    0    0  502    0  0.00000000000E+00 -0.00000000000E+00 -0.29265974654E+04  0.29265974654E+04  0.00000000000E+00 0. -1.
         25    1    1    2    0    0  0.10080241270E+02 -0.25262019521E+02 -0.17910168181E+04  0.17955795788E+04  0.12500000000E+03 0.  0.
          2    1    1    2  502    0 -0.43095543566E+02  0.24952193184E+02 -0.79697969312E+03  0.79853394985E+03  0.00000000000E+00 0. -1.
         -1    1    1    2    0  501  0.33015302297E+02  0.30982633721E+00 -0.33473024860E+03  0.33635464246E+03  0.00000000000E+00 0.  1.
<mgrwt>
<rscale>  0 0.37587689E+02</rscale>
<asrwt>0</asrwt>
<pdfrwt beam="2">  1        2 0.45024498E+00 0.42791434E+02</pdfrwt>
<pdfrwt beam="1">  1       -1 0.59549421E-03 0.33016756E+02</pdfrwt>
<totfact> 0.94702402E+03</totfact>
</mgrwt>
</event>
<event>
 5    1  0.4149151E-003  0.1202550E+03  0.7546771E-02  0.1342496E+00
          1   -1    0    0  502    0  0.00000000000E+00  0.00000000000E+00  0.74742145164E+03  0.74742145164E+03  0.00000000000E+00 0. -1.
         -1   -1    0    0    0  501 -0.00000000000E+00 -0.00000000000E+00 -0.37393910416E+03  0.37393910416E+03  0.00000000000E+00 0.  1.
         25    1    1    2    0    0 -0.17799512153E+02  0.11520344786E+03  0.21587898276E+02  0.17227795676E+03  0.12500000000E+03 0.  0.
          1    1    1    2  502    0  0.63574562875E+02 -0.10315831682E+03  0.64291661344E+03  0.65423629921E+03  0.00000000000E+00 0. -1.
         -1    1    1    2    0  501 -0.45775050721E+02 -0.12045131045E+02 -0.29102216423E+03  0.29484629983E+03  0.00000000000E+00 0.  1.
<mgrwt>
<rscale>  0 0.75445785E+02</rscale>
<asrwt>0</asrwt>
<pdfrwt beam="1">  1        1 0.11498792E+00 0.12025503E+03</pdfrwt>
<pdfrwt beam="2">  1       -1 0.57529093E-01 0.47333291E+02</pdfrwt>
<totfact> 0.86645388E+01</totfact>
</mgrwt>
</event>
<event>
 5    1  0.4149151E-003  0.4882811E+02  0.7546771E-02  0.1452837E+00
          2   -1    0    0  502    0  0.00000000000E+00  0.00000000000E+00  0.13263517082E+04  0.13263517082E+04  0.00000000000E+00 0. -1.
         -1   -1    0    0    0  501 -0.00000000000E+00 -0.00000000000E+00 -0.11665711704E+02  0.11665711704E+02  0.00000000000E+00 0.  1.
         25    1    1    2    0    0  0.10740766933E+02  0.59504652290E+02  0.56730590408E+03  0.58405235769E+03  0.12500000000E+03 0.  0.
          2    1    1    2  502    0  0.33138754709E+02 -0.35338529895E+02  0.41787480807E+03  0.42067367873E+03  0.00000000000E+00 0. -1.
         -1    1    1    2    0  501 -0.43879521642E+02 -0.24166122395E+02  0.32950528431E+03  0.33329138344E+03  0.00000000000E+00 0.  1.
<mgrwt>
<rscale>  0 0.48636544E+02</rscale>
<asrwt>0</asrwt>
<pdfrwt beam="1">  1        2 0.20405399E+00 0.48445730E+02</pdfrwt>
<pdfrwt beam="2">  1       -1 0.17947259E-02 0.48828109E+02</pdfrwt>
<totfact> 0.13947512E+04</totfact>
</mgrwt>
</event>
<event>
 5    1  0.4149151E-003  0.4229360E+02  0.7546771E-02  0.1580714E+00
         -1   -1    0    0    0  501 -0.00000000000E+00  0.00000000000E+00  0.41017673763E+01  0.41017673763E+01  0.00000000000E+00 0.  1.
          2   -1    0    0  502    0  0.00000000000E+00 -0.00000000000E+00 -0.32090612440E+04  0.32090612440E+04  0.00000000000E+00 0. -1.
         25    1    1    2    0    0 -0.33552246218E+01 -0.23494321298E+02 -0.12214734005E+04  0.12280820448E+04  0.12500000000E+03 0.  0.
          2    1    1    2  502    0  0.16444831241E+02  0.43202212607E+02 -0.78401597737E+03  0.78537756297E+03  0.00000000000E+00 0. -1.
         -1    1    1    2    0  501 -0.13089606619E+02 -0.19707891309E+02 -0.11994700987E+04  0.11997034035E+04  0.00000000000E+00 0.  1.
<mgrwt>
<rscale>  0 0.31632512E+02</rscale>
<asrwt>0</asrwt>
<pdfrwt beam="2">  1        2 0.49370311E+00 0.42293601E+02</pdfrwt>
<pdfrwt beam="1">  1       -1 0.63103937E-03 0.23658799E+02</pdfrwt>
<totfact> 0.56271894E+03</totfact>
</mgrwt>
</event>
<event>
 5    1  0.4149151E-003  0.1040542E+03  0.7546771E-02  0.1334306E+00
          2   -1    0    0  501    0  0.00000000000E+00  0.00000000000E+00  0.81059896829E+03  0.81059896829E+03  0.00000000000E+00 0. -1.
          2   -1    0    0  502    0 -0.00000000000E+00 -0.00000000000E+00 -0.42507226308E+03  0.42507226308E+03  0.00000000000E+00 0. -1.
         25    1    1    2    0    0 -0.12433402848E+03 -0.33370870897E+02 -0.29527346006E+02  0.18185002014E+03  0.12500000000E+03 0.  0.
          2    1    1    2  501    0  0.47428117466E+02 -0.34646526345E+02  0.72496817759E+03  0.72734356850E+03  0.00000000000E+00 0. -1.
          2    1    1    2  502    0  0.76905911017E+02  0.68017397241E+02 -0.30991412638E+03  0.32647764273E+03  0.00000000000E+00 0. -1.
<mgrwt>
<rscale>  0 0.78176933E+02</rscale>
<asrwt>0</asrwt>
<pdfrwt beam="1">  1        2 0.12470753E+00 0.58735067E+02</pdfrwt>
<pdfrwt beam="2">  1        2 0.65395733E-01 0.10405424E+03</pdfrwt>
<totfact> 0.43244561E+02</totfact>
</mgrwt>
</event>
<event>
 5    1  0.4149151E-003  0.9968443E+02  0.7546771E-02  0.1391369E+00
          2   -1    0    0  502    0  0.00000000000E+00  0.00000000000E+00  0.38373190726E+04  0.38373190726E+04  0.00000000000E+00 0.  1.
          2   -1    0    0  501    0 -0.00000000000E+00 -0.00000000000E+00 -0.30804064817E+03  0.30804064817E+03  0.00000000000E+00 0. -1.
         25    1    1    2    0    0 -0.47709907821E+02 -0.77752837413E+02  0.29250547624E+04  0.29291452853E+04  0.12500000000E+03 0.  0.
          2    1    1    2  501    0 -0.37880880862E+02 -0.33124572625E+01 -0.30097704662E+03  0.30336960313E+03  0.00000000000E+00 0. -1.
          2    1    1    2  502    0  0.85590788683E+02  0.81065294676E+02  0.90520070863E+03  0.91284483239E+03  0.00000000000E+00 0.  1.
<mgrwt>
<rscale>  0 0.61567391E+02</rscale>
<asrwt>0</asrwt>
<pdfrwt beam="1">  1        2 0.59035675E+00 0.99684432E+02</pdfrwt>
<pdfrwt beam="2">  1        2 0.47390872E-01 0.38025432E+02</pdfrwt>
<totfact> 0.11760431E+01</totfact>
</mgrwt>
</event>
<event>
 5    1  0.4149151E-003  0.9647141E+02  0.7546771E-02  0.1381760E+00
          1   -1    0    0  502    0  0.00000000000E+00  0.00000000000E+00  0.19631833452E+04  0.19631833452E+04  0.00000000000E+00 0. -1.
         -3   -1    0    0    0  501 -0.00000000000E+00 -0.00000000000E+00 -0.91853946280E+03  0.91853946280E+03  0.00000000000E+00 0.  1.
         25    1    1    2    0    0 -0.61186497258E+02 -0.90057147389E+02 -0.18648734891E+03  0.24951274225E+03  0.12500000000E+03 0.  0.
          1    1    1    2  502    0  0.80932206021E+02  0.52464693716E+02  0.19298217218E+04  0.19322304324E+04  0.00000000000E+00 0. -1.
         -3    1    1    2    0  501 -0.19745708763E+02  0.37592453673E+02 -0.69869049048E+03  0.69997963333E+03  0.00000000000E+00 0.  1.
<mgrwt>
<rscale>  0 0.64003451E+02</rscale>
<asrwt>0</asrwt>
<pdfrwt beam="1">  1        1 0.30202821E+00 0.96471408E+02</pdfrwt>
<pdfrwt beam="2">  1       -3 0.14131376E+00 0.42462755E+02</pdfrwt>
<totfact> 0.87257544E-01</totfact>
</mgrwt>
</event>
<event>
 5    1  0.4149151E-003  0.6725382E+02  0.7546771E-02  0.1463219E+00
          3   -1    0    0  502    0  0.00000000000E+00  0.00000000000E+00  0.26098276729E+03  0.26098276729E+03  0.00000000000E+00 0. -1.
         -3   -1    0    0    0  501 -0.00000000000E+00 -0.00000000000E+00 -0.68549031267E+02  0.68549031267E+02  0.00000000000E+00 0.  1.
         25    1    1    2    0    0  0.78670258835E+01 -0.66466055116E+02  0.15753345784E+03  0.21194673132E+03  0.12500000000E+03 0.  0.
          3    1    1    2  502    0 -0.32511978764E+02  0.25413067167E+01  0.36641682356E+02  0.49052012077E+02  0.00000000000E+00 0. -1.
         -3    1    1    2    0  501  0.24644952880E+02  0.63924748399E+02 -0.17414041767E+01  0.68533055155E+02  0.00000000000E+00 0.  1.
<mgrwt>
<rscale>  0 0.46831873E+02</rscale>
<asrwt>0</asrwt>
<pdfrwt beam="1">  1        3 0.40151194E-01 0.32611148E+02</pdfrwt>
<pdfrwt beam="2">  1       -3 0.10546005E-01 0.67253822E+02</pdfrwt>
<totfact> 0.79445565E+02</totfact>
</mgrwt>
</event>
<event>
 5    1  0.4149151E-003  0.3127183E+02  0.7546771E-02  0.1639306E+00
         -2   -1    0    0    0  501 -0.00000000000E+00  0.00000000000E+00  0.90232026298E+02  0.90232026298E+02  0.00000000000E+00 0.  1.
          2   -1    0    0  502    0  0.00000000000E+00 -0.00000000000E+00 -0.23320353319E+04  0.23320353319E+04  0.00000000000E+00 0. -1.
         25    1    1    2    0    0  0.46924234825E+02  0.24083297669E+02 -0.45416846208E+03  0.47399987446E+03  0.12500000000E+03 0.  0.
          2    1    1    2  502    0 -0.29403037834E+02 -0.98238994520E+01 -0.18662314028E+04  0.18664888686E+04  0.00000000000E+00 0. -1.
         -2    1    1    2    0  501 -0.17521196991E+02 -0.14259398217E+02  0.78596559246E+02  0.81778615217E+02  0.00000000000E+00 0.  1.
<mgrwt>
<rscale>  0 0.26578955E+02</rscale>
<asrwt>0</asrwt>
<pdfrwt beam="2">  1        2 0.35877460E+00 0.31271832E+02</pdfrwt>
<pdfrwt beam="1">  1       -2 0.13881853E-01 0.22590325E+02</pdfrwt>
<totfact> 0.22020673E+02</totfact>
</mgrwt>
</event>
<event>
 5    1  0.4149151E-003  0.9158319E+02  0.7546771E-02  0.1425039E+00
          1   -1    0    0  502    0  0.00000000000E+00  0.00000000000E+00  0.38473951859E+03  0.38473951859E+03  0.00000000000E+00 0. -1.
         -2   -1    0    0    0  501 -0.00000000000E+00 -0.00000000000E+00 -0.55426200641E+02  0.55426200641E+02  0.00000000000E+00 0.  1.
         25    1    1    2    0    0  0.37385109289E+02 -0.85156189771E+02  0.22798058783E+03  0.27613288736E+03  0.12500000000E+03 0.  0.
          1    1    1    2  502    0 -0.64797070652E+01  0.92659268638E+02  0.92358267913E+02  0.13098769530E+03  0.00000000000E+00 0. -1.
         -2    1    1    2    0  501 -0.30905402224E+02 -0.75030788677E+01  0.89744622009E+01  0.33045136570E+02  0.00000000000E+00 0.  1.
<mgrwt>
<rscale>  0 0.53968819E+02</rscale>
<asrwt>0</asrwt>
<pdfrwt beam="1">  1        1 0.59190693E-01 0.91583187E+02</pdfrwt>
<pdfrwt beam="2">  1       -2 0.85271080E-02 0.31803146E+02</pdfrwt>
<totfact> 0.40975602E+03</totfact>
</mgrwt>
</event>
<event>
 5    1  0.4149151E-003  0.5711345E+02  0.7546771E-02  0.1541121E+00
         -2   -1    0    0    0  501 -0.00000000000E+00  0.00000000000E+00  0.86100629156E+02  0.86100629156E+02  0.00000000000E+00 0. -1.
          2   -1    0    0  502    0  0.00000000000E+00 -0.00000000000E+00 -0.48801721758E+03  0.48801721758E+03  0.00000000000E+00 0. -1.
         25    1    1    2    0    0 -0.39521706651E+02 -0.61055254510E+02 -0.18669688256E+02  0.14581929454E+03  0.12500000000E+03 0.  0.
          2    1    1    2  502    0  0.63175782979E+01  0.21606916015E+02 -0.37548023222E+03  0.37615445684E+03  0.00000000000E+00 0. -1.
         -2    1    1    2    0  501  0.33204128353E+02  0.39448338496E+02 -0.77666679522E+01  0.52144095359E+02  0.00000000000E+00 0. -1.
<mgrwt>
<rscale>  0 0.35856843E+02</rscale>
<asrwt>0</asrwt>
<pdfrwt beam="2">  1        2 0.75079571E-01 0.22511566E+02</pdfrwt>
<pdfrwt beam="1">  1       -2 0.13246251E-01 0.57113448E+02</pdfrwt>
<totfact> 0.25469794E+03</totfact>
</mgrwt>
</event>
<event>
 5    1  0.4149151E-003  0.1329621E+03  0.7546771E-02  0.1226171E+00
          3   -1    0    0  502    0 -0.00000000000E+00  0.00000000000E+00  0.93827582376E+02  0.93827582376E+02  0.00000000000E+00 0. -1.
          2   -1    0    0  501    0  0.00000000000E+00 -0.00000000000E+00 -0.10412759118E+04  0.10412759118E+04  0.00000000000E+00 0. -1.
         25    1    1    2    0    0  0.52213485184E+02  0.56937712667E+02 -0.31311248651E+03  0.34587943039E+03  0.12500000000E+03 0.  0.
          2    1    1    2  501    0 -0.10223816556E+03  0.85007507862E+02 -0.62439392861E+03  0.63839384159E+03  0.00000000000E+00 0. -1.
          3    1    1    2  502    0  0.50024680373E+02 -0.14194522053E+03 -0.99419143350E+01  0.15083022223E+03  0.00000000000E+00 0. -1.
<mgrwt>
<rscale>  0 0.13086933E+03</rscale>
<asrwt>0</asrwt>
<pdfrwt beam="2">  1        2 0.16019629E+00 0.13296210E+03</pdfrwt>
<pdfrwt beam="1">  1        3 0.14435013E-01 0.12880950E+03</pdfrwt>
<totfact> 0.60584174E+02</totfact>
</mgrwt>
</event>
<event>
 5    1  0.4149151E-003  0.3562672E+02  0.7546771E-02  0.1561232E+00
          2   -1    0    0  502    0  0.00000000000E+00  0.00000000000E+00  0.17091491703E+04  0.17091491703E+04  0.00000000000E+00 0. -1.
         -2   -1    0    0    0  501 -0.00000000000E+00 -0.00000000000E+00 -0.95600413803E+01  0.95600413803E+01  0.00000000000E+00 0.  1.
         25    1    1    2    0    0  0.47444847100E+02 -0.42638156906E+02  0.83159785715E+03  0.84335580982E+03  0.12500000000E+03 0.  0.
          2    1    1    2  502    0 -0.26863601085E+02  0.16870341059E+02  0.79050520094E+03  0.79114141225E+03  0.00000000000E+00 0. -1.
         -2    1    1    2    0  501 -0.20581246015E+02  0.25767815846E+02  0.77486070849E+02  0.84211989625E+02  0.00000000000E+00 0.  1.
<mgrwt>
<rscale>  0 0.33617516E+02</rscale>
<asrwt>0</asrwt>
<pdfrwt beam="1">  1        2 0.26294578E+00 0.31721625E+02</pdfrwt>
<pdfrwt beam="2">  1       -2 0.14707770E-02 0.35626718E+02</pdfrwt>
<totfact> 0.11672851E+04</totfact>
</mgrwt>
</event>
<event>
 5    1  0.4149151E-003  0.8685455E+02  0.7546771E-02  0.1445199E+00
          2   -1    0    0  501    0  0.00000000000E+00  0.00000000000E+00  0.13262731152E+04  0.13262731152E+04  0.00000000000E+00 0. -1.
          3   -1    0    0  502    0 -0.00000000000E+00 -0.00000000000E+00 -0.60573722807E+03  0.60573722807E+03  0.00000000000E+00 0. -1.
         25    1    1    2    0    0 -0.53768599234E+02 -0.97884910905E+02  0.16178986667E+03  0.23296669076E+03  0.12500000000E+03 0.  0.
          2    1    1    2  501    0  0.31304077203E+02  0.79840320982E+02  0.11269005340E+04  0.11301589426E+04  0.00000000000E+00 0. -1.
          3    1    1    2  502    0  0.22464522031E+02  0.18044589924E+02 -0.56815451349E+03  0.56888470991E+03  0.00000000000E+00 0. -1.
<mgrwt>
<rscale>  0 0.50026496E+02</rscale>
<asrwt>0</asrwt>
<pdfrwt beam="1">  1        2 0.20404202E+00 0.86854553E+02</pdfrwt>
<pdfrwt beam="2">  1        3 0.93190343E-01 0.28814267E+02</pdfrwt>
<totfact> 0.11436146E+01</totfact>
</mgrwt>
</event>
<event>
 5    1  0.7505543E-003  0.9160080E+02  0.7546771E-02  0.1348976E+00
         -2   -1    0    0    0  501 -0.00000000000E+00  0.00000000000E+00  0.71831042142E+03  0.71831042142E+03  0.00000000000E+00 0.  1.
          1   -1    0    0  502    0  0.00000000000E+00 -0.00000000000E+00 -0.47650702114E+02  0.47650702114E+02  0.00000000000E+00 0. -1.
         25    1    1    2    0    0  0.58150095174E+02 -0.11946292892E+03  0.20135621409E+03  0.27170231856E+03  0.12500000000E+03 0.  0.
          1    1    1    2  502    0  0.33661019059E+01  0.58680212717E+02  0.11026662896E+03  0.12495370130E+03  0.00000000000E+00 0. -1.
         -2    1    1    2    0  501 -0.61516197080E+02  0.60782716204E+02  0.35903687626E+03  0.36930510368E+03  0.00000000000E+00 0.  1.
<mgrwt>
<rscale>  0 0.73375681E+02</rscale>
<asrwt>0</asrwt>
<pdfrwt beam="2">  1        1 0.73308778E-02 0.58776679E+02</pdfrwt>
<pdfrwt beam="1">  1       -2 0.11050929E+00 0.91600797E+02</pdfrwt>
<totfact> 0.54228858E+02</totfact>
</mgrwt>
</event>
<event>
 5    1  0.4149151E-003  0.7089485E+02  0.7546771E-02  0.1419427E+00
          2   -1    0    0  501    0  0.00000000000E+00  0.00000000000E+00  0.52261324469E+02  0.52261324469E+02  0.00000000000E+00 0. -1.
          1   -1    0    0  502    0 -0.00000000000E+00 -0.00000000000E+00 -0.21291919142E+04  0.21291919142E+04  0.00000000000E+00 0. -1.
         25    1    1    2    0    0 -0.31128142847E+02 -0.74329621356E+01 -0.47146941948E+03  0.48880734825E+03  0.12500000000E+03 0.  0.
          2    1    1    2  501    0  0.73468045797E+02  0.58687653185E+00  0.12148254801E+02  0.74467968093E+02  0.00000000000E+00 0. -1.
          1    1    1    2  502    0 -0.42339902950E+02  0.68460856037E+01 -0.16176094250E+04  0.16181779223E+04  0.00000000000E+00 0. -1.
<mgrwt>
<rscale>  0 0.55142244E+02</rscale>
<asrwt>0</asrwt>
<pdfrwt beam="1">  1        2 0.80402032E-02 0.70894852E+02</pdfrwt>
<pdfrwt beam="2">  1        1 0.32756801E+00 0.42889815E+02</pdfrwt>
<totfact> 0.37021451E+02</totfact>
</mgrwt>
</event>
<event>
 5    1  0.4149151E-003  0.4980729E+02  0.7546771E-02  0.1447678E+00
          2   -1    0    0  501    0  0.00000000000E+00  0.00000000000E+00  0.43253053510E+03  0.43253053510E+03  0.00000000000E+00 0. -1.
          1   -1    0    0  502    0 -0.00000000000E+00 -0.00000000000E+00 -0.30538685351E+03  0.30538685351E+03  0.00000000000E+00 0. -1.
         25    1    1    2    0    0 -0.48272968216E+02 -0.26276740143E+02 -0.15111482358E+03  0.20366992031E+03  0.12500000000E+03 0.  0.
          2    1    1    2  501    0  0.44413568465E+02 -0.22904529072E+02  0.39988587441E+03  0.40299614771E+03  0.00000000000E+00 0. -1.
          1    1    1    2  502    0  0.38593997506E+01  0.49181269214E+02 -0.12162736924E+03  0.13125132059E+03  0.00000000000E+00 0. -1.
<mgrwt>
<rscale>  0 0.49569311E+02</rscale>
<asrwt>0</asrwt>
<pdfrwt beam="1">  1        2 0.66543159E-01 0.49807293E+02</pdfrwt>
<pdfrwt beam="2">  1        1 0.46982593E-01 0.49332466E+02</pdfrwt>
<totfact> 0.86595269E+02</totfact>
</mgrwt>
</event>
<event>
 5    1  0.4149151E-003  0.3338095E+02  0.7546771E-02  0.1597856E+00
          1   -1    0    0  502    0 -0.00000000000E+00  0.00000000000E+00  0.13762820218E+03  0.13762820218E+03  0.00000000000E+00 0. -1.
          2   -1    0    0  501    0  0.00000000000E+00 -0.00000000000E+00 -0.16353340117E+04  0.16353340117E+04  0.00000000000E+00 0. -1.
         25    1    1    2    0    0 -0.15565598621E+02 -0.23512838847E+02 -0.17405607933E+03  0.21613805820E+03  0.12500000000E+03 0.  0.
          2    1    1    2  501    0 -0.10072990450E+02  0.31976388942E+02 -0.14384758679E+04  0.14388664904E+04  0.00000000000E+00 0. -1.
          1    1    1    2  502    0  0.25638589071E+02 -0.84635500957E+01  0.11482613766E+03  0.11795766537E+03  0.00000000000E+00 0. -1.
<mgrwt>
<rscale>  0 0.30021100E+02</rscale>
<asrwt>0</asrwt>
<pdfrwt beam="2">  1        2 0.25158986E+00 0.33380949E+02</pdfrwt>
<pdfrwt beam="1">  1        1 0.21173569E-01 0.26999425E+02</pdfrwt>
<totfact> 0.41551339E+02</totfact>
</mgrwt>
</event>
<event>
 5    1  0.4149151E-003  0.4918792E+02  0.7546771E-02  0.1502683E+00
          2   -1    0    0  501    0  0.00000000000E+00  0.00000000000E+00  0.43903443078E+03  0.43903443078E+03  0.00000000000E+00 0.  1.
          1   -1    0    0  502    0 -0.00000000000E+00 -0.00000000000E+00 -0.94912572165E+03  0.94912572165E+03  0.00000000000E+00 0. -1.
         25    1    1    2    0    0 -0.72976850017E+01 -0.78243174624E+02  0.26128163088E+03  0.30011388042E+03  0.12500000000E+03 0.  0.
          2    1    1    2  501    0 -0.10001519238E+02  0.32263548185E+02  0.15587752976E+03  0.15949536424E+03  0.00000000000E+00 0.  1.
          1    1    1    2  502    0  0.17299204240E+02  0.45979626439E+02 -0.92725045151E+03  0.92855090778E+03  0.00000000000E+00 0. -1.
<mgrwt>
<rscale>  0 0.40761251E+02</rscale>
<asrwt>0</asrwt>
<pdfrwt beam="1">  1        2 0.67543759E-01 0.33778202E+02</pdfrwt>
<pdfrwt beam="2">  1        1 0.14601934E+00 0.49187923E+02</pdfrwt>
<totfact> 0.19421321E+02</totfact>
</mgrwt>
</event>
<event>
 5    1  0.4149151E-003  0.7153696E+02  0.7546771E-02  0.1514126E+00
          1   -1    0    0  502    0  0.00000000000E+00  0.00000000000E+00  0.14750270297E+04  0.14750270297E+04  0.00000000000E+00 0. -1.
         -2   -1    0    0    0  501 -0.00000000000E+00 -0.00000000000E+00 -0.11125955751E+02  0.11125955751E+02  0.00000000000E+00 0.  1.
         25    1    1    2    0    0 -0.72909589391E+01 -0.55215261417E+02  0.11206213000E+04  0.11289459603E+04  0.12500000000E+03 0.  0.
          1    1    1    2  502    0  0.84756823705E+01 -0.19746419187E+02  0.11317558853E+03  0.11519753513E+03  0.00000000000E+00 0. -1.
         -2    1    1    2    0  501 -0.11847234314E+01  0.74961680604E+02  0.23010418542E+03  0.24200949006E+03  0.00000000000E+00 0.  1.
<mgrwt>
<rscale>  0 0.39207477E+02</rscale>
<asrwt>0</asrwt>
<pdfrwt beam="1">  1        1 0.22692708E+00 0.21488561E+02</pdfrwt>
<pdfrwt beam="2">  1       -2 0.17116867E-02 0.71536957E+02</pdfrwt>
<totfact> 0.68688052E+03</totfact>
</mgrwt>
</event>
<event>
 5    1  0.4149151E-003  0.1240702E+03  0.7546771E-02  0.1344929E+00
          1   -1    0    0  502    0  0.00000000000E+00  0.00000000000E+00  0.17187280526E+03  0.17187280526E+03  0.00000000000E+00 0. -1.
         -2   -1    0    0    0  501 -0.00000000000E+00 -0.00000000000E+00 -0.61686736477E+03  0.61686736477E+03  0.00000000000E+00 0.  1.
         25    1    1    2    0    0 -0.15374724457E+02  0.16310541063E+03 -0.64449927752E+02  0.21591329351E+03  0.12500000000E+03 0.  0.
          1    1    1    2  502    0 -0.46083561944E+01 -0.44689389755E+02  0.82783497182E+02  0.94188565704E+02  0.00000000000E+00 0. -1.
         -2    1    1    2    0  501  0.19983080651E+02 -0.11841602088E+03 -0.46332812893E+03  0.47863831081E+03  0.00000000000E+00 0.  1.
<mgrwt>
<rscale>  0 0.74659369E+02</rscale>
<asrwt>0</asrwt>
<pdfrwt beam="1">  1        1 0.26441970E-01 0.44926368E+02</pdfrwt>
<pdfrwt beam="2">  1       -2 0.94902671E-01 0.12407015E+03</pdfrwt>
<totfact> 0.14945979E+02</totfact>
</mgrwt>
</event>
<event>
 5    1  0.4149151E-003  0.1294600E+03  0.7546771E-02  0.1350666E+00
          1   -1    0    0  502    0 -0.00000000000E+00  0.00000000000E+00  0.19124839074E+03  0.19124839074E+03  0.00000000000E+00 0. -1.
          2   -1    0    0  501    0  0.00000000000E+00 -0.00000000000E+00 -0.55841878403E+03  0.55841878403E+03  0.00000000000E+00 0.  1.
         25    1    1    2    0    0  0.14194110172E+03  0.38957243498E+02 -0.94010219813E+02  0.21477398494E+03  0.12500000000E+03 0.  0.
          2    1    1    2  501    0 -0.12719983687E+03 -0.70694207729E+00 -0.39044927322E+03  0.41064696909E+03  0.00000000000E+00 0.  1.
          1    1    1    2  502    0 -0.14741264850E+02 -0.38250301420E+02  0.11728909974E+03  0.12424622073E+03  0.00000000000E+00 0. -1.
<mgrwt>
<rscale>  0 0.72848456E+02</rscale>
<asrwt>0</asrwt>
<pdfrwt beam="2">  1        2 0.85910581E-01 0.12946000E+03</pdfrwt>
<pdfrwt beam="1">  1        1 0.29422830E-01 0.40992566E+02</pdfrwt>
<totfact> 0.11322713E+03</totfact>
</mgrwt>
</event>
<event>
 5    1  0.4149151E-003  0.8572358E+02  0.7546771E-02  0.1367452E+00
          1   -1    0    0  501    0  0.00000000000E+00  0.00000000000E+00  0.21705707733E+03  0.21705707733E+03  0.00000000000E+00 0. -1.
          1   -1    0    0  502    0 -0.00000000000E+00 -0.00000000000E+00 -0.97705196102E+03  0.97705196102E+03  0.00000000000E+00 0. -1.
         25    1    1    2    0    0 -0.40050072492E+02 -0.44043874784E+02  0.30011389269E+02  0.14166705580E+03  0.12500000000E+03 0.  0.
          1    1    1    2  501    0  0.91686740302E+02  0.29115092383E+02  0.11267904656E+03  0.14815773515E+03  0.00000000000E+00 0. -1.
          1    1    1    2  502    0 -0.51636667809E+02  0.14928782401E+02 -0.90268531953E+03  0.90428424740E+03  0.00000000000E+00 0. -1.
<mgrwt>
<rscale>  0 0.67880508E+02</rscale>
<asrwt>0</asrwt>
<pdfrwt beam="1">  1        1 0.33393397E-01 0.85723583E+02</pdfrwt>
<pdfrwt beam="2">  1        1 0.15031568E+00 0.53751409E+02</pdfrwt>
<totfact> 0.28787977E+02</totfact>
</mgrwt>
</event>
<event>
 5    1  0.4149151E-003  0.5732943E+02  0.7546771E-02  0.1428277E+00
          1   -1    0    0  502    0 -0.00000000000E+00  0.00000000000E+00  0.74649703022E+02  0.74649703022E+02  0.00000000000E+00 0. -1.
          2   -1    0    0  501    0  0.00000000000E+00 -0.00000000000E+00 -0.26439639263E+03  0.26439639263E+03  0.00000000000E+00 0. -1.
         25    1    1    2    0    0 -0.75854604967E+01  0.44171351350E+02 -0.35891414562E+02  0.13755668334E+03  0.12500000000E+03 0.  0.
          2    1    1    2  501    0 -0.32628260639E+02 -0.73150575028E+02 -0.10293900055E+03  0.13043024133E+03  0.00000000000E+00 0. -1.
          1    1    1    2  502    0  0.40213721136E+02  0.28979223678E+02 -0.50916274494E+02  0.71059170984E+02  0.00000000000E+00 0. -1.
<mgrwt>
<rscale>  0 0.53307388E+02</rscale>
<asrwt>0</asrwt>
<pdfrwt beam="2">  1        2 0.40676369E-01 0.49567517E+02</pdfrwt>
<pdfrwt beam="1">  1        1 0.11484569E-01 0.57329431E+02</pdfrwt>
<totfact> 0.81037950E+03</totfact>
</mgrwt>
</event>
<event>
 5    1  0.4149151E-003  0.8216730E+02  0.7546771E-02  0.1369511E+00
          1   -1    0    0  502    0 -0.00000000000E+00  0.00000000000E+00  0.14379694775E+03  0.14379694775E+03  0.00000000000E+00 0. -1.
          2   -1    0    0  501    0  0.00000000000E+00 -0.00000000000E+00 -0.23339483915E+04  0.23339483915E+04  0.00000000000E+00 0. -1.
         25    1    1    2    0    0  0.61154750466E+02  0.59084598434E+02 -0.70711755779E+02  0.16690130521E+03  0.12500000000E+03 0.  0.
          2    1    1    2  501    0  0.22572594923E+02 -0.50295188115E+02 -0.21962142774E+04  0.21969060699E+04  0.00000000000E+00 0. -1.
          1    1    1    2  502    0 -0.83727345389E+02 -0.87894103181E+01  0.76774589367E+02  0.11393796414E+03  0.00000000000E+00 0. -1.
<mgrwt>
<rscale>  0 0.67303362E+02</rscale>
<asrwt>0</asrwt>
<pdfrwt beam="2">  1        2 0.35906900E+00 0.55128287E+02</pdfrwt>
<pdfrwt beam="1">  1        1 0.22122606E-01 0.82167302E+02</pdfrwt>
<totfact> 0.17783869E+02</totfact>
</mgrwt>
</event>
<event>
 5    1  0.4149151E-003  0.6335792E+02  0.7546771E-02  0.1427315E+00
         -2   -1    0    0    0  501  0.00000000000E+00  0.00000000000E+00  0.16467765531E+03  0.16467765531E+03  0.00000000000E+00 0.  1.
         -1   -1    0    0    0  502 -0.00000000000E+00 -0.00000000000E+00 -0.22487115582E+03  0.22487115582E+03  0.00000000000E+00 0.  1.
         25    1    1    2    0    0 -0.12521327354E+02  0.39504285328E+02 -0.71096734622E+02  0.14965666665E+03  0.12500000000E+03 0.  0.
         -2    1    1    2    0  501  0.34734620444E+02  0.28892901513E+02  0.10915393412E+03  0.11813498614E+03  0.00000000000E+00 0.  1.
         -1    1    1    2    0  502 -0.22213293090E+02 -0.68397186841E+02 -0.98250700011E+02  0.12175715835E+03  0.00000000000E+00 0.  1.
<mgrwt>
<rscale>  0 0.53502841E+02</rscale>
<asrwt>0</asrwt>
<pdfrwt beam="1">  1       -2 0.25335024E-01 0.45180677E+02</pdfrwt>
<pdfrwt beam="2">  1       -1 0.34595562E-01 0.63357925E+02</pdfrwt>
<totfact> 0.76905800E+02</totfact>
</mgrwt>
</event>
<event>
 5    1  0.4149151E-003  0.4101696E+02  0.7546771E-02  0.1564204E+00
         -2   -1    0    0    0  501 -0.00000000000E+00  0.00000000000E+00  0.72360866364E+02  0.72360866364E+02  0.00000000000E+00 0. -1.
          2   -1    0    0  502    0  0.00000000000E+00 -0.00000000000E+00 -0.20304592861E+03  0.20304592861E+03  0.00000000000E+00 0. -1.
         25    1    1    2    0    0 -0.33936762418E+02 -0.76421811596E+01 -0.13737600540E+03  0.18896368338E+03  0.12500000000E+03 0.  0.
          2    1    1    2  502    0  0.44555593243E+02 -0.17226044213E+02 -0.16786061757E+02  0.50633085604E+02  0.00000000000E+00 0. -1.
         -2    1    1    2    0  501 -0.10618830825E+02  0.24868225373E+02  0.23477004916E+02  0.35810025986E+02  0.00000000000E+00 0. -1.
<mgrwt>
<rscale>  0 0.33303434E+02</rscale>
<asrwt>0</asrwt>
<pdfrwt beam="2">  1        2 0.31237835E-01 0.41016958E+02</pdfrwt>
<pdfrwt beam="1">  1       -2 0.11132441E-01 0.27040492E+02</pdfrwt>
<totfact> 0.76430406E+03</totfact>
</mgrwt>
</event>
<event>
 5    1  0.4149151E-003  0.5445840E+02  0.7546771E-02  0.1496396E+00
         -1   -1    0    0    0  501 -0.00000000000E+00  0.00000000000E+00  0.22232957797E+04  0.22232957797E+04  0.00000000000E+00 0.  1.
          1   -1    0    0  502    0  0.00000000000E+00 -0.00000000000E+00 -0.11057528422E+03  0.11057528422E+03  0.00000000000E+00 0. -1.
         25    1    1    2    0    0 -0.19717912793E+02 -0.43845961381E+02  0.71746328650E+03  0.72985603504E+03  0.12500000000E+03 0.  0.
          1    1    1    2  502    0 -0.28003186815E+02  0.15188147333E+02 -0.10141869682E+03  0.10630432896E+03  0.00000000000E+00 0. -1.
         -1    1    1    2    0  501  0.47721099608E+02  0.28657814047E+02  0.14966759058E+04  0.14977106999E+04  0.00000000000E+00 0.  1.
<mgrwt>
<rscale>  0 0.41651800E+02</rscale>
<asrwt>0</asrwt>
<pdfrwt beam="2">  1        1 0.17011584E-01 0.31856841E+02</pdfrwt>
<pdfrwt beam="1">  1       -1 0.34204547E+00 0.54458395E+02</pdfrwt>
<totfact> 0.76147002E+00</totfact>
</mgrwt>
</event>
<event>
 5    1  0.4149151E-003  0.1462122E+03  0.7546771E-02  0.1414289E+00
         -2   -1    0    0    0  501 -0.00000000000E+00  0.00000000000E+00  0.10149809522E+03  0.10149809522E+03  0.00000000000E+00 0.  1.
          1   -1    0    0  502    0  0.00000000000E+00 -0.00000000000E+00 -0.37899033317E+03  0.37899033317E+03  0.00000000000E+00 0. -1.
         25    1    1    2    0    0  0.11059542355E+03  0.11669774854E+03 -0.96399043054E+02  0.22531641690E+03  0.12500000000E+03 0.  0.
          1    1    1    2  502    0 -0.90938637936E+02 -0.10765177220E+03 -0.18563256494E+03  0.23306262912E+03  0.00000000000E+00 0. -1.
         -2    1    1    2    0  501 -0.19656785611E+02 -0.90459763367E+01  0.45393700341E+01  0.22109382369E+02  0.00000000000E+00 0.  1.
<mgrwt>
<rscale>  0 0.56247601E+02</rscale>
<asrwt>0</asrwt>
<pdfrwt beam="2">  1        1 0.58306205E-01 0.14621217E+03</pdfrwt>
<pdfrwt beam="1">  1       -2 0.15615091E-01 0.21638367E+02</pdfrwt>
<totfact> 0.15992731E+03</totfact>
</mgrwt>
</event>
<event>
 5    1  0.4149151E-003  0.7835418E+02  0.7546771E-02  0.1375224E+00
         -1   -1    0    0    0  501  0.00000000000E+00  0.00000000000E+00  0.56440219772E+03  0.56440219772E+03  0.00000000000E+00 0.  1.
         -3   -1    0    0    0  502 -0.00000000000E+00 -0.00000000000E+00 -0.68652515715E+03  0.68652515715E+03  0.00000000000E+00 0.  1.
         25    1    1    2    0    0  0.75799000371E+02 -0.14963161444E+02  0.11400994906E+03  0.18599100285E+03  0.12500000000E+03 0.  0.
         -1    1    1    2    0  501 -0.49386045142E+02  0.63376561702E+02  0.40932022053E+03  0.41713140971E+03  0.00000000000E+00 0.  1.
         -3    1    1    2    0  502 -0.26412955229E+02 -0.48413400258E+02 -0.64545312901E+03  0.64780494231E+03  0.00000000000E+00 0.  1.
<mgrwt>
<rscale>  0 0.65735974E+02</rscale>
<asrwt>0</asrwt>
<pdfrwt beam="1">  1       -1 0.86831107E-01 0.78354182E+02</pdfrwt>
<pdfrwt beam="2">  1       -3 0.10561926E+00 0.55149810E+02</pdfrwt>
<totfact> 0.51370037E+00</totfact>
</mgrwt>
</event>
<event>
 5    1  0.4149151E-003  0.4581369E+02  0.7546771E-02  0.1475288E+00
         -2   -1    0    0    0  501 -0.00000000000E+00  0.00000000000E+00  0.15938023998E+02  0.15938023998E+02  0.00000000000E+00 0.  1.
          1   -1    0    0  502    0  0.00000000000E+00 -0.00000000000E+00 -0.93620810706E+03  0.93620810706E+03  0.00000000000E+00 0. -1.
         25    1    1    2    0    0  0.38217572289E+02 -0.31948607091E+02 -0.37634042820E+03  0.39967288402E+03  0.12500000000E+03 0.  0.
          1    1    1    2  502    0  0.11695604586E+02  0.42317621050E+02 -0.30681689519E+03  0.30994221298E+03  0.00000000000E+00 0. -1.
         -2    1    1    2    0  501 -0.49913176875E+02 -0.10369013960E+02 -0.23711275968E+03  0.24253103406E+03  0.00000000000E+00 0.  1.
<mgrwt>
<rscale>  0 0.44848725E+02</rscale>
<asrwt>0</asrwt>
<pdfrwt beam="2">  1        1 0.14403205E+00 0.43904080E+02</pdfrwt>
<pdfrwt beam="1">  1       -2 0.24520030E-02 0.45813695E+02</pdfrwt>
<totfact> 0.80593477E+03</totfact>
</mgrwt>
</event>
<event>
 5    1  0.4149151E-003  0.1446460E+03  0.7546771E-02  0.1278782E+00
          2   -1    0    0  501    0  0.00000000000E+00  0.00000000000E+00  0.74047000764E+03  0.74047000764E+03  0.00000000000E+00 0. -1.
          1   -1    0    0  502    0 -0.00000000000E+00 -0.00000000000E+00 -0.41124506432E+03  0.41124506432E+03  0.00000000000E+00 0. -1.
         25    1    1    2    0    0 -0.18773514136E+03  0.99276777907E+02 -0.21305767610E+03  0.32575901412E+03  0.12500000000E+03 0.  0.
          2    1    1    2  501    0  0.12276137217E+03 -0.72861320234E+02  0.66741287042E+03  0.68250938901E+03  0.00000000000E+00 0. -1.
          1    1    1    2  502    0  0.64973769194E+02 -0.26415457673E+02 -0.12513025100E+03  0.14344666884E+03  0.00000000000E+00 0. -1.
<mgrwt>
<rscale>  0 0.10072344E+03</rscale>
<asrwt>0</asrwt>
<pdfrwt beam="1">  1        2 0.11391846E+00 0.14464600E+03</pdfrwt>
<pdfrwt beam="2">  1        1 0.63268471E-01 0.70138200E+02</pdfrwt>
<totfact> 0.32542477E+02</totfact>
</mgrwt>
</event>
<event>
 5    1  0.4149151E-003  0.5338181E+02  0.7546771E-02  0.1440187E+00
          1   -1    0    0  502    0  0.00000000000E+00  0.00000000000E+00  0.44056734132E+03  0.44056734132E+03  0.00000000000E+00 0. -1.
         -3   -1    0    0    0  501 -0.00000000000E+00 -0.00000000000E+00 -0.26775317129E+03  0.26775317129E+03  0.00000000000E+00 0. -1.
         25    1    1    2    0    0  0.11422807296E+02 -0.85097366755E+01 -0.15107871056E+03  0.19660283042E+03  0.12500000000E+03 0.  0.
          1    1    1    2  502    0  0.35301510718E+02 -0.40042736506E+02  0.40373086513E+03  0.40724467936E+03  0.00000000000E+00 0. -1.
         -3    1    1    2    0  501 -0.46724318014E+02  0.48552473181E+02 -0.79837984533E+02  0.10447300283E+03  0.00000000000E+00 0. -1.
<mgrwt>
<rscale>  0 0.50968356E+02</rscale>
<asrwt>0</asrwt>
<pdfrwt beam="1">  1        1 0.67779591E-01 0.53381808E+02</pdfrwt>
<pdfrwt beam="2">  1       -3 0.41192796E-01 0.48664020E+02</pdfrwt>
<totfact> 0.16011024E+02</totfact>
</mgrwt>
</event>
<event>
 5    1  0.4149151E-003  0.6876364E+02  0.7546771E-02  0.1528825E+00
          1   -1    0    0  502    0 -0.00000000000E+00  0.00000000000E+00  0.28116742207E+02  0.28116742207E+02  0.00000000000E+00 0. -1.
          2   -1    0    0  501    0  0.00000000000E+00 -0.00000000000E+00 -0.18050343772E+04  0.18050343772E+04  0.00000000000E+00 0.  1.
         25    1    1    2    0    0 -0.20862328764E+02 -0.47926472381E+02 -0.49394407629E+03  0.51218935368E+03  0.12500000000E+03 0.  0.
          2    1    1    2  501    0  0.10109467323E+01 -0.20241291050E+02 -0.12352444064E+04  0.12354106505E+04  0.00000000000E+00 0.  1.
          1    1    1    2  502    0  0.19851382031E+02  0.68167763431E+02 -0.47729152373E+02  0.85551115282E+02  0.00000000000E+00 0. -1.
<mgrwt>
<rscale>  0 0.37330948E+02</rscale>
<asrwt>0</asrwt>
<pdfrwt beam="2">  1        2 0.27769772E+00 0.20266521E+02</pdfrwt>
<pdfrwt beam="1">  1        1 0.43256507E-02 0.68763636E+02</pdfrwt>
<totfact> 0.29897731E+03</totfact>
</mgrwt>
</event>
<event>
 5    1  0.4149151E-003  0.7717989E+02  0.7546771E-02  0.1371500E+00
          1   -1    0    0  501    0  0.00000000000E+00  0.00000000000E+00  0.87182630226E+02  0.87182630226E+02  0.00000000000E+00 0. -1.
          1   -1    0    0  502    0 -0.00000000000E+00 -0.00000000000E+00 -0.61305954969E+03  0.61305954969E+03  0.00000000000E+00 0. -1.
         25    1    1    2    0    0  0.61053527660E+02 -0.19362993602E+02 -0.80945393905E+02  0.16210988728E+03  0.12500000000E+03 0.  0.
          1    1    1    2  501    0  0.93132550245E+01  0.56977008222E+02  0.23954859066E+02  0.62505611412E+02  0.00000000000E+00 0. -1.
          1    1    1    2  502    0 -0.70366782685E+02 -0.37614014620E+02 -0.46888638462E+03  0.47562668122E+03  0.00000000000E+00 0. -1.
<mgrwt>
<rscale>  0 0.66752064E+02</rscale>
<asrwt>0</asrwt>
<pdfrwt beam="1">  1        1 0.13412712E-01 0.57733146E+02</pdfrwt>
<pdfrwt beam="2">  1        1 0.94316856E-01 0.77179893E+02</pdfrwt>
<totfact> 0.17007142E+03</totfact>
</mgrwt>
</event>
<event>
 5    1  0.4149151E-003  0.1085202E+03  0.7546771E-02  0.1288274E+00
          1   -1    0    0  501    0  0.00000000000E+00  0.00000000000E+00  0.14459754908E+04  0.14459754908E+04  0.00000000000E+00 0. -1.
          1   -1    0    0  502    0 -0.00000000000E+00 -0.00000000000E+00 -0.81489881012E+02  0.81489881012E+02  0.00000000000E+00 0. -1.
         25    1    1    2    0    0  0.11034438053E+03  0.77755042665E+00  0.91542756909E+02  0.19021451901E+03  0.12500000000E+03 0.  0.
          1    1    1    2  501    0 -0.20589490373E+02 -0.82939119123E+02  0.11826356669E+04  0.11857191679E+04  0.00000000000E+00 0. -1.
          1    1    1    2  502    0 -0.89754890157E+02  0.82161568696E+02  0.90307185974E+02  0.15153168486E+03  0.00000000000E+00 0. -1.
<mgrwt>
<rscale>  0 0.96300383E+02</rscale>
<asrwt>0</asrwt>
<pdfrwt beam="1">  1        1 0.22245775E+00 0.85456566E+02</pdfrwt>
<pdfrwt beam="2">  1        1 0.12536906E-01 0.10852020E+03</pdfrwt>
<totfact> 0.46642124E+02</totfact>
</mgrwt>
</event>
<event>
 5    1  0.4149151E-003  0.6297884E+02  0.7546771E-02  0.1420470E+00
          2   -1    0    0  501    0  0.00000000000E+00  0.00000000000E+00  0.69739203328E+03  0.69739203328E+03  0.00000000000E+00 0. -1.
          1   -1    0    0  502    0 -0.00000000000E+00 -0.00000000000E+00 -0.96680119434E+03  0.96680119434E+03  0.00000000000E+00 0. -1.
         25    1    1    2    0    0 -0.84862250891E+02 -0.52421158786E+02 -0.66227465008E+02  0.17309146899E+03  0.12500000000E+03 0.  0.
          2    1    1    2  501    0  0.61716891288E+02  0.10489739571E+02  0.64175879096E+03  0.64480489691E+03  0.00000000000E+00 0. -1.
          1    1    1    2  502    0  0.23145359603E+02  0.41931419215E+02 -0.84494048701E+03  0.84629686173E+03  0.00000000000E+00 0. -1.
<mgrwt>
<rscale>  0 0.54921627E+02</rscale>
<asrwt>0</asrwt>
<pdfrwt beam="1">  1        2 0.10729108E+00 0.62978841E+02</pdfrwt>
<pdfrwt beam="2">  1        1 0.14873865E+00 0.47895215E+02</pdfrwt>
<totfact> 0.11395008E+02</totfact>
</mgrwt>
</event>
<event>
 5    1  0.4149151E-003  0.5107670E+02  0.7546771E-02  0.1447891E+00
          2   -1    0    0  502    0  0.00000000000E+00  0.00000000000E+00  0.31231038768E+04  0.31231038768E+04  0.00000000000E+00 0. -1.
         -2   -1    0    0    0  501 -0.00000000000E+00 -0.00000000000E+00 -0.33656018194E+02  0.33656018194E+02  0.00000000000E+00 0.  1.
         25    1    1    2    0    0  0.82723181874E+02  0.52243179752E+01  0.81332568841E+03  0.82703935441E+03  0.12500000000E+03 0.  0.
          2    1    1    2  502    0 -0.41017603481E+02 -0.29049049109E+02  0.22808989130E+04  0.22814526386E+04  0.00000000000E+00 0. -1.
         -2    1    1    2    0  501 -0.41705578393E+02  0.23824731134E+02 -0.47767428324E+01  0.48267901910E+02  0.00000000000E+00 0.  1.
<mgrwt>
<rscale>  0 0.49530423E+02</rscale>
<asrwt>0</asrwt>
<pdfrwt beam="1">  1        2 0.48047729E+00 0.51076698E+02</pdfrwt>
<pdfrwt beam="2">  1       -2 0.51778514E-02 0.48030960E+02</pdfrwt>
<totfact> 0.36716796E+02</totfact>
</mgrwt>
</event>
<event>
 5    1  0.4149151E-003  0.1155336E+03  0.7546771E-02  0.1284938E+00
          2   -1    0    0  501    0  0.00000000000E+00  0.00000000000E+00  0.25238021205E+04  0.25238021205E+04  0.00000000000E+00 0.  1.
          3   -1    0    0  502    0 -0.00000000000E+00 -0.00000000000E+00 -0.62320141631E+02  0.62320141631E+02  0.00000000000E+00 0. -1.
         25    1    1    2    0    0  0.88762873305E+02 -0.49630813529E+02  0.12891458364E+04  0.12991782221E+04  0.12500000000E+03 0.  0.
          2    1    1    2  501    0 -0.13539968473E+03 -0.18822730071E+02  0.11936202249E+04  0.12014227445E+04  0.00000000000E+00 0.  1.
          3    1    1    2  502    0  0.46636811425E+02  0.68453543601E+02 -0.21284082446E+02  0.85521295459E+02  0.00000000000E+00 0. -1.
<mgrwt>
<rscale>  0 0.97824824E+02</rscale>
<asrwt>0</asrwt>
<pdfrwt beam="1">  1        2 0.38827717E+00 0.11553358E+03</pdfrwt>
<pdfrwt beam="2">  1        3 0.95877160E-02 0.82830428E+02</pdfrwt>
<totfact> 0.19287912E+02</totfact>
</mgrwt>
</event>
<event>
 5    1  0.4149151E-003  0.4352872E+02  0.7546771E-02  0.1485117E+00
          1   -1    0    0  502    0  0.00000000000E+00  0.00000000000E+00  0.80172164416E+03  0.80172164416E+03  0.00000000000E+00 0. -1.
         -2   -1    0    0    0  501 -0.00000000000E+00 -0.00000000000E+00 -0.16748695312E+02  0.16748695312E+02  0.00000000000E+00 0.  1.
         25    1    1    2    0    0 -0.51384128084E+02 -0.74454609608E+01  0.49428264596E+03  0.51248033875E+03  0.12500000000E+03 0.  0.
          1    1    1    2  502    0  0.29088913444E+02 -0.31817238942E+02  0.20105631466E+03  0.20562622217E+03  0.00000000000E+00 0. -1.
         -2    1    1    2    0  501  0.22295214640E+02  0.39262699902E+02  0.89633988223E+02  0.10036377855E+03  0.00000000000E+00 0.  1.
<mgrwt>
<rscale>  0 0.43319023E+02</rscale>
<asrwt>0</asrwt>
<pdfrwt beam="1">  1        1 0.12334176E+00 0.43110342E+02</pdfrwt>
<pdfrwt beam="2">  1       -2 0.25767230E-02 0.43528715E+02</pdfrwt>
<totfact> 0.93996825E+03</totfact>
</mgrwt>
</event>
<event>
 5    1  0.4149151E-003  0.1556792E+03  0.7546771E-02  0.1291492E+00
          1   -1    0    0  502    0  0.00000000000E+00  0.00000000000E+00  0.10087248584E+03  0.10087248584E+03  0.00000000000E+00 0. -1.
         -3   -1    0    0    0  501 -0.00000000000E+00 -0.00000000000E+00 -0.10846870569E+04  0.10846870569E+04  0.00000000000E+00 0.  1.
         25    1    1    2    0    0  0.62615274759E+02 -0.83756864987E+02 -0.56712399767E+03  0.59007670162E+03  0.12500000000E+03 0.  0.
          1    1    1    2  502    0 -0.99363392181E+02  0.12837197263E+03  0.12127545864E+02  0.16278674526E+03  0.00000000000E+00 0. -1.
         -3    1    1    2    0  501  0.36748117422E+02 -0.44615107642E+02 -0.42881811921E+03  0.43269609581E+03  0.00000000000E+00 0.  1.
<mgrwt>
<rscale>  0 0.94859794E+02</rscale>
<asrwt>0</asrwt>
<pdfrwt beam="1">  1        1 0.15518844E-01 0.15567918E+03</pdfrwt>
<pdfrwt beam="2">  1       -3 0.16687493E+00 0.57800796E+02</pdfrwt>
<totfact> 0.49910087E+01</totfact>
</mgrwt>
</event>
<event>
 5    1  0.4149151E-003  0.5314346E+02  0.7546771E-02  0.1503031E+00
          1   -1    0    0  502    0  0.00000000000E+00  0.00000000000E+00  0.78346549454E+03  0.78346549454E+03  0.00000000000E+00 0. -1.
          1   -1    0    0  501    0 -0.00000000000E+00 -0.00000000000E+00 -0.26692065738E+03  0.26692065738E+03  0.00000000000E+00 0. -1.
         25    1    1    2    0    0 -0.42894990343E+02 -0.34197362527E+01  0.18735961983E+02  0.13352045186E+03  0.12500000000E+03 0.  0.
          1    1    1    2  501    0  0.41422118998E+02  0.34574548316E+02 -0.20570364951E+03  0.21266213287E+03  0.00000000000E+00 0. -1.
          1    1    1    2  502    0  0.14728713447E+01 -0.31154812063E+02  0.70351252468E+03  0.70420356720E+03  0.00000000000E+00 0. -1.
<mgrwt>
<rscale>  0 0.40712698E+02</rscale>
<asrwt>0</asrwt>
<pdfrwt beam="1">  1        1 0.12053315E+00 0.31189608E+02</pdfrwt>
<pdfrwt beam="2">  1        1 0.41064717E-01 0.53143462E+02</pdfrwt>
<totfact> 0.31992252E+02</totfact>
</mgrwt>
</event>
<event>
 5    1  0.4149151E-003  0.1094980E+03  0.7546771E-02  0.1263385E+00
          2   -1    0    0  502    0  0.00000000000E+00  0.00000000000E+00  0.16540961959E+04  0.16540961959E+04  0.00000000000E+00 0. -1.
         -3   -1    0    0    0  501 -0.00000000000E+00 -0.00000000000E+00 -0.21929400226E+03  0.21929400226E+03  0.00000000000E+00 0.  1.
         25    1    1    2    0    0  0.64231714470E+02  0.12007311032E+03  0.12074902901E+03  0.22079083535E+03  0.12500000000E+03 0.  0.
          2    1    1    2  502    0  0.44894225365E+02 -0.97675334565E+02  0.14628093242E+04  0.14667539267E+04  0.00000000000E+00 0. -1.
         -3    1    1    2    0  501 -0.10912593984E+03 -0.22397775755E+02 -0.14875615960E+03  0.18584543611E+03  0.00000000000E+00 0.  1.
<mgrwt>
<rscale>  0 0.10849373E+03</rscale>
<asrwt>0</asrwt>
<pdfrwt beam="1">  1        2 0.25447633E+00 0.10749866E+03</pdfrwt>
<pdfrwt beam="2">  1       -3 0.33737540E-01 0.10949801E+03</pdfrwt>
<totfact> 0.62975297E+01</totfact>
</mgrwt>
</event>
<event>
 5    1  0.4149151E-003  0.1493948E+03  0.7546771E-02  0.1329772E+00
         -3   -1    0    0    0  501 -0.00000000000E+00  0.00000000000E+00  0.48074918336E+02  0.48074918336E+02  0.00000000000E+00 0.  1.
          2   -1    0    0  502    0  0.00000000000E+00 -0.00000000000E+00 -0.21176328138E+04  0.21176328138E+04  0.00000000000E+00 0. -1.
         25    1    1    2    0    0  0.16127355189E+03  0.52375689037E+02 -0.72500401281E+03  0.75498886742E+03  0.12500000000E+03 0.  0.
          2    1    1    2  502    0 -0.12466764240E+03 -0.74103155020E+02 -0.13582734216E+04  0.13659941385E+04  0.00000000000E+00 0. -1.
         -3    1    1    2    0  501 -0.36605909482E+02  0.21727465983E+02  0.13719538922E+02  0.44724726218E+02  0.00000000000E+00 0.  1.
<mgrwt>
<rscale>  0 0.79746537E+02</rscale>
<asrwt>0</asrwt>
<pdfrwt beam="2">  1        2 0.32578971E+00 0.14939482E+03</pdfrwt>
<pdfrwt beam="1">  1       -3 0.73961403E-02 0.42568479E+02</pdfrwt>
<totfact> 0.41796959E+02</totfact>
</mgrwt>
</event>
<event>
 5    1  0.4149151E-003  0.1516872E+03  0.7546771E-02  0.1367554E+00
         -3   -1    0    0    0  502 -0.00000000000E+00  0.00000000000E+00  0.26878352596E+03  0.26878352596E+03  0.00000000000E+00 0.  1.
         -2   -1    0    0    0  501  0.00000000000E+00 -0.00000000000E+00 -0.20796474848E+03  0.20796474848E+03  0.00000000000E+00 0.  1.
         25    1    1    2    0    0  0.75058636712E+02  0.11971655924E+03  0.94334850647E+02  0.21092633204E+03  0.12500000000E+03 0.  0.
         -2    1    1    2    0  501 -0.10488612928E+03 -0.11410308315E+03 -0.10564509328E+03  0.18756731974E+03  0.00000000000E+00 0.  1.
         -3    1    1    2    0  502  0.29827492569E+02 -0.56134760832E+01  0.72129020104E+02  0.78254622661E+02  0.00000000000E+00 0.  1.
<mgrwt>
<rscale>  0 0.67851878E+02</rscale>
<asrwt>0</asrwt>
<pdfrwt beam="2">  1       -2 0.31994577E-01 0.15168723E+03</pdfrwt>
<pdfrwt beam="1">  1       -3 0.41351312E-01 0.30351119E+02</pdfrwt>
<totfact> 0.18380441E+02</totfact>
</mgrwt>
</event>
<event>
 5    1  0.4149151E-003  0.1057810E+03  0.7546771E-02  0.1358653E+00
         -1   -1    0    0    0  501 -0.00000000000E+00  0.00000000000E+00  0.14500514608E+03  0.14500514608E+03  0.00000000000E+00 0.  1.
          2   -1    0    0  502    0  0.00000000000E+00 -0.00000000000E+00 -0.74119744354E+03  0.74119744354E+03  0.00000000000E+00 0. -1.
         25    1    1    2    0    0  0.57750298801E+02 -0.83467412732E+02 -0.11134867044E+03  0.19576882389E+03  0.12500000000E+03 0.  0.
          2    1    1    2  502    0  0.36184833798E+02  0.29816260975E+02 -0.55792032957E+03  0.55988699374E+03  0.00000000000E+00 0. -1.
         -1    1    1    2    0  501 -0.93935132599E+02  0.53651151757E+02  0.73076702543E+02  0.13054677199E+03  0.00000000000E+00 0.  1.
<mgrwt>
<rscale>  0 0.70425196E+02</rscale>
<asrwt>0</asrwt>
<pdfrwt beam="2">  1        2 0.11403038E+00 0.46886582E+02</pdfrwt>
<pdfrwt beam="1">  1       -1 0.22308484E-01 0.10578097E+03</pdfrwt>
<totfact> 0.77831857E+02</totfact>
</mgrwt>
</event>
<event>
 5    1  0.4149151E-003  0.7785112E+02  0.7546771E-02  0.1424544E+00
          1   -1    0    0  502    0  0.00000000000E+00  0.00000000000E+00  0.84983652321E+03  0.84983652321E+03  0.00000000000E+00 0. -1.
          1   -1    0    0  501    0 -0.00000000000E+00 -0.00000000000E+00 -0.40923944197E+03  0.40923944197E+03  0.00000000000E+00 0. -1.
         25    1    1    2    0    0 -0.86130788625E+02 -0.33121612695E+02 -0.69234327356E+02  0.17009981205E+03  0.12500000000E+03 0.  0.
          1    1    1    2  501    0  0.84654063910E+01  0.36588142322E+02 -0.28645370222E+03  0.28890496496E+03  0.00000000000E+00 0. -1.
          1    1    1    2  502    0  0.77665382234E+02 -0.34665296280E+01  0.79628511081E+03  0.80007118816E+03  0.00000000000E+00 0. -1.
<mgrwt>
<rscale>  0 0.54071021E+02</rscale>
<asrwt>0</asrwt>
<pdfrwt beam="1">  1        1 0.13074408E+00 0.77851124E+02</pdfrwt>
<pdfrwt beam="2">  1        1 0.62959914E-01 0.37554697E+02</pdfrwt>
<totfact> 0.16256282E+02</totfact>
</mgrwt>
</event>
<event>
 5    1  0.4149151E-003  0.4325413E+02  0.7546771E-02  0.1555994E+00
          2   -1    0    0  501    0  0.00000000000E+00  0.00000000000E+00  0.33435107020E+02  0.33435107020E+02  0.00000000000E+00 0. -1.
          2   -1    0    0  502    0 -0.00000000000E+00 -0.00000000000E+00 -0.20644611354E+04  0.20644611354E+04  0.00000000000E+00 0. -1.
         25    1    1    2    0    0  0.69050318016E+02  0.21905972743E+01 -0.60200197643E+03  0.61871166529E+03  0.12500000000E+03 0.  0.
          2    1    1    2  501    0 -0.26770637348E+02 -0.35991912778E+01  0.17407367209E+02  0.32134679632E+02  0.00000000000E+00 0. -1.
          2    1    1    2  502    0 -0.42279680668E+02  0.14085940035E+01 -0.14464314192E+04  0.14470498975E+04  0.00000000000E+00 0. -1.
<mgrwt>
<rscale>  0 0.34181266E+02</rscale>
<asrwt>0</asrwt>
<pdfrwt beam="1">  1        2 0.51438614E-02 0.27011501E+02</pdfrwt>
<pdfrwt beam="2">  1        2 0.31760948E+00 0.43254128E+02</pdfrwt>
<totfact> 0.15852948E+03</totfact>
</mgrwt>
</event>
<event>
 5    1  0.4149151E-003  0.1124704E+03  0.7546771E-02  0.1381759E+00
          2   -1    0    0  501    0  0.00000000000E+00  0.00000000000E+00  0.24887435197E+03  0.24887435197E+03  0.00000000000E+00 0. -1.
          1   -1    0    0  502    0 -0.00000000000E+00 -0.00000000000E+00 -0.41353390017E+03  0.41353390017E+03  0.00000000000E+00 0.  1.
         25    1    1    2    0    0  0.96918618912E+02  0.30598898970E+02 -0.86655929391E+02  0.18293102910E+03  0.12500000000E+03 0.  0.
          2    1    1    2  501    0  0.19292566697E+02 -0.30893373203E+02  0.18678826276E+03  0.19030622360E+03  0.00000000000E+00 0. -1.
          1    1    1    2  502    0 -0.11621118561E+03  0.29447423222E+00 -0.26479188156E+03  0.28917099944E+03  0.00000000000E+00 0.  1.
<mgrwt>
<rscale>  0 0.64003588E+02</rscale>
<asrwt>0</asrwt>
<pdfrwt beam="1">  1        2 0.38288362E-01 0.36422570E+02</pdfrwt>
<pdfrwt beam="2">  1        1 0.63620600E-01 0.11247035E+03</pdfrwt>
<totfact> 0.10404422E+03</totfact>
</mgrwt>
</event>
<event>
 5    1  0.4149151E-003  0.1102788E+03  0.7546771E-02  0.1285717E+00
          2   -1    0    0  502    0  0.00000000000E+00  0.00000000000E+00  0.99985660016E+03  0.99985660016E+03  0.00000000000E+00 0. -1.
          2   -1    0    0  501    0 -0.00000000000E+00 -0.00000000000E+00 -0.62030227527E+03  0.62030227527E+03  0.00000000000E+00 0. -1.
         25    1    1    2    0    0  0.70872888759E+02  0.16351806243E+03 -0.20615674422E+03  0.29981115105E+03  0.12500000000E+03 0.  0.
          2    1    1    2  501    0  0.64763942842E+01 -0.85897844800E+02 -0.35905719736E+03  0.36924579131E+03  0.00000000000E+00 0. -1.
          2    1    1    2  502    0 -0.77349283043E+02 -0.77620217634E+02  0.94476826647E+03  0.95110193308E+03  0.00000000000E+00 0. -1.
<mgrwt>
<rscale>  0 0.97465887E+02</rscale>
<asrwt>0</asrwt>
<pdfrwt beam="1">  1        2 0.15382409E+00 0.11027882E+03</pdfrwt>
<pdfrwt beam="2">  1        2 0.95431119E-01 0.86141647E+02</pdfrwt>
<totfact> 0.21364311E+02</totfact>
</mgrwt>
</event>
<event>
 5    1  0.4149151E-003  0.1147623E+03  0.7546771E-02  0.1377334E+00
          1   -1    0    0  501    0  0.00000000000E+00  0.00000000000E+00  0.94072656620E+03  0.94072656620E+03  0.00000000000E+00 0. -1.
          1   -1    0    0  502    0 -0.00000000000E+00 -0.00000000000E+00 -0.24419968560E+04  0.24419968560E+04  0.00000000000E+00 0. -1.
         25    1    1    2    0    0 -0.23940510859E+02 -0.12193257493E+03  0.15409381281E+03  0.23411664622E+03  0.12500000000E+03 0.  0.
          1    1    1    2  501    0  0.36165285256E+02  0.78513912722E+01  0.74479152880E+03  0.74571039524E+03  0.00000000000E+00 0. -1.
          1    1    1    2  502    0 -0.12224774397E+02  0.11408118366E+03 -0.24001556314E+04  0.24028963807E+04  0.00000000000E+00 0. -1.
<mgrwt>
<rscale>  0 0.65169724E+02</rscale>
<asrwt>0</asrwt>
<pdfrwt beam="1">  1        1 0.14472717E+00 0.37007732E+02</pdfrwt>
<pdfrwt beam="2">  1        1 0.37569182E+00 0.11476231E+03</pdfrwt>
<totfact> 0.47213841E+00</totfact>
</mgrwt>
</event>
<event>
 5    1  0.4149151E-003  0.4654879E+02  0.7546771E-02  0.1540543E+00
          1   -1    0    0  502    0  0.00000000000E+00  0.00000000000E+00  0.12485909298E+03  0.12485909298E+03  0.00000000000E+00 0. -1.
         -2   -1    0    0    0  501 -0.00000000000E+00 -0.00000000000E+00 -0.12133080611E+03  0.12133080611E+03  0.00000000000E+00 0.  1.
         25    1    1    2    0    0 -0.58551872138E+02 -0.82336877909E+01  0.29438259291E+02  0.14137795605E+03  0.12500000000E+03 0.  0.
          1    1    1    2  502    0  0.36717267147E+02  0.25319030145E+02  0.21790864168E+02  0.49639225975E+02  0.00000000000E+00 0. -1.
         -2    1    1    2    0  501  0.21834604991E+02 -0.17085342354E+02 -0.47700836585E+02  0.55172717074E+02  0.00000000000E+00 0.  1.
<mgrwt>
<rscale>  0 0.35924241E+02</rscale>
<asrwt>0</asrwt>
<pdfrwt beam="1">  1        1 0.19209091E-01 0.46548788E+02</pdfrwt>
<pdfrwt beam="2">  1       -2 0.18666278E-01 0.27724698E+02</pdfrwt>
<totfact> 0.47151912E+03</totfact>
</mgrwt>
</event>
<event>
 5    1  0.4149151E-003  0.9306279E+02  0.7546771E-02  0.1365079E+00
         -2   -1    0    0    0  501 -0.00000000000E+00  0.00000000000E+00  0.13600580156E+04  0.13600580156E+04  0.00000000000E+00 0.  1.
          2   -1    0    0  502    0  0.00000000000E+00 -0.00000000000E+00 -0.43548615252E+03  0.43548615252E+03  0.00000000000E+00 0. -1.
         25    1    1    2    0    0  0.89994983050E+01 -0.42688252340E+02  0.63176754895E+03  0.64549090912E+03  0.12500000000E+03 0.  0.
          2    1    1    2  502    0 -0.74367491195E+01  0.93164500840E+02 -0.42262906229E+03  0.43283975527E+03  0.00000000000E+00 0. -1.
         -2    1    1    2    0  501 -0.15627491855E+01 -0.50476248501E+02  0.71543337639E+03  0.71721350370E+03  0.00000000000E+00 0.  1.
<mgrwt>
<rscale>  0 0.68554441E+02</rscale>
<asrwt>0</asrwt>
<pdfrwt beam="2">  1        2 0.66997870E-01 0.93062792E+02</pdfrwt>
<pdfrwt beam="1">  1       -2 0.20923969E+00 0.50500434E+02</pdfrwt>
<totfact> 0.10571814E+01</totfact>
</mgrwt>
</event>
<event>
 5    1  0.4149151E-003  0.2357654E+02  0.7546771E-02  0.1687664E+00
          2   -1    0    0  501    0  0.00000000000E+00  0.00000000000E+00  0.37387190226E+03  0.37387190226E+03  0.00000000000E+00 0.  1.
          2   -1    0    0  502    0 -0.00000000000E+00 -0.00000000000E+00 -0.73419915615E+02  0.73419915615E+02  0.00000000000E+00 0. -1.
         25    1    1    2    0    0  0.17642838778E+02 -0.11763812784E+02  0.32962789340E+03  0.35317022122E+03  0.12500000000E+03 0.  0.
          2    1    1    2  501    0 -0.35883581971E+00 -0.22903615524E+02  0.20765545776E+02  0.30917830755E+02  0.00000000000E+00 0.  1.
          2    1    1    2  502    0 -0.17284002958E+02  0.34667428308E+02 -0.49941452526E+02  0.63203765902E+02  0.00000000000E+00 0. -1.
<mgrwt>
<rscale>  0 0.23239067E+02</rscale>
<asrwt>0</asrwt>
<pdfrwt beam="1">  1        2 0.57518753E-01 0.23576538E+02</pdfrwt>
<pdfrwt beam="2">  1        2 0.11295372E-01 0.22906426E+02</pdfrwt>
<totfact> 0.62029293E+03</totfact>
</mgrwt>
</event>
<event>
 5    1  0.4149151E-003  0.1709856E+03  0.7546771E-02  0.1260370E+00
         -1   -1    0    0    0  501 -0.00000000000E+00  0.00000000000E+00  0.52540547900E+03  0.52540547900E+03  0.00000000000E+00 0.  1.
          1   -1    0    0  502    0  0.00000000000E+00 -0.00000000000E+00 -0.14716634928E+04  0.14716634928E+04  0.00000000000E+00 0. -1.
         25    1    1    2    0    0 -0.10627834933E+02  0.15918880830E+03  0.32224898936E+03  0.38068811212E+03  0.12500000000E+03 0.  0.
          1    1    1    2  502    0  0.81055913100E+02 -0.15097415385E+03 -0.14298832378E+04  0.14401143461E+04  0.00000000000E+00 0. -1.
         -1    1    1    2    0  501 -0.70428078167E+02 -0.82146544475E+01  0.16137623457E+03  0.17626651363E+03  0.00000000000E+00 0.  1.
<mgrwt>
<rscale>  0 0.11010825E+03</rscale>
<asrwt>0</asrwt>
<pdfrwt beam="2">  1        1 0.22640977E+00 0.17098562E+03</pdfrwt>
<pdfrwt beam="1">  1       -1 0.80831613E-01 0.70905534E+02</pdfrwt>
<totfact> 0.13186309E+01</totfact>
</mgrwt>
</event>
<event>
 5    1  0.4149151E-003  0.4179493E+02  0.7546771E-02  0.1534163E+00
          2   -1    0    0  502    0  0.00000000000E+00  0.00000000000E+00  0.94703471721E+03  0.94703471721E+03  0.00000000000E+00 0. -1.
         -1   -1    0    0    0  501 -0.00000000000E+00 -0.00000000000E+00 -0.14216798888E+02  0.14216798888E+02  0.00000000000E+00 0.  1.
         25    1    1    2    0    0 -0.41284798942E+02 -0.18776555319E+02  0.66568951156E+03  0.67884056998E+03  0.12500000000E+03 0.  0.
          2    1    1    2  502    0  0.24825151678E+02 -0.20495245951E+02  0.20232119192E+03  0.20486631729E+03  0.00000000000E+00 0. -1.
         -1    1    1    2    0  501  0.16459647265E+02  0.39271801270E+02  0.64807214844E+02  0.77544628820E+02  0.00000000000E+00 0.  1.
<mgrwt>
<rscale>  0 0.36680709E+02</rscale>
<asrwt>0</asrwt>
<pdfrwt beam="1">  1        2 0.14569760E+00 0.32192286E+02</pdfrwt>
<pdfrwt beam="2">  1       -1 0.21872006E-02 0.41794932E+02</pdfrwt>
<totfact> 0.16872097E+04</totfact>
</mgrwt>
</event>
<event>
 5    1  0.4149151E-003  0.8192537E+02  0.7546771E-02  0.1361285E+00
          1   -1    0    0  502    0  0.00000000000E+00  0.00000000000E+00  0.39528522136E+02  0.39528522136E+02  0.00000000000E+00 0. -1.
         -2   -1    0    0    0  501 -0.00000000000E+00 -0.00000000000E+00 -0.69281143516E+03  0.69281143516E+03  0.00000000000E+00 0.  1.
         25    1    1    2    0    0 -0.69295016751E+02 -0.10989495271E+03 -0.33431814787E+03  0.37983196808E+03  0.12500000000E+03 0.  0.
          1    1    1    2  502    0  0.24500854801E+02  0.53908723122E+02 -0.62030371976E+02  0.85756686982E+02  0.00000000000E+00 0. -1.
         -2    1    1    2    0  501  0.44794161950E+02  0.55986229587E+02 -0.25693439318E+03  0.26675130224E+03  0.00000000000E+00 0.  1.
<mgrwt>
<rscale>  0 0.69650765E+02</rscale>
<asrwt>0</asrwt>
<pdfrwt beam="1">  1        1 0.60813115E-02 0.59215220E+02</pdfrwt>
<pdfrwt beam="2">  1       -2 0.10658637E+00 0.81925373E+02</pdfrwt>
<totfact> 0.75744301E+02</totfact>
</mgrwt>
</event>
<event>
 5    1  0.4149151E-003  0.4049454E+02  0.7546771E-02  0.1525684E+00
          1   -1    0    0  502    0  0.00000000000E+00  0.00000000000E+00  0.12037537353E+04  0.12037537353E+04  0.00000000000E+00 0. -1.
         -1   -1    0    0    0  501 -0.00000000000E+00 -0.00000000000E+00 -0.13884288541E+02  0.13884288541E+02  0.00000000000E+00 0.  1.
         25    1    1    2    0    0 -0.68373915801E+02  0.12332070491E+02  0.66000418230E+03  0.67532036322E+03  0.12500000000E+03 0.  0.
          1    1    1    2  502    0  0.34742954937E+02  0.52525225092E+01  0.47081061919E+03  0.47212000704E+03  0.00000000000E+00 0. -1.
         -1    1    1    2    0  501  0.33630960864E+02 -0.17584593000E+02  0.59054645259E+02  0.70197653567E+02  0.00000000000E+00 0.  1.
<mgrwt>
<rscale>  0 0.37721179E+02</rscale>
<asrwt>0</asrwt>
<pdfrwt beam="1">  1        1 0.18519280E+00 0.35137756E+02</pdfrwt>
<pdfrwt beam="2">  1       -1 0.21360453E-02 0.40494541E+02</pdfrwt>
<totfact> 0.65073398E+03</totfact>
</mgrwt>
</event>
<event>
 5    1  0.4149151E-003  0.1043145E+03  0.7546771E-02  0.1379123E+00
          2   -1    0    0  502    0  0.00000000000E+00  0.00000000000E+00  0.89439295839E+02  0.89439295839E+02  0.00000000000E+00 0. -1.
          2   -1    0    0  501    0 -0.00000000000E+00 -0.00000000000E+00 -0.11141298026E+04  0.11141298026E+04  0.00000000000E+00 0. -1.
         25    1    1    2    0    0 -0.50795447211E+02 -0.83759969066E+02 -0.92670629387E+03  0.94021564812E+03  0.12500000000E+03 0.  0.
          2    1    1    2  501    0  0.89850489193E+02  0.92956131874E+02 -0.14976477973E+03  0.19784701693E+03  0.00000000000E+00 0. -1.
          2    1    1    2  502    0 -0.39055041982E+02 -0.91961628073E+01  0.51780566831E+02  0.65506433393E+02  0.00000000000E+00 0. -1.
<mgrwt>
<rscale>  0 0.64694848E+02</rscale>
<asrwt>0</asrwt>
<pdfrwt beam="1">  1        2 0.13759891E-01 0.40123132E+02</pdfrwt>
<pdfrwt beam="2">  1        2 0.17140459E+00 0.10431447E+03</pdfrwt>
<totfact> 0.14331157E+03</totfact>
</mgrwt>
</event>
<event>
 5    1  0.4149151E-003  0.4301598E+02  0.7546771E-02  0.1522953E+00
          2   -1    0    0  502    0  0.00000000000E+00  0.00000000000E+00  0.15595503060E+04  0.15595503060E+04  0.00000000000E+00 0.  1.
         -2   -1    0    0    0  501 -0.00000000000E+00 -0.00000000000E+00 -0.48738597002E+02  0.48738597002E+02  0.00000000000E+00 0. -1.
         25    1    1    2    0    0 -0.56691528839E+02 -0.49083333330E+02  0.25492999428E+03  0.29366205924E+03  0.12500000000E+03 0.  0.
          2    1    1    2  502    0  0.25797120994E+02  0.21659325834E+02  0.12703948437E+04  0.12708413263E+04  0.00000000000E+00 0.  1.
         -2    1    1    2    0  501  0.30894407845E+02  0.27424007496E+02 -0.14513128976E+02  0.43785517423E+02  0.00000000000E+00 0. -1.
<mgrwt>
<rscale>  0 0.38065131E+02</rscale>
<asrwt>0</asrwt>
<pdfrwt beam="1">  1        2 0.23993078E+00 0.33684089E+02</pdfrwt>
<pdfrwt beam="2">  1       -2 0.74982469E-02 0.43015982E+02</pdfrwt>
<totfact> 0.13752055E+03</totfact>
</mgrwt>
</event>
<event>
 5    1  0.4149151E-003  0.1381774E+03  0.7546771E-02  0.1269981E+00
          1   -1    0    0  502    0 -0.00000000000E+00  0.00000000000E+00  0.81851263615E+03  0.81851263615E+03  0.00000000000E+00 0. -1.
          2   -1    0    0  501    0  0.00000000000E+00 -0.00000000000E+00 -0.53282798956E+03  0.53282798956E+03  0.00000000000E+00 0. -1.
         25    1    1    2    0    0 -0.10875567265E+03  0.10697455949E+03  0.12126984184E+03  0.23152262795E+03  0.12500000000E+03 0.  0.
          2    1    1    2  501    0  0.33713939838E+02 -0.13439805253E+03 -0.46507538734E+03  0.48527784018E+03  0.00000000000E+00 0. -1.
          1    1    1    2  502    0  0.75041732814E+02  0.27423493038E+02  0.62949019209E+03  0.63454015758E+03  0.00000000000E+00 0. -1.
<mgrwt>
<rscale>  0 0.10507031E+03</rscale>
<asrwt>0</asrwt>
<pdfrwt beam="2">  1        2 0.81973536E-01 0.13817742E+03</pdfrwt>
<pdfrwt beam="1">  1        1 0.12592502E+00 0.79895617E+02</pdfrwt>
<totfact> 0.18974840E+02</totfact>
</mgrwt>
</event>
<event>
 5    1  0.4149151E-003  0.1502282E+03  0.7546771E-02  0.1225678E+00
          3   -1    0    0  502    0 -0.00000000000E+00  0.00000000000E+00  0.19318530805E+03  0.19318530805E+03  0.00000000000E+00 0.  1.
          2   -1    0    0  501    0  0.00000000000E+00 -0.00000000000E+00 -0.74949310263E+03  0.74949310263E+03  0.00000000000E+00 0.  1.
         25    1    1    2    0    0  0.17156090709E+03 -0.17763048877E+03 -0.35930913033E+03  0.45355681731E+03  0.12500000000E+03 0.  0.
          2    1    1    2  501    0 -0.51063620559E+02  0.10258442429E+03 -0.29509901268E+03  0.31656671451E+03  0.00000000000E+00 0.  1.
          3    1    1    2  502    0 -0.12049728653E+03  0.75046064480E+02  0.98100348435E+02  0.17255487886E+03  0.00000000000E+00 0.  1.
<mgrwt>
<rscale>  0 0.13120509E+03</rscale>
<asrwt>0</asrwt>
<pdfrwt beam="2">  1        2 0.11530663E+00 0.11459083E+03</pdfrwt>
<pdfrwt beam="1">  1        3 0.29720816E-01 0.15022822E+03</pdfrwt>
<totfact> 0.26292869E+02</totfact>
</mgrwt>
</event>
<event>
 5    1  0.4149151E-003  0.8210777E+02  0.7546771E-02  0.1431664E+00
          2   -1    0    0  502    0  0.00000000000E+00  0.00000000000E+00  0.22658580941E+04  0.22658580941E+04  0.00000000000E+00 0.  1.
          2   -1    0    0  501    0 -0.00000000000E+00 -0.00000000000E+00 -0.33880961827E+03  0.33880961827E+03  0.00000000000E+00 0. -1.
         25    1    1    2    0    0 -0.55679722144E+02  0.63546959218E+02  0.17690639374E+04  0.17754860355E+04  0.12500000000E+03 0.  0.
          2    1    1    2  501    0  0.29980481666E+02  0.15459943059E+02 -0.33123979407E+03  0.33295291003E+03  0.00000000000E+00 0. -1.
          2    1    1    2  502    0  0.25699240477E+02 -0.79006902277E+02  0.48922433250E+03  0.49622876688E+03  0.00000000000E+00 0.  1.
<mgrwt>
<rscale>  0 0.52627452E+02</rscale>
<asrwt>0</asrwt>
<pdfrwt beam="1">  1        2 0.34859354E+00 0.82107769E+02</pdfrwt>
<pdfrwt beam="2">  1        2 0.52124558E-01 0.33731871E+02</pdfrwt>
<totfact> 0.91649136E+01</totfact>
</mgrwt>
</event>
<event>
 5    1  0.4149151E-003  0.6530378E+02  0.7546771E-02  0.1394412E+00
          2   -1    0    0  502    0  0.00000000000E+00  0.00000000000E+00  0.93809645981E+03  0.93809645981E+03  0.00000000000E+00 0. -1.
         -2   -1    0    0    0  501 -0.00000000000E+00 -0.00000000000E+00 -0.12445934343E+04  0.12445934343E+04  0.00000000000E+00 0.  1.
         25    1    1    2    0    0 -0.22029727486E+02 -0.11877909412E+03 -0.25138561438E+03  0.30563623675E+03  0.12500000000E+03 0.  0.
          2    1    1    2  502    0  0.44660937290E+01  0.64921836066E+02  0.90897648431E+03  0.91130293527E+03  0.00000000000E+00 0. -1.
         -2    1    1    2    0  501  0.17563633757E+02  0.53857258053E+02 -0.96408784441E+03  0.96575072209E+03  0.00000000000E+00 0.  1.
<mgrwt>
<rscale>  0 0.60822532E+02</rscale>
<asrwt>0</asrwt>
<pdfrwt beam="1">  1        2 0.14432253E+00 0.65303785E+02</pdfrwt>
<pdfrwt beam="2">  1       -2 0.19147591E+00 0.56648791E+02</pdfrwt>
<totfact> 0.56352115E+00</totfact>
</mgrwt>
</event>
<event>
 5    1  0.4149151E-003  0.8749982E+02  0.7546771E-02  0.1444089E+00
          1   -1    0    0  502    0  0.00000000000E+00  0.00000000000E+00  0.22202880000E+04  0.22202880000E+04  0.00000000000E+00 0. -1.
         -2   -1    0    0    0  501 -0.00000000000E+00 -0.00000000000E+00 -0.96631194412E+01  0.96631194412E+01  0.00000000000E+00 0.  1.
         25    1    1    2    0    0 -0.59799988361E+02  0.78433852723E+02  0.10022798151E+04  0.10148486269E+04  0.12500000000E+03 0.  0.
          1    1    1    2  502    0  0.28771086860E+02 -0.19693929448E+01  0.65535996831E+03  0.65599416309E+03  0.00000000000E+00 0. -1.
         -2    1    1    2    0  501  0.31028901501E+02 -0.76464459778E+02  0.55298509723E+03  0.55910832948E+03  0.00000000000E+00 0.  1.
<mgrwt>
<rscale>  0 0.50233016E+02</rscale>
<asrwt>0</asrwt>
<pdfrwt beam="1">  1        1 0.34158236E+00 0.28838411E+02</pdfrwt>
<pdfrwt beam="2">  1       -2 0.14866355E-02 0.87499823E+02</pdfrwt>
<totfact> 0.29941818E+03</totfact>
</mgrwt>
</event>
<event>
 5    1  0.4149151E-003  0.5322591E+02  0.7546771E-02  0.1449134E+00
          1   -1    0    0  502    0  0.00000000000E+00  0.00000000000E+00  0.15187588880E+04  0.15187588880E+04  0.00000000000E+00 0. -1.
          1   -1    0    0  501    0 -0.00000000000E+00 -0.00000000000E+00 -0.25059728915E+04  0.25059728915E+04  0.00000000000E+00 0. -1.
         25    1    1    2    0    0 -0.82715412511E+02  0.48747506649E+02 -0.92188136935E+02  0.18259740267E+03  0.12500000000E+03 0.  0.
          1    1    1    2  501    0  0.43923780142E+02 -0.12509157747E+02 -0.23678817580E+04  0.23683221481E+04  0.00000000000E+00 0. -1.
          1    1    1    2  502    0  0.38791632369E+02 -0.36238348901E+02  0.14728558914E+04  0.14738122287E+04  0.00000000000E+00 0. -1.
<mgrwt>
<rscale>  0 0.49303588E+02</rscale>
<asrwt>0</asrwt>
<pdfrwt beam="1">  1        1 0.23365521E+00 0.53225905E+02</pdfrwt>
<pdfrwt beam="2">  1        1 0.38553429E+00 0.45670313E+02</pdfrwt>
<totfact> 0.20133407E+00</totfact>
</mgrwt>
</event>
<event>
 5    1  0.4149151E-003  0.1680727E+03  0.7546771E-02  0.1246939E+00
          2   -1    0    0  501    0  0.00000000000E+00  0.00000000000E+00  0.22870791746E+04  0.22870791746E+04  0.00000000000E+00 0. -1.
          3   -1    0    0  502    0 -0.00000000000E+00 -0.00000000000E+00 -0.15477608481E+04  0.15477608481E+04  0.00000000000E+00 0. -1.
         25    1    1    2    0    0 -0.21839674967E+02  0.17951958748E+02 -0.67647572544E+03  0.68850827978E+03  0.12500000000E+03 0.  0.
          2    1    1    2  501    0  0.16953634229E+02  0.16721541103E+03  0.22680042663E+04  0.22742233337E+04  0.00000000000E+00 0. -1.
          3    1    1    2  502    0  0.48860407377E+01 -0.18516736978E+03 -0.85221021429E+03  0.87210840929E+03  0.00000000000E+00 0. -1.
<mgrwt>
<rscale>  0 0.11770066E+03</rscale>
<asrwt>0</asrwt>
<pdfrwt beam="1">  1        2 0.35185833E+00 0.16807266E+03</pdfrwt>
<pdfrwt beam="2">  1        3 0.23811705E+00 0.82425342E+02</pdfrwt>
<totfact> 0.34900884E-01</totfact>
</mgrwt>
</event>
<event>
 5    1  0.4149151E-003  0.7082988E+02  0.7546771E-02  0.1370797E+00
          2   -1    0    0  501    0  0.00000000000E+00  0.00000000000E+00  0.18963418832E+03  0.18963418832E+03  0.00000000000E+00 0. -1.
          2   -1    0    0  502    0 -0.00000000000E+00 -0.00000000000E+00 -0.80121775213E+03  0.80121775213E+03  0.00000000000E+00 0. -1.
         25    1    1    2    0    0  0.84390076992E+02  0.19316661172E+02 -0.15628903762E+03  0.21805064039E+03  0.12500000000E+03 0.  0.
          2    1    1    2  501    0 -0.36791566284E+02 -0.61007780142E+02  0.14902469929E+03  0.16517847798E+03  0.00000000000E+00 0. -1.
          2    1    1    2  502    0 -0.47598510708E+02  0.41691118970E+02 -0.60431922548E+03  0.60762282208E+03  0.00000000000E+00 0. -1.
<mgrwt>
<rscale>  0 0.66946131E+02</rscale>
<asrwt>0</asrwt>
<pdfrwt beam="1">  1        2 0.29174491E-01 0.70829884E+02</pdfrwt>
<pdfrwt beam="2">  1        2 0.12326427E+00 0.63275332E+02</pdfrwt>
<totfact> 0.10170958E+03</totfact>
</mgrwt>
</event>
<event>
 5    1  0.4149151E-003  0.1464796E+03  0.7546771E-02  0.1210929E+00
          2   -1    0    0  502    0  0.00000000000E+00  0.00000000000E+00  0.29471373594E+03  0.29471373594E+03  0.00000000000E+00 0. -1.
          2   -1    0    0  501    0 -0.00000000000E+00 -0.00000000000E+00 -0.11777987961E+04  0.11777987961E+04  0.00000000000E+00 0. -1.
         25    1    1    2    0    0 -0.30895362962E+02 -0.66753997247E+01 -0.10991173787E+03  0.16942453936E+03  0.12500000000E+03 0.  0.
          2    1    1    2  501    0  0.67924951264E+02  0.14839725093E+03 -0.10108276783E+04  0.10239180330E+04  0.00000000000E+00 0. -1.
          2    1    1    2  502    0 -0.37029588302E+02 -0.14172185121E+03  0.23765435595E+03  0.27916995974E+03  0.00000000000E+00 0. -1.
<mgrwt>
<rscale>  0 0.14179849E+03</rscale>
<asrwt>0</asrwt>
<pdfrwt beam="1">  1        2 0.45340574E-01 0.14647960E+03</pdfrwt>
<pdfrwt beam="2">  1        2 0.18119982E+00 0.13726698E+03</pdfrwt>
<totfact> 0.37028212E+02</totfact>
</mgrwt>
</event>
<event>
 5    1  0.4149151E-003  0.6752289E+02  0.7546771E-02  0.1498204E+00
          2   -1    0    0  502    0  0.00000000000E+00  0.00000000000E+00  0.58013626900E+03  0.58013626900E+03  0.00000000000E+00 0. -1.
         -2   -1    0    0    0  501 -0.00000000000E+00 -0.00000000000E+00 -0.38466763069E+03  0.38466763069E+03  0.00000000000E+00 0.  1.
         25    1    1    2    0    0 -0.49094808305E+02  0.73342500869E+02 -0.15189423838E+03  0.21560677700E+03  0.12500000000E+03 0.  0.
          2    1    1    2  502    0  0.77644161580E+01 -0.24157696381E+02  0.54284040889E+03  0.54343315134E+03  0.00000000000E+00 0. -1.
         -2    1    1    2    0  501  0.41330392147E+02 -0.49184804489E+02 -0.19547753220E+03  0.20576397134E+03  0.00000000000E+00 0.  1.
<mgrwt>
<rscale>  0 0.41392993E+02</rscale>
<asrwt>0</asrwt>
<pdfrwt beam="1">  1        2 0.89251735E-01 0.25374800E+02</pdfrwt>
<pdfrwt beam="2">  1       -2 0.59179635E-01 0.67522893E+02</pdfrwt>
<totfact> 0.15299000E+02</totfact>
</mgrwt>
</event>
<event>
 5    1  0.4149151E-003  0.4998794E+02  0.7546771E-02  0.1469777E+00
          1   -1    0    0  502    0  0.00000000000E+00  0.00000000000E+00  0.49760307899E+03  0.49760307899E+03  0.00000000000E+00 0. -1.
         -1   -1    0    0    0  501 -0.00000000000E+00 -0.00000000000E+00 -0.31561060477E+03  0.31561060477E+03  0.00000000000E+00 0.  1.
         25    1    1    2    0    0 -0.79963789269E+02 -0.43654845456E+02 -0.12449826689E+03  0.19855672133E+03  0.12500000000E+03 0.  0.
          1    1    1    2  502    0  0.41387754333E+02  0.27422142195E+02  0.45636046716E+03  0.45905315170E+03  0.00000000000E+00 0. -1.
         -1    1    1    2    0  501  0.38576034936E+02  0.16232703261E+02 -0.14986972606E+03  0.15560381073E+03  0.00000000000E+00 0.  1.
<mgrwt>
<rscale>  0 0.45739566E+02</rscale>
<asrwt>0</asrwt>
<pdfrwt beam="1">  1        1 0.76554320E-01 0.49987939E+02</pdfrwt>
<pdfrwt beam="2">  1       -1 0.48555478E-01 0.41852254E+02</pdfrwt>
<totfact> 0.20881982E+02</totfact>
</mgrwt>
</event>
<event>
 5    1  0.4149151E-003  0.6381891E+02  0.7546771E-02  0.1414339E+00
          2   -1    0    0  502    0  0.00000000000E+00  0.00000000000E+00  0.13280093079E+04  0.13280093079E+04  0.00000000000E+00 0. -1.
          2   -1    0    0  501    0 -0.00000000000E+00 -0.00000000000E+00 -0.33831514959E+03  0.33831514959E+03  0.00000000000E+00 0. -1.
         25    1    1    2    0    0  0.57755522679E+01  0.56425880027E+02  0.75152736616E+03  0.76396048264E+03  0.12500000000E+03 0.  0.
          2    1    1    2  501    0  0.42942195459E+02 -0.47352577522E+02 -0.32792997629E+03  0.33410233177E+03  0.00000000000E+00 0. -1.
          2    1    1    2  502    0 -0.48717747727E+02 -0.90733025055E+01  0.56609676844E+03  0.56826164308E+03  0.00000000000E+00 0. -1.
<mgrwt>
<rscale>  0 0.56236779E+02</rscale>
<asrwt>0</asrwt>
<pdfrwt beam="1">  1        2 0.20430912E+00 0.49555461E+02</pdfrwt>
<pdfrwt beam="2">  1        2 0.52048485E-01 0.63818905E+02</pdfrwt>
<totfact> 0.28448385E+02</totfact>
</mgrwt>
</event>
<event>
 5    1  0.4149151E-003  0.7327258E+02  0.7546771E-02  0.1382505E+00
          2   -1    0    0  502    0  0.00000000000E+00  0.00000000000E+00  0.15236224322E+04  0.15236224322E+04  0.00000000000E+00 0. -1.
          2   -1    0    0  501    0 -0.00000000000E+00 -0.00000000000E+00 -0.15791440524E+04  0.15791440524E+04  0.00000000000E+00 0. -1.
         25    1    1    2    0    0  0.65284805450E+02  0.45392847404E+02 -0.12134981413E+02  0.14864344652E+03  0.12500000000E+03 0.  0.
          2    1    1    2  501    0 -0.16299594076E+02 -0.71629743744E+02 -0.14973235906E+04  0.14991245552E+04  0.00000000000E+00 0. -1.
          2    1    1    2  502    0 -0.48985211374E+02  0.26236896340E+02  0.14539369518E+04  0.14549984830E+04  0.00000000000E+00 0. -1.
<mgrwt>
<rscale>  0 0.63809810E+02</rscale>
<asrwt>0</asrwt>
<pdfrwt beam="1">  1        2 0.23440345E+00 0.55569107E+02</pdfrwt>
<pdfrwt beam="2">  1        2 0.24294524E+00 0.73272581E+02</pdfrwt>
<totfact> 0.32664227E+01</totfact>
</mgrwt>
</event>
<event>
 5    1  0.4149151E-003  0.1323535E+03  0.7546771E-02  0.1336014E+00
          2   -1    0    0  501    0  0.00000000000E+00  0.00000000000E+00  0.13800083222E+04  0.13800083222E+04  0.00000000000E+00 0. -1.
          1   -1    0    0  502    0 -0.00000000000E+00 -0.00000000000E+00 -0.85726067171E+03  0.85726067171E+03  0.00000000000E+00 0. -1.
         25    1    1    2    0    0  0.63884318140E+02  0.87612719091E+02  0.42623903492E+03  0.45723288327E+03  0.12500000000E+03 0.  0.
          2    1    1    2  501    0 -0.23671317412E+02  0.38850059263E+02  0.93248430155E+03  0.93359339705E+03  0.00000000000E+00 0. -1.
          1    1    1    2  502    0 -0.40213000728E+02 -0.12646277835E+03 -0.83597568602E+03  0.84644271356E+03  0.00000000000E+00 0. -1.
<mgrwt>
<rscale>  0 0.77596536E+02</rscale>
<asrwt>0</asrwt>
<pdfrwt beam="1">  1        2 0.21230897E+00 0.45493498E+02</pdfrwt>
<pdfrwt beam="2">  1        1 0.13188626E+00 0.13235347E+03</pdfrwt>
<totfact> 0.53427543E+01</totfact>
</mgrwt>
</event>
<event>
 5    1  0.4149151E-003  0.7482429E+02  0.7546771E-02  0.1401786E+00
          2   -1    0    0  502    0  0.00000000000E+00  0.00000000000E+00  0.31393517316E+02  0.31393517316E+02  0.00000000000E+00 0. -1.
         -1   -1    0    0    0  501 -0.00000000000E+00 -0.00000000000E+00 -0.59863809629E+03  0.59863809629E+03  0.00000000000E+00 0.  1.
         25    1    1    2    0    0  0.55546488776E+02 -0.71908743840E+02 -0.34847931474E+03  0.38120744045E+03  0.12500000000E+03 0.  0.
          2    1    1    2  502    0 -0.89225982944E+01  0.71202547959E+02 -0.13896955721E+03  0.15640317588E+03  0.00000000000E+00 0. -1.
         -1    1    1    2    0  501 -0.46623890481E+02  0.70619588104E+00 -0.79795707031E+02  0.92420997272E+02  0.00000000000E+00 0.  1.
<mgrwt>
<rscale>  0 0.59067753E+02</rscale>
<asrwt>0</asrwt>
<pdfrwt beam="1">  1        2 0.48297725E-02 0.74824287E+02</pdfrwt>
<pdfrwt beam="2">  1       -1 0.92098158E-01 0.46629238E+02</pdfrwt>
<totfact> 0.21689960E+03</totfact>
</mgrwt>
</event>
<event>
 5    1  0.4149151E-003  0.1966973E+03  0.7546771E-02  0.1248311E+00
          1   -1    0    0  502    0 -0.00000000000E+00  0.00000000000E+00  0.29928347270E+04  0.29928347270E+04  0.00000000000E+00 0. -1.
          2   -1    0    0  501    0  0.00000000000E+00 -0.00000000000E+00 -0.80671101941E+02  0.80671101941E+02  0.00000000000E+00 0. -1.
         25    1    1    2    0    0 -0.16626880789E+03  0.32634684970E+02  0.24632256513E+03  0.32405268898E+03  0.12500000000E+03 0.  0.
          2    1    1    2  501    0  0.22869986722E+03 -0.21681864302E+01  0.27532372635E+03  0.35792664694E+03  0.00000000000E+00 0. -1.
          1    1    1    2  502    0 -0.62431059335E+02 -0.30466498540E+02  0.23905173336E+04  0.23915264931E+04  0.00000000000E+00 0. -1.
<mgrwt>
<rscale>  0 0.11689407E+03</rscale>
<asrwt>0</asrwt>
<pdfrwt beam="2">  1        2 0.12410941E-01 0.19669725E+03</pdfrwt>
<pdfrwt beam="1">  1        1 0.46043603E+00 0.69468300E+02</pdfrwt>
<totfact> 0.60171969E+01</totfact>
</mgrwt>
</event>
<event>
 5    1  0.4149151E-003  0.1419974E+03  0.7546771E-02  0.1312679E+00
         -3   -1    0    0    0  501 -0.00000000000E+00  0.00000000000E+00  0.14059611976E+03  0.14059611976E+03  0.00000000000E+00 0.  1.
          1   -1    0    0  502    0  0.00000000000E+00 -0.00000000000E+00 -0.13430584789E+04  0.13430584789E+04  0.00000000000E+00 0.  1.
         25    1    1    2    0    0  0.78868373473E+02 -0.15703781158E+03 -0.79086753260E+02  0.22969721187E+03  0.12500000000E+03 0.  0.
          1    1    1    2  502    0 -0.91547724231E+02  0.10644207229E+03 -0.11733506923E+04  0.11817202493E+04  0.00000000000E+00 0.  1.
         -3    1    1    2    0  501  0.12679350758E+02  0.50595739295E+02  0.49975086398E+02  0.72237137478E+02  0.00000000000E+00 0.  1.
<mgrwt>
<rscale>  0 0.86061752E+02</rscale>
<asrwt>0</asrwt>
<pdfrwt beam="2">  1        1 0.20662439E+00 0.14199742E+03</pdfrwt>
<pdfrwt beam="1">  1       -3 0.21630172E-01 0.52160280E+02</pdfrwt>
<totfact> 0.90814918E+01</totfact>
</mgrwt>
</event>
<event>
 5    1  0.4149151E-003  0.8624145E+02  0.7546771E-02  0.1349866E+00
         -1   -1    0    0    0  501 -0.00000000000E+00  0.00000000000E+00  0.19295638114E+03  0.19295638114E+03  0.00000000000E+00 0.  1.
          2   -1    0    0  502    0  0.00000000000E+00 -0.00000000000E+00 -0.35187318719E+03  0.35187318719E+03  0.00000000000E+00 0.  1.
         25    1    1    2    0    0 -0.63224476430E+02  0.45300448540E+02 -0.61196528633E+01  0.14734963593E+03  0.12500000000E+03 0.  0.
          2    1    1    2  502    0  0.88447279677E+02  0.11289857214E+02 -0.25933558954E+03  0.27423590239E+03  0.00000000000E+00 0.  1.
         -1    1    1    2    0  501 -0.25222803247E+02 -0.56590305754E+02  0.10653843637E+03  0.12324403001E+03  0.00000000000E+00 0.  1.
<mgrwt>
<rscale>  0 0.73097534E+02</rscale>
<asrwt>0</asrwt>
<pdfrwt beam="2">  1        2 0.54134337E-01 0.86241449E+02</pdfrwt>
<pdfrwt beam="1">  1       -1 0.29685597E-01 0.61956860E+02</pdfrwt>
<totfact> 0.10661493E+03</totfact>
</mgrwt>
</event>
<event>
 5    1  0.4149151E-003  0.5776421E+02  0.7546771E-02  0.1494320E+00
          2   -1    0    0  502    0  0.00000000000E+00  0.00000000000E+00  0.11062071402E+04  0.11062071402E+04  0.00000000000E+00 0.  1.
         -1   -1    0    0    0  501 -0.00000000000E+00 -0.00000000000E+00 -0.30890248888E+03  0.30890248888E+03  0.00000000000E+00 0.  1.
         25    1    1    2    0    0  0.73409088490E+01 -0.27863908991E+02  0.67791762566E+02  0.14508966000E+03  0.12500000000E+03 0.  0.
          2    1    1    2  502    0  0.15990551908E+02 -0.25934547941E+02  0.99634988464E+03  0.99681562545E+03  0.00000000000E+00 0.  1.
         -1    1    1    2    0  501 -0.23331460757E+02  0.53798456932E+02 -0.26683699586E+03  0.27320434365E+03  0.00000000000E+00 0.  1.
<mgrwt>
<rscale>  0 0.41951871E+02</rscale>
<asrwt>0</asrwt>
<pdfrwt beam="1">  1        2 0.17018571E+00 0.30467992E+02</pdfrwt>
<pdfrwt beam="2">  1       -1 0.47523460E-01 0.57764210E+02</pdfrwt>
<totfact> 0.13483585E+02</totfact>
</mgrwt>
</event>
<event>
 5    1  0.4149151E-003  0.1092994E+03  0.7546771E-02  0.1288523E+00
         -1   -1    0    0    0  501 -0.00000000000E+00  0.00000000000E+00  0.62898639823E+03  0.62898639823E+03  0.00000000000E+00 0.  1.
          1   -1    0    0  502    0  0.00000000000E+00 -0.00000000000E+00 -0.18299735981E+04  0.18299735981E+04  0.00000000000E+00 0. -1.
         25    1    1    2    0    0  0.12279718185E+03 -0.75020291572E+02 -0.44436782756E+02  0.19572128060E+03  0.12500000000E+03 0.  0.
          1    1    1    2  502    0 -0.10878536568E+03 -0.84611800451E+01 -0.17049029343E+04  0.17083910157E+04  0.00000000000E+00 0. -1.
         -1    1    1    2    0  501 -0.14011816163E+02  0.83481471617E+02  0.54835251717E+03  0.55484769999E+03  0.00000000000E+00 0.  1.
<mgrwt>
<rscale>  0 0.96187862E+02</rscale>
<asrwt>0</asrwt>
<pdfrwt beam="2">  1        1 0.28153440E+00 0.10929938E+03</pdfrwt>
<pdfrwt beam="1">  1       -1 0.96767138E-01 0.84649200E+02</pdfrwt>
<totfact> 0.55538333E+00</totfact>
</mgrwt>
</event>
<event>
 5    1  0.4149151E-003  0.2380679E+03  0.7546771E-02  0.1266093E+00
         -1   -1    0    0    0  501 -0.00000000000E+00  0.00000000000E+00  0.52106207168E+03  0.52106207168E+03  0.00000000000E+00 0.  1.
          2   -1    0    0  502    0  0.00000000000E+00 -0.00000000000E+00 -0.23307964262E+03  0.23307964262E+03  0.00000000000E+00 0. -1.
         25    1    1    2    0    0  0.17064595857E+03 -0.18260927954E+03  0.32270402616E+03  0.42688298239E+03  0.12500000000E+03 0.  0.
          2    1    1    2  502    0 -0.48152760372E+02 -0.42269857076E+00 -0.88317061711E+02  0.10059209907E+03  0.00000000000E+00 0. -1.
         -1    1    1    2    0  501 -0.12249319820E+03  0.18303197811E+03  0.53595464603E+02  0.22666663284E+03  0.00000000000E+00 0.  1.
<mgrwt>
<rscale>  0 0.10707040E+03</rscale>
<asrwt>0</asrwt>
<pdfrwt beam="2">  1        2 0.35858407E-01 0.48154616E+02</pdfrwt>
<pdfrwt beam="1">  1       -1 0.80163395E-01 0.23806795E+03</pdfrwt>
<totfact> 0.26218513E+02</totfact>
</mgrwt>
</event>
<event>
 5    1  0.4149151E-003  0.5370645E+02  0.7546771E-02  0.1456422E+00
          2   -1    0    0  502    0  0.00000000000E+00  0.00000000000E+00  0.18796047131E+04  0.18796047131E+04  0.00000000000E+00 0. -1.
          2   -1    0    0  501    0 -0.00000000000E+00 -0.00000000000E+00 -0.27157962860E+03  0.27157962860E+03  0.00000000000E+00 0.  1.
         25    1    1    2    0    0  0.43807288594E+02  0.19629090806E+02  0.22542139115E+01  0.13391960730E+03  0.12500000000E+03 0.  0.
          2    1    1    2  501    0 -0.28566910609E+02  0.32011750366E+02 -0.20310523446E+03  0.20758746785E+03  0.00000000000E+00 0.  1.
          2    1    1    2  502    0 -0.15240377986E+02 -0.51640841172E+02  0.18088761051E+04  0.18096772666E+04  0.00000000000E+00 0. -1.
<mgrwt>
<rscale>  0 0.48002748E+02</rscale>
<asrwt>0</asrwt>
<pdfrwt beam="1">  1        2 0.28916995E+00 0.53706453E+02</pdfrwt>
<pdfrwt beam="2">  1        2 0.41781483E-01 0.42904785E+02</pdfrwt>
<totfact> 0.18808992E+02</totfact>
</mgrwt>
</event>
<event>
 5    1  0.4149151E-003  0.2316009E+02  0.7546771E-02  0.1693672E+00
          1   -1    0    0  501    0  0.00000000000E+00  0.00000000000E+00  0.11249132536E+04  0.11249132536E+04  0.00000000000E+00 0. -1.
          1   -1    0    0  502    0 -0.00000000000E+00 -0.00000000000E+00 -0.52333432999E+02  0.52333432999E+02  0.00000000000E+00 0. -1.
         25    1    1    2    0    0 -0.41594693893E+02  0.18388817936E+02  0.25122700706E+03  0.28426796559E+03  0.12500000000E+03 0.  0.
          1    1    1    2  501    0  0.21408054022E+02 -0.82761940880E+01  0.85343755289E+03  0.85374613138E+03  0.00000000000E+00 0. -1.
          1    1    1    2  502    0  0.20186639871E+02 -0.10112623848E+02 -0.32084739345E+02  0.39232589632E+02  0.00000000000E+00 0. -1.
<mgrwt>
<rscale>  0 0.22867190E+02</rscale>
<asrwt>0</asrwt>
<pdfrwt beam="1">  1        1 0.17306356E+00 0.23160095E+02</pdfrwt>
<pdfrwt beam="2">  1        1 0.80512983E-02 0.22577989E+02</pdfrwt>
<totfact> 0.13149047E+03</totfact>
</mgrwt>
</event>
<event>
 5    1  0.4149151E-003  0.5547626E+02  0.7546771E-02  0.1459569E+00
          1   -1    0    0  502    0  0.00000000000E+00  0.00000000000E+00  0.29851152225E+02  0.29851152225E+02  0.00000000000E+00 0. -1.
         -2   -1    0    0    0  501 -0.00000000000E+00 -0.00000000000E+00 -0.56130811007E+03  0.56130811007E+03  0.00000000000E+00 0.  1.
         25    1    1    2    0    0  0.44788168859E+02 -0.62438122702E+02 -0.25034018212E+03  0.29017185601E+03  0.12500000000E+03 0.  0.
          1    1    1    2  502    0 -0.59288919066E+01  0.50695816484E+02 -0.73783823607E+02  0.89717725084E+02  0.00000000000E+00 0. -1.
         -2    1    1    2    0  501 -0.38859276952E+02  0.11742306219E+02 -0.20733295212E+03  0.21126968121E+03  0.00000000000E+00 0.  1.
<mgrwt>
<rscale>  0 0.47455652E+02</rscale>
<asrwt>0</asrwt>
<pdfrwt beam="1">  1        1 0.45924846E-02 0.55476257E+02</pdfrwt>
<pdfrwt beam="2">  1       -2 0.86355100E-01 0.40594644E+02</pdfrwt>
<totfact> 0.17786078E+03</totfact>
</mgrwt>
</event>
<event>
 5    1  0.4149151E-003  0.7404492E+02  0.7546771E-02  0.1500139E+00
          1   -1    0    0  501    0  0.00000000000E+00  0.00000000000E+00  0.20555437671E+03  0.20555437671E+03  0.00000000000E+00 0. -1.
          1   -1    0    0  502    0 -0.00000000000E+00 -0.00000000000E+00 -0.42889156954E+03  0.42889156954E+03  0.00000000000E+00 0. -1.
         25    1    1    2    0    0 -0.58708456793E+02 -0.11702873233E+02  0.13632547171E+03  0.19440492375E+03  0.12500000000E+03 0.  0.
          1    1    1    2  501    0 -0.15507009647E+02  0.16760493889E+02  0.33146647450E+02  0.40250239015E+02  0.00000000000E+00 0. -1.
          1    1    1    2  502    0  0.74215466440E+02 -0.50576206561E+01 -0.39280931198E+03  0.39979078349E+03  0.00000000000E+00 0. -1.
<mgrwt>
<rscale>  0 0.41118431E+02</rscale>
<asrwt>0</asrwt>
<pdfrwt beam="1">  1        1 0.31623751E-01 0.22833780E+02</pdfrwt>
<pdfrwt beam="2">  1        1 0.65983317E-01 0.74044918E+02</pdfrwt>
<totfact> 0.91107458E+02</totfact>
</mgrwt>
</event>
<event>
 5    1  0.4149151E-003  0.8379118E+02  0.7546771E-02  0.1493816E+00
          1   -1    0    0  502    0  0.00000000000E+00  0.00000000000E+00  0.21348810138E+04  0.21348810138E+04  0.00000000000E+00 0. -1.
         -2   -1    0    0    0  501 -0.00000000000E+00 -0.00000000000E+00 -0.10034314111E+02  0.10034314111E+02  0.00000000000E+00 0.  1.
         25    1    1    2    0    0  0.47700544507E+02 -0.63896994000E+02  0.70439324659E+03  0.71982846125E+03  0.12500000000E+03 0.  0.
          1    1    1    2  502    0  0.20618172775E+02  0.43765706718E+01  0.42352919827E+03  0.42405335184E+03  0.00000000000E+00 0. -1.
         -2    1    1    2    0  501 -0.68318717282E+02  0.59520423328E+02  0.99692425481E+03  0.10010335148E+04  0.00000000000E+00 0.  1.
<mgrwt>
<rscale>  0 0.42025151E+02</rscale>
<asrwt>0</asrwt>
<pdfrwt beam="1">  1        1 0.32844287E+00 0.21077557E+02</pdfrwt>
<pdfrwt beam="2">  1       -2 0.15437423E-02 0.83791176E+02</pdfrwt>
<totfact> 0.33361252E+03</totfact>
</mgrwt>
</event>
<event>
 5    1  0.4149151E-003  0.9715742E+02  0.7546771E-02  0.1327939E+00
          1   -1    0    0  502    0 -0.00000000000E+00  0.00000000000E+00  0.34984363644E+03  0.34984363644E+03  0.00000000000E+00 0. -1.
          2   -1    0    0  501    0  0.00000000000E+00 -0.00000000000E+00 -0.17686819365E+03  0.17686819365E+03  0.00000000000E+00 0. -1.
         25    1    1    2    0    0 -0.16980473209E+02  0.41344091345E+02 -0.14959308947E+01  0.13275883462E+03  0.12500000000E+03 0.  0.
          2    1    1    2  501    0 -0.57364357419E+02  0.33682107321E+02 -0.88412917652E+02  0.11064356223E+03  0.00000000000E+00 0. -1.
          1    1    1    2  502    0  0.74344830628E+02 -0.75026198665E+02  0.26288429134E+03  0.28330943323E+03  0.00000000000E+00 0. -1.
<mgrwt>
<rscale>  0 0.80393341E+02</rscale>
<asrwt>0</asrwt>
<pdfrwt beam="2">  1        2 0.27210491E-01 0.66521830E+02</pdfrwt>
<pdfrwt beam="1">  1        1 0.53822098E-01 0.97157418E+02</pdfrwt>
<totfact> 0.18597281E+03</totfact>
</mgrwt>
</event>
<event>
 5    1  0.4149151E-003  0.2818947E+02  0.7546771E-02  0.1639867E+00
          2   -1    0    0  501    0  0.00000000000E+00  0.00000000000E+00  0.19619151323E+04  0.19619151323E+04  0.00000000000E+00 0. -1.
          3   -1    0    0  502    0 -0.00000000000E+00 -0.00000000000E+00 -0.15029320887E+02  0.15029320887E+02  0.00000000000E+00 0. -1.
         25    1    1    2    0    0  0.26908645284E+01  0.16007920260E+02  0.33214708949E+03  0.35526072583E+03  0.12500000000E+03 0.  0.
          2    1    1    2  501    0  0.25430975264E+02 -0.12161907058E+02  0.15578720835E+04  0.15581271049E+04  0.00000000000E+00 0. -1.
          3    1    1    2  502    0 -0.28121839792E+02 -0.38460132014E+01  0.56866638359E+02  0.63556622386E+02  0.00000000000E+00 0. -1.
<mgrwt>
<rscale>  0 0.26536407E+02</rscale>
<asrwt>0</asrwt>
<pdfrwt beam="1">  1        2 0.30183289E+00 0.28189475E+02</pdfrwt>
<pdfrwt beam="2">  1        3 0.23122048E-02 0.24980278E+02</pdfrwt>
<totfact> 0.31242684E+03</totfact>
</mgrwt>
</event>
<event>
 5    1  0.4149151E-003  0.3699057E+03  0.7546771E-02  0.1169883E+00
          2   -1    0    0  501    0  0.00000000000E+00  0.00000000000E+00  0.47351490980E+03  0.47351490980E+03  0.00000000000E+00 0. -1.
          1   -1    0    0  502    0 -0.00000000000E+00 -0.00000000000E+00 -0.73008815548E+03  0.73008815548E+03  0.00000000000E+00 0. -1.
         25    1    1    2    0    0 -0.66216439292E+02  0.29138021741E+03 -0.42873877663E+03  0.53733507843E+03  0.12500000000E+03 0.  0.
          2    1    1    2  501    0  0.10015639055E+03 -0.36988395898E+03  0.31749299466E+03  0.49764168569E+03  0.00000000000E+00 0. -1.
          1    1    1    2  502    0 -0.33939951255E+02  0.78503741578E+02 -0.14532746372E+03  0.16862630116E+03  0.00000000000E+00 0. -1.
<mgrwt>
<rscale>  0 0.17786704E+03</rscale>
<asrwt>0</asrwt>
<pdfrwt beam="1">  1        2 0.72848448E-01 0.36990565E+03</pdfrwt>
<pdfrwt beam="2">  1        1 0.11232125E+00 0.85526357E+02</pdfrwt>
<totfact> 0.25094122E+02</totfact>
</mgrwt>
</event>
<event>
 5    1  0.4149151E-003  0.8524342E+02  0.7546771E-02  0.1339818E+00
         -3   -1    0    0    0  501 -0.00000000000E+00  0.00000000000E+00  0.14821227829E+03  0.14821227829E+03  0.00000000000E+00 0.  1.
          1   -1    0    0  502    0  0.00000000000E+00 -0.00000000000E+00 -0.32224534579E+04  0.32224534579E+04  0.00000000000E+00 0. -1.
         25    1    1    2    0    0  0.11533151413E+02  0.19234564167E+02 -0.16415224334E+03  0.20754262462E+03  0.12500000000E+03 0.  0.
          1    1    1    2  502    0  0.36364245054E+02  0.57860641540E+02 -0.30198914624E+04  0.30206646051E+04  0.00000000000E+00 0. -1.
         -3    1    1    2    0  501 -0.47897396466E+02 -0.77095205706E+02  0.10980252608E+03  0.14245850647E+03  0.00000000000E+00 0.  1.
<mgrwt>
<rscale>  0 0.76324610E+02</rscale>
<asrwt>0</asrwt>
<pdfrwt beam="2">  1        1 0.49576201E+00 0.68338951E+02</pdfrwt>
<pdfrwt beam="1">  1       -3 0.22801892E-01 0.85243422E+02</pdfrwt>
<totfact> 0.57987345E+00</totfact>
</mgrwt>
</event>
<event>
 5    1  0.4149151E-003  0.5950317E+02  0.7546771E-02  0.1424947E+00
         -1   -1    0    0    0  501 -0.00000000000E+00  0.00000000000E+00  0.41456223512E+02  0.41456223512E+02  0.00000000000E+00 0.  1.
          1   -1    0    0  502    0  0.00000000000E+00 -0.00000000000E+00 -0.60740421859E+03  0.60740421859E+03  0.00000000000E+00 0. -1.
         25    1    1    2    0    0  0.82967173861E+02 -0.30729623662E+02 -0.45714959084E+03  0.48211887550E+03  0.12500000000E+03 0.  0.
          1    1    1    2  502    0 -0.46719301259E+02 -0.14720603369E+02 -0.95162177442E+02  0.10702910487E+03  0.00000000000E+00 0. -1.
         -1    1    1    2    0  501 -0.36247872602E+02  0.45450227031E+02 -0.13636226803E+02  0.59712461738E+02  0.00000000000E+00 0.  1.
<mgrwt>
<rscale>  0 0.53987752E+02</rscale>
<asrwt>0</asrwt>
<pdfrwt beam="2">  1        1 0.93446797E-01 0.48983561E+02</pdfrwt>
<pdfrwt beam="1">  1       -1 0.63778810E-02 0.59503175E+02</pdfrwt>
<totfact> 0.39371339E+03</totfact>
</mgrwt>
</event>
<event>
 5    1  0.4149151E-003  0.3092908E+03  0.7546771E-02  0.1185390E+00
          2   -1    0    0  502    0  0.00000000000E+00  0.00000000000E+00  0.12723224461E+03  0.12723224461E+03  0.00000000000E+00 0. -1.
          2   -1    0    0  501    0 -0.00000000000E+00 -0.00000000000E+00 -0.25618454288E+04  0.25618454288E+04  0.00000000000E+00 0. -1.
         25    1    1    2    0    0  0.99738474673E+02  0.29243594651E+03 -0.11355918383E+04  0.11834949807E+04  0.12500000000E+03 0.  0.
          2    1    1    2  501    0 -0.16661074730E+02 -0.31413979196E+03 -0.13627903854E+04  0.13986275540E+04  0.00000000000E+00 0. -1.
          2    1    1    2  502    0 -0.83077399944E+02  0.21703845453E+02  0.63769039521E+02  0.10695513868E+03  0.00000000000E+00 0. -1.
<mgrwt>
<rscale>  0 0.16296459E+03</rscale>
<asrwt>0</asrwt>
<pdfrwt beam="1">  1        2 0.19574191E-01 0.85865658E+02</pdfrwt>
<pdfrwt beam="2">  1        2 0.39413007E+00 0.30929080E+03</pdfrwt>
<totfact> 0.15494611E+02</totfact>
</mgrwt>
</event>
<event>
 5    1  0.4149151E-003  0.3021612E+03  0.7546771E-02  0.1177609E+00
          1   -1    0    0  502    0  0.00000000000E+00  0.00000000000E+00  0.23671123859E+04  0.23671123859E+04  0.00000000000E+00 0. -1.
          1   -1    0    0  501    0 -0.00000000000E+00 -0.00000000000E+00 -0.11652806317E+04  0.11652806317E+04  0.00000000000E+00 0. -1.
         25    1    1    2    0    0  0.28347798760E+03 -0.57159824473E+02  0.11900657026E+03  0.33677081043E+03  0.12500000000E+03 0.  0.
          1    1    1    2  501    0 -0.30248054911E+03 -0.36841179550E+02 -0.10333162358E+04  0.10773087757E+04  0.00000000000E+00 0. -1.
          1    1    1    2  502    0  0.19002561502E+02  0.94001004023E+02  0.21161414197E+04  0.21183134315E+04  0.00000000000E+00 0. -1.
<mgrwt>
<rscale>  0 0.17022929E+03</rscale>
<asrwt>0</asrwt>
<pdfrwt beam="1">  1        1 0.36417113E+00 0.95902482E+02</pdfrwt>
<pdfrwt beam="2">  1        1 0.17927394E+00 0.30216123E+03</pdfrwt>
<totfact> 0.32580536E+00</totfact>
</mgrwt>
</event>
<event>
 5    1  0.4149151E-003  0.7160666E+02  0.7546771E-02  0.1424515E+00
         -1   -1    0    0    0  501 -0.00000000000E+00  0.00000000000E+00  0.10252001039E+02  0.10252001039E+02  0.00000000000E+00 0.  1.
          2   -1    0    0  502    0  0.00000000000E+00 -0.00000000000E+00 -0.21698638404E+04  0.21698638404E+04  0.00000000000E+00 0. -1.
         25    1    1    2    0    0 -0.23685559277E+02 -0.96775796051E+02 -0.89455913232E+03  0.90872856323E+03  0.12500000000E+03 0.  0.
          2    1    1    2  502    0 -0.12189940742E+01  0.40820474505E+02 -0.92241250641E+03  0.92331610462E+03  0.00000000000E+00 0. -1.
         -1    1    1    2    0  501  0.24904553351E+02  0.55955321546E+02 -0.34264020064E+03  0.34807117359E+03  0.00000000000E+00 0.  1.
<mgrwt>
<rscale>  0 0.54076989E+02</rscale>
<asrwt>0</asrwt>
<pdfrwt beam="2">  1        2 0.33382524E+00 0.40838671E+02</pdfrwt>
<pdfrwt beam="1">  1       -1 0.15772308E-02 0.71606657E+02</pdfrwt>
<totfact> 0.70036143E+03</totfact>
</mgrwt>
</event>
<event>
 5    1  0.4149151E-003  0.4584093E+02  0.7546771E-02  0.1538893E+00
          1   -1    0    0  502    0  0.00000000000E+00  0.00000000000E+00  0.26875689290E+04  0.26875689290E+04  0.00000000000E+00 0. -1.
          1   -1    0    0  501    0 -0.00000000000E+00 -0.00000000000E+00 -0.92243099752E+01  0.92243099752E+01  0.00000000000E+00 0. -1.
         25    1    1    2    0    0  0.25993077406E+02 -0.67351505272E+02  0.91112749938E+03  0.92249129289E+03  0.12500000000E+03 0.  0.
          1    1    1    2  501    0 -0.14921592525E+02  0.24231019098E+02  0.58993614736E+02  0.65498418223E+02  0.00000000000E+00 0. -1.
          1    1    1    2  502    0 -0.11071484881E+02  0.43120486173E+02  0.17082235049E+04  0.17088035279E+04  0.00000000000E+00 0. -1.
<mgrwt>
<rscale>  0 0.36117747E+02</rscale>
<asrwt>0</asrwt>
<pdfrwt beam="1">  1        1 0.41347152E+00 0.45840931E+02</pdfrwt>
<pdfrwt beam="2">  1        1 0.14191268E-02 0.28456918E+02</pdfrwt>
<totfact> 0.13099446E+03</totfact>
</mgrwt>
</event>
<event>
 5    1  0.4149151E-003  0.4287270E+02  0.7546771E-02  0.1555286E+00
          2   -1    0    0  501    0  0.00000000000E+00  0.00000000000E+00  0.65338936040E+02  0.65338936040E+02  0.00000000000E+00 0. -1.
          1   -1    0    0  502    0 -0.00000000000E+00 -0.00000000000E+00 -0.56303263806E+03  0.56303263806E+03  0.00000000000E+00 0. -1.
         25    1    1    2    0    0 -0.16247373454E+02 -0.28098958551E+02 -0.27687755981E+03  0.30551548527E+03  0.12500000000E+03 0.  0.
          2    1    1    2  501    0 -0.67787577342E+01  0.42904011668E+02  0.40930040082E+02  0.59682275047E+02  0.00000000000E+00 0. -1.
          1    1    1    2  502    0  0.23026131188E+02 -0.14805053117E+02 -0.26174618229E+03  0.26317381378E+03  0.00000000000E+00 0. -1.
<mgrwt>
<rscale>  0 0.34258450E+02</rscale>
<asrwt>0</asrwt>
<pdfrwt beam="1">  1        2 0.10052144E-01 0.42872696E+02</pdfrwt>
<pdfrwt beam="2">  1        1 0.86620407E-01 0.27375031E+02</pdfrwt>
<totfact> 0.31539490E+03</totfact>
</mgrwt>
</event>
<event>
 5    1  0.4149151E-003  0.6642880E+02  0.7546771E-02  0.1393780E+00
          1   -1    0    0  502    0  0.00000000000E+00  0.00000000000E+00  0.95614231254E+02  0.95614231254E+02  0.00000000000E+00 0. -1.
         -1   -1    0    0    0  501 -0.00000000000E+00 -0.00000000000E+00 -0.74049007347E+03  0.74049007347E+03  0.00000000000E+00 0.  1.
         25    1    1    2    0    0 -0.81204686196E+01  0.23112483185E+02 -0.27862791545E+03  0.30636358164E+03  0.12500000000E+03 0.  0.
          1    1    1    2  502    0  0.15516665895E+02  0.53777616937E+02  0.68343313701E+02  0.88338029928E+02  0.00000000000E+00 0. -1.
         -1    1    1    2    0  501 -0.73961972749E+01 -0.76890100122E+02 -0.43459124047E+03  0.44140269315E+03  0.00000000000E+00 0.  1.
<mgrwt>
<rscale>  0 0.60976339E+02</rscale>
<asrwt>0</asrwt>
<pdfrwt beam="1">  1        1 0.14709882E-01 0.55971412E+02</pdfrwt>
<pdfrwt beam="2">  1       -1 0.11392155E+00 0.66428802E+02</pdfrwt>
<totfact> 0.28665430E+02</totfact>
</mgrwt>
</event>
<event>
 5    1  0.4149151E-003  0.1774585E+03  0.7546771E-02  0.1238660E+00
         -1   -1    0    0    0  501 -0.00000000000E+00  0.00000000000E+00  0.25771889228E+03  0.25771889228E+03  0.00000000000E+00 0.  1.
          2   -1    0    0  502    0  0.00000000000E+00 -0.00000000000E+00 -0.10459580714E+04  0.10459580714E+04  0.00000000000E+00 0. -1.
         25    1    1    2    0    0 -0.10730124321E+03 -0.12019160711E+03 -0.11912172099E+03  0.23616638970E+03  0.12500000000E+03 0.  0.
          2    1    1    2  502    0 -0.65536328770E+02  0.53940943866E+02 -0.82265354424E+03  0.82702085201E+03  0.00000000000E+00 0. -1.
         -1    1    1    2    0  501  0.17283757198E+03  0.66250663242E+02  0.15353608607E+03  0.24048972201E+03  0.00000000000E+00 0.  1.
<mgrwt>
<rscale>  0 0.12273018E+03</rscale>
<asrwt>0</asrwt>
<pdfrwt beam="2">  1        2 0.16091662E+00 0.84880126E+02</pdfrwt>
<pdfrwt beam="1">  1       -1 0.39649061E-01 0.17745847E+03</pdfrwt>
<totfact> 0.18880893E+02</totfact>
</mgrwt>
</event>
<event>
 5    1  0.4149151E-003  0.7070983E+02  0.7546771E-02  0.1374545E+00
          1   -1    0    0  501    0  0.00000000000E+00  0.00000000000E+00  0.15512180931E+04  0.15512180931E+04  0.00000000000E+00 0. -1.
          3   -1    0    0  502    0 -0.00000000000E+00 -0.00000000000E+00 -0.40111484493E+03  0.40111484493E+03  0.00000000000E+00 0. -1.
         25    1    1    2    0    0 -0.48725898962E+02 -0.11979455297E+03  0.12390390768E+03  0.21840816489E+03  0.12500000000E+03 0.  0.
          1    1    1    2  501    0  0.32523226220E+02  0.52142594732E+02  0.13759506568E+04  0.13773223372E+04  0.00000000000E+00 0. -1.
          3    1    1    2  502    0  0.16202672742E+02  0.67651958243E+02 -0.34975131634E+03  0.35660243597E+03  0.00000000000E+00 0. -1.
<mgrwt>
<rscale>  0 0.65919732E+02</rscale>
<asrwt>0</asrwt>
<pdfrwt beam="1">  1        1 0.23864893E+00 0.61454133E+02</pdfrwt>
<pdfrwt beam="2">  1        3 0.61709977E-01 0.70709827E+02</pdfrwt>
<totfact> 0.10397056E+01</totfact>
</mgrwt>
</event>
<event>
 5    1  0.4149151E-003  0.1743493E+03  0.7546771E-02  0.1341471E+00
          1   -1    0    0  501    0  0.00000000000E+00  0.00000000000E+00  0.10900627761E+04  0.10900627761E+04  0.00000000000E+00 0. -1.
          1   -1    0    0  502    0 -0.00000000000E+00 -0.00000000000E+00 -0.87499688398E+03  0.87499688398E+03  0.00000000000E+00 0.  1.
         25    1    1    2    0    0 -0.59441414984E+02 -0.14626376950E+03 -0.32302510704E+03  0.38065284954E+03  0.12500000000E+03 0.  0.
          1    1    1    2  501    0  0.92312535978E+02  0.14835668949E+03  0.10535273694E+04  0.10679191120E+04  0.00000000000E+00 0. -1.
          1    1    1    2  502    0 -0.32871120994E+02 -0.20929199943E+01 -0.51543637029E+03  0.51648769852E+03  0.00000000000E+00 0.  1.
<mgrwt>
<rscale>  0 0.75780346E+02</rscale>
<asrwt>0</asrwt>
<pdfrwt beam="1">  1        1 0.16770197E+00 0.17434927E+03</pdfrwt>
<pdfrwt beam="2">  1        1 0.13461490E+00 0.32937682E+02</pdfrwt>
<totfact> 0.38458096E+01</totfact>
</mgrwt>
</event>
<event>
 5    1  0.4149151E-003  0.2062122E+03  0.7546771E-02  0.1288818E+00
         -1   -1    0    0    0  501 -0.00000000000E+00  0.00000000000E+00  0.10096580248E+04  0.10096580248E+04  0.00000000000E+00 0.  1.
          1   -1    0    0  502    0  0.00000000000E+00 -0.00000000000E+00 -0.31063025050E+03  0.31063025050E+03  0.00000000000E+00 0. -1.
         25    1    1    2    0    0  0.14443773410E+02  0.16518169007E+03  0.42763242309E+03  0.47538205961E+03  0.12500000000E+03 0.  0.
          1    1    1    2  502    0 -0.83158355715E+01 -0.20950307431E+03 -0.24733730773E+03  0.32424749045E+03  0.00000000000E+00 0. -1.
         -1    1    1    2    0  501 -0.61279378385E+01  0.44321384239E+02  0.51873265895E+03  0.52065872526E+03  0.00000000000E+00 0.  1.
<mgrwt>
<rscale>  0 0.96054951E+02</rscale>
<asrwt>0</asrwt>
<pdfrwt beam="2">  1        1 0.47789270E-01 0.20621219E+03</pdfrwt>
<pdfrwt beam="1">  1       -1 0.15533200E+00 0.44743008E+02</pdfrwt>
<totfact> 0.33072989E+01</totfact>
</mgrwt>
</event>
<event>
 5    1  0.4149151E-003  0.8809459E+02  0.7546771E-02  0.1366411E+00
          2   -1    0    0  502    0  0.00000000000E+00  0.00000000000E+00  0.10467848086E+04  0.10467848086E+04  0.00000000000E+00 0. -1.
          2   -1    0    0  501    0 -0.00000000000E+00 -0.00000000000E+00 -0.30586301222E+03  0.30586301222E+03  0.00000000000E+00 0. -1.
         25    1    1    2    0    0  0.94677040514E+02 -0.40802166728E+02  0.27967999016E+03  0.32322508521E+03  0.12500000000E+03 0.  0.
          2    1    1    2  501    0 -0.75848197672E+01  0.52211772525E+02 -0.27902183688E+03  0.28396616724E+03  0.00000000000E+00 0. -1.
          2    1    1    2  502    0 -0.87092220747E+02 -0.11409605797E+02  0.74026364315E+03  0.74545656841E+03  0.00000000000E+00 0. -1.
<mgrwt>
<rscale>  0 0.68175177E+02</rscale>
<asrwt>0</asrwt>
<pdfrwt beam="1">  1        2 0.16104381E+00 0.88094589E+02</pdfrwt>
<pdfrwt beam="2">  1        2 0.47055849E-01 0.52759821E+02</pdfrwt>
<totfact> 0.43000259E+02</totfact>
</mgrwt>
</event>
<event>
 5    1  0.4149151E-003  0.1411973E+03  0.7546771E-02  0.1326556E+00
          1   -1    0    0  502    0 -0.00000000000E+00  0.00000000000E+00  0.10064065900E+03  0.10064065900E+03  0.00000000000E+00 0. -1.
          2   -1    0    0  501    0  0.00000000000E+00 -0.00000000000E+00 -0.91705238838E+03  0.91705238838E+03  0.00000000000E+00 0.  1.
         25    1    1    2    0    0  0.94620750016E+02 -0.44178756479E+02 -0.46172706744E+03  0.48961386179E+03  0.12500000000E+03 0.  0.
          2    1    1    2  501    0  0.46112455169E+02  0.45474404546E+01 -0.37729901254E+03  0.38013363782E+03  0.00000000000E+00 0.  1.
          1    1    1    2  502    0 -0.14073320518E+03  0.39631316025E+02  0.22614350605E+02  0.14794554777E+03  0.00000000000E+00 0. -1.
<mgrwt>
<rscale>  0 0.80885957E+02</rscale>
<asrwt>0</asrwt>
<pdfrwt beam="2">  1        2 0.14108499E+00 0.46336139E+02</pdfrwt>
<pdfrwt beam="1">  1        1 0.15483178E-01 0.14119731E+03</pdfrwt>
<totfact> 0.15165364E+03</totfact>
</mgrwt>
</event>
<event>
 5    1  0.4149151E-003  0.6001821E+02  0.7546771E-02  0.1440399E+00
          1   -1    0    0  502    0 -0.00000000000E+00  0.00000000000E+00  0.26039144467E+03  0.26039144467E+03  0.00000000000E+00 0. -1.
          2   -1    0    0  501    0  0.00000000000E+00 -0.00000000000E+00 -0.23477328645E+03  0.23477328645E+03  0.00000000000E+00 0. -1.
         25    1    1    2    0    0  0.25090157553E+02  0.71447512845E+02 -0.57700374075E+02  0.15712605216E+03  0.12500000000E+03 0.  0.
          2    1    1    2  501    0 -0.40988593468E+02 -0.13690964048E+02 -0.11922858342E+03  0.12681862006E+03  0.00000000000E+00 0. -1.
          1    1    1    2  502    0  0.15898435915E+02 -0.57756548797E+02  0.20254711572E+03  0.21122005890E+03  0.00000000000E+00 0. -1.
<mgrwt>
<rscale>  0 0.50928058E+02</rscale>
<asrwt>0</asrwt>
<pdfrwt beam="2">  1        2 0.36118967E-01 0.43214665E+02</pdfrwt>
<pdfrwt beam="1">  1        1 0.40060222E-01 0.60018215E+02</pdfrwt>
<totfact> 0.19558090E+03</totfact>
</mgrwt>
</event>
<event>
 5    1  0.4149151E-003  0.1097857E+03  0.7546771E-02  0.1425948E+00
         -1   -1    0    0    0  501 -0.00000000000E+00  0.00000000000E+00  0.12528074317E+02  0.12528074317E+02  0.00000000000E+00 0.  1.
          2   -1    0    0  502    0  0.00000000000E+00 -0.00000000000E+00 -0.27149527562E+04  0.27149527562E+04  0.00000000000E+00 0. -1.
         25    1    1    2    0    0 -0.86470415714E+01 -0.12071730812E+03 -0.21481492089E+04  0.21551838584E+04  0.12500000000E+03 0.  0.
          2    1    1    2  502    0 -0.36465805268E+00  0.95959513444E+02 -0.52144849865E+03  0.53020458121E+03  0.00000000000E+00 0. -1.
         -1    1    1    2    0  501  0.90116996241E+01  0.24757794680E+02 -0.32826974306E+02  0.42092390876E+02  0.00000000000E+00 0.  1.
<mgrwt>
<rscale>  0 0.53782081E+02</rscale>
<asrwt>0</asrwt>
<pdfrwt beam="2">  1        2 0.41768505E+00 0.10978568E+03</pdfrwt>
<pdfrwt beam="1">  1       -1 0.19273960E-02 0.26346900E+02</pdfrwt>
<totfact> 0.20450827E+03</totfact>
</mgrwt>
</event>
<event>
 5    1  0.4149151E-003  0.6014906E+02  0.7546771E-02  0.1472959E+00
          2   -1    0    0  502    0  0.00000000000E+00  0.00000000000E+00  0.44740508511E+02  0.44740508511E+02  0.00000000000E+00 0. -1.
          2   -1    0    0  501    0 -0.00000000000E+00 -0.00000000000E+00 -0.31825404624E+04  0.31825404624E+04  0.00000000000E+00 0. -1.
         25    1    1    2    0    0 -0.54354623861E+01 -0.90176072104E+02 -0.13819770050E+04  0.13905562594E+04  0.12500000000E+03 0.  0.
          2    1    1    2  501    0  0.13806508602E+02  0.31070140204E+02 -0.17739977402E+04  0.17743235206E+04  0.00000000000E+00 0. -1.
          2    1    1    2  502    0 -0.83710462155E+01  0.59105931899E+02  0.18174791276E+02  0.62401191001E+02  0.00000000000E+00 0. -1.
<mgrwt>
<rscale>  0 0.45222167E+02</rscale>
<asrwt>0</asrwt>
<pdfrwt beam="1">  1        2 0.68831535E-02 0.60149060E+02</pdfrwt>
<pdfrwt beam="2">  1        2 0.48962173E+00 0.33999607E+02</pdfrwt>
<totfact> 0.33075941E+02</totfact>
</mgrwt>
</event>
<event>
 5    1  0.4149151E-003  0.6515171E+02  0.7546771E-02  0.1471134E+00
         -2   -1    0    0    0  501 -0.00000000000E+00  0.00000000000E+00  0.94933912955E+02  0.94933912955E+02  0.00000000000E+00 0.  1.
          1   -1    0    0  502    0  0.00000000000E+00 -0.00000000000E+00 -0.15358549281E+03  0.15358549281E+03  0.00000000000E+00 0. -1.
         25    1    1    2    0    0 -0.20769652199E+02 -0.57887756902E+02 -0.25349987979E+02  0.14159799696E+03  0.12500000000E+03 0.  0.
          1    1    1    2  502    0  0.50445545496E+02  0.46458186977E+02 -0.30314554513E+02  0.74980586906E+02  0.00000000000E+00 0. -1.
         -2    1    1    2    0  501 -0.29675893297E+02  0.11429569925E+02 -0.29870373631E+01  0.31940821903E+02  0.00000000000E+00 0.  1.
<mgrwt>
<rscale>  0 0.45517903E+02</rscale>
<asrwt>0</asrwt>
<pdfrwt beam="2">  1        1 0.23628537E-01 0.65151714E+02</pdfrwt>
<pdfrwt beam="1">  1       -2 0.14605217E-01 0.31800845E+02</pdfrwt>
<totfact> 0.55165641E+03</totfact>
</mgrwt>
</event>
<event>
 5    1  0.4149151E-003  0.9755837E+02  0.7546771E-02  0.1365697E+00
          1   -1    0    0  502    0 -0.00000000000E+00  0.00000000000E+00  0.77372735101E+03  0.77372735101E+03  0.00000000000E+00 0. -1.
          2   -1    0    0  501    0  0.00000000000E+00 -0.00000000000E+00 -0.11377505324E+04  0.11377505324E+04  0.00000000000E+00 0.  1.
         25    1    1    2    0    0 -0.11919447528E+03  0.80749566964E+02 -0.44620018655E+02  0.19581563157E+03  0.12500000000E+03 0.  0.
          2    1    1    2  501    0  0.37384011855E+02 -0.29988725518E+02 -0.10136443902E+04  0.10147767428E+04  0.00000000000E+00 0.  1.
          1    1    1    2  502    0  0.81810463426E+02 -0.50760841446E+02  0.69424122743E+03  0.70088550906E+03  0.00000000000E+00 0. -1.
<mgrwt>
<rscale>  0 0.68378129E+02</rscale>
<asrwt>0</asrwt>
<pdfrwt beam="2">  1        2 0.17503854E+00 0.47925859E+02</pdfrwt>
<pdfrwt beam="1">  1        1 0.11903498E+00 0.97558366E+02</pdfrwt>
<totfact> 0.84153622E+01</totfact>
</mgrwt>
</event>
<event>
 5    1  0.4149151E-003  0.1198408E+03  0.7546771E-02  0.1314865E+00
          2   -1    0    0  501    0  0.00000000000E+00  0.00000000000E+00  0.58377930506E+03  0.58377930506E+03  0.00000000000E+00 0. -1.
          1   -1    0    0  502    0 -0.00000000000E+00 -0.00000000000E+00 -0.22913730018E+03  0.22913730018E+03  0.00000000000E+00 0. -1.
         25    1    1    2    0    0  0.40314750508E+02  0.49366028548E+02 -0.40598349855E+02  0.14606679942E+03  0.12500000000E+03 0.  0.
          2    1    1    2  501    0 -0.75649550210E+02 -0.98594922854E+02  0.51652776227E+03  0.53126711027E+03  0.00000000000E+00 0. -1.
          1    1    1    2  502    0  0.35334799702E+02  0.49228894305E+02 -0.12128740753E+03  0.13558269554E+03  0.00000000000E+00 0. -1.
<mgrwt>
<rscale>  0 0.85217535E+02</rscale>
<asrwt>0</asrwt>
<pdfrwt beam="1">  1        2 0.89812200E-01 0.11984080E+03</pdfrwt>
<pdfrwt beam="2">  1        1 0.35251892E-01 0.60597295E+02</pdfrwt>
<totfact> 0.87615091E+02</totfact>
</mgrwt>
</event>
<event>
 5    1  0.4149151E-003  0.1496730E+03  0.7546771E-02  0.1338918E+00
          1   -1    0    0  501    0  0.00000000000E+00  0.00000000000E+00  0.11468955895E+04  0.11468955895E+04  0.00000000000E+00 0. -1.
          1   -1    0    0  502    0 -0.00000000000E+00 -0.00000000000E+00 -0.24189843647E+03  0.24189843647E+03  0.00000000000E+00 0. -1.
         25    1    1    2    0    0 -0.11526078254E+02  0.12721200973E+03  0.11051403670E+03  0.21012876578E+03  0.12500000000E+03 0.  0.
          1    1    1    2  501    0  0.46270019926E+02 -0.14542013922E+03  0.97859444877E+03  0.99042164092E+03  0.00000000000E+00 0. -1.
          1    1    1    2  502    0 -0.34743941672E+02  0.18208129491E+02 -0.18411133244E+03  0.18824361927E+03  0.00000000000E+00 0. -1.
<mgrwt>
<rscale>  0 0.76622915E+02</rscale>
<asrwt>0</asrwt>
<pdfrwt beam="1">  1        1 0.17644547E+00 0.14967303E+03</pdfrwt>
<pdfrwt beam="2">  1        1 0.37215145E-01 0.39225979E+02</pdfrwt>
<totfact> 0.17675048E+02</totfact>
</mgrwt>
</event>
<event>
 5    1  0.4149151E-003  0.1904758E+03  0.7546771E-02  0.1286361E+00
          1   -1    0    0  502    0  0.00000000000E+00  0.00000000000E+00  0.77050403650E+03  0.77050403650E+03  0.00000000000E+00 0. -1.
          1   -1    0    0  501    0 -0.00000000000E+00 -0.00000000000E+00 -0.10881219112E+04  0.10881219112E+04  0.00000000000E+00 0. -1.
         25    1    1    2    0    0 -0.58140579253E+01 -0.18240869444E+03  0.39290237687E+03  0.45089246259E+03  0.12500000000E+03 0.  0.
          1    1    1    2  501    0 -0.43647322055E+02  0.18570332748E+03 -0.10487155605E+04  0.10659245477E+04  0.00000000000E+00 0. -1.
          1    1    1    2  502    0  0.49461379981E+02 -0.32946330404E+01  0.33819530893E+03  0.34180893742E+03  0.00000000000E+00 0. -1.
<mgrwt>
<rscale>  0 0.97170338E+02</rscale>
<asrwt>0</asrwt>
<pdfrwt beam="1">  1        1 0.11853908E+00 0.49570987E+02</pdfrwt>
<pdfrwt beam="2">  1        1 0.16740337E+00 0.19047583E+03</pdfrwt>
<totfact> 0.45081319E+01</totfact>
</mgrwt>
</event>
<event>
 5    1  0.4149151E-003  0.5786206E+02  0.7546771E-02  0.1537094E+00
         -1   -1    0    0    0  501 -0.00000000000E+00  0.00000000000E+00  0.39110484206E+02  0.39110484206E+02  0.00000000000E+00 0.  1.
          1   -1    0    0  502    0  0.00000000000E+00 -0.00000000000E+00 -0.45168737768E+03  0.45168737768E+03  0.00000000000E+00 0. -1.
         25    1    1    2    0    0  0.54655949067E+02  0.43946451988E+02 -0.27669309820E+03  0.31161295544E+03  0.12500000000E+03 0.  0.
          1    1    1    2  502    0 -0.22185732526E+01 -0.22702977771E+02 -0.11750335430E+03  0.11969705736E+03  0.00000000000E+00 0. -1.
         -1    1    1    2    0  501 -0.52437375814E+02 -0.21243474217E+02 -0.18380440979E+02  0.59487849093E+02  0.00000000000E+00 0.  1.
<mgrwt>
<rscale>  0 0.36330408E+02</rscale>
<asrwt>0</asrwt>
<pdfrwt beam="2">  1        1 0.69490370E-01 0.22811122E+02</pdfrwt>
<pdfrwt beam="1">  1       -1 0.60169972E-02 0.57862064E+02</pdfrwt>
<totfact> 0.62862929E+03</totfact>
</mgrwt>
</event>
<event>
 5    1  0.4149151E-003  0.4043155E+02  0.7546771E-02  0.1529147E+00
          3   -1    0    0  502    0 -0.00000000000E+00  0.00000000000E+00  0.31027840265E+03  0.31027840265E+03  0.00000000000E+00 0. -1.
          2   -1    0    0  501    0  0.00000000000E+00 -0.00000000000E+00 -0.11854630987E+03  0.11854630987E+03  0.00000000000E+00 0. -1.
         25    1    1    2    0    0 -0.45315261977E+02  0.48244656441E+02  0.70640684275E+02  0.15810163224E+03  0.12500000000E+03 0.  0.
          2    1    1    2  501    0  0.32641492514E+02 -0.10841600437E+02 -0.68719986536E+02  0.76846885968E+02  0.00000000000E+00 0. -1.
          3    1    1    2  502    0  0.12673769463E+02 -0.37403056004E+02  0.18981139504E+03  0.19387619431E+03  0.00000000000E+00 0. -1.
<mgrwt>
<rscale>  0 0.37291260E+02</rscale>
<asrwt>0</asrwt>
<pdfrwt beam="2">  1        2 0.18237894E-01 0.34394874E+02</pdfrwt>
<pdfrwt beam="1">  1        3 0.47735139E-01 0.40431550E+02</pdfrwt>
<totfact> 0.69405882E+02</totfact>
</mgrwt>
</event>
<event>
 5    1  0.4149151E-003  0.6387641E+02  0.7546771E-02  0.1411554E+00
         -2   -1    0    0    0  501 -0.00000000000E+00  0.00000000000E+00  0.21666453638E+02  0.21666453638E+02  0.00000000000E+00 0.  1.
          1   -1    0    0  502    0  0.00000000000E+00 -0.00000000000E+00 -0.15215797942E+04  0.15215797942E+04  0.00000000000E+00 0. -1.
         25    1    1    2    0    0  0.71955172484E+02  0.36585314782E+02 -0.13345485466E+04  0.13428182511E+04  0.12500000000E+03 0.  0.
          1    1    1    2  502    0 -0.22200195734E+02 -0.45760660387E+02 -0.12738951224E+03  0.13716768773E+03  0.00000000000E+00 0. -1.
         -2    1    1    2    0  501 -0.49754976750E+02  0.91753456048E+01 -0.37975281680E+02  0.63260309018E+02  0.00000000000E+00 0.  1.
<mgrwt>
<rscale>  0 0.56848553E+02</rscale>
<asrwt>0</asrwt>
<pdfrwt beam="2">  1        1 0.23408929E+00 0.63876411E+02</pdfrwt>
<pdfrwt beam="1">  1       -2 0.33332993E-02 0.50593919E+02</pdfrwt>
<totfact> 0.21046740E+03</totfact>
</mgrwt>
</event>
<event>
 5    1  0.4149151E-003  0.6733128E+02  0.7546771E-02  0.1497616E+00
          2   -1    0    0  501    0  0.00000000000E+00  0.00000000000E+00  0.13267502413E+04  0.13267502413E+04  0.00000000000E+00 0. -1.
          3   -1    0    0  502    0 -0.00000000000E+00 -0.00000000000E+00 -0.19942250828E+02  0.19942250828E+02  0.00000000000E+00 0. -1.
         25    1    1    2    0    0 -0.68527968487E+02  0.48821773960E+02  0.58545351299E+03  0.60453326125E+03  0.12500000000E+03 0.  0.
          2    1    1    2  501    0  0.60137110875E+02 -0.24688595692E+02  0.71198284135E+03  0.71494444906E+03  0.00000000000E+00 0. -1.
          3    1    1    2  502    0  0.83908576120E+01 -0.24133178267E+02  0.93716360956E+01  0.27214781790E+02  0.00000000000E+00 0. -1.
<mgrwt>
<rscale>  0 0.41476899E+02</rscale>
<asrwt>0</asrwt>
<pdfrwt beam="1">  1        2 0.20411535E+00 0.67331285E+02</pdfrwt>
<pdfrwt beam="2">  1        3 0.30680396E-02 0.25550280E+02</pdfrwt>
<totfact> 0.38850815E+03</totfact>
</mgrwt>
</event>
<event>
 5    1  0.4149151E-003  0.1433102E+03  0.7546771E-02  0.1321675E+00
         -2   -1    0    0    0  501 -0.00000000000E+00  0.00000000000E+00  0.14722063048E+03  0.14722063048E+03  0.00000000000E+00 0. -1.
          1   -1    0    0  502    0  0.00000000000E+00 -0.00000000000E+00 -0.12692821732E+04  0.12692821732E+04  0.00000000000E+00 0. -1.
         25    1    1    2    0    0 -0.11761890698E+03  0.78154025733E+02 -0.31295146852E+03  0.36538456544E+03  0.12500000000E+03 0.  0.
          1    1    1    2  502    0 -0.22290691802E+02 -0.42142611866E+02 -0.88612229581E+03  0.88740385271E+03  0.00000000000E+00 0. -1.
         -2    1    1    2    0  501  0.13990959878E+03 -0.36011413867E+02  0.77012221587E+02  0.16371438554E+03  0.00000000000E+00 0. -1.
<mgrwt>
<rscale>  0 0.82657527E+02</rscale>
<asrwt>0</asrwt>
<pdfrwt beam="2">  1        1 0.19527418E+00 0.47674675E+02</pdfrwt>
<pdfrwt beam="1">  1       -2 0.22649327E-01 0.14331019E+03</pdfrwt>
<totfact> 0.17407940E+02</totfact>
</mgrwt>
</event>
<event>
 5    1  0.4149151E-003  0.7576015E+02  0.7546771E-02  0.1362756E+00
          2   -1    0    0  501    0  0.00000000000E+00  0.00000000000E+00  0.54375992881E+03  0.54375992881E+03  0.00000000000E+00 0. -1.
          1   -1    0    0  502    0 -0.00000000000E+00 -0.00000000000E+00 -0.47159612201E+03  0.47159612201E+03  0.00000000000E+00 0. -1.
         25    1    1    2    0    0  0.93949730408E+01 -0.13238494585E+02  0.50573833989E+02  0.13581692068E+03  0.12500000000E+03 0.  0.
          2    1    1    2  501    0  0.94271393831E+01 -0.62543328599E+02  0.44475511348E+03  0.44923006341E+03  0.00000000000E+00 0. -1.
          1    1    1    2  502    0 -0.18822112424E+02  0.75781823184E+02 -0.42316514067E+03  0.43030906674E+03  0.00000000000E+00 0. -1.
<mgrwt>
<rscale>  0 0.69222938E+02</rscale>
<asrwt>0</asrwt>
<pdfrwt beam="1">  1        2 0.83655373E-01 0.63249814E+02</pdfrwt>
<pdfrwt beam="2">  1        1 0.72553250E-01 0.75760147E+02</pdfrwt>
<totfact> 0.39771571E+02</totfact>
</mgrwt>
</event>
<event>
 5    1  0.4149151E-003  0.7716682E+02  0.7546771E-02  0.1410478E+00
         -1   -1    0    0    0  501 -0.00000000000E+00  0.00000000000E+00  0.20395698960E+03  0.20395698960E+03  0.00000000000E+00 0.  1.
          2   -1    0    0  502    0  0.00000000000E+00 -0.00000000000E+00 -0.35747233841E+03  0.35747233841E+03  0.00000000000E+00 0. -1.
         25    1    1    2    0    0 -0.24208125124E+02 -0.92609105430E+02  0.81545006147E+01  0.15765143707E+03  0.12500000000E+03 0.  0.
          2    1    1    2  502    0  0.49239488901E+02  0.58593949338E+02 -0.27362206767E+03  0.28412464533E+03  0.00000000000E+00 0. -1.
         -1    1    1    2    0  501 -0.25031363778E+02  0.34015156092E+02  0.11195221824E+03  0.11965324561E+03  0.00000000000E+00 0.  1.
<mgrwt>
<rscale>  0 0.57087322E+02</rscale>
<asrwt>0</asrwt>
<pdfrwt beam="2">  1        2 0.54995744E-01 0.77166821E+02</pdfrwt>
<pdfrwt beam="1">  1       -1 0.31377999E-01 0.42232689E+02</pdfrwt>
<totfact> 0.94841629E+02</totfact>
</mgrwt>
</event>
<event>
 5    1  0.4149151E-003  0.1038715E+03  0.7546771E-02  0.1396614E+00
          2   -1    0    0  502    0  0.00000000000E+00  0.00000000000E+00  0.21087692044E+04  0.21087692044E+04  0.00000000000E+00 0. -1.
         -1   -1    0    0    0  501 -0.00000000000E+00 -0.00000000000E+00 -0.83904766922E+02  0.83904766922E+02  0.00000000000E+00 0.  1.
         25    1    1    2    0    0  0.64305099202E+02 -0.66085762909E+02  0.50151000702E+03  0.52501405789E+03  0.12500000000E+03 0.  0.
          2    1    1    2  502    0  0.29537477359E+02  0.18767317329E+02  0.15569348523E+04  0.15573280994E+04  0.00000000000E+00 0. -1.
         -1    1    1    2    0  501 -0.93842576561E+02  0.47318445580E+02 -0.33580421828E+02  0.11033181408E+03  0.00000000000E+00 0.  1.
<mgrwt>
<rscale>  0 0.60291123E+02</rscale>
<asrwt>0</asrwt>
<pdfrwt beam="1">  1        2 0.32442599E+00 0.34995354E+02</pdfrwt>
<pdfrwt beam="2">  1       -1 0.12908427E-01 0.10387149E+03</pdfrwt>
<totfact> 0.36761738E+02</totfact>
</mgrwt>
</event>
<event>
 5    1  0.4149151E-003  0.5438756E+02  0.7546771E-02  0.1507780E+00
         -3   -1    0    0    0  502 -0.00000000000E+00  0.00000000000E+00  0.19741201135E+03  0.19741201135E+03  0.00000000000E+00 0.  1.
         -2   -1    0    0    0  501  0.00000000000E+00 -0.00000000000E+00 -0.28291790217E+03  0.28291790217E+03  0.00000000000E+00 0.  1.
         25    1    1    2    0    0 -0.62870526255E+02 -0.49344440088E+02  0.41528529912E+02  0.15406880163E+03  0.12500000000E+03 0.  0.
         -2    1    1    2    0  501  0.26455222171E+02  0.13063650517E+02 -0.21896019290E+03  0.22093914053E+03  0.00000000000E+00 0.  1.
         -3    1    1    2    0  502  0.36415304083E+02  0.36280789571E+02  0.91925772164E+02  0.10532197136E+03  0.00000000000E+00 0.  1.
<mgrwt>
<rscale>  0 0.40058685E+02</rscale>
<asrwt>0</asrwt>
<pdfrwt beam="2">  1       -2 0.43525831E-01 0.29504877E+02</pdfrwt>
<pdfrwt beam="1">  1       -3 0.30371079E-01 0.54387559E+02</pdfrwt>
<totfact> 0.18942187E+02</totfact>
</mgrwt>
</event>
<event>
 5    1  0.4149151E-003  0.1323599E+03  0.7546771E-02  0.1342223E+00
          1   -1    0    0  502    0 -0.00000000000E+00  0.00000000000E+00  0.15342639722E+04  0.15342639722E+04  0.00000000000E+00 0. -1.
          2   -1    0    0  501    0  0.00000000000E+00 -0.00000000000E+00 -0.13209289840E+04  0.13209289840E+04  0.00000000000E+00 0. -1.
         25    1    1    2    0    0  0.14869321060E+02  0.16965600218E+03 -0.25934220503E+03  0.33449609130E+03  0.12500000000E+03 0.  0.
          2    1    1    2  501    0 -0.20746910310E+02 -0.37784718809E+02 -0.10206434942E+04  0.10215533571E+04  0.00000000000E+00 0. -1.
          1    1    1    2  502    0  0.58775892505E+01 -0.13187128337E+03  0.14933206874E+04  0.14991435078E+04  0.00000000000E+00 0. -1.
<mgrwt>
<rscale>  0 0.75534730E+02</rscale>
<asrwt>0</asrwt>
<pdfrwt beam="2">  1        2 0.20321984E+00 0.43105908E+02</pdfrwt>
<pdfrwt beam="1">  1        1 0.23604061E+00 0.13235994E+03</pdfrwt>
<totfact> 0.19465706E+01</totfact>
</mgrwt>
</event>
<event>
 5    1  0.4149151E-003  0.7198976E+02  0.7546771E-02  0.1516744E+00
          2   -1    0    0  502    0  0.00000000000E+00  0.00000000000E+00  0.67476082225E+02  0.67476082225E+02  0.00000000000E+00 0. -1.
         -1   -1    0    0    0  501 -0.00000000000E+00 -0.00000000000E+00 -0.27474007279E+03  0.27474007279E+03  0.00000000000E+00 0.  1.
         25    1    1    2    0    0 -0.75670681239E+02  0.45877546214E+02 -0.11936501668E+03  0.19417468541E+03  0.12500000000E+03 0.  0.
          2    1    1    2  502    0  0.17679858932E+02 -0.11296295141E+02  0.14416175892E+02  0.25456037066E+02  0.00000000000E+00 0. -1.
         -1    1    1    2    0  501  0.57990822307E+02 -0.34581251073E+02 -0.10231514978E+03  0.12258543255E+03  0.00000000000E+00 0.  1.
<mgrwt>
<rscale>  0 0.38863675E+02</rscale>
<asrwt>0</asrwt>
<pdfrwt beam="1">  1        2 0.10380936E-01 0.20980555E+02</pdfrwt>
<pdfrwt beam="2">  1       -1 0.42267703E-01 0.71989765E+02</pdfrwt>
<totfact> 0.32602950E+03</totfact>
</mgrwt>
</event>
<event>
 5    1  0.4149151E-003  0.5616651E+02  0.7546771E-02  0.1449683E+00
          2   -1    0    0  501    0  0.00000000000E+00  0.00000000000E+00  0.45642894293E+03  0.45642894293E+03  0.00000000000E+00 0. -1.
          1   -1    0    0  502    0 -0.00000000000E+00 -0.00000000000E+00 -0.61739497540E+03  0.61739497540E+03  0.00000000000E+00 0. -1.
         25    1    1    2    0    0  0.77004026111E+02 -0.43812131887E+02 -0.43794752704E+02  0.15934899843E+03  0.12500000000E+03 0.  0.
          2    1    1    2  501    0 -0.55283848125E+02  0.65800432240E+01  0.39579968673E+03  0.39969612563E+03  0.00000000000E+00 0. -1.
          1    1    1    2  502    0 -0.21720177986E+02  0.37232088663E+02 -0.51297096649E+03  0.51477879426E+03  0.00000000000E+00 0. -1.
<mgrwt>
<rscale>  0 0.49203933E+02</rscale>
<asrwt>0</asrwt>
<pdfrwt beam="1">  1        2 0.70219838E-01 0.56166508E+02</pdfrwt>
<pdfrwt beam="2">  1        1 0.94983841E-01 0.43104461E+02</pdfrwt>
<totfact> 0.34477281E+02</totfact>
</mgrwt>
</event>
<event>
 5    1  0.6682559E-003  0.6487431E+02  0.7546771E-02  0.1404061E+00
          1   -1    0    0  502    0  0.00000000000E+00  0.00000000000E+00  0.23875779699E+04  0.23875779699E+04  0.00000000000E+00 0. -1.
         -2   -1    0    0    0  501 -0.00000000000E+00 -0.00000000000E+00 -0.75840798714E+01  0.75840798714E+01  0.00000000000E+00 0.  1.
         25    1    1    2    0    0  0.85154707469E+02 -0.47066989725E+01  0.13141464596E+04  0.13228300702E+04  0.12500000000E+03 0.  0.
          1    1    1    2  502    0 -0.34198458275E+02  0.40260650226E+02  0.60748440149E+03  0.60977680553E+03  0.00000000000E+00 0. -1.
         -2    1    1    2    0  501 -0.50956249194E+02 -0.35553951253E+02  0.45836302891E+03  0.46255517406E+03  0.00000000000E+00 0.  1.
<mgrwt>
<rscale>  0 0.58540322E+02</rscale>
<asrwt>0</asrwt>
<pdfrwt beam="1">  1        1 0.36731909E+00 0.52824753E+02</pdfrwt>
<pdfrwt beam="2">  1       -2 0.11667834E-02 0.64874308E+02</pdfrwt>
<totfact> 0.28854641E+03</totfact>
</mgrwt>
</event>
<event>
 5    1  0.4149151E-003  0.1742066E+03  0.7546771E-02  0.1280859E+00
          1   -1    0    0  501    0  0.00000000000E+00  0.00000000000E+00  0.27198154542E+04  0.27198154542E+04  0.00000000000E+00 0. -1.
          3   -1    0    0  502    0 -0.00000000000E+00 -0.00000000000E+00 -0.29578754938E+02  0.29578754938E+02  0.00000000000E+00 0. -1.
         25    1    1    2    0    0 -0.11674549235E+03  0.57812363741E+02  0.19172910927E+04  0.19257730690E+04  0.12500000000E+03 0.  0.
          1    1    1    2  501    0 -0.57061523415E+02 -0.20051777231E+01  0.44196363028E+03  0.44563649837E+03  0.00000000000E+00 0. -1.
          3    1    1    2  502    0  0.17380701577E+03 -0.55807186018E+02  0.33098197632E+03  0.37798464173E+03  0.00000000000E+00 0. -1.
<mgrwt>
<rscale>  0 0.99732799E+02</rscale>
<asrwt>0</asrwt>
<pdfrwt beam="1">  1        1 0.41843295E+00 0.57096744E+02</pdfrwt>
<pdfrwt beam="2">  1        3 0.45505798E-02 0.17420663E+03</pdfrwt>
<totfact> 0.20371260E+02</totfact>
</mgrwt>
</event>
<event>
 5    1  0.4149151E-003  0.3779119E+02  0.7546771E-02  0.1532359E+00
          2   -1    0    0  502    0  0.00000000000E+00  0.00000000000E+00  0.60528300094E+03  0.60528300094E+03  0.00000000000E+00 0. -1.
         -2   -1    0    0    0  501 -0.00000000000E+00 -0.00000000000E+00 -0.19337000934E+02  0.19337000934E+02  0.00000000000E+00 0.  1.
         25    1    1    2    0    0  0.73561491705E+01 -0.87296104360E+01  0.34157915742E+03  0.36391158241E+03  0.12500000000E+03 0.  0.
          2    1    1    2  502    0  0.13276970733E+02 -0.35382148088E+02  0.68608774005E+02  0.78328399867E+02  0.00000000000E+00 0.  1.
         -2    1    1    2    0  501 -0.20633119904E+02  0.44111758524E+02  0.17575806858E+03  0.18238001960E+03  0.00000000000E+00 0. -1.
<mgrwt>
<rscale>  0 0.36898577E+02</rscale>
<asrwt>0</asrwt>
<pdfrwt beam="1">  1        2 0.93120447E-01 0.37791194E+02</pdfrwt>
<pdfrwt beam="2">  1       -2 0.29749237E-02 0.36027042E+02</pdfrwt>
<totfact> 0.17563027E+04</totfact>
</mgrwt>
</event>
<event>
 5    1  0.4149151E-003  0.1016356E+03  0.7546771E-02  0.1313547E+00
          2   -1    0    0  501    0  0.00000000000E+00  0.00000000000E+00  0.27787593424E+03  0.27787593424E+03  0.00000000000E+00 0. -1.
          1   -1    0    0  502    0 -0.00000000000E+00 -0.00000000000E+00 -0.16326944937E+03  0.16326944937E+03  0.00000000000E+00 0. -1.
         25    1    1    2    0    0 -0.35141569653E+02 -0.56861725501E+02  0.75371578820E+01  0.14195067627E+03  0.12500000000E+03 0.  0.
          2    1    1    2  501    0 -0.71655256664E+02 -0.96734556089E+01  0.14977749810E+03  0.16631701803E+03  0.00000000000E+00 0. -1.
          1    1    1    2  502    0  0.10679682632E+03  0.66535181110E+02 -0.42708171105E+02  0.13287768931E+03  0.00000000000E+00 0. -1.
<mgrwt>
<rscale>  0 0.85725098E+02</rscale>
<asrwt>0</asrwt>
<pdfrwt beam="1">  1        2 0.42750144E-01 0.72305266E+02</pdfrwt>
<pdfrwt beam="2">  1        1 0.25118377E-01 0.10163564E+03</pdfrwt>
<totfact> 0.29588460E+03</totfact>
</mgrwt>
</event>
<event>
 5    1  0.4149151E-003  0.6940780E+02  0.7546771E-02  0.1495902E+00
          2   -1    0    0  502    0  0.00000000000E+00  0.00000000000E+00  0.15792522373E+04  0.15792522373E+04  0.00000000000E+00 0.  1.
         -2   -1    0    0    0  501 -0.00000000000E+00 -0.00000000000E+00 -0.22885198397E+02  0.22885198397E+02  0.00000000000E+00 0.  1.
         25    1    1    2    0    0  0.69663179745E+02 -0.78198758923E+01  0.75641781623E+03  0.76987467927E+03  0.12500000000E+03 0.  0.
          2    1    1    2  502    0 -0.20619348190E+01  0.24995860030E+02  0.73961267242E+03  0.74003780296E+03  0.00000000000E+00 0.  1.
         -2    1    1    2    0  501 -0.67601244926E+02 -0.17175984138E+02  0.60336550249E+02  0.92224953471E+02  0.00000000000E+00 0.  1.
<mgrwt>
<rscale>  0 0.41722900E+02</rscale>
<asrwt>0</asrwt>
<pdfrwt beam="1">  1        2 0.24296180E+00 0.25080761E+02</pdfrwt>
<pdfrwt beam="2">  1       -2 0.35208010E-02 0.69407797E+02</pdfrwt>
<totfact> 0.44252692E+03</totfact>
</mgrwt>
</event>
<event>
 5    1  0.4149151E-003  0.7466556E+02  0.7546771E-02  0.1360157E+00
         -2   -1    0    0    0  501 -0.00000000000E+00  0.00000000000E+00  0.12668363091E+03  0.12668363091E+03  0.00000000000E+00 0.  1.
          1   -1    0    0  502    0  0.00000000000E+00 -0.00000000000E+00 -0.20192216288E+03  0.20192216288E+03  0.00000000000E+00 0. -1.
         25    1    1    2    0    0 -0.52298362614E+02 -0.10411479706E+03 -0.79341593384E+02  0.18840142818E+03  0.12500000000E+03 0.  0.
          1    1    1    2  502    0  0.55301608881E+02  0.35268132252E+02 -0.17679748870E+02  0.67931455288E+02  0.00000000000E+00 0. -1.
         -2    1    1    2    0  501 -0.30032462665E+01  0.68846664805E+02  0.21782810282E+02  0.72272910324E+02  0.00000000000E+00 0.  1.
<mgrwt>
<rscale>  0 0.69981061E+02</rscale>
<asrwt>0</asrwt>
<pdfrwt beam="2">  1        1 0.31064948E-01 0.65590465E+02</pdfrwt>
<pdfrwt beam="1">  1       -2 0.19489790E-01 0.74665562E+02</pdfrwt>
<totfact> 0.26086332E+03</totfact>
</mgrwt>
</event>
<event>
 5    1  0.6471069E-003  0.8862163E+02  0.7546771E-02  0.1357579E+00
         -2   -1    0    0    0  501 -0.00000000000E+00  0.00000000000E+00  0.14423315914E+03  0.14423315914E+03  0.00000000000E+00 0.  1.
          1   -1    0    0  502    0  0.00000000000E+00 -0.00000000000E+00 -0.18714527968E+03  0.18714527968E+03  0.00000000000E+00 0. -1.
         25    1    1    2    0    0 -0.24913493319E+02  0.12405386832E+03 -0.33078984072E+02  0.18091230910E+03  0.12500000000E+03 0.  0.
          1    1    1    2  502    0  0.34085113737E+02 -0.45027618505E+02 -0.35698172493E+02  0.66810485151E+02  0.00000000000E+00 0. -1.
         -2    1    1    2    0  501 -0.91716204178E+01 -0.79026249817E+02  0.25865036022E+02  0.83655644578E+02  0.00000000000E+00 0.  1.
<mgrwt>
<rscale>  0 0.70744563E+02</rscale>
<asrwt>0</asrwt>
<pdfrwt beam="2">  1        1 0.28791581E-01 0.56473723E+02</pdfrwt>
<pdfrwt beam="1">  1       -2 0.22189717E-01 0.88621627E+02</pdfrwt>
<totfact> 0.23075723E+03</totfact>
</mgrwt>
</event>
<event>
 5    1  0.4149151E-003  0.1755533E+03  0.7546771E-02  0.1226276E+00
          1   -1    0    0  502    0 -0.00000000000E+00  0.00000000000E+00  0.87623545566E+03  0.87623545566E+03  0.00000000000E+00 0. -1.
          2   -1    0    0  501    0  0.00000000000E+00 -0.00000000000E+00 -0.23894442504E+04  0.23894442504E+04  0.00000000000E+00 0. -1.
         25    1    1    2    0    0 -0.35207310591E+02  0.80553102010E+02 -0.38450080198E+02  0.15758098118E+03  0.12500000000E+03 0.  0.
          2    1    1    2  501    0 -0.50596163176E+02  0.83289693006E+02 -0.22799030381E+04  0.22819848833E+04  0.00000000000E+00 0. -1.
          1    1    1    2  502    0  0.85803473767E+02 -0.16384279502E+03  0.80514432350E+03  0.82611384158E+03  0.00000000000E+00 0. -1.
<mgrwt>
<rscale>  0 0.13079848E+03</rscale>
<asrwt>0</asrwt>
<pdfrwt beam="2">  1        2 0.36760680E+00 0.97453295E+02</pdfrwt>
<pdfrwt beam="1">  1        1 0.13480546E+00 0.17555326E+03</pdfrwt>
<totfact> 0.14701951E+01</totfact>
</mgrwt>
</event>
<event>
 5    1  0.4149151E-003  0.3658746E+02  0.7546771E-02  0.1544256E+00
          2   -1    0    0  502    0  0.00000000000E+00  0.00000000000E+00  0.44129574212E+03  0.44129574212E+03  0.00000000000E+00 0. -1.
         -1   -1    0    0    0  501 -0.00000000000E+00 -0.00000000000E+00 -0.31962601371E+02  0.31962601371E+02  0.00000000000E+00 0.  1.
         25    1    1    2    0    0 -0.13641968125E+02 -0.54951160012E+02  0.21456453629E+03  0.25469329303E+03  0.12500000000E+03 0.  0.
          2    1    1    2  502    0 -0.12885591723E+02  0.31931649943E+02  0.17480702530E+03  0.17816611585E+03  0.00000000000E+00 0. -1.
         -1    1    1    2    0  501  0.26527559848E+02  0.23019510069E+02  0.19961579159E+02  0.40398934613E+02  0.00000000000E+00 0.  1.
<mgrwt>
<rscale>  0 0.35494166E+02</rscale>
<asrwt>0</asrwt>
<pdfrwt beam="1">  1        2 0.67891648E-01 0.34433541E+02</pdfrwt>
<pdfrwt beam="2">  1       -1 0.49173236E-02 0.36587460E+02</pdfrwt>
<totfact> 0.12244078E+04</totfact>
</mgrwt>
</event>
<event>
 5    1  0.4149151E-003  0.4092164E+02  0.7546771E-02  0.1512187E+00
          1   -1    0    0  502    0  0.00000000000E+00  0.00000000000E+00  0.14398604418E+04  0.14398604418E+04  0.00000000000E+00 0. -1.
         -2   -1    0    0    0  501 -0.00000000000E+00 -0.00000000000E+00 -0.10574050354E+02  0.10574050354E+02  0.00000000000E+00 0.  1.
         25    1    1    2    0    0  0.17116121364E+02  0.12765649244E+02  0.11831693385E+04  0.11899456320E+04  0.12500000000E+03 0.  0.
          1    1    1    2  502    0 -0.20482436643E+02  0.32078415699E+02  0.83437849506E+02  0.91708394898E+02  0.00000000000E+00 0. -1.
         -2    1    1    2    0  501  0.33663152795E+01 -0.44844064943E+02  0.16267920341E+03  0.16878046528E+03  0.00000000000E+00 0.  1.
<mgrwt>
<rscale>  0 0.39464834E+02</rscale>
<asrwt>0</asrwt>
<pdfrwt beam="1">  1        1 0.22151684E+00 0.38059887E+02</pdfrwt>
<pdfrwt beam="2">  1       -2 0.16267781E-02 0.40921644E+02</pdfrwt>
<totfact> 0.66565605E+03</totfact>
</mgrwt>
</event>
<event>
 5    1  0.4149151E-003  0.1184408E+03  0.7546771E-02  0.1294907E+00
          1   -1    0    0  502    0  0.00000000000E+00  0.00000000000E+00  0.22691537583E+04  0.22691537583E+04  0.00000000000E+00 0. -1.
         -1   -1    0    0    0  501 -0.00000000000E+00 -0.00000000000E+00 -0.24748420489E+03  0.24748420489E+03  0.00000000000E+00 0.  1.
         25    1    1    2    0    0  0.11571047292E+03 -0.19489905474E+02 -0.29797995803E+02  0.17401635128E+03  0.12500000000E+03 0.  0.
          1    1    1    2  502    0 -0.31210913228E+01  0.73527923768E+02  0.21695214710E+04  0.21707693360E+04  0.00000000000E+00 0. -1.
         -1    1    1    2    0  501 -0.11258938160E+03 -0.54038018294E+02 -0.11805392184E+03  0.17185227590E+03  0.00000000000E+00 0.  1.
<mgrwt>
<rscale>  0 0.93362446E+02</rscale>
<asrwt>0</asrwt>
<pdfrwt beam="1">  1        1 0.34910056E+00 0.73594136E+02</pdfrwt>
<pdfrwt beam="2">  1       -1 0.38074495E-01 0.11844077E+03</pdfrwt>
<totfact> 0.18215167E+01</totfact>
</mgrwt>
</event>
<event>
 5    1  0.4149151E-003  0.1171828E+03  0.7546771E-02  0.1311102E+00
         -2   -1    0    0    0  501 -0.00000000000E+00  0.00000000000E+00  0.39429827322E+03  0.39429827322E+03  0.00000000000E+00 0.  1.
          2   -1    0    0  502    0  0.00000000000E+00 -0.00000000000E+00 -0.10798784039E+04  0.10798784039E+04  0.00000000000E+00 0. -1.
         25    1    1    2    0    0  0.54613696226E+02  0.32985913469E+02  0.12046711404E+02  0.14085755059E+03  0.12500000000E+03 0.  0.
          2    1    1    2  502    0  0.53277353921E+02  0.35666883216E+02 -0.10015434565E+04  0.10035934926E+04  0.00000000000E+00 0. -1.
         -2    1    1    2    0  501 -0.10789105015E+03 -0.68652796685E+02  0.30391661442E+03  0.32972563399E+03  0.00000000000E+00 0.  1.
<mgrwt>
<rscale>  0 0.86677898E+02</rscale>
<asrwt>0</asrwt>
<pdfrwt beam="2">  1        2 0.16613514E+00 0.64113984E+02</pdfrwt>
<pdfrwt beam="1">  1       -2 0.60661272E-01 0.11718283E+03</pdfrwt>
<totfact> 0.67222202E+01</totfact>
</mgrwt>
</event>
<event>
 5    1  0.4149151E-003  0.8710834E+02  0.7546771E-02  0.1360074E+00
          2   -1    0    0  502    0  0.00000000000E+00  0.00000000000E+00  0.34001657281E+04  0.34001657281E+04  0.00000000000E+00 0. -1.
         -1   -1    0    0    0  501 -0.00000000000E+00 -0.00000000000E+00 -0.31226740336E+03  0.31226740336E+03  0.00000000000E+00 0.  1.
         25    1    1    2    0    0  0.58478841063E+02 -0.55404686422E+02 -0.18268100725E+02  0.14982715920E+03  0.12500000000E+03 0.  0.
          2    1    1    2  502    0  0.31186954996E+02  0.46825900432E+02  0.33252510955E+04  0.33257270091E+04  0.00000000000E+00 0. -1.
         -1    1    1    2    0  501 -0.89665796059E+02  0.85787859904E+01 -0.21908467001E+03  0.23687896316E+03  0.00000000000E+00 0.  1.
<mgrwt>
<rscale>  0 0.70005681E+02</rscale>
<asrwt>0</asrwt>
<pdfrwt beam="1">  1        2 0.52310239E+00 0.56260920E+02</pdfrwt>
<pdfrwt beam="2">  1       -1 0.48041141E-01 0.87108341E+02</pdfrwt>
<totfact> 0.80395055E+00</totfact>
</mgrwt>
</event>
<event>
 5    1  0.4149151E-003  0.8790178E+02  0.7546771E-02  0.1361294E+00
          2   -1    0    0  501    0  0.00000000000E+00  0.00000000000E+00  0.38076332365E+03  0.38076332365E+03  0.00000000000E+00 0. -1.
          2   -1    0    0  502    0 -0.00000000000E+00 -0.00000000000E+00 -0.79502197113E+03  0.79502197113E+03  0.00000000000E+00 0. -1.
         25    1    1    2    0    0 -0.97440408242E+02 -0.10025914300E+03  0.82294024050E+02  0.20480194166E+03  0.12500000000E+03 0.  0.
          2    1    1    2  501    0  0.28428357945E+02  0.47298909569E+02  0.23138069160E+03  0.23787051694E+03  0.00000000000E+00 0. -1.
          2    1    1    2  502    0  0.69012050297E+02  0.52960233427E+02 -0.72793336314E+03  0.73311283619E+03  0.00000000000E+00 0. -1.
<mgrwt>
<rscale>  0 0.69647964E+02</rscale>
<asrwt>0</asrwt>
<pdfrwt beam="1">  1        2 0.58578974E-01 0.55184766E+02</pdfrwt>
<pdfrwt beam="2">  1        2 0.12231107E+00 0.87901775E+02</pdfrwt>
<totfact> 0.49029906E+02</totfact>
</mgrwt>
</event>
<event>
 5    1  0.4149151E-003  0.1022862E+03  0.7546771E-02  0.1388808E+00
          2   -1    0    0  502    0  0.00000000000E+00  0.00000000000E+00  0.23655396883E+03  0.23655396883E+03  0.00000000000E+00 0. -1.
          2   -1    0    0  501    0 -0.00000000000E+00 -0.00000000000E+00 -0.59730786634E+03  0.59730786634E+03  0.00000000000E+00 0.  1.
         25    1    1    2    0    0  0.84318135836E+02  0.14425787994E+02  0.18818577552E+02  0.15263286098E+03  0.12500000000E+03 0.  0.
          2    1    1    2  501    0  0.11332785970E+02  0.36091261880E+02 -0.51021535161E+03  0.51161578967E+03  0.00000000000E+00 0.  1.
          2    1    1    2  502    0 -0.95650921806E+02 -0.50517049873E+02  0.13064287655E+03  0.16961318452E+03  0.00000000000E+00 0. -1.
<mgrwt>
<rscale>  0 0.62204134E+02</rscale>
<asrwt>0</asrwt>
<pdfrwt beam="1">  1        2 0.36392919E-01 0.10228618E+03</pdfrwt>
<pdfrwt beam="2">  1        2 0.91893516E-01 0.37828709E+02</pdfrwt>
<totfact> 0.11471060E+03</totfact>
</mgrwt>
</event>
<event>
 5    1  0.4149151E-003  0.3180851E+02  0.7546771E-02  0.1584686E+00
          3   -1    0    0  502    0 -0.00000000000E+00  0.00000000000E+00  0.11290266388E+03  0.11290266388E+03  0.00000000000E+00 0. -1.
          1   -1    0    0  501    0  0.00000000000E+00 -0.00000000000E+00 -0.23514649363E+04  0.23514649363E+04  0.00000000000E+00 0. -1.
         25    1    1    2    0    0 -0.22219254599E+02  0.15004776260E+02 -0.11198958628E+03  0.16995736530E+03  0.12500000000E+03 0.  0.
          1    1    1    2  501    0  0.25527511159E+02  0.17050411749E+02 -0.22072870873E+04  0.22075005450E+04  0.00000000000E+00 0. -1.
          3    1    1    2  502    0 -0.33082565605E+01 -0.32055188008E+02  0.80714401164E+02  0.86909689880E+02  0.00000000000E+00 0. -1.
<mgrwt>
<rscale>  0 0.31248346E+02</rscale>
<asrwt>0</asrwt>
<pdfrwt beam="2">  1        1 0.36176379E+00 0.30698052E+02</pdfrwt>
<pdfrwt beam="1">  1        3 0.17369643E-01 0.31808506E+02</pdfrwt>
<totfact> 0.34957334E+01</totfact>
</mgrwt>
</event>
<event>
 5    1  0.4149151E-003  0.1102632E+03  0.7546771E-02  0.1395228E+00
          2   -1    0    0  502    0  0.00000000000E+00  0.00000000000E+00  0.76239189505E+03  0.76239189505E+03  0.00000000000E+00 0.  1.
         -2   -1    0    0    0  501 -0.00000000000E+00 -0.00000000000E+00 -0.61327543568E+02  0.61327543568E+02  0.00000000000E+00 0.  1.
         25    1    1    2    0    0 -0.90982247999E+02  0.79324955784E+02  0.30134173470E+03  0.34785350240E+03  0.12500000000E+03 0.  0.
          2    1    1    2  502    0 -0.70164623637E+01 -0.32585856945E+02  0.35800469962E+03  0.35955310285E+03  0.00000000000E+00 0.  1.
         -2    1    1    2    0  501  0.97998710363E+02 -0.46739098839E+02  0.41717917156E+02  0.11631283336E+03  0.00000000000E+00 0.  1.
<mgrwt>
<rscale>  0 0.60624836E+02</rscale>
<asrwt>0</asrwt>
<pdfrwt beam="1">  1        2 0.11729105E+00 0.33332699E+02</pdfrwt>
<pdfrwt beam="2">  1       -2 0.94350072E-02 0.11026322E+03</pdfrwt>
<totfact> 0.27944269E+03</totfact>
</mgrwt>
</event>
<event>
 5    1  0.4149151E-003  0.3282894E+03  0.7546771E-02  0.1292863E+00
         -1   -1    0    0    0  501 -0.00000000000E+00  0.00000000000E+00  0.24129722324E+03  0.24129722324E+03  0.00000000000E+00 0.  1.
          1   -1    0    0  502    0  0.00000000000E+00 -0.00000000000E+00 -0.13134049201E+04  0.13134049201E+04  0.00000000000E+00 0. -1.
         25    1    1    2    0    0  0.29238179873E+03  0.13137093036E+03 -0.14480508365E+03  0.37328132798E+03  0.12500000000E+03 0.  0.
          1    1    1    2  502    0  0.22219727861E+02 -0.15447047755E+02 -0.83257706489E+03  0.83301674447E+03  0.00000000000E+00 0. -1.
         -1    1    1    2    0  501 -0.31460152659E+03 -0.11592388260E+03 -0.94725548305E+02  0.34840407086E+03  0.00000000000E+00 0.  1.
<mgrwt>
<rscale>  0 0.94255078E+02</rscale>
<asrwt>0</asrwt>
<pdfrwt beam="2">  1        1 0.20206230E+00 0.27061552E+02</pdfrwt>
<pdfrwt beam="1">  1       -1 0.37122649E-01 0.32828936E+03</pdfrwt>
<totfact> 0.83300884E+01</totfact>
</mgrwt>
</event>
<event>
 5    1  0.4149151E-003  0.3334236E+02  0.7546771E-02  0.1638396E+00
          2   -1    0    0  502    0  0.00000000000E+00  0.00000000000E+00  0.19465719961E+04  0.19465719961E+04  0.00000000000E+00 0. -1.
         -3   -1    0    0    0  501 -0.00000000000E+00 -0.00000000000E+00 -0.84399801234E+02  0.84399801234E+02  0.00000000000E+00 0.  1.
         25    1    1    2    0    0 -0.12095282898E+02 -0.39202055282E+02  0.38639581217E+03  0.40817866268E+03  0.12500000000E+03 0.  0.
          2    1    1    2  502    0  0.20160538918E+02  0.68678148194E+01  0.15454306528E+04  0.15455774057E+04  0.00000000000E+00 0. -1.
         -3    1    1    2    0  501 -0.80652560195E+01  0.32334240463E+02 -0.69654270111E+02  0.77215729004E+02  0.00000000000E+00 0.  1.
<mgrwt>
<rscale>  0 0.26648319E+02</rscale>
<asrwt>0</asrwt>
<pdfrwt beam="1">  1        2 0.29947258E+00 0.21298221E+02</pdfrwt>
<pdfrwt beam="2">  1       -3 0.12984586E-01 0.33342359E+02</pdfrwt>
<totfact> 0.24961223E+02</totfact>
</mgrwt>
</event>
<event>
 5    1  0.4149151E-003  0.1256228E+03  0.7546771E-02  0.1256970E+00
          2   -1    0    0  501    0  0.00000000000E+00  0.00000000000E+00  0.18800805088E+04  0.18800805088E+04  0.00000000000E+00 0. -1.
          1   -1    0    0  502    0 -0.00000000000E+00 -0.00000000000E+00 -0.35962856708E+03  0.35962856708E+03  0.00000000000E+00 0. -1.
         25    1    1    2    0    0  0.19344805355E+03 -0.21232459743E+02  0.16639505181E+03  0.28493030733E+03  0.12500000000E+03 0.  0.
          2    1    1    2  501    0 -0.89512882395E+02 -0.44121541128E+02  0.16402913601E+04  0.16433243784E+04  0.00000000000E+00 0. -1.
          1    1    1    2  502    0 -0.10393517116E+03  0.65354000871E+02 -0.28623447020E+03  0.31145439018E+03  0.00000000000E+00 0. -1.
<mgrwt>
<rscale>  0 0.11196726E+03</rscale>
<asrwt>0</asrwt>
<pdfrwt beam="1">  1        2 0.28924315E+00 0.99796125E+02</pdfrwt>
<pdfrwt beam="2">  1        1 0.55327473E-01 0.12562279E+03</pdfrwt>
<totfact> 0.90859834E+01</totfact>
</mgrwt>
</event>
<event>
 5    1  0.4149151E-003  0.6085926E+02  0.7546771E-02  0.1523055E+00
         -1   -1    0    0    0  501 -0.00000000000E+00  0.00000000000E+00  0.85486573574E+02  0.85486573574E+02  0.00000000000E+00 0.  1.
          2   -1    0    0  502    0  0.00000000000E+00 -0.00000000000E+00 -0.97479181859E+03  0.97479181859E+03  0.00000000000E+00 0. -1.
         25    1    1    2    0    0  0.18321624012E+02 -0.47835357939E+02 -0.19985974106E+03  0.24123187905E+03  0.12500000000E+03 0.  0.
          2    1    1    2  502    0 -0.41965143423E+02  0.45181501198E+02 -0.75075462958E+03  0.75328278565E+03  0.00000000000E+00 0. -1.
         -1    1    1    2    0  501  0.23643519411E+02  0.26538567404E+01  0.61309125622E+02  0.65763727466E+02  0.00000000000E+00 0.  1.
<mgrwt>
<rscale>  0 0.38052111E+02</rscale>
<asrwt>0</asrwt>
<pdfrwt beam="2">  1        2 0.14996796E+00 0.60859262E+02</pdfrwt>
<pdfrwt beam="1">  1       -1 0.13151781E-01 0.23791994E+02</pdfrwt>
<totfact> 0.11435690E+03</totfact>
</mgrwt>
</event>
<event>
 5    1  0.4149151E-003  0.2854087E+02  0.7546771E-02  0.1620142E+00
          1   -1    0    0  502    0 -0.00000000000E+00  0.00000000000E+00  0.12359870250E+04  0.12359870250E+04  0.00000000000E+00 0. -1.
          2   -1    0    0  501    0  0.00000000000E+00 -0.00000000000E+00 -0.24981519249E+03  0.24981519249E+03  0.00000000000E+00 0.  1.
         25    1    1    2    0    0  0.48048853328E+02 -0.17111531125E+02  0.46818828573E+03  0.48726457669E+03  0.12500000000E+03 0.  0.
          2    1    1    2  501    0 -0.20074524384E+02  0.19025751307E+02 -0.23922077261E+03  0.24081433468E+03  0.00000000000E+00 0.  1.
          1    1    1    2  502    0 -0.27974328944E+02 -0.19142201826E+01  0.75720431935E+03  0.75772330607E+03  0.00000000000E+00 0. -1.
<mgrwt>
<rscale>  0 0.28095977E+02</rscale>
<asrwt>0</asrwt>
<pdfrwt beam="2">  1        2 0.38433107E-01 0.27658014E+02</pdfrwt>
<pdfrwt beam="1">  1        1 0.19015185E+00 0.28540875E+02</pdfrwt>
<totfact> 0.22849427E+02</totfact>
</mgrwt>
</event>
<event>
 5    1  0.4149151E-003  0.4537450E+02  0.7546771E-02  0.1519339E+00
         -1   -1    0    0    0  501 -0.00000000000E+00  0.00000000000E+00  0.10485834709E+03  0.10485834709E+03  0.00000000000E+00 0.  1.
          2   -1    0    0  502    0  0.00000000000E+00 -0.00000000000E+00 -0.69434234089E+03  0.69434234089E+03  0.00000000000E+00 0. -1.
         25    1    1    2    0    0  0.16100133660E+02  0.54379294321E+02 -0.18338050375E+03  0.22906272309E+03  0.12500000000E+03 0.  0.
          2    1    1    2  502    0 -0.30646717896E+02 -0.11442132039E+02 -0.48125821185E+03  0.48236874917E+03  0.00000000000E+00 0. -1.
         -1    1    1    2    0  501  0.14546584236E+02 -0.42937162282E+02  0.75154721806E+02  0.87769215716E+02  0.00000000000E+00 0.  1.
<mgrwt>
<rscale>  0 0.38527112E+02</rscale>
<asrwt>0</asrwt>
<pdfrwt beam="2">  1        2 0.10682190E+00 0.32713051E+02</pdfrwt>
<pdfrwt beam="1">  1       -1 0.16132053E-01 0.45374502E+02</pdfrwt>
<totfact> 0.13571917E+03</totfact>
</mgrwt>
</event>
<event>
 5    1  0.4149151E-003  0.1016307E+03  0.7546771E-02  0.1417974E+00
         -1   -1    0    0    0  501 -0.00000000000E+00  0.00000000000E+00  0.13650093116E+03  0.13650093116E+03  0.00000000000E+00 0.  1.
          2   -1    0    0  502    0  0.00000000000E+00 -0.00000000000E+00 -0.27916638375E+03  0.27916638375E+03  0.00000000000E+00 0. -1.
         25    1    1    2    0    0 -0.54302724604E+02 -0.87358988643E+02 -0.21118859188E+03  0.26609396862E+03  0.12500000000E+03 0.  0.
          2    1    1    2  502    0  0.28097433751E+02 -0.11222263678E+02  0.22291180057E+02  0.37580602627E+02  0.00000000000E+00 0. -1.
         -1    1    1    2    0  501  0.26205290853E+02  0.98581252320E+02  0.46231959236E+02  0.11199274366E+03  0.00000000000E+00 0.  1.
<mgrwt>
<rscale>  0 0.55451807E+02</rscale>
<asrwt>0</asrwt>
<pdfrwt beam="2">  1        2 0.42948674E-01 0.30255660E+02</pdfrwt>
<pdfrwt beam="1">  1       -1 0.21000143E-01 0.10163066E+03</pdfrwt>
<totfact> 0.23750370E+03</totfact>
</mgrwt>
</event>
<event>
 5    1  0.4149151E-003  0.1237874E+03  0.7546771E-02  0.1284425E+00
          1   -1    0    0  502    0  0.00000000000E+00  0.00000000000E+00  0.93407955112E+03  0.93407955112E+03  0.00000000000E+00 0. -1.
         -3   -1    0    0    0  501 -0.00000000000E+00 -0.00000000000E+00 -0.10401629412E+03  0.10401629412E+03  0.00000000000E+00 0.  1.
         25    1    1    2    0    0 -0.98914601194E+02  0.10517698670E+02  0.54926151135E+03  0.57202091585E+03  0.12500000000E+03 0.  0.
          1    1    1    2  502    0  0.16005363021E+03 -0.58441296674E+02  0.33190749453E+03  0.37308864178E+03  0.00000000000E+00 0. -1.
         -3    1    1    2    0  501 -0.61139029011E+02  0.47923598004E+02 -0.51105748891E+02  0.92986287612E+02  0.00000000000E+00 0.  1.
<mgrwt>
<rscale>  0 0.98062128E+02</rscale>
<asrwt>0</asrwt>
<pdfrwt beam="1">  1        1 0.14370454E+00 0.12378742E+03</pdfrwt>
<pdfrwt beam="2">  1       -3 0.16002507E-01 0.77683023E+02</pdfrwt>
<totfact> 0.31052562E+02</totfact>
</mgrwt>
</event>
<event>
 5    1  0.4149151E-003  0.1127422E+03  0.7546771E-02  0.1375544E+00
          2   -1    0    0  502    0  0.00000000000E+00  0.00000000000E+00  0.13234239439E+03  0.13234239439E+03  0.00000000000E+00 0. -1.
          2   -1    0    0  501    0 -0.00000000000E+00 -0.00000000000E+00 -0.13962107014E+04  0.13962107014E+04  0.00000000000E+00 0. -1.
         25    1    1    2    0    0  0.30525521579E+02  0.69253531428E+02  0.96310615482E+01  0.14644321913E+03  0.12500000000E+03 0.  0.
          2    1    1    2  501    0 -0.46365886907E+02 -0.10404497548E+03 -0.13183024136E+04  0.13232144218E+04  0.00000000000E+00 0. -1.
          2    1    1    2  502    0  0.15840365328E+02  0.34791444051E+02  0.44803045057E+02  0.58895454827E+02  0.00000000000E+00 0. -1.
<mgrwt>
<rscale>  0 0.65649680E+02</rscale>
<asrwt>0</asrwt>
<pdfrwt beam="1">  1        2 0.20360369E-01 0.38227762E+02</pdfrwt>
<pdfrwt beam="2">  1        2 0.21480164E+00 0.11274216E+03</pdfrwt>
<totfact> 0.64841275E+02</totfact>
</mgrwt>
</event>
<event>
 5    1  0.4149151E-003  0.9169488E+02  0.7546771E-02  0.1384020E+00
          2   -1    0    0  501    0  0.00000000000E+00  0.00000000000E+00  0.61619035348E+02  0.61619035348E+02  0.00000000000E+00 0. -1.
          1   -1    0    0  502    0 -0.00000000000E+00 -0.00000000000E+00 -0.48221728084E+03  0.48221728084E+03  0.00000000000E+00 0. -1.
         25    1    1    2    0    0 -0.65053458848E+02  0.10725165110E+03 -0.17083955967E+03  0.24606101747E+03  0.12500000000E+03 0.  0.
          2    1    1    2  501    0  0.33896152645E+02 -0.27837816364E+02 -0.12443464824E+02  0.45593124492E+02  0.00000000000E+00 0. -1.
          1    1    1    2  502    0  0.31157306203E+02 -0.79413834738E+02 -0.23731522101E+03  0.25218217423E+03  0.00000000000E+00 0. -1.
<mgrwt>
<rscale>  0 0.63418767E+02</rscale>
<asrwt>0</asrwt>
<pdfrwt beam="1">  1        2 0.94798515E-02 0.43862207E+02</pdfrwt>
<pdfrwt beam="2">  1        1 0.74187274E-01 0.91694885E+02</pdfrwt>
<totfact> 0.39985845E+03</totfact>
</mgrwt>
</event>
<event>
 5    1  0.4149151E-003  0.1236439E+03  0.7546771E-02  0.1242654E+00
          1   -1    0    0  501    0  0.00000000000E+00  0.00000000000E+00  0.47337525265E+03  0.47337525265E+03  0.00000000000E+00 0. -1.
          1   -1    0    0  502    0 -0.00000000000E+00 -0.00000000000E+00 -0.29520445298E+03  0.29520445298E+03  0.00000000000E+00 0. -1.
         25    1    1    2    0    0 -0.24467944632E+02 -0.51399463834E+02 -0.56036645757E+02  0.14834315240E+03  0.12500000000E+03 0.  0.
          1    1    1    2  501    0  0.13350730318E+03  0.90181187687E+01  0.39746849767E+03  0.41938852286E+03  0.00000000000E+00 0. -1.
          1    1    1    2  502    0 -0.10903935854E+03  0.42381345065E+02 -0.16326105225E+03  0.20084803037E+03  0.00000000000E+00 0. -1.
<mgrwt>
<rscale>  0 0.12026895E+03</rscale>
<asrwt>0</asrwt>
<pdfrwt beam="1">  1        1 0.72826962E-01 0.12364386E+03</pdfrwt>
<pdfrwt beam="2">  1        1 0.45416070E-01 0.11698615E+03</pdfrwt>
<totfact> 0.52943894E+02</totfact>
</mgrwt>
</event>
<event>
 5    1  0.4149151E-003  0.1834788E+03  0.7546771E-02  0.1391032E+00
          2   -1    0    0  501    0  0.00000000000E+00  0.00000000000E+00  0.63780569050E+03  0.63780569050E+03  0.00000000000E+00 0. -1.
          1   -1    0    0  502    0 -0.00000000000E+00 -0.00000000000E+00 -0.61692101361E+03  0.61692101361E+03  0.00000000000E+00 0. -1.
         25    1    1    2    0    0  0.15699005743E+03 -0.94622730441E+02 -0.57148543146E+03  0.61304154640E+03  0.12500000000E+03 0.  0.
          2    1    1    2  501    0 -0.15121361708E+03  0.11451628306E+03  0.59125893750E+03  0.62094014869E+03  0.00000000000E+00 0. -1.
          1    1    1    2  502    0 -0.57764403506E+01 -0.19893552615E+02  0.11111708406E+01  0.20745009024E+02  0.00000000000E+00 0. -1.
<mgrwt>
<rscale>  0 0.61650676E+02</rscale>
<asrwt>0</asrwt>
<pdfrwt beam="1">  1        2 0.98123952E-01 0.20715229E+02</pdfrwt>
<pdfrwt beam="2">  1        1 0.94910925E-01 0.18347883E+03</pdfrwt>
<totfact> 0.23477691E+02</totfact>
</mgrwt>
</event>
<event>
 5    1  0.4149151E-003  0.5250354E+02  0.7546771E-02  0.1454274E+00
          1   -1    0    0  501    0  0.00000000000E+00  0.00000000000E+00  0.23447545420E+03  0.23447545420E+03  0.00000000000E+00 0. -1.
          1   -1    0    0  502    0 -0.00000000000E+00 -0.00000000000E+00 -0.19495201326E+03  0.19495201326E+03  0.00000000000E+00 0. -1.
         25    1    1    2    0    0  0.16527699071E+02  0.50853188868E+01 -0.41834165924E+02  0.13294405870E+03  0.12500000000E+03 0.  0.
          1    1    1    2  501    0  0.26164120064E+02  0.36097429309E+02  0.17777524632E+03  0.18328017838E+03  0.00000000000E+00 0. -1.
          1    1    1    2  502    0 -0.42691819135E+02 -0.41182748195E+02 -0.96417639460E+02  0.11320323038E+03  0.00000000000E+00 0. -1.
<mgrwt>
<rscale>  0 0.48381102E+02</rscale>
<asrwt>0</asrwt>
<pdfrwt beam="1">  1        1 0.36073147E-01 0.44582346E+02</pdfrwt>
<pdfrwt beam="2">  1        1 0.29992617E-01 0.52503542E+02</pdfrwt>
<totfact> 0.20580623E+03</totfact>
</mgrwt>
</event>
<event>
 5    1  0.4149151E-003  0.7467367E+02  0.7546771E-02  0.1363373E+00
          2   -1    0    0  501    0  0.00000000000E+00  0.00000000000E+00  0.20180949739E+04  0.20180949739E+04  0.00000000000E+00 0. -1.
          1   -1    0    0  502    0 -0.00000000000E+00 -0.00000000000E+00 -0.54556969766E+02  0.54556969766E+02  0.00000000000E+00 0. -1.
         25    1    1    2    0    0 -0.65628444463E+01  0.41346422823E+02  0.11252520516E+04  0.11329473850E+04  0.12500000000E+03 0.  0.
          2    1    1    2  501    0 -0.62952903067E+02 -0.10603882885E+02  0.85864510415E+03  0.86101505516E+03  0.00000000000E+00 0. -1.
          1    1    1    2  502    0  0.69515747513E+02 -0.30742539938E+02 -0.20359151560E+02  0.78689503534E+02  0.00000000000E+00 0. -1.
<mgrwt>
<rscale>  0 0.69044525E+02</rscale>
<asrwt>0</asrwt>
<pdfrwt beam="1">  1        2 0.31047609E+00 0.63839724E+02</pdfrwt>
<pdfrwt beam="2">  1        1 0.83933815E-02 0.74673670E+02</pdfrwt>
<totfact> 0.86214620E+02</totfact>
</mgrwt>
</event>
<event>
 5    1  0.4149151E-003  0.7145076E+02  0.7546771E-02  0.1366447E+00
         -1   -1    0    0    0  501 -0.00000000000E+00  0.00000000000E+00  0.51704374394E+02  0.51704374394E+02  0.00000000000E+00 0.  1.
          2   -1    0    0  502    0  0.00000000000E+00 -0.00000000000E+00 -0.80493002565E+03  0.80493002565E+03  0.00000000000E+00 0. -1.
         25    1    1    2    0    0 -0.23828342312E+02  0.60299301812E+02 -0.17062617691E+03  0.22122858753E+03  0.12500000000E+03 0.  0.
          2    1    1    2  502    0 -0.53292990412E+02 -0.37266513500E+02 -0.54082994910E+03  0.54472559119E+03  0.00000000000E+00 0. -1.
         -1    1    1    2    0  501  0.77121332724E+02 -0.23032788312E+02 -0.41769525244E+02  0.90680221315E+02  0.00000000000E+00 0.  1.
<mgrwt>
<rscale>  0 0.68164963E+02</rscale>
<asrwt>0</asrwt>
<pdfrwt beam="2">  1        2 0.12383539E+00 0.65030269E+02</pdfrwt>
<pdfrwt beam="1">  1       -1 0.79545189E-02 0.71450760E+02</pdfrwt>
<totfact> 0.33392972E+03</totfact>
</mgrwt>
</event>
<event>
 5    1  0.4149151E-003  0.4158168E+02  0.7546771E-02  0.1579108E+00
         -1   -1    0    0    0  502 -0.00000000000E+00  0.00000000000E+00  0.59209227046E+02  0.59209227046E+02  0.00000000000E+00 0.  1.
         -2   -1    0    0    0  501  0.00000000000E+00 -0.00000000000E+00 -0.29167244416E+03  0.29167244416E+03  0.00000000000E+00 0. -1.
         25    1    1    2    0    0  0.11964981889E+02 -0.57099131417E+02 -0.14279572971E+03  0.19854241870E+03  0.12500000000E+03 0.  0.
         -2    1    1    2    0  501  0.48483621013E+01  0.39549819531E+02 -0.11228143735E+03  0.11914199936E+03  0.00000000000E+00 0. -1.
         -1    1    1    2    0  502 -0.16813343990E+02  0.17549311886E+02  0.22613949945E+02  0.33197253138E+02  0.00000000000E+00 0.  1.
<mgrwt>
<rscale>  0 0.31789718E+02</rscale>
<asrwt>0</asrwt>
<pdfrwt beam="2">  1       -2 0.44872685E-01 0.41581682E+02</pdfrwt>
<pdfrwt beam="1">  1       -1 0.91091116E-02 0.24303639E+02</pdfrwt>
<totfact> 0.20369375E+03</totfact>
</mgrwt>
</event>
<event>
 5    1  0.4149151E-003  0.6748830E+02  0.7546771E-02  0.1390837E+00
         -1   -1    0    0    0  501  0.00000000000E+00  0.00000000000E+00  0.44381002153E+03  0.44381002153E+03  0.00000000000E+00 0.  1.
         -3   -1    0    0    0  502 -0.00000000000E+00 -0.00000000000E+00 -0.21786421507E+03  0.21786421507E+03  0.00000000000E+00 0.  1.
         25    1    1    2    0    0  0.46905600276E+02  0.10293615976E+03 -0.49284659144E+02  0.17564158377E+03  0.12500000000E+03 0.  0.
         -1    1    1    2    0  501 -0.37288910719E+02 -0.42322767844E+02  0.36937165020E+03  0.37365371069E+03  0.00000000000E+00 0.  1.
         -3    1    1    2    0  502 -0.96166895568E+01 -0.60613391918E+02 -0.94141184599E+02  0.11237894214E+03  0.00000000000E+00 0.  1.
<mgrwt>
<rscale>  0 0.61699033E+02</rscale>
<asrwt>0</asrwt>
<pdfrwt beam="1">  1       -1 0.68278465E-01 0.56406379E+02</pdfrwt>
<pdfrwt beam="2">  1       -3 0.33517572E-01 0.67488300E+02</pdfrwt>
<totfact> 0.86525406E+01</totfact>
</mgrwt>
</event>
<event>
 5    1  0.4149151E-003  0.4742513E+02  0.7546771E-02  0.1492438E+00
         -1   -1    0    0    0  501 -0.00000000000E+00  0.00000000000E+00  0.12406304860E+03  0.12406304860E+03  0.00000000000E+00 0.  1.
          2   -1    0    0  502    0  0.00000000000E+00 -0.00000000000E+00 -0.11711398324E+03  0.11711398324E+03  0.00000000000E+00 0. -1.
         25    1    1    2    0    0 -0.44578890547E+02 -0.31440370939E+02  0.31202799643E+02  0.13990850265E+03  0.12500000000E+03 0.  0.
          2    1    1    2  502    0 -0.36487121892E+01  0.37420203249E+02 -0.35145064781E+02  0.51466108171E+02  0.00000000000E+00 0. -1.
         -1    1    1    2    0  501  0.48227602737E+02 -0.59798323102E+01  0.10891330496E+02  0.49802421027E+02  0.00000000000E+00 0.  1.
<mgrwt>
<rscale>  0 0.42226464E+02</rscale>
<asrwt>0</asrwt>
<pdfrwt beam="2">  1        2 0.18017536E-01 0.37597669E+02</pdfrwt>
<pdfrwt beam="1">  1       -1 0.19086623E-01 0.47425128E+02</pdfrwt>
<totfact> 0.66641041E+03</totfact>
</mgrwt>
</event>
<event>
 5    1  0.4149151E-003  0.1242646E+03  0.7546771E-02  0.1365531E+00
         -1   -1    0    0    0  501 -0.00000000000E+00  0.00000000000E+00  0.51872177529E+02  0.51872177529E+02  0.00000000000E+00 0.  1.
          1   -1    0    0  502    0  0.00000000000E+00 -0.00000000000E+00 -0.65253645331E+03  0.65253645331E+03  0.00000000000E+00 0. -1.
         25    1    1    2    0    0  0.42186370949E+02 -0.13000194312E+03 -0.42085348624E+03  0.45980740749E+03  0.12500000000E+03 0.  0.
          1    1    1    2  502    0 -0.61004856340E+02  0.97359962801E+02 -0.17082207829E+03  0.20586582350E+03  0.00000000000E+00 0. -1.
         -1    1    1    2    0  501  0.18818485391E+02  0.32641980316E+02 -0.89887112555E+01  0.38735399848E+02  0.00000000000E+00 0.  1.
<mgrwt>
<rscale>  0 0.68425465E+02</rscale>
<asrwt>0</asrwt>
<pdfrwt beam="2">  1        1 0.10039023E+00 0.12426456E+03</pdfrwt>
<pdfrwt beam="1">  1       -1 0.79803348E-02 0.37678034E+02</pdfrwt>
<totfact> 0.23862664E+03</totfact>
</mgrwt>
</event>
<event>
 5    1  0.4149151E-003  0.1933306E+03  0.7546771E-02  0.1205530E+00
          2   -1    0    0  501    0  0.00000000000E+00  0.00000000000E+00  0.57653024070E+03  0.57653024070E+03  0.00000000000E+00 0. -1.
          2   -1    0    0  502    0 -0.00000000000E+00 -0.00000000000E+00 -0.34300154318E+03  0.34300154318E+03  0.00000000000E+00 0. -1.
         25    1    1    2    0    0  0.11509193571E+03  0.20019518176E+02  0.36753626419E+02  0.17499361082E+03  0.12500000000E+03 0.  0.
          2    1    1    2  501    0 -0.21221241298E+03 -0.72077801415E+02  0.43094361958E+03  0.48573832558E+03  0.00000000000E+00 0. -1.
          2    1    1    2  502    0  0.97120477274E+02  0.52058283240E+02 -0.23416854847E+03  0.25879984748E+03  0.00000000000E+00 0. -1.
<mgrwt>
<rscale>  0 0.14595765E+03</rscale>
<asrwt>0</asrwt>
<pdfrwt beam="1">  1        2 0.88696960E-01 0.19333057E+03</pdfrwt>
<pdfrwt beam="2">  1        2 0.52769468E-01 0.11019279E+03</pdfrwt>
<totfact> 0.78009914E+02</totfact>
</mgrwt>
</event>
<event>
 5    1  0.4149151E-003  0.3750256E+02  0.7546771E-02  0.1618882E+00
          1   -1    0    0  502    0  0.00000000000E+00  0.00000000000E+00  0.22081499640E+03  0.22081499640E+03  0.00000000000E+00 0. -1.
         -2   -1    0    0    0  501 -0.00000000000E+00 -0.00000000000E+00 -0.55981605257E+02  0.55981605257E+02  0.00000000000E+00 0.  1.
         25    1    1    2    0    0 -0.21951530649E+02  0.24904002895E+02  0.67697780870E+02  0.14597968555E+03  0.12500000000E+03 0.  0.
          1    1    1    2  502    0  0.52593476127E+01 -0.37981448466E+02  0.10207936032E+03  0.10904332611E+03  0.00000000000E+00 0. -1.
         -2    1    1    2    0  501  0.16692183036E+02  0.13077445570E+02 -0.49437500455E+01  0.21773590004E+02  0.00000000000E+00 0.  1.
<mgrwt>
<rscale>  0 0.28199977E+02</rscale>
<asrwt>0</asrwt>
<pdfrwt beam="1">  1        1 0.33971537E-01 0.37502560E+02</pdfrwt>
<pdfrwt beam="2">  1       -2 0.86125548E-02 0.21204918E+02</pdfrwt>
<totfact> 0.75027921E+03</totfact>
</mgrwt>
</event>
<event>
 5    1  0.6568930E-003  0.7376981E+02  0.7546771E-02  0.1394671E+00
          1   -1    0    0  502    0  0.00000000000E+00  0.00000000000E+00  0.14315942933E+03  0.14315942933E+03  0.00000000000E+00 0. -1.
         -2   -1    0    0    0  501 -0.00000000000E+00 -0.00000000000E+00 -0.14737383494E+03  0.14737383494E+03  0.00000000000E+00 0.  1.
         25    1    1    2    0    0 -0.95010822626E+02  0.70626035595E+01  0.33277479887E+02  0.16065281651E+03  0.12500000000E+03 0.  0.
          1    1    1    2  502    0  0.36733473368E+02  0.33986352067E+02 -0.15962017409E+01  0.50069632039E+02  0.00000000000E+00 0. -1.
         -2    1    1    2    0  501  0.58277349258E+02 -0.41048955627E+02 -0.35895683755E+02  0.79810815726E+02  0.00000000000E+00 0.  1.
<mgrwt>
<rscale>  0 0.60759771E+02</rscale>
<asrwt>0</asrwt>
<pdfrwt beam="1">  1        1 0.22024528E-01 0.50044182E+02</pdfrwt>
<pdfrwt beam="2">  1       -2 0.22672898E-01 0.73769808E+02</pdfrwt>
<totfact> 0.30493216E+03</totfact>
</mgrwt>
</event>
<event>
 5    1  0.4149151E-003  0.1115788E+03  0.7546771E-02  0.1309432E+00
          2   -1    0    0  501    0  0.00000000000E+00  0.00000000000E+00  0.15248530570E+03  0.15248530570E+03  0.00000000000E+00 0. -1.
          3   -1    0    0  502    0 -0.00000000000E+00 -0.00000000000E+00 -0.27427605940E+04  0.27427605940E+04  0.00000000000E+00 0. -1.
         25    1    1    2    0    0  0.15881187038E+02  0.15584259766E+03 -0.21916796045E+03  0.29698269686E+03  0.12500000000E+03 0.  0.
          2    1    1    2  501    0 -0.49204760896E+02 -0.96152473052E+02  0.87315611393E+02  0.13888996566E+03  0.00000000000E+00 0. -1.
          3    1    1    2  502    0  0.33323573858E+02 -0.59690124606E+02 -0.24584229392E+04  0.24593732372E+04  0.00000000000E+00 0. -1.
<mgrwt>
<rscale>  0 0.87337041E+02</rscale>
<asrwt>0</asrwt>
<pdfrwt beam="1">  1        2 0.23459277E-01 0.11157883E+03</pdfrwt>
<pdfrwt beam="2">  1        3 0.42196317E+00 0.68362062E+02</pdfrwt>
<totfact> 0.16972339E+00</totfact>
</mgrwt>
</event>
<event>
 5    1  0.4149151E-003  0.1090769E+03  0.7546771E-02  0.1315105E+00
          2   -1    0    0  501    0  0.00000000000E+00  0.00000000000E+00  0.15012342567E+04  0.15012342567E+04  0.00000000000E+00 0.  1.
          1   -1    0    0  502    0 -0.00000000000E+00 -0.00000000000E+00 -0.41438635790E+03  0.41438635790E+03  0.00000000000E+00 0. -1.
         25    1    1    2    0    0 -0.48452000190E+02  0.16265184482E+03 -0.21408018050E+03  0.30043059536E+03  0.12500000000E+03 0.  0.
          2    1    1    2  501    0  0.10521963994E+02 -0.10811131683E+03  0.14489122855E+04  0.14529781759E+04  0.00000000000E+00 0.  1.
          1    1    1    2  502    0  0.37930036196E+02 -0.54540527992E+02 -0.14798420619E+03  0.16221184335E+03  0.00000000000E+00 0. -1.
<mgrwt>
<rscale>  0 0.85125282E+02</rscale>
<asrwt>0</asrwt>
<pdfrwt beam="1">  1        2 0.23095911E+00 0.10907685E+03</pdfrwt>
<pdfrwt beam="2">  1        1 0.63751748E-01 0.66433100E+02</pdfrwt>
<totfact> 0.11851161E+02</totfact>
</mgrwt>
</event>
<event>
 5    1  0.4149151E-003  0.8984834E+02  0.7546771E-02  0.1464476E+00
          3   -1    0    0  502    0 -0.00000000000E+00  0.00000000000E+00  0.40837966342E+03  0.40837966342E+03  0.00000000000E+00 0. -1.
          1   -1    0    0  501    0  0.00000000000E+00 -0.00000000000E+00 -0.65475671807E+02  0.65475671807E+02  0.00000000000E+00 0. -1.
         25    1    1    2    0    0 -0.47305221670E+02  0.54043787602E+02  0.24263635171E+03  0.28223379341E+03  0.12500000000E+03 0.  0.
          1    1    1    2  501    0  0.51466860134E+02 -0.77872771093E+02  0.51600994694E+01  0.93486003211E+02  0.00000000000E+00 0. -1.
          3    1    1    2  502    0 -0.41616384643E+01  0.23828983491E+02  0.95107540439E+02  0.98135538605E+02  0.00000000000E+00 0. -1.
<mgrwt>
<rscale>  0 0.46619747E+02</rscale>
<asrwt>0</asrwt>
<pdfrwt beam="2">  1        1 0.10073180E-01 0.89848339E+02</pdfrwt>
<pdfrwt beam="1">  1        3 0.62827639E-01 0.24189661E+02</pdfrwt>
<totfact> 0.71565219E+02</totfact>
</mgrwt>
</event>
<event>
 5    1  0.4149151E-003  0.1579701E+03  0.7546771E-02  0.1359919E+00
          1   -1    0    0  502    0 -0.00000000000E+00  0.00000000000E+00  0.17321898127E+03  0.17321898127E+03  0.00000000000E+00 0. -1.
          2   -1    0    0  501    0  0.00000000000E+00 -0.00000000000E+00 -0.11224452301E+04  0.11224452301E+04  0.00000000000E+00 0. -1.
         25    1    1    2    0    0 -0.11488004724E+03 -0.82452392802E+02 -0.15735337756E+03  0.24572526888E+03  0.12500000000E+03 0.  0.
          2    1    1    2  501    0 -0.29863656520E+02  0.85515278546E+01 -0.86934515055E+03  0.86989996977E+03  0.00000000000E+00 0. -1.
          1    1    1    2  502    0  0.14474370376E+03  0.73900864948E+02  0.77472279337E+02  0.18003897268E+03  0.00000000000E+00 0. -1.
<mgrwt>
<rscale>  0 0.70051189E+02</rscale>
<asrwt>0</asrwt>
<pdfrwt beam="2">  1        2 0.17268388E+00 0.31063912E+02</pdfrwt>
<pdfrwt beam="1">  1        1 0.26649074E-01 0.15797010E+03</pdfrwt>
<totfact> 0.59891966E+02</totfact>
</mgrwt>
</event>
<event>
 5    1  0.4149151E-003  0.8876575E+02  0.7546771E-02  0.1342171E+00
          1   -1    0    0  502    0  0.00000000000E+00  0.00000000000E+00  0.25794057557E+03  0.25794057557E+03  0.00000000000E+00 0. -1.
         -2   -1    0    0    0  501 -0.00000000000E+00 -0.00000000000E+00 -0.10042078557E+03  0.10042078557E+03  0.00000000000E+00 0.  1.
         25    1    1    2    0    0 -0.22544814098E+02  0.11828470811E+03  0.82456366357E+02  0.19215512787E+03  0.12500000000E+03 0.  0.
          1    1    1    2  502    0  0.48498703974E+02 -0.42225678773E+02  0.51708693117E+02  0.82516187374E+02  0.00000000000E+00 0. -1.
         -2    1    1    2    0  501 -0.25953889876E+02 -0.76059029338E+02  0.23354730532E+02  0.83690045894E+02  0.00000000000E+00 0.  1.
<mgrwt>
<rscale>  0 0.75551843E+02</rscale>
<asrwt>0</asrwt>
<pdfrwt beam="1">  1        1 0.39683165E-01 0.64304994E+02</pdfrwt>
<pdfrwt beam="2">  1       -2 0.15449352E-01 0.88765750E+02</pdfrwt>
<totfact> 0.28636713E+03</totfact>
</mgrwt>
</event>
<event>
 5    1  0.4149151E-003  0.9082532E+02  0.7546771E-02  0.1319669E+00
          1   -1    0    0  502    0 -0.00000000000E+00  0.00000000000E+00  0.17116967314E+03  0.17116967314E+03  0.00000000000E+00 0. -1.
          2   -1    0    0  501    0  0.00000000000E+00 -0.00000000000E+00 -0.13745965226E+04  0.13745965226E+04  0.00000000000E+00 0.  1.
         25    1    1    2    0    0 -0.95510835649E+01 -0.23189643699E+02 -0.17960479020E+03  0.22025408835E+03  0.12500000000E+03 0.  0.
          2    1    1    2  501    0  0.28118789102E+02 -0.71233956769E+02 -0.11579245873E+04  0.11604543476E+04  0.00000000000E+00 0.  1.
          1    1    1    2  502    0 -0.18567705537E+02  0.94423600468E+02  0.13410252810E+03  0.16505775976E+03  0.00000000000E+00 0. -1.
<mgrwt>
<rscale>  0 0.83400644E+02</rscale>
<asrwt>0</asrwt>
<pdfrwt beam="2">  1        2 0.21147639E+00 0.76582915E+02</pdfrwt>
<pdfrwt beam="1">  1        1 0.26333795E-01 0.90825316E+02</pdfrwt>
<totfact> 0.41718257E+02</totfact>
</mgrwt>
</event>
<event>
 5    1  0.4149151E-003  0.7509457E+02  0.7546771E-02  0.1437199E+00
          1   -1    0    0  502    0  0.00000000000E+00  0.00000000000E+00  0.19554450596E+04  0.19554450596E+04  0.00000000000E+00 0. -1.
         -1   -1    0    0    0  501 -0.00000000000E+00 -0.00000000000E+00 -0.84070603136E+03  0.84070603136E+03  0.00000000000E+00 0.  1.
         25    1    1    2    0    0 -0.96787486061E+02 -0.45060773121E+02 -0.83390341283E+02  0.18432916142E+03  0.12500000000E+03 0.  0.
          1    1    1    2  502    0  0.35113005323E+02  0.43051775065E+01  0.19028780011E+04  0.19032068056E+04  0.00000000000E+00 0. -1.
         -1    1    1    2    0  501  0.61674480738E+02  0.40755595614E+02 -0.70474863160E+03  0.70861512395E+03  0.00000000000E+00 0.  1.
<mgrwt>
<rscale>  0 0.51541651E+02</rscale>
<asrwt>0</asrwt>
<pdfrwt beam="1">  1        1 0.30083770E+00 0.35375948E+02</pdfrwt>
<pdfrwt beam="2">  1       -1 0.12933939E+00 0.75094574E+02</pdfrwt>
<totfact> 0.27927625E+00</totfact>
</mgrwt>
</event>
<event>
 5    1  0.4149151E-003  0.5247031E+02  0.7546771E-02  0.1463275E+00
          2   -1    0    0  502    0  0.00000000000E+00  0.00000000000E+00  0.26047219206E+04  0.26047219206E+04  0.00000000000E+00 0. -1.
          2   -1    0    0  501    0 -0.00000000000E+00 -0.00000000000E+00 -0.21901190160E+02  0.21901190160E+02  0.00000000000E+00 0.  1.
         25    1    1    2    0    0 -0.65248874409E+01  0.43140838832E+02  0.31609523917E+03  0.34270235826E+03  0.12500000000E+03 0.  0.
          2    1    1    2  501    0 -0.38781191518E+02 -0.15549697128E+02  0.44422299778E+02  0.60984544057E+02  0.00000000000E+00 0.  1.
          2    1    1    2  502    0  0.45306078959E+02 -0.27591141704E+02  0.22223031915E+04  0.22229362085E+04  0.00000000000E+00 0. -1.
<mgrwt>
<rscale>  0 0.46822418E+02</rscale>
<asrwt>0</asrwt>
<pdfrwt beam="1">  1        2 0.40072620E+00 0.52470315E+02</pdfrwt>
<pdfrwt beam="2">  1        2 0.33694159E-02 0.41782459E+02</pdfrwt>
<totfact> 0.14922400E+03</totfact>
</mgrwt>
</event>
<event>
 5    1  0.4149151E-003  0.7126299E+02  0.7546771E-02  0.1443897E+00
         -1   -1    0    0    0  501 -0.00000000000E+00  0.00000000000E+00  0.14918369960E+02  0.14918369960E+02  0.00000000000E+00 0.  1.
          2   -1    0    0  502    0  0.00000000000E+00 -0.00000000000E+00 -0.17933813938E+04  0.17933813938E+04  0.00000000000E+00 0. -1.
         25    1    1    2    0    0 -0.94095093879E+02  0.37391240771E+02 -0.13886373100E+04  0.13979236640E+04  0.12500000000E+03 0.  0.
          2    1    1    2  502    0  0.27034628291E+02 -0.22945763925E+02 -0.26988022017E+03  0.27219976570E+03  0.00000000000E+00 0. -1.
         -1    1    1    2    0  501  0.67060465588E+02 -0.14445476846E+02 -0.11994549359E+03  0.13817633400E+03  0.00000000000E+00 0.  1.
<mgrwt>
<rscale>  0 0.50268807E+02</rscale>
<asrwt>0</asrwt>
<pdfrwt beam="2">  1        2 0.27590502E+00 0.35459543E+02</pdfrwt>
<pdfrwt beam="1">  1       -1 0.22951323E-02 0.71262988E+02</pdfrwt>
<totfact> 0.63501122E+03</totfact>
</mgrwt>
</event>
<event>
 5    1  0.4149151E-003  0.1055252E+03  0.7546771E-02  0.1391282E+00
          1   -1    0    0  502    0  0.00000000000E+00  0.00000000000E+00  0.52052866434E+03  0.52052866434E+03  0.00000000000E+00 0. -1.
         -2   -1    0    0    0  501 -0.00000000000E+00 -0.00000000000E+00 -0.46488138937E+02  0.46488138937E+02  0.00000000000E+00 0.  1.
         25    1    1    2    0    0 -0.36265194489E+02 -0.10712111954E+03  0.22085615932E+03  0.27783545794E+03  0.12500000000E+03 0.  0.
          1    1    1    2  502    0  0.62659349749E+02  0.82719195803E+02  0.18663659412E+03  0.21354596164E+03  0.00000000000E+00 0. -1.
         -2    1    1    2    0  501 -0.26394155259E+02  0.24401923734E+02  0.66547771961E+02  0.75635383695E+02  0.00000000000E+00 0.  1.
<mgrwt>
<rscale>  0 0.61588913E+02</rscale>
<asrwt>0</asrwt>
<pdfrwt beam="1">  1        1 0.80081329E-01 0.10552518E+03</pdfrwt>
<pdfrwt beam="2">  1       -2 0.71520217E-02 0.35945866E+02</pdfrwt>
<totfact> 0.36635049E+03</totfact>
</mgrwt>
</event>
<event>
 5    1  0.4149151E-003  0.8696043E+02  0.7546771E-02  0.1344099E+00
          2   -1    0    0  502    0  0.00000000000E+00  0.00000000000E+00  0.12056422223E+04  0.12056422223E+04  0.00000000000E+00 0. -1.
         -2   -1    0    0    0  501 -0.00000000000E+00 -0.00000000000E+00 -0.23148667170E+02  0.23148667170E+02  0.00000000000E+00 0.  1.
         25    1    1    2    0    0  0.37569922536E+02  0.98665497990E+02  0.88630511469E+03  0.90128138553E+03  0.12500000000E+03 0.  0.
          2    1    1    2  502    0  0.19947190196E+02 -0.69348550898E+02  0.12200576463E+03  0.14174808116E+03  0.00000000000E+00 0. -1.
         -2    1    1    2    0  501 -0.57517112732E+02 -0.29316947092E+02  0.17418267582E+03  0.18576142280E+03  0.00000000000E+00 0.  1.
<mgrwt>
<rscale>  0 0.74926421E+02</rscale>
<asrwt>0</asrwt>
<pdfrwt beam="1">  1        2 0.18548337E+00 0.86960429E+02</pdfrwt>
<pdfrwt beam="2">  1       -2 0.35613344E-02 0.64557739E+02</pdfrwt>
<totfact> 0.60108488E+03</totfact>
</mgrwt>
</event>
<event>
 5    1  0.4149151E-003  0.1120840E+03  0.7546771E-02  0.1414189E+00
         -1   -1    0    0    0  501 -0.00000000000E+00  0.00000000000E+00  0.86277153644E+03  0.86277153644E+03  0.00000000000E+00 0.  1.
          1   -1    0    0  502    0  0.00000000000E+00 -0.00000000000E+00 -0.34475824379E+02  0.34475824379E+02  0.00000000000E+00 0. -1.
         25    1    1    2    0    0 -0.68660543022E+02 -0.11109327463E+03  0.37575358826E+03  0.41697930995E+03  0.12500000000E+03 0.  0.
          1    1    1    2  502    0  0.57388117595E+02  0.85190721368E+02  0.18807647171E+03  0.21429795673E+03  0.00000000000E+00 0. -1.
         -1    1    1    2    0  501  0.11272425427E+02  0.25902553258E+02  0.26446565210E+03  0.26597009415E+03  0.00000000000E+00 0.  1.
<mgrwt>
<rscale>  0 0.56269597E+02</rscale>
<asrwt>0</asrwt>
<pdfrwt beam="2">  1        1 0.53039736E-02 0.11208397E+03</pdfrwt>
<pdfrwt beam="1">  1       -1 0.13273407E+00 0.28249068E+02</pdfrwt>
<totfact> 0.84511744E+02</totfact>
</mgrwt>
</event>
<event>
 5    1  0.4149151E-003  0.6723617E+02  0.7546771E-02  0.1390400E+00
          2   -1    0    0  502    0  0.00000000000E+00  0.00000000000E+00  0.11111423077E+04  0.11111423077E+04  0.00000000000E+00 0. -1.
         -1   -1    0    0    0  501 -0.00000000000E+00 -0.00000000000E+00 -0.20332672372E+02  0.20332672372E+02  0.00000000000E+00 0.  1.
         25    1    1    2    0    0 -0.10243624975E+03  0.25848495691E+02  0.64149361847E+03  0.66204259117E+03  0.12500000000E+03 0.  0.
          2    1    1    2  502    0  0.55196729533E+02  0.13471866368E+02  0.33362349188E+03  0.33842695589E+03  0.00000000000E+00 0. -1.
         -1    1    1    2    0  501  0.47239520215E+02 -0.39320362059E+02  0.11569252496E+03  0.13100543300E+03  0.00000000000E+00 0.  1.
<mgrwt>
<rscale>  0 0.61807417E+02</rscale>
<asrwt>0</asrwt>
<pdfrwt beam="1">  1        2 0.17094492E+00 0.56816988E+02</pdfrwt>
<pdfrwt beam="2">  1       -1 0.31281043E-02 0.67236173E+02</pdfrwt>
<totfact> 0.85486025E+03</totfact>
</mgrwt>
</event>
<event>
 5    1  0.4149151E-003  0.8305419E+02  0.7546771E-02  0.1487868E+00
          1   -1    0    0  502    0  0.00000000000E+00  0.00000000000E+00  0.97279295457E+03  0.97279295457E+03  0.00000000000E+00 0. -1.
         -1   -1    0    0    0  501 -0.00000000000E+00 -0.00000000000E+00 -0.26263259605E+02  0.26263259605E+02  0.00000000000E+00 0.  1.
         25    1    1    2    0    0  0.28667602120E+02  0.56540842185E+02  0.21561224065E+03  0.25716208228E+03  0.12500000000E+03 0.  0.
          1    1    1    2  502    0 -0.38233995254E+02 -0.76533074864E+02  0.69066494478E+03  0.69594339992E+03  0.00000000000E+00 0. -1.
         -1    1    1    2    0  501  0.95663931345E+01  0.19992232679E+02  0.40252509536E+02  0.45950731975E+02  0.00000000000E+00 0.  1.
<mgrwt>
<rscale>  0 0.42903875E+02</rscale>
<asrwt>0</asrwt>
<pdfrwt beam="1">  1        1 0.14966043E+00 0.83054187E+02</pdfrwt>
<pdfrwt beam="2">  1       -1 0.40405022E-02 0.22163151E+02</pdfrwt>
<totfact> 0.32886324E+03</totfact>
</mgrwt>
</event>
<event>
 5    1  0.4149151E-003  0.5246541E+02  0.7546771E-02  0.1469135E+00
          2   -1    0    0  502    0  0.00000000000E+00  0.00000000000E+00  0.79842768275E+03  0.79842768275E+03  0.00000000000E+00 0. -1.
         -1   -1    0    0    0  501 -0.00000000000E+00 -0.00000000000E+00 -0.26062948948E+02  0.26062948948E+02  0.00000000000E+00 0.  1.
         25    1    1    2    0    0 -0.39142444782E+02 -0.39904251785E+02  0.26284572163E+03  0.29637367237E+03  0.12500000000E+03 0.  0.
          2    1    1    2  502    0  0.53354362904E+02  0.24500552750E+01  0.46567371021E+03  0.46872667429E+03  0.00000000000E+00 0. -1.
         -1    1    1    2    0  501 -0.14211918122E+02  0.37454196510E+02  0.43845301968E+02  0.59390285043E+02  0.00000000000E+00 0.  1.
<mgrwt>
<rscale>  0 0.45844943E+02</rscale>
<asrwt>0</asrwt>
<pdfrwt beam="1">  1        2 0.12283501E+00 0.52465405E+02</pdfrwt>
<pdfrwt beam="2">  1       -1 0.40096851E-02 0.40059898E+02</pdfrwt>
<totfact> 0.86178072E+03</totfact>
</mgrwt>
</event>
<event>
 5    1  0.4149151E-003  0.1316490E+03  0.7546771E-02  0.1312163E+00
          1   -1    0    0  502    0  0.00000000000E+00  0.00000000000E+00  0.80362717370E+02  0.80362717370E+02  0.00000000000E+00 0. -1.
          1   -1    0    0  501    0 -0.00000000000E+00 -0.00000000000E+00 -0.89763047037E+03  0.89763047037E+03  0.00000000000E+00 0. -1.
         25    1    1    2    0    0  0.91888110416E+02  0.36727227188E+02 -0.36607181924E+03  0.39928171871E+03  0.12500000000E+03 0.  0.
          1    1    1    2  501    0 -0.14485304479E+03 -0.56465665660E+02 -0.48739492598E+03  0.51159025582E+03  0.00000000000E+00 0. -1.
          1    1    1    2  502    0  0.52964934371E+02  0.19738438472E+02  0.36198992213E+02  0.67121213216E+02  0.00000000000E+00 0. -1.
<mgrwt>
<rscale>  0 0.86262660E+02</rscale>
<asrwt>0</asrwt>
<pdfrwt beam="1">  1        1 0.12363495E-01 0.56523360E+02</pdfrwt>
<pdfrwt beam="2">  1        1 0.13809700E+00 0.13164905E+03</pdfrwt>
<totfact> 0.10581094E+03</totfact>
</mgrwt>
</event>
<event>
 5    1  0.4149151E-003  0.5073628E+02  0.7546771E-02  0.1462291E+00
          1   -1    0    0  502    0 -0.00000000000E+00  0.00000000000E+00  0.80306433518E+02  0.80306433518E+02  0.00000000000E+00 0. -1.
          2   -1    0    0  501    0  0.00000000000E+00 -0.00000000000E+00 -0.82724230194E+03  0.82724230194E+03  0.00000000000E+00 0. -1.
         25    1    1    2    0    0  0.89178748409E+01  0.81901935970E+01 -0.50790493263E+03  0.52320075339E+03  0.12500000000E+03 0.  0.
          2    1    1    2  501    0 -0.53924905829E+01  0.43183896747E+02 -0.30079862730E+03  0.30393048890E+03  0.00000000000E+00 0. -1.
          1    1    1    2  502    0 -0.35253842580E+01 -0.51374090344E+02  0.61767691510E+02  0.80417493168E+02  0.00000000000E+00 0. -1.
<mgrwt>
<rscale>  0 0.46989431E+02</rscale>
<asrwt>0</asrwt>
<pdfrwt beam="2">  1        2 0.12726804E+00 0.43519282E+02</pdfrwt>
<pdfrwt beam="1">  1        1 0.12354836E-01 0.50736284E+02</pdfrwt>
<totfact> 0.21847985E+03</totfact>
</mgrwt>
</event>
<event>
 5    1  0.4149151E-003  0.6617392E+02  0.7546771E-02  0.1482610E+00
          2   -1    0    0  502    0  0.00000000000E+00  0.00000000000E+00  0.26969974522E+04  0.26969974522E+04  0.00000000000E+00 0. -1.
         -1   -1    0    0    0  501 -0.00000000000E+00 -0.00000000000E+00 -0.63854049259E+01  0.63854049259E+01  0.00000000000E+00 0.  1.
         25    1    1    2    0    0 -0.63984072674E+02  0.14673927523E+02  0.10515432397E+04  0.10609794864E+04  0.12500000000E+03 0.  0.
          2    1    1    2  502    0  0.65670466707E+02  0.14138354134E+02  0.13980037032E+04  0.13996166823E+04  0.00000000000E+00 0. -1.
         -1    1    1    2    0  501 -0.16863940329E+01 -0.28812281657E+02  0.24106510444E+03  0.24278668842E+03  0.00000000000E+00 0.  1.
<mgrwt>
<rscale>  0 0.43702228E+02</rscale>
<asrwt>0</asrwt>
<pdfrwt beam="1">  1        2 0.41492178E+00 0.66173920E+02</pdfrwt>
<pdfrwt beam="2">  1       -1 0.98237214E-03 0.28861592E+02</pdfrwt>
<totfact> 0.57562708E+03</totfact>
</mgrwt>
</event>
<event>
 5    1  0.4149151E-003  0.1071007E+03  0.7546771E-02  0.1307906E+00
          1   -1    0    0  502    0 -0.00000000000E+00  0.00000000000E+00  0.17412042255E+03  0.17412042255E+03  0.00000000000E+00 0. -1.
          2   -1    0    0  501    0  0.00000000000E+00 -0.00000000000E+00 -0.10112559130E+04  0.10112559130E+04  0.00000000000E+00 0. -1.
         25    1    1    2    0    0 -0.10335500000E+03  0.76638653877E+02 -0.54506931002E+03  0.57383036868E+03  0.12500000000E+03 0.  0.
          2    1    1    2  501    0  0.67955248457E+02  0.24436879922E+02 -0.43050404811E+03  0.43651897133E+03  0.00000000000E+00 0. -1.
          1    1    1    2  502    0  0.35399751538E+02 -0.10107553380E+03  0.13843786771E+03  0.17502699551E+03  0.00000000000E+00 0. -1.
<mgrwt>
<rscale>  0 0.87945034E+02</rscale>
<asrwt>0</asrwt>
<pdfrwt beam="2">  1        2 0.15557783E+00 0.72215489E+02</pdfrwt>
<pdfrwt beam="1">  1        1 0.26787757E-01 0.10710069E+03</pdfrwt>
<totfact> 0.64719880E+02</totfact>
</mgrwt>
</event>
<event>
 5    1  0.4149151E-003  0.7283488E+02  0.7546771E-02  0.1386382E+00
          1   -1    0    0  501    0  0.00000000000E+00  0.00000000000E+00  0.10800976571E+04  0.10800976571E+04  0.00000000000E+00 0. -1.
          1   -1    0    0  502    0 -0.00000000000E+00 -0.00000000000E+00 -0.52834543719E+02  0.52834543719E+02  0.00000000000E+00 0. -1.
         25    1    1    2    0    0 -0.23460884341E+02  0.14489760863E+01  0.16056487071E+03  0.20483796116E+03  0.12500000000E+03 0.  0.
          1    1    1    2  501    0  0.72962229940E+02 -0.23460272154E+02  0.87042410262E+03  0.87379173136E+03  0.00000000000E+00 0. -1.
          1    1    1    2  502    0 -0.49501345599E+02  0.22011296068E+02 -0.37258599909E+01  0.54302508260E+02  0.00000000000E+00 0. -1.
<mgrwt>
<rscale>  0 0.62815568E+02</rscale>
<asrwt>0</asrwt>
<pdfrwt beam="1">  1        1 0.16616885E+00 0.72834875E+02</pdfrwt>
<pdfrwt beam="2">  1        1 0.81283921E-02 0.54174536E+02</pdfrwt>
<totfact> 0.13845670E+03</totfact>
</mgrwt>
</event>
<event>
 5    1  0.4149151E-003  0.7796850E+02  0.7546771E-02  0.1447061E+00
         -1   -1    0    0    0  501 -0.00000000000E+00  0.00000000000E+00  0.41611697087E+03  0.41611697087E+03  0.00000000000E+00 0.  1.
          1   -1    0    0  502    0  0.00000000000E+00 -0.00000000000E+00 -0.42668047730E+04  0.42668047730E+04  0.00000000000E+00 0. -1.
         25    1    1    2    0    0  0.28467842599E+01  0.56451643449E+02 -0.19175080786E+03  0.23577163643E+03  0.12500000000E+03 0.  0.
          1    1    1    2  502    0 -0.30235781022E+02 -0.72329373663E+02 -0.40520280177E+04  0.40527863005E+04  0.00000000000E+00 0. -1.
         -1    1    1    2    0  501  0.27388996762E+02  0.15877730214E+02  0.39309102351E+03  0.39436380694E+03  0.00000000000E+00 0.  1.
<mgrwt>
<rscale>  0 0.49682636E+02</rscale>
<asrwt>0</asrwt>
<pdfrwt beam="2">  1        1 0.65643149E+00 0.77968499E+02</pdfrwt>
<pdfrwt beam="1">  1       -1 0.64017997E-01 0.31658482E+02</pdfrwt>
<totfact> 0.26226216E-01</totfact>
</mgrwt>
</event>
<event>
 5    1  0.4149151E-003  0.9864693E+02  0.7546771E-02  0.1322538E+00
          3   -1    0    0  502    0  0.00000000000E+00  0.00000000000E+00  0.13956074318E+04  0.13956074318E+04  0.00000000000E+00 0. -1.
         -3   -1    0    0    0  501 -0.00000000000E+00 -0.00000000000E+00 -0.81031272666E+02  0.81031272666E+02  0.00000000000E+00 0.  1.
         25    1    1    2    0    0  0.12778138877E+03 -0.61466229303E+02  0.12051992926E+03  0.22417902223E+03  0.12500000000E+03 0.  0.
          3    1    1    2  502    0 -0.43482589151E+02  0.53225860571E+02  0.11586010104E+04  0.11606377683E+04  0.00000000000E+00 0. -1.
         -3    1    1    2    0  501 -0.84298799615E+02  0.82403687317E+01  0.35455219421E+02  0.91821913928E+02  0.00000000000E+00 0.  1.
<mgrwt>
<rscale>  0 0.82340406E+02</rscale>
<asrwt>0</asrwt>
<pdfrwt beam="1">  1        3 0.21470882E+00 0.68729381E+02</pdfrwt>
<pdfrwt beam="2">  1       -3 0.12466351E-01 0.98646930E+02</pdfrwt>
<totfact> 0.16022139E+01</totfact>
</mgrwt>
</event>
<event>
 5    1  0.4149151E-003  0.1162439E+03  0.7546771E-02  0.1353837E+00
          2   -1    0    0  502    0  0.00000000000E+00  0.00000000000E+00  0.16444416635E+04  0.16444416635E+04  0.00000000000E+00 0. -1.
         -1   -1    0    0    0  501 -0.00000000000E+00 -0.00000000000E+00 -0.10518010677E+04  0.10518010677E+04  0.00000000000E+00 0.  1.
         25    1    1    2    0    0  0.69287745195E+02 -0.14253809341E+03 -0.63872192603E+02  0.21171338337E+03  0.12500000000E+03 0.  0.
          2    1    1    2  502    0 -0.22252119608E+02  0.38466273723E+02  0.15666371577E+04  0.15672673017E+04  0.00000000000E+00 0. -1.
         -1    1    1    2    0  501 -0.47035625587E+02  0.10407181969E+03 -0.91012436930E+03  0.91726204616E+03  0.00000000000E+00 0.  1.
<mgrwt>
<rscale>  0 0.71873106E+02</rscale>
<asrwt>0</asrwt>
<pdfrwt beam="1">  1        2 0.25299102E+00 0.44438846E+02</pdfrwt>
<pdfrwt beam="2">  1       -1 0.16181555E+00 0.11624387E+03</pdfrwt>
<totfact> 0.50963444E+00</totfact>
</mgrwt>
</event>
<event>
 5    1  0.4149151E-003  0.1077498E+03  0.7546771E-02  0.1368803E+00
         -1   -1    0    0    0  501 -0.00000000000E+00  0.00000000000E+00  0.12990216092E+04  0.12990216092E+04  0.00000000000E+00 0.  1.
          1   -1    0    0  502    0  0.00000000000E+00 -0.00000000000E+00 -0.85653847465E+02  0.85653847465E+02  0.00000000000E+00 0. -1.
         25    1    1    2    0    0 -0.33812469789E+02 -0.60906719306E+02  0.82654123028E+03  0.83883747945E+03  0.12500000000E+03 0.  0.
          1    1    1    2  502    0  0.37097621905E+02  0.10306557492E+03 -0.40230155599E+02  0.11669280914E+03  0.00000000000E+00 0. -1.
         -1    1    1    2    0  501 -0.32851521154E+01 -0.42158855615E+02  0.42705668708E+03  0.42914516810E+03  0.00000000000E+00 0.  1.
<mgrwt>
<rscale>  0 0.67500942E+02</rscale>
<asrwt>0</asrwt>
<pdfrwt beam="2">  1        1 0.13177516E-01 0.10774976E+03</pdfrwt>
<pdfrwt beam="1">  1       -1 0.19984946E+00 0.42286657E+02</pdfrwt>
<totfact> 0.83810988E+01</totfact>
</mgrwt>
</event>
<event>
 5    1  0.4149151E-003  0.9947710E+02  0.7546771E-02  0.1314322E+00
          1   -1    0    0  502    0  0.00000000000E+00  0.00000000000E+00  0.44981089041E+03  0.44981089041E+03  0.00000000000E+00 0. -1.
         -1   -1    0    0    0  501 -0.00000000000E+00 -0.00000000000E+00 -0.66897770183E+02  0.66897770183E+02  0.00000000000E+00 0.  1.
         25    1    1    2    0    0  0.12821185619E+03  0.41634758903E+02  0.20736072606E+03  0.27711947591E+03  0.12500000000E+03 0.  0.
          1    1    1    2  502    0 -0.59036770386E+02 -0.66056738553E+02  0.10971472472E+03  0.14101827465E+03  0.00000000000E+00 0. -1.
         -1    1    1    2    0  501 -0.69175085803E+02  0.24421979650E+02  0.65837669446E+02  0.98570910029E+02  0.00000000000E+00 0.  1.
<mgrwt>
<rscale>  0 0.85425970E+02</rscale>
<asrwt>0</asrwt>
<pdfrwt beam="1">  1        1 0.69201673E-01 0.99477095E+02</pdfrwt>
<pdfrwt beam="2">  1       -1 0.10291965E-01 0.73359564E+02</pdfrwt>
<totfact> 0.28502658E+03</totfact>
</mgrwt>
</event>
<event>
 5    1  0.4149151E-003  0.8506893E+02  0.7546771E-02  0.1319008E+00
          2   -1    0    0  502    0  0.00000000000E+00  0.00000000000E+00  0.22641686470E+04  0.22641686470E+04  0.00000000000E+00 0.  1.
         -3   -1    0    0    0  501 -0.00000000000E+00 -0.00000000000E+00 -0.38427408112E+03  0.38427408112E+03  0.00000000000E+00 0.  1.
         25    1    1    2    0    0 -0.31691083813E+02 -0.24540153346E+02  0.49733852862E+03  0.51437064065E+03  0.12500000000E+03 0.  0.
          2    1    1    2  502    0 -0.24852421908E+02  0.88097645265E+02  0.17522893586E+04  0.17546785559E+04  0.00000000000E+00 0.  1.
         -3    1    1    2    0  501  0.56543505721E+02 -0.63557491919E+02 -0.36973332143E+03  0.37939353157E+03  0.00000000000E+00 0.  1.
<mgrwt>
<rscale>  0 0.83647325E+02</rscale>
<asrwt>0</asrwt>
<pdfrwt beam="1">  1        2 0.34833363E+00 0.82249477E+02</pdfrwt>
<pdfrwt beam="2">  1       -3 0.59119091E-01 0.85068930E+02</pdfrwt>
<totfact> 0.10551662E+01</totfact>
</mgrwt>
</event>
<event>
 5    1  0.4149151E-003  0.1371468E+03  0.7546771E-02  0.1276049E+00
          1   -1    0    0  502    0 -0.00000000000E+00  0.00000000000E+00  0.74409716822E+03  0.74409716822E+03  0.00000000000E+00 0. -1.
          2   -1    0    0  501    0  0.00000000000E+00 -0.00000000000E+00 -0.53976770599E+03  0.53976770599E+03  0.00000000000E+00 0.  1.
         25    1    1    2    0    0  0.29835052658E+02  0.15854371970E+03 -0.12370767294E+03  0.23865211034E+03  0.12500000000E+03 0.  0.
          2    1    1    2  501    0 -0.70638953374E+02 -0.27848290704E+02 -0.34762334532E+03  0.35581930701E+03  0.00000000000E+00 0.  1.
          1    1    1    2  502    0  0.40803900717E+02 -0.13069542900E+03  0.67566048049E+03  0.68939345686E+03  0.00000000000E+00 0. -1.
<mgrwt>
<rscale>  0 0.10204694E+03</rscale>
<asrwt>0</asrwt>
<pdfrwt beam="2">  1        2 0.83041185E-01 0.75930159E+02</pdfrwt>
<pdfrwt beam="1">  1        1 0.11447649E+00 0.13714680E+03</pdfrwt>
<totfact> 0.21201654E+02</totfact>
</mgrwt>
</event>
<event>
 5    1  0.4149151E-003  0.2367481E+03  0.7546771E-02  0.1225295E+00
          1   -1    0    0  502    0  0.00000000000E+00  0.00000000000E+00  0.15602641863E+04  0.15602641863E+04  0.00000000000E+00 0. -1.
         -1   -1    0    0    0  501 -0.00000000000E+00 -0.00000000000E+00 -0.19752574851E+03  0.19752574851E+03  0.00000000000E+00 0.  1.
         25    1    1    2    0    0 -0.23063773161E+03 -0.13938476859E+03  0.11232804038E+04  0.11618974751E+04  0.12500000000E+03 0.  0.
          1    1    1    2  502    0  0.17076308634E+03  0.97616578183E+02  0.38541003278E+03  0.43270072955E+03  0.00000000000E+00 0. -1.
         -1    1    1    2    0  501  0.59874645267E+02  0.41768190407E+02 -0.14595199876E+03  0.16319173024E+03  0.00000000000E+00 0.  1.
<mgrwt>
<rscale>  0 0.13146676E+03</rscale>
<asrwt>0</asrwt>
<pdfrwt beam="1">  1        1 0.24004064E+00 0.23674807E+03</pdfrwt>
<pdfrwt beam="2">  1       -1 0.30388578E-01 0.73003800E+02</pdfrwt>
<totfact> 0.65586872E+01</totfact>
</mgrwt>
</event>
<event>
 5    1  0.4149151E-003  0.6923358E+02  0.7546771E-02  0.1394218E+00
         -2   -1    0    0    0  501 -0.00000000000E+00  0.00000000000E+00  0.65711323639E+02  0.65711323639E+02  0.00000000000E+00 0.  1.
          1   -1    0    0  502    0  0.00000000000E+00 -0.00000000000E+00 -0.45638690613E+03  0.45638690613E+03  0.00000000000E+00 0. -1.
         25    1    1    2    0    0  0.22810198498E+02  0.28154778844E+02 -0.10430386523E+03  0.16678517029E+03  0.12500000000E+03 0.  0.
          1    1    1    2  502    0  0.20459039795E+01 -0.75548412115E+02 -0.29188789298E+03  0.30151333364E+03  0.00000000000E+00 0. -1.
         -2    1    1    2    0  501 -0.24856102478E+02  0.47393633271E+02  0.55161757222E+01  0.53799725832E+02  0.00000000000E+00 0.  1.
<mgrwt>
<rscale>  0 0.60869675E+02</rscale>
<asrwt>0</asrwt>
<pdfrwt beam="2">  1        1 0.70213371E-01 0.69233582E+02</pdfrwt>
<pdfrwt beam="1">  1       -2 0.10109434E-01 0.53516187E+02</pdfrwt>
<totfact> 0.26974446E+03</totfact>
</mgrwt>
</event>
<event>
 5    1  0.5690711E-003  0.8252225E+02  0.7546771E-02  0.1364590E+00
          2   -1    0    0  502    0  0.00000000000E+00  0.00000000000E+00  0.16167798372E+04  0.16167798372E+04  0.00000000000E+00 0. -1.
         -1   -1    0    0    0  501 -0.00000000000E+00 -0.00000000000E+00 -0.13994444723E+02  0.13994444723E+02  0.00000000000E+00 0.  1.
         25    1    1    2    0    0 -0.46492178178E+02 -0.96644336343E+02  0.96675811363E+03  0.98068746329E+03  0.12500000000E+03 0.  0.
          2    1    1    2  502    0 -0.17109184022E+02  0.54564186375E+02  0.23359834728E+03  0.24049565997E+03  0.00000000000E+00 0. -1.
         -1    1    1    2    0  501  0.63601362200E+02  0.42080149968E+02  0.40242893153E+03  0.40959115863E+03  0.00000000000E+00 0.  1.
<mgrwt>
<rscale>  0 0.68694445E+02</rscale>
<asrwt>0</asrwt>
<pdfrwt beam="1">  1        2 0.24873521E+00 0.57183692E+02</pdfrwt>
<pdfrwt beam="2">  1       -1 0.21529928E-02 0.82522247E+02</pdfrwt>
<totfact> 0.82310411E+03</totfact>
</mgrwt>
</event>
<event>
 5    1  0.4149151E-003  0.8119822E+02  0.7546771E-02  0.1327758E+00
          2   -1    0    0  501    0  0.00000000000E+00  0.00000000000E+00  0.11323454027E+03  0.11323454027E+03  0.00000000000E+00 0.  1.
          1   -1    0    0  502    0 -0.00000000000E+00 -0.00000000000E+00 -0.13988319373E+04  0.13988319373E+04  0.00000000000E+00 0. -1.
         25    1    1    2    0    0  0.17182626298E+02  0.34671850119E+02 -0.10037807131E+03  0.16491857699E+03  0.12500000000E+03 0.  0.
          2    1    1    2  501    0 -0.92937578538E+02 -0.98320064822E+01  0.52278604292E+02  0.10708461291E+03  0.00000000000E+00 0.  1.
          1    1    1    2  502    0  0.75754952240E+02 -0.24839843637E+02 -0.12374979301E+04  0.12400632877E+04  0.00000000000E+00 0. -1.
<mgrwt>
<rscale>  0 0.80457464E+02</rscale>
<asrwt>0</asrwt>
<pdfrwt beam="1">  1        2 0.17420698E-01 0.81198223E+02</pdfrwt>
<pdfrwt beam="2">  1        1 0.21520492E+00 0.79723463E+02</pdfrwt>
<totfact> 0.39447334E+02</totfact>
</mgrwt>
</event>
<event>
 5    1  0.4149151E-003  0.1125685E+03  0.7546771E-02  0.1359659E+00
          1   -1    0    0  502    0  0.00000000000E+00  0.00000000000E+00  0.53056639124E+03  0.53056639124E+03  0.00000000000E+00 0. -1.
         -2   -1    0    0    0  501 -0.00000000000E+00 -0.00000000000E+00 -0.54591436353E+02  0.54591436353E+02  0.00000000000E+00 0.  1.
         25    1    1    2    0    0  0.12422141157E+03  0.18671909405E+02  0.34734819256E+03  0.38994277294E+03  0.12500000000E+03 0.  0.
          1    1    1    2  502    0 -0.88977032526E+02 -0.44488416706E+02  0.68050167975E+02  0.12052782625E+03  0.00000000000E+00 0. -1.
         -2    1    1    2    0  501 -0.35244379049E+02  0.25816507300E+02  0.60576594350E+02  0.74687228405E+02  0.00000000000E+00 0.  1.
<mgrwt>
<rscale>  0 0.70127834E+02</rscale>
<asrwt>0</asrwt>
<pdfrwt beam="1">  1        1 0.81625595E-01 0.11256847E+03</pdfrwt>
<pdfrwt beam="2">  1       -2 0.83986829E-02 0.43688194E+02</pdfrwt>
<totfact> 0.28645395E+03</totfact>
</mgrwt>
</event>
<event>
 5    1  0.4149151E-003  0.8742679E+02  0.7546771E-02  0.1442460E+00
         -2   -1    0    0    0  501 -0.00000000000E+00  0.00000000000E+00  0.13419050850E+03  0.13419050850E+03  0.00000000000E+00 0.  1.
          1   -1    0    0  502    0  0.00000000000E+00 -0.00000000000E+00 -0.18386440006E+03  0.18386440006E+03  0.00000000000E+00 0. -1.
         25    1    1    2    0    0  0.25756800711E+02 -0.86197678991E+02  0.49953561407E+02  0.16190679709E+03  0.12500000000E+03 0.  0.
          1    1    1    2  502    0  0.34223192307E+01  0.87630534582E+02 -0.89302611250E+02  0.12516301066E+03  0.00000000000E+00 0. -1.
         -2    1    1    2    0  501 -0.29179119942E+02 -0.14328555911E+01 -0.10324841716E+02  0.30985100809E+02  0.00000000000E+00 0.  1.
<mgrwt>
<rscale>  0 0.50538209E+02</rscale>
<asrwt>0</asrwt>
<pdfrwt beam="2">  1        1 0.28286831E-01 0.87426788E+02</pdfrwt>
<pdfrwt beam="1">  1       -2 0.20644694E-01 0.29214279E+02</pdfrwt>
<totfact> 0.25506612E+03</totfact>
</mgrwt>
</event>
<event>
 5    1  0.4149151E-003  0.6511716E+02  0.7546771E-02  0.1438239E+00
         -3   -1    0    0    0  501 -0.00000000000E+00  0.00000000000E+00  0.87883965678E+02  0.87883965678E+02  0.00000000000E+00 0.  1.
          2   -1    0    0  502    0  0.00000000000E+00 -0.00000000000E+00 -0.12882898223E+04  0.12882898223E+04  0.00000000000E+00 0. -1.
         25    1    1    2    0    0 -0.21692624643E+02 -0.57014856440E+02 -0.43823553644E+03  0.45977891341E+03  0.12500000000E+03 0.  0.
          2    1    1    2  502    0  0.40033742625E+02 -0.59915856358E+01 -0.82473489778E+03  0.82572771013E+03  0.00000000000E+00 0. -1.
         -3    1    1    2    0  501 -0.18341117982E+02  0.63006442076E+02  0.62564577555E+02  0.90667164489E+02  0.00000000000E+00 0.  1.
<mgrwt>
<rscale>  0 0.51341192E+02</rscale>
<asrwt>0</asrwt>
<pdfrwt beam="2">  1        2 0.19819843E+00 0.40479620E+02</pdfrwt>
<pdfrwt beam="1">  1       -3 0.13520610E-01 0.65117162E+02</pdfrwt>
<totfact> 0.49677959E+02</totfact>
</mgrwt>
</event>
<event>
 5    1  0.4149151E-003  0.1134119E+03  0.7546771E-02  0.1444102E+00
          2   -1    0    0  502    0  0.00000000000E+00  0.00000000000E+00  0.23405570996E+04  0.23405570996E+04  0.00000000000E+00 0. -1.
         -1   -1    0    0    0  501 -0.00000000000E+00 -0.00000000000E+00 -0.10156892776E+02  0.10156892776E+02  0.00000000000E+00 0.  1.
         25    1    1    2    0    0 -0.84925331025E+02 -0.73899474741E+02  0.12367296500E+04  0.12481180519E+04  0.12500000000E+03 0.  0.
          2    1    1    2  502    0  0.99635079836E+02  0.57209151749E+02  0.81799150291E+03  0.82602066258E+03  0.00000000000E+00 0. -1.
         -1    1    1    2    0  501 -0.14709748811E+02  0.16690322992E+02  0.27567905388E+03  0.27657527789E+03  0.00000000000E+00 0.  1.
<mgrwt>
<rscale>  0 0.50230584E+02</rscale>
<asrwt>0</asrwt>
<pdfrwt beam="1">  1        2 0.36008528E+00 0.11341189E+03</pdfrwt>
<pdfrwt beam="2">  1       -1 0.15626007E-02 0.22247328E+02</pdfrwt>
<totfact> 0.41450104E+03</totfact>
</mgrwt>
</event>
<event>
 5    1  0.4149151E-003  0.6879253E+02  0.7546771E-02  0.1449281E+00
         -2   -1    0    0    0  501 -0.00000000000E+00  0.00000000000E+00  0.10194802533E+02  0.10194802533E+02  0.00000000000E+00 0.  1.
          2   -1    0    0  502    0  0.00000000000E+00 -0.00000000000E+00 -0.18412270098E+04  0.18412270098E+04  0.00000000000E+00 0. -1.
         25    1    1    2    0    0  0.77937310573E+01  0.46379322036E+02 -0.10842754618E+04  0.10924697070E+04  0.12500000000E+03 0.  0.
          2    1    1    2  502    0 -0.13039813172E+02 -0.81284958044E+02 -0.66257305067E+03  0.66766782804E+03  0.00000000000E+00 0. -1.
         -2    1    1    2    0  501  0.52460821151E+01  0.34905636009E+02 -0.84183694875E+02  0.91284277318E+02  0.00000000000E+00 0.  1.
<mgrwt>
<rscale>  0 0.49276926E+02</rscale>
<asrwt>0</asrwt>
<pdfrwt beam="2">  1        2 0.28326569E+00 0.68792534E+02</pdfrwt>
<pdfrwt beam="1">  1       -2 0.15684312E-02 0.35297660E+02</pdfrwt>
<totfact> 0.84796520E+03</totfact>
</mgrwt>
</event>
<event>
 5    1  0.4149151E-003  0.1062489E+03  0.7546771E-02  0.1457730E+00
         -1   -1    0    0    0  501 -0.00000000000E+00  0.00000000000E+00  0.31842208012E+03  0.31842208012E+03  0.00000000000E+00 0.  1.
          1   -1    0    0  502    0  0.00000000000E+00 -0.00000000000E+00 -0.20738809811E+03  0.20738809811E+03  0.00000000000E+00 0. -1.
         25    1    1    2    0    0  0.88032254858E+02  0.18829688400E+01  0.60875862723E+02  0.16457245860E+03  0.12500000000E+03 0.  0.
          1    1    1    2  502    0 -0.10924164743E+03 -0.52908579412E+01 -0.13561791625E+03  0.17422385003E+03  0.00000000000E+00 0. -1.
         -1    1    1    2    0  501  0.21209392574E+02  0.34078891013E+01  0.18577603554E+03  0.18701386960E+03  0.00000000000E+00 0.  1.
<mgrwt>
<rscale>  0 0.47774245E+02</rscale>
<asrwt>0</asrwt>
<pdfrwt beam="2">  1        1 0.31905861E-01 0.10624888E+03</pdfrwt>
<pdfrwt beam="1">  1       -1 0.48988012E-01 0.21481435E+02</pdfrwt>
<totfact> 0.59649863E+02</totfact>
</mgrwt>
</event>
<event>
 5    1  0.4149151E-003  0.5601297E+02  0.7546771E-02  0.1436902E+00
          2   -1    0    0  501    0  0.00000000000E+00  0.00000000000E+00  0.81318426590E+03  0.81318426590E+03  0.00000000000E+00 0.  1.
          1   -1    0    0  502    0 -0.00000000000E+00 -0.00000000000E+00 -0.10370132265E+03  0.10370132265E+03  0.00000000000E+00 0. -1.
         25    1    1    2    0    0 -0.10655184123E+02 -0.13431370160E+01  0.48748573408E+02  0.13459851550E+03  0.12500000000E+03 0.  0.
          2    1    1    2  501    0  0.49575538925E+02  0.28630833533E+02  0.71088665989E+03  0.71318812518E+03  0.00000000000E+00 0.  1.
          1    1    1    2  502    0 -0.38920354802E+02 -0.27287696517E+02 -0.50152290044E+02  0.69098947863E+02  0.00000000000E+00 0. -1.
<mgrwt>
<rscale>  0 0.51599225E+02</rscale>
<asrwt>0</asrwt>
<pdfrwt beam="1">  1        2 0.12510527E+00 0.56012970E+02</pdfrwt>
<pdfrwt beam="2">  1        1 0.15954050E-01 0.47533277E+02</pdfrwt>
<totfact> 0.15947524E+03</totfact>
</mgrwt>
</event>
<event>
 5    1  0.4149151E-003  0.1371130E+03  0.7546771E-02  0.1271116E+00
          2   -1    0    0  502    0  0.00000000000E+00  0.00000000000E+00  0.14817332858E+04  0.14817332858E+04  0.00000000000E+00 0.  1.
          2   -1    0    0  501    0 -0.00000000000E+00 -0.00000000000E+00 -0.13202794859E+04  0.13202794859E+04  0.00000000000E+00 0. -1.
         25    1    1    2    0    0  0.13307033771E+03 -0.84723917782E+02 -0.19859837533E+03  0.28275815056E+03  0.12500000000E+03 0.  0.
          2    1    1    2  501    0 -0.62610670945E+02  0.12183989681E+03 -0.10741467323E+04  0.10828463691E+04  0.00000000000E+00 0. -1.
          2    1    1    2  502    0 -0.70459666769E+02 -0.37115979024E+02  0.14341989074E+04  0.14364082521E+04  0.00000000000E+00 0.  1.
<mgrwt>
<rscale>  0 0.10449576E+03</rscale>
<asrwt>0</asrwt>
<pdfrwt beam="1">  1        2 0.22795897E+00 0.79637683E+02</pdfrwt>
<pdfrwt beam="2">  1        2 0.20311992E+00 0.13711303E+03</pdfrwt>
<totfact> 0.43115891E+01</totfact>
</mgrwt>
</event>
<event>
 5    1  0.4149151E-003  0.5618257E+02  0.7546771E-02  0.1454187E+00
          1   -1    0    0  502    0  0.00000000000E+00  0.00000000000E+00  0.70445751595E+03  0.70445751595E+03  0.00000000000E+00 0. -1.
         -2   -1    0    0    0  501 -0.00000000000E+00 -0.00000000000E+00 -0.26805825749E+02  0.26805825749E+02  0.00000000000E+00 0.  1.
         25    1    1    2    0    0  0.83502846361E+02  0.38301764939E+02  0.37375070189E+03  0.40466571106E+03  0.12500000000E+03 0.  0.
          1    1    1    2  502    0 -0.47838350945E+02 -0.16713102163E+02  0.26424384042E+03  0.26905880920E+03  0.00000000000E+00 0. -1.
         -2    1    1    2    0  501 -0.35664495416E+02 -0.21588662776E+02  0.39657147888E+02  0.57538821437E+02  0.00000000000E+00 0.  1.
<mgrwt>
<rscale>  0 0.48396605E+02</rscale>
<asrwt>0</asrwt>
<pdfrwt beam="1">  1        1 0.10837807E+00 0.56182569E+02</pdfrwt>
<pdfrwt beam="2">  1       -2 0.41239737E-02 0.41689646E+02</pdfrwt>
<totfact> 0.56607182E+03</totfact>
</mgrwt>
</event>
<event>
 5    1  0.4149151E-003  0.2760008E+03  0.7546771E-02  0.1286993E+00
          2   -1    0    0  501    0  0.00000000000E+00  0.00000000000E+00  0.13857027512E+04  0.13857027512E+04  0.00000000000E+00 0. -1.
          1   -1    0    0  502    0 -0.00000000000E+00 -0.00000000000E+00 -0.29876432748E+04  0.29876432748E+04  0.00000000000E+00 0. -1.
         25    1    1    2    0    0  0.23903890115E+03 -0.18113933894E+03  0.62564949909E+03  0.70499173902E+03  0.12500000000E+03 0.  0.
          2    1    1    2  501    0 -0.33862725932E+02 -0.31341914763E+01  0.71352658009E+03  0.71433653684E+03  0.00000000000E+00 0. -1.
          1    1    1    2  502    0 -0.20517617522E+03  0.18427353042E+03 -0.29411166028E+04  0.29540177502E+04  0.00000000000E+00 0. -1.
<mgrwt>
<rscale>  0 0.96881816E+02</rscale>
<asrwt>0</asrwt>
<pdfrwt beam="1">  1        2 0.21318504E+00 0.34007460E+02</pdfrwt>
<pdfrwt beam="2">  1        1 0.45963742E+00 0.27600080E+03</pdfrwt>
<totfact> 0.18696129E+00</totfact>
</mgrwt>
</event>
<event>
 5    1  0.4149151E-003  0.1239308E+03  0.7546771E-02  0.1272372E+00
          1   -1    0    0  502    0 -0.00000000000E+00  0.00000000000E+00  0.76635416686E+03  0.76635416686E+03  0.00000000000E+00 0. -1.
          2   -1    0    0  501    0  0.00000000000E+00 -0.00000000000E+00 -0.10810553684E+04  0.10810553684E+04  0.00000000000E+00 0. -1.
         25    1    1    2    0    0  0.13339114355E+03 -0.22237454142E+01 -0.96030679672E+02  0.20650673999E+03  0.12500000000E+03 0.  0.
          2    1    1    2  501    0 -0.38188958470E+02 -0.78224026538E+02 -0.92225980717E+03  0.92635875707E+03  0.00000000000E+00 0. -1.
          1    1    1    2  502    0 -0.95202185083E+02  0.80447771953E+02  0.70358928533E+03  0.71454403817E+03  0.00000000000E+00 0. -1.
<mgrwt>
<rscale>  0 0.10386509E+03</rscale>
<asrwt>0</asrwt>
<pdfrwt beam="2">  1        2 0.16631621E+00 0.87048233E+02</pdfrwt>
<pdfrwt beam="1">  1        1 0.11790064E+00 0.12393079E+03</pdfrwt>
<totfact> 0.87505516E+01</totfact>
</mgrwt>
</event>
<event>
 5    1  0.4149151E-003  0.4894857E+02  0.7546771E-02  0.1581969E+00
         -1   -1    0    0    0  501 -0.00000000000E+00  0.00000000000E+00  0.24479211273E+03  0.24479211273E+03  0.00000000000E+00 0.  1.
          2   -1    0    0  502    0  0.00000000000E+00 -0.00000000000E+00 -0.63407813275E+02  0.63407813275E+02  0.00000000000E+00 0. -1.
         25    1    1    2    0    0  0.25179005262E+01  0.62867078920E+02  0.14429712120E+03  0.20101061818E+03  0.12500000000E+03 0.  0.
          2    1    1    2  502    0 -0.94600779012E+01 -0.17943666711E+02 -0.23757662642E+02  0.31239314704E+02  0.00000000000E+00 0. -1.
         -1    1    1    2    0  501  0.69421773750E+01 -0.44923412208E+02  0.60844840899E+02  0.75949993122E+02  0.00000000000E+00 0.  1.
<mgrwt>
<rscale>  0 0.31510413E+02</rscale>
<asrwt>0</asrwt>
<pdfrwt beam="2">  1        2 0.97550483E-02 0.20284680E+02</pdfrwt>
<pdfrwt beam="1">  1       -1 0.37660325E-01 0.48948573E+02</pdfrwt>
<totfact> 0.42359729E+03</totfact>
</mgrwt>
</event>
<event>
 5    1  0.4149151E-003  0.5383330E+02  0.7546771E-02  0.1456769E+00
         -1   -1    0    0    0  501 -0.00000000000E+00  0.00000000000E+00  0.66330228623E+02  0.66330228623E+02  0.00000000000E+00 0.  1.
          2   -1    0    0  502    0  0.00000000000E+00 -0.00000000000E+00 -0.23222723462E+03  0.23222723462E+03  0.00000000000E+00 0. -1.
         25    1    1    2    0    0 -0.57144433124E+02 -0.19289215637E+02 -0.57352163365E+02  0.15017266968E+03  0.12500000000E+03 0.  0.
          2    1    1    2  502    0  0.30428227919E+02 -0.29950333046E+02 -0.63409828658E+02  0.76444135644E+02  0.00000000000E+00 0. -1.
         -1    1    1    2    0  501  0.26716205205E+02  0.49239548683E+02 -0.45135013974E+02  0.71940657916E+02  0.00000000000E+00 0.  1.
<mgrwt>
<rscale>  0 0.47942002E+02</rscale>
<asrwt>0</asrwt>
<pdfrwt beam="2">  1        2 0.35727267E-01 0.42695427E+02</pdfrwt>
<pdfrwt beam="1">  1       -1 0.10204650E-01 0.53833295E+02</pdfrwt>
<totfact> 0.84652798E+03</totfact>
</mgrwt>
</event>
<event>
 5    1  0.4149151E-003  0.3147617E+03  0.7546771E-02  0.1087365E+00
          2   -1    0    0  502    0  0.00000000000E+00  0.00000000000E+00  0.10654469169E+04  0.10654469169E+04  0.00000000000E+00 0. -1.
         -2   -1    0    0    0  501 -0.00000000000E+00 -0.00000000000E+00 -0.13874489069E+04  0.13874489069E+04  0.00000000000E+00 0.  1.
         25    1    1    2    0    0 -0.14079487969E+03 -0.34402888226E+02 -0.16199269161E+03  0.25074566597E+03  0.12500000000E+03 0.  0.
          2    1    1    2  502    0  0.15071353680E+03  0.31218354178E+03  0.97437677160E+03  0.10342065688E+04  0.00000000000E+00 0. -1.
         -2    1    1    2    0  501 -0.99186571061E+01 -0.27778065355E+03 -0.11343860700E+04  0.11679435890E+04  0.00000000000E+00 0.  1.
<mgrwt>
<rscale>  0 0.29578780E+03</rscale>
<asrwt>0</asrwt>
<pdfrwt beam="1">  1        2 0.16391491E+00 0.31476167E+03</pdfrwt>
<pdfrwt beam="2">  1       -2 0.21345368E+00 0.27795768E+03</pdfrwt>
<totfact> 0.28680555E+00</totfact>
</mgrwt>
</event>
<event>
 5    1  0.4149151E-003  0.4442598E+02  0.7546771E-02  0.1479401E+00
          1   -1    0    0  502    0 -0.00000000000E+00  0.00000000000E+00  0.31341093622E+02  0.31341093622E+02  0.00000000000E+00 0. -1.
          2   -1    0    0  501    0  0.00000000000E+00 -0.00000000000E+00 -0.15329723335E+04  0.15329723335E+04  0.00000000000E+00 0. -1.
         25    1    1    2    0    0  0.43991725197E+02 -0.36910503611E+02 -0.27576877725E+03  0.30817377512E+03  0.12500000000E+03 0.  0.
          2    1    1    2  501    0  0.41028350888E+00  0.43972483708E+02 -0.12063112859E+04  0.12071125325E+04  0.00000000000E+00 0. -1.
          1    1    1    2  502    0 -0.44402008706E+02 -0.70619800973E+01 -0.19551176820E+02  0.49027119588E+02  0.00000000000E+00 0. -1.
<mgrwt>
<rscale>  0 0.44199611E+02</rscale>
<asrwt>0</asrwt>
<pdfrwt beam="2">  1        2 0.23584185E+00 0.43974398E+02</pdfrwt>
<pdfrwt beam="1">  1        1 0.48217077E-02 0.44425977E+02</pdfrwt>
<totfact> 0.30603245E+03</totfact>
</mgrwt>
</event>
<event>
 5    1  0.4149151E-003  0.5146232E+02  0.7546771E-02  0.1446300E+00
         -1   -1    0    0    0  501 -0.00000000000E+00  0.00000000000E+00  0.52703437622E+03  0.52703437622E+03  0.00000000000E+00 0.  1.
          1   -1    0    0  502    0  0.00000000000E+00 -0.00000000000E+00 -0.63128193333E+03  0.63128193333E+03  0.00000000000E+00 0. -1.
         25    1    1    2    0    0 -0.61906205822E+02 -0.21204502541E+02  0.22417665881E+03  0.26488145198E+03  0.12500000000E+03 0.  0.
          1    1    1    2  502    0  0.21122656971E+02  0.46960017503E+02 -0.60777395981E+03  0.60995130634E+03  0.00000000000E+00 0. -1.
         -1    1    1    2    0  501  0.40783548851E+02 -0.25755514963E+02  0.27934974389E+03  0.28348355123E+03  0.00000000000E+00 0.  1.
<mgrwt>
<rscale>  0 0.49822692E+02</rscale>
<asrwt>0</asrwt>
<pdfrwt beam="2">  1        1 0.97120297E-01 0.51462321E+02</pdfrwt>
<pdfrwt beam="1">  1       -1 0.81082212E-01 0.48235303E+02</pdfrwt>
<totfact> 0.58905331E+01</totfact>
</mgrwt>
</event>
<event>
 5    1  0.4149151E-003  0.1150439E+03  0.7546771E-02  0.1256548E+00
          2   -1    0    0  502    0  0.00000000000E+00  0.00000000000E+00  0.71249444172E+03  0.71249444172E+03  0.00000000000E+00 0. -1.
          2   -1    0    0  501    0 -0.00000000000E+00 -0.00000000000E+00 -0.10836008996E+04  0.10836008996E+04  0.00000000000E+00 0. -1.
         25    1    1    2    0    0 -0.62330677314E+02 -0.51705975656E+02 -0.52583410885E+03  0.54652093398E+03  0.12500000000E+03 0.  0.
          2    1    1    2  501    0  0.15747203995E+03 -0.12971786686E+02 -0.53113043537E+03  0.55413468579E+03  0.00000000000E+00 0. -1.
          2    1    1    2  502    0 -0.95141362633E+02  0.64677762341E+02  0.68585808630E+03  0.69543972159E+03  0.00000000000E+00 0. -1.
<mgrwt>
<rscale>  0 0.11220092E+03</rscale>
<asrwt>0</asrwt>
<pdfrwt beam="1">  1        2 0.10961453E+00 0.11504387E+03</pdfrwt>
<pdfrwt beam="2">  1        2 0.16670783E+00 0.10942822E+03</pdfrwt>
<totfact> 0.16155918E+02</totfact>
</mgrwt>
</event>
<event>
 5    1  0.4677101E-003  0.4794414E+02  0.7546771E-02  0.1472906E+00
          2   -1    0    0  502    0  0.00000000000E+00  0.00000000000E+00  0.91830252059E+03  0.91830252059E+03  0.00000000000E+00 0. -1.
         -1   -1    0    0    0  501 -0.00000000000E+00 -0.00000000000E+00 -0.24420752074E+02  0.24420752074E+02  0.00000000000E+00 0.  1.
         25    1    1    2    0    0 -0.45697059001E+02  0.24209344677E+02  0.78944661006E+03  0.80095272251E+03  0.12500000000E+03 0.  0.
          2    1    1    2  502    0  0.49740180496E+02  0.18269684316E+02  0.62547944713E+02  0.81976291137E+02  0.00000000000E+00 0. -1.
         -1    1    1    2    0  501 -0.40431214951E+01 -0.42479028993E+02  0.41887213750E+02  0.59794259016E+02  0.00000000000E+00 0.  1.
<mgrwt>
<rscale>  0 0.45230791E+02</rscale>
<asrwt>0</asrwt>
<pdfrwt beam="1">  1        2 0.14127728E+00 0.47944136E+02</pdfrwt>
<pdfrwt beam="2">  1       -1 0.37570395E-02 0.42671006E+02</pdfrwt>
<totfact> 0.80662500E+03</totfact>
</mgrwt>
</event>
<event>
 5    1  0.4149151E-003  0.1419757E+03  0.7546771E-02  0.1347427E+00
          2   -1    0    0  502    0  0.00000000000E+00  0.00000000000E+00  0.22590844181E+04  0.22590844181E+04  0.00000000000E+00 0. -1.
         -1   -1    0    0    0  501 -0.00000000000E+00 -0.00000000000E+00 -0.20083555891E+02  0.20083555891E+02  0.00000000000E+00 0.  1.
         25    1    1    2    0    0  0.41920090765E+02 -0.14971972631E+03  0.64559448821E+03  0.67571483161E+03  0.12500000000E+03 0.  0.
          2    1    1    2  502    0  0.11920913893E+02  0.36532162970E+02  0.72839577937E+03  0.72940874585E+03  0.00000000000E+00 0. -1.
         -1    1    1    2    0  501 -0.53841004658E+02  0.11318756334E+03  0.86501059459E+03  0.87404439649E+03  0.00000000000E+00 0.  1.
<mgrwt>
<rscale>  0 0.73863618E+02</rscale>
<asrwt>0</asrwt>
<pdfrwt beam="1">  1        2 0.34755125E+00 0.38427947E+02</pdfrwt>
<pdfrwt beam="2">  1       -1 0.30897796E-02 0.14197569E+03</pdfrwt>
<totfact> 0.26558226E+03</totfact>
</mgrwt>
</event>
<event>
 5    1  0.4149151E-003  0.4168638E+02  0.7546771E-02  0.1554639E+00
          1   -1    0    0  502    0  0.00000000000E+00  0.00000000000E+00  0.72799844711E+02  0.72799844711E+02  0.00000000000E+00 0. -1.
          1   -1    0    0  501    0 -0.00000000000E+00 -0.00000000000E+00 -0.21892563487E+04  0.21892563487E+04  0.00000000000E+00 0. -1.
         25    1    1    2    0    0  0.43629808266E+02 -0.50201627093E+02 -0.25856740548E+03  0.29479801002E+03  0.12500000000E+03 0.  0.
          1    1    1    2  501    0 -0.34005096410E+02  0.23619971587E+02 -0.19086802992E+04  0.19091293131E+04  0.00000000000E+00 0. -1.
          1    1    1    2  502    0 -0.96247118560E+01  0.26581655506E+02  0.50791200713E+02  0.58128870259E+02  0.00000000000E+00 0. -1.
<mgrwt>
<rscale>  0 0.34329194E+02</rscale>
<asrwt>0</asrwt>
<pdfrwt beam="1">  1        1 0.11199975E-01 0.28270470E+02</pdfrwt>
<pdfrwt beam="2">  1        1 0.33680871E+00 0.41686380E+02</pdfrwt>
<totfact> 0.18615383E+02</totfact>
</mgrwt>
</event>
<event>
 5    1  0.4149151E-003  0.5196998E+02  0.7546771E-02  0.1475615E+00
         -2   -1    0    0    0  501 -0.00000000000E+00  0.00000000000E+00  0.13860254463E+02  0.13860254463E+02  0.00000000000E+00 0.  1.
          2   -1    0    0  502    0  0.00000000000E+00 -0.00000000000E+00 -0.32170609534E+04  0.32170609534E+04  0.00000000000E+00 0.  1.
         25    1    1    2    0    0  0.61993089008E+02  0.20211530553E+02 -0.93177109084E+03  0.94237679024E+03  0.12500000000E+03 0.  0.
          2    1    1    2  502    0 -0.49283430406E+02  0.16250343473E+02 -0.22345375518E+04  0.22351400405E+04  0.00000000000E+00 0.  1.
         -2    1    1    2    0  501 -0.12709658602E+02 -0.36461874026E+02 -0.36892056273E+02  0.53404377118E+02  0.00000000000E+00 0.  1.
<mgrwt>
<rscale>  0 0.44796691E+02</rscale>
<asrwt>0</asrwt>
<pdfrwt beam="2">  1        2 0.49493258E+00 0.51969977E+02</pdfrwt>
<pdfrwt beam="1">  1       -2 0.21323463E-02 0.38613517E+02</pdfrwt>
<totfact> 0.11125960E+03</totfact>
</mgrwt>
</event>
<event>
 5    1  0.4149151E-003  0.4100898E+02  0.7546771E-02  0.1531345E+00
         -1   -1    0    0    0  501 -0.00000000000E+00  0.00000000000E+00  0.12532061832E+02  0.12532061832E+02  0.00000000000E+00 0.  1.
          2   -1    0    0  502    0  0.00000000000E+00 -0.00000000000E+00 -0.17674266689E+04  0.17674266689E+04  0.00000000000E+00 0. -1.
         25    1    1    2    0    0  0.39163600427E+02 -0.12282714354E+02 -0.38543016378E+03  0.40726657587E+03  0.12500000000E+03 0.  0.
          2    1    1    2  502    0 -0.13495913223E+02 -0.30576648275E+02 -0.26513538278E+03  0.26723368481E+03  0.00000000000E+00 0. -1.
         -1    1    1    2    0  501 -0.25667687203E+02  0.42859362629E+02 -0.11043290605E+04  0.11054584701E+04  0.00000000000E+00 0.  1.
<mgrwt>
<rscale>  0 0.37021983E+02</rscale>
<asrwt>0</asrwt>
<pdfrwt beam="2">  1        2 0.27191186E+00 0.33422614E+02</pdfrwt>
<pdfrwt beam="1">  1       -1 0.19280091E-02 0.41008977E+02</pdfrwt>
<totfact> 0.77320075E+03</totfact>
</mgrwt>
</event>
<event>
 5    1  0.4149151E-003  0.1415132E+03  0.7546771E-02  0.1374102E+00
          2   -1    0    0  501    0  0.00000000000E+00  0.00000000000E+00  0.13678528347E+04  0.13678528347E+04  0.00000000000E+00 0. -1.
          1   -1    0    0  502    0 -0.00000000000E+00 -0.00000000000E+00 -0.11242934734E+03  0.11242934734E+03  0.00000000000E+00 0. -1.
         25    1    1    2    0    0 -0.63992597433E+02  0.14155632502E+03  0.37463932644E+03  0.42439706714E+03  0.12500000000E+03 0.  0.
          2    1    1    2  501    0  0.30267711769E+02 -0.58015782675E+01  0.91203508520E+03  0.91255563628E+03  0.00000000000E+00 0. -1.
          1    1    1    2  502    0  0.33724885664E+02 -0.13575474675E+03 -0.31250924265E+02  0.14332947863E+03  0.00000000000E+00 0. -1.
<mgrwt>
<rscale>  0 0.66039797E+02</rscale>
<asrwt>0</asrwt>
<pdfrwt beam="1">  1        2 0.21043889E+00 0.30818707E+02</pdfrwt>
<pdfrwt beam="2">  1        1 0.17296824E-01 0.14151323E+03</pdfrwt>
<totfact> 0.77729597E+02</totfact>
</mgrwt>
</event>
<event>
 5    1  0.4149151E-003  0.1215748E+03  0.7546771E-02  0.1398719E+00
         -2   -1    0    0    0  501 -0.00000000000E+00  0.00000000000E+00  0.58304260669E+03  0.58304260669E+03  0.00000000000E+00 0.  1.
          2   -1    0    0  502    0  0.00000000000E+00 -0.00000000000E+00 -0.60413906031E+02  0.60413906031E+02  0.00000000000E+00 0. -1.
         25    1    1    2    0    0 -0.69611890448E+02  0.85393498792E+02  0.21148098431E+03  0.26923423195E+03  0.12500000000E+03 0.  0.
          2    1    1    2  502    0 -0.28947500299E+02 -0.51590376607E+01 -0.81913863399E+01  0.30523306723E+02  0.00000000000E+00 0. -1.
         -2    1    1    2    0  501  0.98559390746E+02 -0.80234461131E+02  0.31933910269E+03  0.34369897405E+03  0.00000000000E+00 0.  1.
<mgrwt>
<rscale>  0 0.59789125E+02</rscale>
<asrwt>0</asrwt>
<pdfrwt beam="2">  1        2 0.92944475E-02 0.29403630E+02</pdfrwt>
<pdfrwt beam="1">  1       -2 0.89698858E-01 0.12157477E+03</pdfrwt>
<totfact> 0.67863861E+02</totfact>
</mgrwt>
</event>
<event>
 5    1  0.4149151E-003  0.8075596E+02  0.7546771E-02  0.1385271E+00
          1   -1    0    0  502    0 -0.00000000000E+00  0.00000000000E+00  0.36934861981E+03  0.36934861981E+03  0.00000000000E+00 0. -1.
          2   -1    0    0  501    0  0.00000000000E+00 -0.00000000000E+00 -0.31428527468E+03  0.31428527468E+03  0.00000000000E+00 0. -1.
         25    1    1    2    0    0 -0.86205579589E+02  0.41973600681E+02  0.66668752809E+02  0.17106404563E+03  0.12500000000E+03 0.  0.
          2    1    1    2  501    0  0.42296429500E+02  0.25330752115E+02 -0.25320284135E+03  0.25795796909E+03  0.00000000000E+00 0. -1.
          1    1    1    2  502    0  0.43909150089E+02 -0.67304352796E+02  0.24159743366E+03  0.25461187977E+03  0.00000000000E+00 0. -1.
<mgrwt>
<rscale>  0 0.63098237E+02</rscale>
<asrwt>0</asrwt>
<pdfrwt beam="2">  1        2 0.48351581E-01 0.49301470E+02</pdfrwt>
<pdfrwt beam="1">  1        1 0.56822864E-01 0.80755959E+02</pdfrwt>
<totfact> 0.95285220E+02</totfact>
</mgrwt>
</event>
<event>
 5    1  0.4149151E-003  0.3890378E+02  0.7546771E-02  0.1525110E+00
         -1   -1    0    0    0  501 -0.00000000000E+00  0.00000000000E+00  0.34565626410E+03  0.34565626410E+03  0.00000000000E+00 0.  1.
          1   -1    0    0  502    0  0.00000000000E+00 -0.00000000000E+00 -0.36635264273E+02  0.36635264273E+02  0.00000000000E+00 0. -1.
         25    1    1    2    0    0  0.14146380788E+02 -0.56934943771E+01  0.13098115097E+03  0.18169644432E+03  0.12500000000E+03 0.  0.
          1    1    1    2  502    0 -0.50851643369E+02  0.65017199174E+01  0.72054685918E+02  0.88430988675E+02  0.00000000000E+00 0. -1.
         -1    1    1    2    0  501  0.36705262581E+02 -0.80822554023E+00  0.10598516294E+03  0.11216409538E+03  0.00000000000E+00 0.  1.
<mgrwt>
<rscale>  0 0.37793114E+02</rscale>
<asrwt>0</asrwt>
<pdfrwt beam="2">  1        1 0.56361947E-02 0.38903776E+02</pdfrwt>
<pdfrwt beam="1">  1       -1 0.53177885E-01 0.36714160E+02</pdfrwt>
<totfact> 0.44189700E+03</totfact>
</mgrwt>
</event>
<event>
 5    1  0.4149151E-003  0.9823770E+02  0.7546771E-02  0.1470669E+00
          2   -1    0    0  502    0  0.00000000000E+00  0.00000000000E+00  0.24076005093E+02  0.24076005093E+02  0.00000000000E+00 0.  1.
          2   -1    0    0  501    0 -0.00000000000E+00 -0.00000000000E+00 -0.98335642037E+03  0.98335642037E+03  0.00000000000E+00 0. -1.
         25    1    1    2    0    0 -0.11001361938E+03  0.17397685224E+02 -0.58153933516E+03  0.60516004019E+03  0.12500000000E+03 0.  0.
          2    1    1    2  501    0  0.15847082882E+02 -0.14023137349E+02 -0.19984622445E+03  0.20096340921E+03  0.00000000000E+00 0. -1.
          2    1    1    2  502    0  0.94166536501E+02 -0.33745478747E+01 -0.17789485568E+03  0.20130897607E+03  0.00000000000E+00 0.  1.
<mgrwt>
<rscale>  0 0.45593704E+02</rscale>
<asrwt>0</asrwt>
<pdfrwt beam="1">  1        2 0.37040005E-02 0.98237697E+02</pdfrwt>
<pdfrwt beam="2">  1        2 0.15128561E+00 0.21160775E+02</pdfrwt>
<totfact> 0.10089877E+04</totfact>
</mgrwt>
</event>
<event>
 5    1  0.4149151E-003  0.7994663E+02  0.7546771E-02  0.1459006E+00
          1   -1    0    0  502    0 -0.00000000000E+00  0.00000000000E+00  0.11565394203E+03  0.11565394203E+03  0.00000000000E+00 0. -1.
          2   -1    0    0  501    0  0.00000000000E+00 -0.00000000000E+00 -0.78207880191E+03  0.78207880191E+03  0.00000000000E+00 0. -1.
         25    1    1    2    0    0 -0.10454990802E+03  0.18454882570E+02 -0.21334325920E+03  0.26909405829E+03  0.12500000000E+03 0.  0.
          2    1    1    2  501    0  0.27259579023E+02 -0.75461706281E+01 -0.52304942107E+03  0.52381363692E+03  0.00000000000E+00 0. -1.
          1    1    1    2  502    0  0.77290328997E+02 -0.10908711942E+02  0.69967820395E+02  0.10482504874E+03  0.00000000000E+00 0. -1.
<mgrwt>
<rscale>  0 0.47552850E+02</rscale>
<asrwt>0</asrwt>
<pdfrwt beam="2">  1        2 0.12031981E+00 0.28284790E+02</pdfrwt>
<pdfrwt beam="1">  1        1 0.17792915E-01 0.79946627E+02</pdfrwt>
<totfact> 0.15317304E+03</totfact>
</mgrwt>
</event>
<event>
 5    1  0.4149151E-003  0.1047672E+03  0.7546771E-02  0.1325896E+00
          1   -1    0    0  502    0  0.00000000000E+00  0.00000000000E+00  0.18580261177E+03  0.18580261177E+03  0.00000000000E+00 0. -1.
          1   -1    0    0  501    0 -0.00000000000E+00 -0.00000000000E+00 -0.93802894383E+03  0.93802894383E+03  0.00000000000E+00 0. -1.
         25    1    1    2    0    0 -0.60101656129E+02  0.45487445234E+02 -0.22719234009E+02  0.14772433901E+03  0.12500000000E+03 0.  0.
          1    1    1    2  501    0  0.32649473567E+02 -0.10198507893E+03 -0.84118641697E+03  0.84797495986E+03  0.00000000000E+00 0. -1.
          1    1    1    2  502    0  0.27452182562E+02  0.56497633694E+02  0.11167931892E+03  0.12813225673E+03  0.00000000000E+00 0. -1.
<mgrwt>
<rscale>  0 0.81122455E+02</rscale>
<asrwt>0</asrwt>
<pdfrwt beam="1">  1        1 0.28585017E-01 0.62814051E+02</pdfrwt>
<pdfrwt beam="2">  1        1 0.14431215E+00 0.10476721E+03</pdfrwt>
<totfact> 0.35412339E+02</totfact>
</mgrwt>
</event>
<event>
 5    1  0.4149151E-003  0.1754084E+03  0.7546771E-02  0.1296016E+00
          2   -1    0    0  501    0  0.00000000000E+00  0.00000000000E+00  0.19485137346E+04  0.19485137346E+04  0.00000000000E+00 0. -1.
          3   -1    0    0  502    0 -0.00000000000E+00 -0.00000000000E+00 -0.14647891145E+03  0.14647891145E+03  0.00000000000E+00 0. -1.
         25    1    1    2    0    0 -0.17358553323E+03 -0.81853650303E+02  0.95241635351E+03  0.97956820479E+03  0.12500000000E+03 0.  0.
          2    1    1    2  501    0  0.19103147016E+01  0.49146869758E+02  0.92413151502E+03  0.92543942058E+03  0.00000000000E+00 0. -1.
          3    1    1    2  502    0  0.17167521852E+03  0.32706780544E+02 -0.74513045384E+02  0.18998502068E+03  0.00000000000E+00 0. -1.
<mgrwt>
<rscale>  0 0.92883176E+02</rscale>
<asrwt>0</asrwt>
<pdfrwt beam="1">  1        2 0.29977133E+00 0.49183982E+02</pdfrwt>
<pdfrwt beam="2">  1        3 0.22535219E-01 0.17540841E+03</pdfrwt>
<totfact> 0.10521336E+02</totfact>
</mgrwt>
</event>
<event>
 5    1  0.4149151E-003  0.8359322E+02  0.7546771E-02  0.1495276E+00
         -1   -1    0    0    0  502 -0.00000000000E+00  0.00000000000E+00  0.79721560035E+03  0.79721560035E+03  0.00000000000E+00 0.  1.
         -2   -1    0    0    0  501  0.00000000000E+00 -0.00000000000E+00 -0.31694350412E+02  0.31694350412E+02  0.00000000000E+00 0.  1.
         25    1    1    2    0    0 -0.61028199362E+02 -0.74136675318E+02  0.42591083206E+03  0.45414284604E+03  0.12500000000E+03 0.  0.
         -2    1    1    2    0  501  0.40468204270E+02  0.70299209850E+02  0.78698292374E+02  0.11301803257E+03  0.00000000000E+00 0.  1.
         -1    1    1    2    0  502  0.20559995092E+02  0.38374654684E+01  0.26091212550E+03  0.26174907215E+03  0.00000000000E+00 0.  1.
<mgrwt>
<rscale>  0 0.41813357E+02</rscale>
<asrwt>0</asrwt>
<pdfrwt beam="2">  1       -2 0.48760545E-02 0.83593220E+02</pdfrwt>
<pdfrwt beam="1">  1       -1 0.12264854E+00 0.20915055E+02</pdfrwt>
<totfact> 0.97675980E+02</totfact>
</mgrwt>
</event>
<event>
 5    1  0.4149151E-003  0.3384328E+02  0.7546771E-02  0.1578859E+00
          2   -1    0    0  501    0  0.00000000000E+00  0.00000000000E+00  0.22228554330E+04  0.22228554330E+04  0.00000000000E+00 0. -1.
          2   -1    0    0  502    0 -0.00000000000E+00 -0.00000000000E+00 -0.82987625322E+03  0.82987625322E+03  0.00000000000E+00 0. -1.
         25    1    1    2    0    0  0.30173427018E+02  0.51576930363E+02  0.63902500092E+02  0.15257504698E+03  0.12500000000E+03 0.  0.
          2    1    1    2  501    0 -0.25608662715E+02 -0.22020412399E+02  0.21141970804E+04  0.21144668351E+04  0.00000000000E+00 0. -1.
          2    1    1    2  502    0 -0.45647643034E+01 -0.29556517964E+02 -0.78512040065E+03  0.78568980415E+03  0.00000000000E+00 0. -1.
<mgrwt>
<rscale>  0 0.31814285E+02</rscale>
<asrwt>0</asrwt>
<pdfrwt beam="1">  1        2 0.34197776E+00 0.33843277E+02</pdfrwt>
<pdfrwt beam="2">  1        2 0.12767327E+00 0.29906936E+02</pdfrwt>
<totfact> 0.42191190E+01</totfact>
</mgrwt>
</event>
<event>
 5    1  0.4149151E-003  0.7323008E+02  0.7546771E-02  0.1505252E+00
          1   -1    0    0  502    0  0.00000000000E+00  0.00000000000E+00  0.69041884779E+03  0.69041884779E+03  0.00000000000E+00 0. -1.
         -2   -1    0    0    0  501 -0.00000000000E+00 -0.00000000000E+00 -0.23542072065E+02  0.23542072065E+02  0.00000000000E+00 0.  1.
         25    1    1    2    0    0  0.23917300051E+02 -0.56554252316E+02  0.49955504036E+03  0.51860453049E+03  0.12500000000E+03 0.  0.
          1    1    1    2  502    0  0.21529086816E+02 -0.57884611691E+01  0.25207130746E+02  0.33651260040E+02  0.00000000000E+00 0. -1.
         -2    1    1    2    0  501 -0.45446386867E+02  0.62342713485E+02  0.14211460462E+03  0.16170512933E+03  0.00000000000E+00 0.  1.
<mgrwt>
<rscale>  0 0.40405041E+02</rscale>
<asrwt>0</asrwt>
<pdfrwt beam="1">  1        1 0.10621827E+00 0.22293673E+02</pdfrwt>
<pdfrwt beam="2">  1       -2 0.36218578E-02 0.73230075E+02</pdfrwt>
<totfact> 0.78220285E+03</totfact>
</mgrwt>
</event>
<event>
 5    1  0.4149151E-003  0.1158065E+03  0.7546771E-02  0.1342263E+00
          1   -1    0    0  502    0 -0.00000000000E+00  0.00000000000E+00  0.14276559786E+04  0.14276559786E+04  0.00000000000E+00 0. -1.
          2   -1    0    0  501    0  0.00000000000E+00 -0.00000000000E+00 -0.34347642751E+03  0.34347642751E+03  0.00000000000E+00 0.  1.
         25    1    1    2    0    0 -0.12872268999E+03  0.89992185349E+02  0.10020483432E+03  0.22435269814E+03  0.12500000000E+03 0.  0.
          2    1    1    2  501    0  0.80667367881E+02 -0.79207203495E+02 -0.26954463502E+03  0.29229320142E+03  0.00000000000E+00 0.  1.
          1    1    1    2  502    0  0.48055322106E+02 -0.10784981854E+02  0.12535193518E+04  0.12544865065E+04  0.00000000000E+00 0. -1.
<mgrwt>
<rscale>  0 0.75521839E+02</rscale>
<asrwt>0</asrwt>
<pdfrwt beam="2">  1        2 0.52842528E-01 0.11580648E+03</pdfrwt>
<pdfrwt beam="1">  1        1 0.21963938E+00 0.49250683E+02</pdfrwt>
<totfact> 0.12062658E+02</totfact>
</mgrwt>
</event>
<event>
 5    1  0.4149151E-003  0.4268671E+02  0.7546771E-02  0.1499473E+00
          3   -1    0    0  502    0  0.00000000000E+00  0.00000000000E+00  0.12812233166E+03  0.12812233166E+03  0.00000000000E+00 0. -1.
         -3   -1    0    0    0  501 -0.00000000000E+00 -0.00000000000E+00 -0.11790313211E+03  0.11790313211E+03  0.00000000000E+00 0.  1.
         25    1    1    2    0    0  0.18206349164E+02 -0.47884733588E+02  0.29551130963E+02  0.13828480828E+03  0.12500000000E+03 0.  0.
          3    1    1    2  502    0 -0.41221522452E+02  0.15427140541E+02  0.22986026213E+02  0.49654485997E+02  0.00000000000E+00 0. -1.
         -3    1    1    2    0  501  0.23015173288E+02  0.32457593047E+02 -0.42317957627E+02  0.58086169486E+02  0.00000000000E+00 0.  1.
<mgrwt>
<rscale>  0 0.41212584E+02</rscale>
<asrwt>0</asrwt>
<pdfrwt beam="1">  1        3 0.19711128E-01 0.42686710E+02</pdfrwt>
<pdfrwt beam="2">  1       -3 0.18138943E-01 0.39789365E+02</pdfrwt>
<totfact> 0.11001609E+03</totfact>
</mgrwt>
</event>
<event>
 5    1  0.4149151E-003  0.1330591E+03  0.7546771E-02  0.1353571E+00
          1   -1    0    0  502    0  0.00000000000E+00  0.00000000000E+00  0.84355137202E+03  0.84355137202E+03  0.00000000000E+00 0. -1.
         -3   -1    0    0    0  501 -0.00000000000E+00 -0.00000000000E+00 -0.16823842068E+03  0.16823842068E+03  0.00000000000E+00 0.  1.
         25    1    1    2    0    0  0.14398755997E+03 -0.65055472614E+02  0.54350890997E+02  0.20867115588E+03  0.12500000000E+03 0.  0.
          1    1    1    2  502    0 -0.10677594221E+03  0.76427939649E+02  0.70149462996E+03  0.71367853243E+03  0.00000000000E+00 0. -1.
         -3    1    1    2    0  501 -0.37211617767E+02 -0.11372467035E+02 -0.80532569622E+02  0.89440104390E+02  0.00000000000E+00 0.  1.
<mgrwt>
<rscale>  0 0.71954253E+02</rscale>
<asrwt>0</asrwt>
<pdfrwt beam="1">  1        1 0.12977713E+00 0.13305911E+03</pdfrwt>
<pdfrwt beam="2">  1       -3 0.25882834E-01 0.38910635E+02</pdfrwt>
<totfact> 0.14647794E+02</totfact>
</mgrwt>
</event>
<event>
 5    1  0.4149151E-003  0.1023145E+03  0.7546771E-02  0.1320387E+00
          2   -1    0    0  502    0  0.00000000000E+00  0.00000000000E+00  0.20290632856E+03  0.20290632856E+03  0.00000000000E+00 0. -1.
         -1   -1    0    0    0  501 -0.00000000000E+00 -0.00000000000E+00 -0.20010864347E+03  0.20010864347E+03  0.00000000000E+00 0.  1.
         25    1    1    2    0    0 -0.81609885129E+02 -0.28071728952E+02 -0.52834160072E+02  0.16082488547E+03  0.12500000000E+03 0.  0.
          2    1    1    2  502    0 -0.38336724162E+02  0.55615694198E+02  0.91747625857E+02  0.11393171951E+03  0.00000000000E+00 0. -1.
         -1    1    1    2    0  501  0.11994660929E+03 -0.27543965246E+02 -0.36115780690E+02  0.12825836704E+03  0.00000000000E+00 0.  1.
<mgrwt>
<rscale>  0 0.83133622E+02</rscale>
<asrwt>0</asrwt>
<pdfrwt beam="1">  1        2 0.31216358E-01 0.67548574E+02</pdfrwt>
<pdfrwt beam="2">  1       -1 0.30785945E-01 0.10231451E+03</pdfrwt>
<totfact> 0.17957403E+03</totfact>
</mgrwt>
</event>
<event>
 5    1  0.4149151E-003  0.5552398E+03  0.7546771E-02  0.1000288E+00
          2   -1    0    0  502    0  0.00000000000E+00  0.00000000000E+00  0.66007103126E+03  0.66007103126E+03  0.00000000000E+00 0. -1.
         -2   -1    0    0    0  501 -0.00000000000E+00 -0.00000000000E+00 -0.11676441527E+03  0.11676441527E+03  0.00000000000E+00 0.  1.
         25    1    1    2    0    0  0.16958071652E+03 -0.18989611009E+03  0.25555696836E+03  0.38177547868E+03  0.12500000000E+03 0.  0.
          2    1    1    2  502    0 -0.11944283108E+03  0.16683235471E+03  0.26552699908E+03  0.33556551032E+03  0.00000000000E+00 0. -1.
         -2    1    1    2    0  501 -0.50137885444E+02  0.23063755383E+02  0.22222648540E+02  0.59494457534E+02  0.00000000000E+00 0.  1.
<mgrwt>
<rscale>  0 0.55523980E+03</rscale>
<asrwt>0</asrwt>
<pdfrwt beam="1">  1        2 0.10154939E+00 0.55523980E+03</pdfrwt>
<pdfrwt beam="2">  1       -2 0.17963757E-01 0.55523980E+03</pdfrwt>
<totfact> 0.11386848E+03</totfact>
</mgrwt>
</event>
<event>
 5    1  0.4149151E-003  0.5171949E+02  0.7546771E-02  0.1494981E+00
          3   -1    0    0  502    0  0.00000000000E+00  0.00000000000E+00  0.25583381506E+03  0.25583381506E+03  0.00000000000E+00 0. -1.
         -1   -1    0    0    0  501 -0.00000000000E+00 -0.00000000000E+00 -0.69730591625E+03  0.69730591625E+03  0.00000000000E+00 0.  1.
         25    1    1    2    0    0 -0.43456945562E+02 -0.65970793667E+02 -0.37397827055E+02  0.15252622464E+03  0.12500000000E+03 0.  0.
          3    1    1    2  502    0  0.39285626497E+02  0.32355087627E+02  0.19451685495E+03  0.20106471348E+03  0.00000000000E+00 0. -1.
         -1    1    1    2    0  501  0.41713190655E+01  0.33615706040E+02 -0.59859112909E+03  0.59954879320E+03  0.00000000000E+00 0.  1.
<mgrwt>
<rscale>  0 0.41855959E+02</rscale>
<asrwt>0</asrwt>
<pdfrwt beam="1">  1        3 0.39359050E-01 0.51719487E+02</pdfrwt>
<pdfrwt beam="2">  1       -1 0.10727783E+00 0.33873524E+02</pdfrwt>
<totfact> 0.25488276E+01</totfact>
</mgrwt>
</event>
<event>
 5    1  0.4149151E-003  0.7439574E+02  0.7546771E-02  0.1495058E+00
         -1   -1    0    0    0  501 -0.00000000000E+00  0.00000000000E+00  0.25092662821E+03  0.25092662821E+03  0.00000000000E+00 0.  1.
          1   -1    0    0  502    0  0.00000000000E+00 -0.00000000000E+00 -0.25208838251E+04  0.25208838251E+04  0.00000000000E+00 0. -1.
         25    1    1    2    0    0  0.47838054528E+02 -0.27106307958E+02 -0.24999916004E+03  0.28486454924E+03  0.12500000000E+03 0.  0.
          1    1    1    2  502    0 -0.57208343053E+02  0.48696805885E+02 -0.22522309285E+04  0.22534835985E+04  0.00000000000E+00 0. -1.
         -1    1    1    2    0  501  0.93702885247E+01 -0.21590497927E+02  0.23227289167E+03  0.23346230555E+03  0.00000000000E+00 0.  1.
<mgrwt>
<rscale>  0 0.41844853E+02</rscale>
<asrwt>0</asrwt>
<pdfrwt beam="2">  1        1 0.38782826E+00 0.74395739E+02</pdfrwt>
<pdfrwt beam="1">  1       -1 0.38604099E-01 0.23536183E+02</pdfrwt>
<totfact> 0.12035843E+01</totfact>
</mgrwt>
</event>
<event>
 5    1  0.4149151E-003  0.1300630E+03  0.7546771E-02  0.1255477E+00
          2   -1    0    0  501    0  0.00000000000E+00  0.00000000000E+00  0.69387009263E+03  0.69387009263E+03  0.00000000000E+00 0. -1.
          1   -1    0    0  502    0 -0.00000000000E+00 -0.00000000000E+00 -0.82481041221E+02  0.82481041221E+02  0.00000000000E+00 0. -1.
         25    1    1    2    0    0 -0.49005959312E+02  0.12227377424E+03  0.20047801831E+03  0.27049749674E+03  0.12500000000E+03 0.  0.
          2    1    1    2  501    0 -0.77658357011E+02 -0.59484160530E+02  0.32730125433E+03  0.34160693326E+03  0.00000000000E+00 0. -1.
          1    1    1    2  502    0  0.12666431632E+03 -0.62789613710E+02  0.83609778762E+02  0.16424670385E+03  0.00000000000E+00 0. -1.
<mgrwt>
<rscale>  0 0.11279649E+03</rscale>
<asrwt>0</asrwt>
<pdfrwt beam="1">  1        2 0.10674924E+00 0.97822215E+02</pdfrwt>
<pdfrwt beam="2">  1        1 0.12689391E-01 0.13006298E+03</pdfrwt>
<totfact> 0.26621680E+03</totfact>
</mgrwt>
</event>
<event>
 5    1  0.4149151E-003  0.4539080E+02  0.7546771E-02  0.1489560E+00
          2   -1    0    0  502    0  0.00000000000E+00  0.00000000000E+00  0.46127820102E+03  0.46127820102E+03  0.00000000000E+00 0. -1.
         -1   -1    0    0    0  501 -0.00000000000E+00 -0.00000000000E+00 -0.31017853440E+02  0.31017853440E+02  0.00000000000E+00 0.  1.
         25    1    1    2    0    0  0.35569045687E+02  0.32565412637E+02  0.17963193485E+03  0.22409438889E+03  0.12500000000E+03 0.  0.
          2    1    1    2  502    0  0.13713465759E+02 -0.37657941911E+02  0.15969286616E+03  0.16464504619E+03  0.00000000000E+00 0. -1.
         -1    1    1    2    0  501 -0.49282511446E+02  0.50925292743E+01  0.90935546569E+02  0.10355661939E+03  0.00000000000E+00 0.  1.
<mgrwt>
<rscale>  0 0.42651319E+02</rscale>
<asrwt>0</asrwt>
<pdfrwt beam="1">  1        2 0.70965872E-01 0.40077172E+02</pdfrwt>
<pdfrwt beam="2">  1       -1 0.47719778E-02 0.45390803E+02</pdfrwt>
<totfact> 0.12526936E+04</totfact>
</mgrwt>
</event>
<event>
 5    1  0.4149151E-003  0.7884095E+02  0.7546771E-02  0.1466492E+00
          2   -1    0    0  501    0  0.00000000000E+00  0.00000000000E+00  0.47840379491E+03  0.47840379491E+03  0.00000000000E+00 0. -1.
          1   -1    0    0  502    0 -0.00000000000E+00 -0.00000000000E+00 -0.45231649101E+02  0.45231649101E+02  0.00000000000E+00 0. -1.
         25    1    1    2    0    0 -0.47848465892E+02  0.65023005045E+02  0.35513725930E+03  0.38505186640E+03  0.12500000000E+03 0.  0.
          2    1    1    2  501    0  0.22907585423E+02 -0.75798892419E+02  0.78373818253E+02  0.11141222980E+03  0.00000000000E+00 0. -1.
          1    1    1    2  502    0  0.24940880468E+02  0.10775887374E+02 -0.33893174315E+00  0.27171347813E+02  0.00000000000E+00 0. -1.
<mgrwt>
<rscale>  0 0.46282266E+02</rscale>
<asrwt>0</asrwt>
<pdfrwt beam="1">  1        2 0.73600580E-01 0.78840947E+02</pdfrwt>
<pdfrwt beam="2">  1        1 0.69587156E-02 0.27169234E+02</pdfrwt>
<totfact> 0.78028702E+03</totfact>
</mgrwt>
</event>
<event>
 5    1  0.4149151E-003  0.7316170E+02  0.7546771E-02  0.1520121E+00
         -2   -1    0    0    0  501 -0.00000000000E+00  0.00000000000E+00  0.37318330367E+03  0.37318330367E+03  0.00000000000E+00 0.  1.
          1   -1    0    0  502    0  0.00000000000E+00 -0.00000000000E+00 -0.40532009302E+03  0.40532009302E+03  0.00000000000E+00 0. -1.
         25    1    1    2    0    0 -0.73453514486E+02  0.33423273039E+02  0.14052537370E+03  0.20465804314E+03  0.12500000000E+03 0.  0.
          1    1    1    2  502    0  0.16850803394E+02  0.11107950150E+02 -0.36650265601E+03  0.36705794228E+03  0.00000000000E+00 0. -1.
         -2    1    1    2    0  501  0.56602711092E+02 -0.44531223189E+02  0.19384049297E+03  0.20678741126E+03  0.00000000000E+00 0.  1.
<mgrwt>
<rscale>  0 0.38426438E+02</rscale>
<asrwt>0</asrwt>
<pdfrwt beam="2">  1        1 0.62356937E-01 0.20182570E+02</pdfrwt>
<pdfrwt beam="1">  1       -2 0.57412816E-01 0.73161700E+02</pdfrwt>
<totfact> 0.15911870E+02</totfact>
</mgrwt>
</event>
<event>
 5    1  0.4149151E-003  0.1369065E+03  0.7546771E-02  0.1414614E+00
          1   -1    0    0  502    0  0.00000000000E+00  0.00000000000E+00  0.70156348818E+02  0.70156348818E+02  0.00000000000E+00 0. -1.
          1   -1    0    0  501    0 -0.00000000000E+00 -0.00000000000E+00 -0.13348839746E+04  0.13348839746E+04  0.00000000000E+00 0. -1.
         25    1    1    2    0    0  0.10816689616E+03 -0.10127460702E+03 -0.73329815840E+03  0.75849048285E+03  0.12500000000E+03 0.  0.
          1    1    1    2  501    0 -0.22655241638E+02 -0.42534177740E+01 -0.50823651171E+03  0.50875898358E+03  0.00000000000E+00 0. -1.
          1    1    1    2  502    0 -0.85511654521E+02  0.10552802480E+03 -0.23192955662E+02  0.13779085699E+03  0.00000000000E+00 0. -1.
<mgrwt>
<rscale>  0 0.56176876E+02</rscale>
<asrwt>0</asrwt>
<pdfrwt beam="1">  1        1 0.10793285E-01 0.13690654E+03</pdfrwt>
<pdfrwt beam="2">  1        1 0.20536676E+00 0.23051064E+02</pdfrwt>
<totfact> 0.76661150E+02</totfact>
</mgrwt>
</event>
<event>
 5    1  0.4149151E-003  0.1189074E+03  0.7546771E-02  0.1304451E+00
          2   -1    0    0  502    0  0.00000000000E+00  0.00000000000E+00  0.66025543801E+03  0.66025543801E+03  0.00000000000E+00 0. -1.
          2   -1    0    0  501    0 -0.00000000000E+00 -0.00000000000E+00 -0.58549470248E+03  0.58549470248E+03  0.00000000000E+00 0. -1.
         25    1    1    2    0    0  0.12543151009E+03  0.95000559075E+02 -0.16308007324E+03  0.25880162333E+03  0.12500000000E+03 0.  0.
          2    1    1    2  501    0 -0.10786698788E+02 -0.66256967570E+02 -0.36576785203E+03  0.37187694228E+03  0.00000000000E+00 0. -1.
          2    1    1    2  502    0 -0.11464481131E+03 -0.28743591505E+02  0.60360866081E+03  0.61507157487E+03  0.00000000000E+00 0. -1.
<mgrwt>
<rscale>  0 0.89342954E+02</rscale>
<asrwt>0</asrwt>
<pdfrwt beam="1">  1        2 0.10157776E+00 0.11890735E+03</pdfrwt>
<pdfrwt beam="2">  1        2 0.90076108E-01 0.67129268E+02</pdfrwt>
<totfact> 0.38344820E+02</totfact>
</mgrwt>
</event>
<event>
 5    1  0.4149151E-003  0.3495938E+02  0.7546771E-02  0.1596080E+00
          2   -1    0    0  502    0  0.00000000000E+00  0.00000000000E+00  0.10372620786E+04  0.10372620786E+04  0.00000000000E+00 0. -1.
         -2   -1    0    0    0  501 -0.00000000000E+00 -0.00000000000E+00 -0.13953556070E+02  0.13953556070E+02  0.00000000000E+00 0.  1.
         25    1    1    2    0    0  0.22969818111E+02  0.40354137324E+02  0.67356479163E+03  0.68663716581E+03  0.12500000000E+03 0.  0.
          2    1    1    2  502    0 -0.25415097429E+02 -0.57543523774E+01  0.31287408227E+03  0.31395737148E+03  0.00000000000E+00 0. -1.
         -2    1    1    2    0  501  0.24452793177E+01 -0.34599784946E+02  0.36869648585E+02  0.50621097341E+02  0.00000000000E+00 0.  1.
<mgrwt>
<rscale>  0 0.30182529E+02</rscale>
<asrwt>0</asrwt>
<pdfrwt beam="1">  1        2 0.15957872E+00 0.26058391E+02</pdfrwt>
<pdfrwt beam="2">  1       -2 0.21467018E-02 0.34959375E+02</pdfrwt>
<totfact> 0.15005224E+04</totfact>
</mgrwt>
</event>
<event>
 5    1  0.4149151E-003  0.5917578E+02  0.7546771E-02  0.1503022E+00
          1   -1    0    0  501    0  0.00000000000E+00  0.00000000000E+00  0.34449710325E+03  0.34449710325E+03  0.00000000000E+00 0. -1.
          1   -1    0    0  502    0 -0.00000000000E+00 -0.00000000000E+00 -0.74032644086E+03  0.74032644086E+03  0.00000000000E+00 0. -1.
         25    1    1    2    0    0 -0.14184054185E+02  0.35281131845E+02 -0.79165246116E+02  0.15276806554E+03  0.12500000000E+03 0.  0.
          1    1    1    2  501    0  0.57889710918E+00 -0.59767275974E+02  0.30447445956E+03  0.31028560863E+03  0.00000000000E+00 0. -1.
          1    1    1    2  502    0  0.13605157076E+02  0.24486144129E+02 -0.62113855105E+03  0.62176986993E+03  0.00000000000E+00 0. -1.
<mgrwt>
<rscale>  0 0.40714020E+02</rscale>
<asrwt>0</asrwt>
<pdfrwt beam="1">  1        1 0.52999555E-01 0.59175785E+02</pdfrwt>
<pdfrwt beam="2">  1        1 0.11389638E+00 0.28011989E+02</pdfrwt>
<totfact> 0.25604736E+02</totfact>
</mgrwt>
</event>
<event>
 5    1  0.4149151E-003  0.8689094E+02  0.7546771E-02  0.1374584E+00
          2   -1    0    0  501    0  0.00000000000E+00  0.00000000000E+00  0.15841632478E+04  0.15841632478E+04  0.00000000000E+00 0. -1.
          3   -1    0    0  502    0 -0.00000000000E+00 -0.00000000000E+00 -0.81008944334E+02  0.81008944334E+02  0.00000000000E+00 0. -1.
         25    1    1    2    0    0  0.11712149157E+03  0.52727194303E+02  0.98781629873E+03  0.10039440427E+04  0.12500000000E+03 0.  0.
          2    1    1    2  501    0 -0.32471945181E+02 -0.38012564872E+02  0.56148116436E+03  0.56370247493E+03  0.00000000000E+00 0. -1.
          3    1    1    2  502    0 -0.84649546392E+02 -0.14714629432E+02 -0.46143159576E+02  0.97525674565E+02  0.00000000000E+00 0. -1.
<mgrwt>
<rscale>  0 0.65909105E+02</rscale>
<asrwt>0</asrwt>
<pdfrwt beam="1">  1        2 0.24371740E+00 0.49993823E+02</pdfrwt>
<pdfrwt beam="2">  1        3 0.12462916E-01 0.86890936E+02</pdfrwt>
<totfact> 0.41219345E+02</totfact>
</mgrwt>
</event>
<event>
 5    1  0.4149151E-003  0.1145809E+03  0.7546771E-02  0.1390387E+00
          1   -1    0    0  501    0  0.00000000000E+00  0.00000000000E+00  0.10313757190E+04  0.10313757190E+04  0.00000000000E+00 0. -1.
          1   -1    0    0  502    0 -0.00000000000E+00 -0.00000000000E+00 -0.12796024156E+04  0.12796024156E+04  0.00000000000E+00 0. -1.
         25    1    1    2    0    0  0.22312165988E+02  0.81211839354E+02 -0.61862126276E+03  0.63671851107E+03  0.12500000000E+03 0.  0.
          1    1    1    2  501    0 -0.15034328324E+02 -0.11375146292E+03  0.10186778076E+04  0.10251194574E+04  0.00000000000E+00 0. -1.
          1    1    1    2  502    0 -0.72778376647E+01  0.32539623567E+02 -0.64828324150E+03  0.64914016609E+03  0.00000000000E+00 0. -1.
<mgrwt>
<rscale>  0 0.61810488E+02</rscale>
<asrwt>0</asrwt>
<pdfrwt beam="1">  1        1 0.15867319E+00 0.11458089E+03</pdfrwt>
<pdfrwt beam="2">  1        1 0.19686191E+00 0.33343575E+02</pdfrwt>
<totfact> 0.23294877E+01</totfact>
</mgrwt>
</event>
<event>
 5    1  0.4149151E-003  0.1740764E+03  0.7546771E-02  0.1380316E+00
         -1   -1    0    0    0  501 -0.00000000000E+00  0.00000000000E+00  0.51045147123E+03  0.51045147123E+03  0.00000000000E+00 0.  1.
          2   -1    0    0  502    0  0.00000000000E+00 -0.00000000000E+00 -0.87936559354E+02  0.87936559354E+02  0.00000000000E+00 0. -1.
         25    1    1    2    0    0  0.62968474470E+02 -0.17286382679E+03  0.22403607840E+03  0.31569620811E+03  0.12500000000E+03 0.  0.
          2    1    1    2  502    0 -0.72977774031E+02  0.15125905221E+03  0.13690656893E+03  0.21667594466E+03  0.00000000000E+00 0. -1.
         -1    1    1    2    0  501  0.10009299560E+02  0.21604774587E+02  0.61572264542E+02  0.66015877814E+02  0.00000000000E+00 0.  1.
<mgrwt>
<rscale>  0 0.64380826E+02</rscale>
<asrwt>0</asrwt>
<pdfrwt beam="2">  1        2 0.13528702E-01 0.17407636E+03</pdfrwt>
<pdfrwt beam="1">  1       -1 0.78530994E-01 0.23810761E+02</pdfrwt>
<totfact> 0.89517591E+02</totfact>
</mgrwt>
</event>
<event>
 5    1  0.4149151E-003  0.1107870E+03  0.7546771E-02  0.1433826E+00
          1   -1    0    0  502    0  0.00000000000E+00  0.00000000000E+00  0.18909190724E+04  0.18909190724E+04  0.00000000000E+00 0. -1.
          1   -1    0    0  501    0 -0.00000000000E+00 -0.00000000000E+00 -0.10503338340E+04  0.10503338340E+04  0.00000000000E+00 0. -1.
         25    1    1    2    0    0 -0.10683620086E+03 -0.72706392030E+02  0.15345231710E+02  0.18044575194E+03  0.12500000000E+03 0.  0.
          1    1    1    2  501    0  0.98446853987E+02  0.49586562153E+02 -0.96456003744E+03  0.97083813071E+03  0.00000000000E+00 0. -1.
          1    1    1    2  502    0  0.83893468716E+01  0.23119829877E+02  0.17898000442E+04  0.17899690237E+04  0.00000000000E+00 0. -1.
<mgrwt>
<rscale>  0 0.52199531E+02</rscale>
<asrwt>0</asrwt>
<pdfrwt beam="1">  1        1 0.29091063E+00 0.24594871E+02</pdfrwt>
<pdfrwt beam="2">  1        1 0.16158982E+00 0.11078696E+03</pdfrwt>
<totfact> 0.10020866E+01</totfact>
</mgrwt>
</event>
<event>
 5    1  0.4149151E-003  0.5419247E+03  0.7546771E-02  0.1003381E+00
         -1   -1    0    0    0  501 -0.00000000000E+00  0.00000000000E+00  0.14406046348E+02  0.14406046348E+02  0.00000000000E+00 0.  1.
          2   -1    0    0  502    0  0.00000000000E+00 -0.00000000000E+00 -0.50965129856E+04  0.50965129856E+04  0.00000000000E+00 0. -1.
         25    1    1    2    0    0 -0.10881246715E+03  0.22169419685E+03 -0.22577112473E+04  0.22746150325E+04  0.12500000000E+03 0.  0.
          2    1    1    2  502    0  0.70964184581E+02 -0.18681773560E+03 -0.24856843883E+04  0.24937048061E+04  0.00000000000E+00 0. -1.
         -1    1    1    2    0  501  0.37848282566E+02 -0.34876461248E+02 -0.33871130369E+03  0.34259919335E+03  0.00000000000E+00 0.  1.
<mgrwt>
<rscale>  0 0.54192473E+03</rscale>
<asrwt>0</asrwt>
<pdfrwt beam="2">  1        2 0.78408055E+00 0.54192473E+03</pdfrwt>
<pdfrwt beam="1">  1       -1 0.22163102E-02 0.54192473E+03</pdfrwt>
<totfact> 0.23150875E+01</totfact>
</mgrwt>
</event>
<event>
 5    1  0.4149151E-003  0.1067875E+03  0.7546771E-02  0.1386325E+00
         -1   -1    0    0    0  501 -0.00000000000E+00  0.00000000000E+00  0.18309410220E+03  0.18309410220E+03  0.00000000000E+00 0.  1.
          2   -1    0    0  502    0  0.00000000000E+00 -0.00000000000E+00 -0.16925328722E+04  0.16925328722E+04  0.00000000000E+00 0. -1.
         25    1    1    2    0    0 -0.55995251303E+02  0.66527991258E+02 -0.89258855828E+02  0.17650378221E+03  0.12500000000E+03 0.  0.
          2    1    1    2  502    0  0.91653213825E+02 -0.56777610991E+02 -0.15553025931E+04  0.15590350108E+04  0.00000000000E+00 0. -1.
         -1    1    1    2    0  501 -0.35657962523E+02 -0.97503802665E+01  0.13512267894E+03  0.14008818141E+03  0.00000000000E+00 0.  1.
<mgrwt>
<rscale>  0 0.62830056E+02</rscale>
<asrwt>0</asrwt>
<pdfrwt beam="2">  1        2 0.26038967E+00 0.10678752E+03</pdfrwt>
<pdfrwt beam="1">  1       -1 0.28168323E-01 0.36967015E+02</pdfrwt>
<totfact> 0.14658786E+02</totfact>
</mgrwt>
</event>
<event>
 5    1  0.4149151E-003  0.1861598E+03  0.7546771E-02  0.1322137E+00
         -3   -1    0    0    0  501 -0.00000000000E+00  0.00000000000E+00  0.51153011088E+02  0.51153011088E+02  0.00000000000E+00 0.  1.
          2   -1    0    0  502    0  0.00000000000E+00 -0.00000000000E+00 -0.19088249431E+04  0.19088249431E+04  0.00000000000E+00 0. -1.
         25    1    1    2    0    0  0.14396890687E+03  0.89820428729E+02 -0.70480864236E+03  0.73564595963E+03  0.12500000000E+03 0.  0.
          2    1    1    2  502    0  0.33497168757E+02 -0.14623550977E+02 -0.92569185907E+03  0.92641315109E+03  0.00000000000E+00 0. -1.
         -3    1    1    2    0  501 -0.17746607563E+03 -0.75196877752E+02 -0.22717143055E+03  0.29791884344E+03  0.00000000000E+00 0.  1.
<mgrwt>
<rscale>  0 0.82487313E+02</rscale>
<asrwt>0</asrwt>
<pdfrwt beam="2">  1        2 0.29366535E+00 0.36550083E+02</pdfrwt>
<pdfrwt beam="1">  1       -3 0.78696948E-02 0.18615982E+03</pdfrwt>
<totfact> 0.68901328E+02</totfact>
</mgrwt>
</event>
<event>
 5    1  0.4149151E-003  0.4719391E+02  0.7546771E-02  0.1471856E+00
         -2   -1    0    0    0  501 -0.00000000000E+00  0.00000000000E+00  0.29284209566E+02  0.29284209566E+02  0.00000000000E+00 0.  1.
          1   -1    0    0  502    0  0.00000000000E+00 -0.00000000000E+00 -0.49894350290E+03  0.49894350290E+03  0.00000000000E+00 0. -1.
         25    1    1    2    0    0  0.56197196888E+02 -0.31596512224E+02 -0.27835633586E+03  0.31187131038E+03  0.12500000000E+03 0.  0.
          1    1    1    2  502    0 -0.10958971902E+02  0.42278333209E+02 -0.14213855152E+03  0.14869742550E+03  0.00000000000E+00 0. -1.
         -2    1    1    2    0  501 -0.45238224986E+02 -0.10681820985E+02 -0.49164405952E+02  0.67658976582E+02  0.00000000000E+00 0.  1.
<mgrwt>
<rscale>  0 0.45400677E+02</rscale>
<asrwt>0</asrwt>
<pdfrwt beam="2">  1        1 0.76760538E-01 0.43675583E+02</pdfrwt>
<pdfrwt beam="1">  1       -2 0.45052631E-02 0.47193910E+02</pdfrwt>
<totfact> 0.80002572E+03</totfact>
</mgrwt>
</event>
<event>
 5    1  0.4149151E-003  0.1092683E+03  0.7546771E-02  0.1322055E+00
          2   -1    0    0  502    0  0.00000000000E+00  0.00000000000E+00  0.17309503925E+04  0.17309503925E+04  0.00000000000E+00 0.  1.
          2   -1    0    0  501    0 -0.00000000000E+00 -0.00000000000E+00 -0.83503793958E+03  0.83503793958E+03  0.00000000000E+00 0. -1.
         25    1    1    2    0    0  0.16179764271E+03  0.47873401085E+02 -0.16299895170E+02  0.21062057425E+03  0.12500000000E+03 0.  0.
          2    1    1    2  501    0 -0.10064138946E+03 -0.35906833240E+02 -0.71702286734E+03  0.72494122674E+03  0.00000000000E+00 0. -1.
          2    1    1    2  502    0 -0.61156253249E+02 -0.11966567845E+02  0.16292352154E+04  0.16304265311E+04  0.00000000000E+00 0.  1.
<mgrwt>
<rscale>  0 0.82517660E+02</rscale>
<asrwt>0</asrwt>
<pdfrwt beam="1">  1        2 0.26630006E+00 0.62316018E+02</pdfrwt>
<pdfrwt beam="2">  1        2 0.12846738E+00 0.10926828E+03</pdfrwt>
<totfact> 0.64124044E+01</totfact>
</mgrwt>
</event>
<event>
 5    1  0.4149151E-003  0.5367128E+02  0.7546771E-02  0.1464697E+00
          3   -1    0    0  502    0  0.00000000000E+00  0.00000000000E+00  0.13294163496E+03  0.13294163496E+03  0.00000000000E+00 0. -1.
         -3   -1    0    0    0  501 -0.00000000000E+00 -0.00000000000E+00 -0.20520901148E+03  0.20520901148E+03  0.00000000000E+00 0.  1.
         25    1    1    2    0    0  0.45002753773E+02  0.55639195130E+02  0.77312180073E+01  0.14424194818E+03  0.12500000000E+03 0.  0.
          3    1    1    2  502    0  0.58361651020E+01 -0.40006706496E+02  0.43534095620E+02  0.59412245112E+02  0.00000000000E+00 0. -1.
         -3    1    1    2    0  501 -0.50838918875E+02 -0.15632488635E+02 -0.12353269015E+03  0.13449645315E+03  0.00000000000E+00 0.  1.
<mgrwt>
<rscale>  0 0.46582597E+02</rscale>
<asrwt>0</asrwt>
<pdfrwt beam="1">  1        3 0.20452559E-01 0.40430154E+02</pdfrwt>
<pdfrwt beam="2">  1       -3 0.31570617E-01 0.53671284E+02</pdfrwt>
<totfact> 0.40221822E+02</totfact>
</mgrwt>
</event>
<event>
 5    1  0.4149151E-003  0.4506738E+02  0.7546771E-02  0.1496712E+00
         -1   -1    0    0    0  501 -0.00000000000E+00  0.00000000000E+00  0.62183538303E+01  0.62183538303E+01  0.00000000000E+00 0.  1.
          2   -1    0    0  502    0  0.00000000000E+00 -0.00000000000E+00 -0.23084150838E+04  0.23084150838E+04  0.00000000000E+00 0. -1.
         25    1    1    2    0    0 -0.35309013918E+02 -0.44735200018E+02 -0.14376438416E+04  0.14441927780E+04  0.12500000000E+03 0.  0.
          2    1    1    2  502    0 -0.92502334678E+01  0.37280736030E+02 -0.65244379081E+03  0.65357350027E+03  0.00000000000E+00 0. -1.
         -1    1    1    2    0  501  0.44559247385E+02  0.74544639879E+01 -0.21210909753E+03  0.21686715937E+03  0.00000000000E+00 0.  1.
<mgrwt>
<rscale>  0 0.41606396E+02</rscale>
<asrwt>0</asrwt>
<pdfrwt beam="2">  1        2 0.35514040E+00 0.38411198E+02</pdfrwt>
<pdfrwt beam="1">  1       -1 0.95667085E-03 0.45067384E+02</pdfrwt>
<totfact> 0.11203226E+04</totfact>
</mgrwt>
</event>
<event>
 5    1  0.4149151E-003  0.7721548E+02  0.7546771E-02  0.1353119E+00
          2   -1    0    0  501    0  0.00000000000E+00  0.00000000000E+00  0.13410049828E+04  0.13410049828E+04  0.00000000000E+00 0. -1.
          2   -1    0    0  502    0 -0.00000000000E+00 -0.00000000000E+00 -0.58981986517E+02  0.58981986517E+02  0.00000000000E+00 0. -1.
         25    1    1    2    0    0  0.11968225509E+01  0.83257536714E+02  0.19474570113E+03  0.24593523113E+03  0.12500000000E+03 0.  0.
          2    1    1    2  501    0 -0.61024132620E+02 -0.28400827515E+02  0.10686554003E+04  0.10707730461E+04  0.00000000000E+00 0. -1.
          2    1    1    2  502    0  0.59827310069E+02 -0.54856709199E+02  0.18621894813E+02  0.83278691997E+02  0.00000000000E+00 0. -1.
<mgrwt>
<rscale>  0 0.72092477E+02</rscale>
<asrwt>0</asrwt>
<pdfrwt beam="1">  1        2 0.20630844E+00 0.67309374E+02</pdfrwt>
<pdfrwt beam="2">  1        2 0.90741527E-02 0.77215476E+02</pdfrwt>
<totfact> 0.19015850E+03</totfact>
</mgrwt>
</event>
<event>
 5    1  0.4149151E-003  0.2920936E+02  0.7546771E-02  0.1644783E+00
          2   -1    0    0  502    0  0.00000000000E+00  0.00000000000E+00  0.86621622245E+02  0.86621622245E+02  0.00000000000E+00 0. -1.
         -1   -1    0    0    0  501 -0.00000000000E+00 -0.00000000000E+00 -0.51899923820E+03  0.51899923820E+03  0.00000000000E+00 0.  1.
         25    1    1    2    0    0  0.30334839043E+02  0.42254460496E+02 -0.33778453140E+03  0.36390799873E+03  0.12500000000E+03 0.  0.
          2    1    1    2  502    0 -0.19578302510E+02 -0.21426284222E+02  0.69832902272E+02  0.75624267431E+02  0.00000000000E+00 0. -1.
         -1    1    1    2    0  501 -0.10756536533E+02 -0.20828176274E+02 -0.16442598683E+03  0.16608859428E+03  0.00000000000E+00 0.  1.
<mgrwt>
<rscale>  0 0.26167129E+02</rscale>
<asrwt>0</asrwt>
<pdfrwt beam="1">  1        2 0.13326403E-01 0.29209355E+02</pdfrwt>
<pdfrwt beam="2">  1       -1 0.79846037E-01 0.23441758E+02</pdfrwt>
<totfact> 0.79723453E+02</totfact>
</mgrwt>
</event>
<event>
 5    1  0.4149151E-003  0.1078900E+03  0.7546771E-02  0.1375485E+00
          2   -1    0    0  501    0  0.00000000000E+00  0.00000000000E+00  0.22622676643E+04  0.22622676643E+04  0.00000000000E+00 0. -1.
          2   -1    0    0  502    0 -0.00000000000E+00 -0.00000000000E+00 -0.47999215958E+02  0.47999215958E+02  0.00000000000E+00 0. -1.
         25    1    1    2    0    0  0.11230264486E+03  0.56933573088E+02  0.87095903238E+03  0.88884641636E+03  0.12500000000E+03 0.  0.
          2    1    1    2  501    0 -0.75560711918E+02 -0.72660614592E+02  0.13695846485E+04  0.13735905851E+04  0.00000000000E+00 0. -1.
          2    1    1    2  502    0 -0.36741932942E+02  0.15727041504E+02 -0.26275232465E+02  0.47829878862E+02  0.00000000000E+00 0. -1.
<mgrwt>
<rscale>  0 0.65665586E+02</rscale>
<asrwt>0</asrwt>
<pdfrwt beam="1">  1        2 0.34804110E+00 0.10788998E+03</pdfrwt>
<pdfrwt beam="2">  1        2 0.73844965E-02 0.39966354E+02</pdfrwt>
<totfact> 0.75685864E+02</totfact>
</mgrwt>
</event>
<event>
 5    1  0.4149151E-003  0.2480424E+03  0.7546771E-02  0.1332035E+00
          2   -1    0    0  501    0  0.00000000000E+00  0.00000000000E+00  0.20515764393E+04  0.20515764393E+04  0.00000000000E+00 0.  1.
          1   -1    0    0  502    0 -0.00000000000E+00 -0.00000000000E+00 -0.44785451875E+03  0.44785451875E+03  0.00000000000E+00 0. -1.
         25    1    1    2    0    0  0.20991373163E+02  0.22312342466E+03 -0.13418690880E+03  0.28957870584E+03  0.12500000000E+03 0.  0.
          2    1    1    2  501    0 -0.27458798629E+02 -0.24741129128E+03  0.19653371811E+04  0.19810392647E+04  0.00000000000E+00 0.  1.
          1    1    1    2  502    0  0.64674254653E+01  0.24287866618E+02 -0.22742835179E+03  0.22881298752E+03  0.00000000000E+00 0. -1.
<mgrwt>
<rscale>  0 0.78957888E+02</rscale>
<asrwt>0</asrwt>
<pdfrwt beam="1">  1        2 0.31562714E+00 0.24804242E+03</pdfrwt>
<pdfrwt beam="2">  1        1 0.68900696E-01 0.25134201E+02</pdfrwt>
<totfact> 0.52631583E+01</totfact>
</mgrwt>
</event>
<event>
 5    1  0.4149151E-003  0.1178035E+03  0.7546771E-02  0.1354743E+00
          1   -1    0    0  501    0  0.00000000000E+00  0.00000000000E+00  0.49736283309E+03  0.49736283309E+03  0.00000000000E+00 0. -1.
          1   -1    0    0  502    0 -0.00000000000E+00 -0.00000000000E+00 -0.52447984468E+03  0.52447984468E+03  0.00000000000E+00 0. -1.
         25    1    1    2    0    0 -0.71598073009E+02  0.34433329437E+02  0.52649017155E+02  0.15719051257E+03  0.12500000000E+03 0.  0.
          1    1    1    2  501    0 -0.43470973712E+02  0.19569124494E+01  0.38348125090E+03  0.38594225585E+03  0.00000000000E+00 0. -1.
          1    1    1    2  502    0  0.11506904672E+03 -0.36390241887E+02 -0.46324727964E+03  0.47870990935E+03  0.00000000000E+00 0. -1.
<mgrwt>
<rscale>  0 0.71597634E+02</rscale>
<asrwt>0</asrwt>
<pdfrwt beam="1">  1        1 0.76517359E-01 0.43514998E+02</pdfrwt>
<pdfrwt beam="2">  1        1 0.80689207E-01 0.11780355E+03</pdfrwt>
<totfact> 0.24663526E+02</totfact>
</mgrwt>
</event>
<event>
 5    1  0.4149151E-003  0.5364292E+02  0.7546771E-02  0.1427250E+00
          2   -1    0    0  502    0  0.00000000000E+00  0.00000000000E+00  0.17241736708E+04  0.17241736708E+04  0.00000000000E+00 0. -1.
         -3   -1    0    0    0  501 -0.00000000000E+00 -0.00000000000E+00 -0.24748760233E+03  0.24748760233E+03  0.00000000000E+00 0.  1.
         25    1    1    2    0    0 -0.42514224914E+02 -0.22123989443E+02  0.17452263281E+03  0.21995472168E+03  0.12500000000E+03 0.  0.
          2    1    1    2  502    0 -0.83994013525E-01  0.54308176679E+02  0.15232738901E+04  0.15242416900E+04  0.00000000000E+00 0. -1.
         -3    1    1    2    0  501  0.42598218928E+02 -0.32184187237E+02 -0.22111045443E+03  0.22746486151E+03  0.00000000000E+00 0.  1.
<mgrwt>
<rscale>  0 0.53516019E+02</rscale>
<asrwt>0</asrwt>
<pdfrwt beam="1">  1        2 0.26525748E+00 0.53642918E+02</pdfrwt>
<pdfrwt beam="2">  1       -3 0.38075017E-01 0.53389420E+02</pdfrwt>
<totfact> 0.46936956E+01</totfact>
</mgrwt>
</event>
<event>
 5    1  0.4149151E-003  0.4036294E+02  0.7546771E-02  0.1553847E+00
         -1   -1    0    0    0  501 -0.00000000000E+00  0.00000000000E+00  0.77427697071E+01  0.77427697071E+01  0.00000000000E+00 0.  1.
          2   -1    0    0  502    0  0.00000000000E+00 -0.00000000000E+00 -0.20201226692E+04  0.20201226692E+04  0.00000000000E+00 0. -1.
         25    1    1    2    0    0 -0.28350282028E+02 -0.56747860642E+02 -0.14173784245E+04  0.14242930374E+04  0.12500000000E+03 0.  0.
          2    1    1    2  502    0  0.64284537566E+00  0.29338439992E+02 -0.50036451611E+03  0.50122430736E+03  0.00000000000E+00 0. -1.
         -1    1    1    2    0  501  0.27707436652E+02  0.27409420649E+02 -0.94636958913E+02  0.10234809416E+03  0.00000000000E+00 0.  1.
<mgrwt>
<rscale>  0 0.34416129E+02</rscale>
<asrwt>0</asrwt>
<pdfrwt beam="2">  1        2 0.31078845E+00 0.29345482E+02</pdfrwt>
<pdfrwt beam="1">  1       -1 0.11911940E-02 0.40362939E+02</pdfrwt>
<totfact> 0.11575851E+04</totfact>
</mgrwt>
</event>
<event>
 5    1  0.4149151E-003  0.1541069E+03  0.7546771E-02  0.1364447E+00
          3   -1    0    0  502    0  0.00000000000E+00  0.00000000000E+00  0.38261833101E+03  0.38261833101E+03  0.00000000000E+00 0. -1.
          3   -1    0    0  501    0 -0.00000000000E+00 -0.00000000000E+00 -0.46139376496E+03  0.46139376496E+03  0.00000000000E+00 0. -1.
         25    1    1    2    0    0 -0.40735833345E+02  0.16237147985E+03 -0.69814998191E+02  0.22027945787E+03  0.12500000000E+03 0.  0.
          3    1    1    2  501    0  0.28913205194E+02 -0.10193648715E+02 -0.29655910718E+03  0.29813954445E+03  0.00000000000E+00 0. -1.
          3    1    1    2  502    0  0.11822628150E+02 -0.15217783114E+03  0.28759867142E+03  0.32559309365E+03  0.00000000000E+00 0. -1.
<mgrwt>
<rscale>  0 0.68735256E+02</rscale>
<asrwt>0</asrwt>
<pdfrwt beam="1">  1        3 0.58864359E-01 0.15410687E+03</pdfrwt>
<pdfrwt beam="2">  1        3 0.70983656E-01 0.30657526E+02</pdfrwt>
<totfact> 0.12406978E+01</totfact>
</mgrwt>
</event>
<event>
 5    1  0.4149151E-003  0.3739208E+02  0.7546771E-02  0.1543625E+00
          1   -1    0    0  502    0  0.00000000000E+00  0.00000000000E+00  0.12272910668E+04  0.12272910668E+04  0.00000000000E+00 0. -1.
         -2   -1    0    0    0  501 -0.00000000000E+00 -0.00000000000E+00 -0.16908739803E+02  0.16908739803E+02  0.00000000000E+00 0.  1.
         25    1    1    2    0    0 -0.53237322194E+01 -0.35782071563E+02  0.27137839095E+03  0.30096499771E+03  0.12500000000E+03 0.  0.
          1    1    1    2  502    0 -0.32386025778E+02  0.97796758227E+01  0.62417283839E+03  0.62508897679E+03  0.00000000000E+00 0. -1.
         -2    1    1    2    0  501  0.37709757998E+02  0.26002395740E+02  0.31483109764E+03  0.31814583209E+03  0.00000000000E+00 0.  1.
<mgrwt>
<rscale>  0 0.35566691E+02</rscale>
<asrwt>0</asrwt>
<pdfrwt beam="1">  1        1 0.18881394E+00 0.33830411E+02</pdfrwt>
<pdfrwt beam="2">  1       -2 0.26013455E-02 0.37392082E+02</pdfrwt>
<totfact> 0.46709021E+03</totfact>
</mgrwt>
</event>
<event>
 5    1  0.4149151E-003  0.3511924E+02  0.7546771E-02  0.1585770E+00
         -1   -1    0    0    0  501 -0.00000000000E+00  0.00000000000E+00  0.12622808370E+02  0.12622808370E+02  0.00000000000E+00 0.  1.
          2   -1    0    0  502    0  0.00000000000E+00 -0.00000000000E+00 -0.89670488301E+03  0.89670488301E+03  0.00000000000E+00 0. -1.
         25    1    1    2    0    0  0.13768720742E+02 -0.74108106417E+00 -0.61225145794E+03  0.62503357880E+03  0.12500000000E+03 0.  0.
          2    1    1    2  502    0 -0.40336782187E+02  0.82908367320E+01 -0.23318429713E+03  0.23679254718E+03  0.00000000000E+00 0. -1.
         -1    1    1    2    0  501  0.26568061445E+02 -0.75497556678E+01 -0.38646319559E+02  0.47501565396E+02  0.00000000000E+00 0.  1.
<mgrwt>
<rscale>  0 0.31144679E+02</rscale>
<asrwt>0</asrwt>
<pdfrwt beam="2">  1        2 0.13795463E+00 0.35119240E+02</pdfrwt>
<pdfrwt beam="1">  1       -1 0.19419701E-02 0.27619933E+02</pdfrwt>
<totfact> 0.19727125E+04</totfact>
</mgrwt>
</event>
<event>
 5    1  0.4149151E-003  0.3370812E+02  0.7546771E-02  0.1598731E+00
          2   -1    0    0  502    0  0.00000000000E+00  0.00000000000E+00  0.73266998572E+03  0.73266998572E+03  0.00000000000E+00 0. -1.
          2   -1    0    0  501    0 -0.00000000000E+00 -0.00000000000E+00 -0.22541148975E+03  0.22541148975E+03  0.00000000000E+00 0.  1.
         25    1    1    2    0    0 -0.23875333303E+02 -0.54658547050E+02  0.61155877186E+02  0.15140221141E+03  0.12500000000E+03 0.  0.
          2    1    1    2  501    0  0.15954321934E+02  0.29268777827E+02 -0.17846201022E+03  0.18154859084E+03  0.00000000000E+00 0.  1.
          2    1    1    2  502    0  0.79210113689E+01  0.25389769223E+02  0.62456462901E+03  0.62513067323E+03  0.00000000000E+00 0. -1.
<mgrwt>
<rscale>  0 0.29942007E+02</rscale>
<asrwt>0</asrwt>
<pdfrwt beam="1">  1        2 0.11271846E+00 0.26596669E+02</pdfrwt>
<pdfrwt beam="2">  1        2 0.34678691E-01 0.33708122E+02</pdfrwt>
<totfact> 0.95182227E+02</totfact>
</mgrwt>
</event>
<event>
 5    1  0.4149151E-003  0.9700642E+02  0.7546771E-02  0.1344465E+00
          1   -1    0    0  502    0 -0.00000000000E+00  0.00000000000E+00  0.30517813647E+04  0.30517813647E+04  0.00000000000E+00 0. -1.
          2   -1    0    0  501    0  0.00000000000E+00 -0.00000000000E+00 -0.61562226408E+02  0.61562226408E+02  0.00000000000E+00 0. -1.
         25    1    1    2    0    0 -0.55222623556E+02  0.72992941704E+02  0.22961065525E+03  0.27699018159E+03  0.12500000000E+03 0.  0.
          2    1    1    2  501    0  0.96601011415E+02 -0.32793947850E+02  0.31688868458E+02  0.10682407409E+03  0.00000000000E+00 0. -1.
          1    1    1    2  502    0 -0.41378387859E+02 -0.40198993854E+02  0.27289196145E+04  0.27295293354E+04  0.00000000000E+00 0. -1.
<mgrwt>
<rscale>  0 0.74808390E+02</rscale>
<asrwt>0</asrwt>
<pdfrwt beam="2">  1        2 0.94711141E-02 0.97006419E+02</pdfrwt>
<pdfrwt beam="1">  1        1 0.46950471E+00 0.57689948E+02</pdfrwt>
<totfact> 0.76015586E+01</totfact>
</mgrwt>
</event>
<event>
 5    1  0.4149151E-003  0.5262887E+02  0.7546771E-02  0.1499279E+00
          1   -1    0    0  502    0  0.00000000000E+00  0.00000000000E+00  0.68143400539E+02  0.68143400539E+02  0.00000000000E+00 0. -1.
         -2   -1    0    0    0  501 -0.00000000000E+00 -0.00000000000E+00 -0.25161569894E+03  0.25161569894E+03  0.00000000000E+00 0.  1.
         25    1    1    2    0    0 -0.22648736395E+02  0.72629535211E+02 -0.77884882741E+02  0.16576811999E+03  0.12500000000E+03 0.  0.
          1    1    1    2  502    0  0.23186121091E+02 -0.22510453564E+02  0.48821021662E+01  0.32682589440E+02  0.00000000000E+00 0. -1.
         -2    1    1    2    0  501 -0.53738469577E+00 -0.50119081647E+02 -0.11046951782E+03  0.12130839005E+03  0.00000000000E+00 0.  1.
<mgrwt>
<rscale>  0 0.41240137E+02</rscale>
<asrwt>0</asrwt>
<pdfrwt beam="1">  1        1 0.10483600E-01 0.32315890E+02</pdfrwt>
<pdfrwt beam="2">  1       -2 0.38710108E-01 0.52628874E+02</pdfrwt>
<totfact> 0.28756374E+03</totfact>
</mgrwt>
</event>
<event>
 5    1  0.4149151E-003  0.4540938E+02  0.7546771E-02  0.1494495E+00
         -2   -1    0    0    0  501 -0.00000000000E+00  0.00000000000E+00  0.96333194473E+03  0.96333194473E+03  0.00000000000E+00 0.  1.
          1   -1    0    0  502    0  0.00000000000E+00 -0.00000000000E+00 -0.13061942471E+02  0.13061942471E+02  0.00000000000E+00 0. -1.
         25    1    1    2    0    0  0.43863456218E+02 -0.30764628317E+01  0.56761636179E+03  0.58287803320E+03  0.12500000000E+03 0.  0.
          1    1    1    2  502    0 -0.86270501142E+01  0.37737010907E+02  0.11510253326E+03  0.12143764305E+03  0.00000000000E+00 0. -1.
         -2    1    1    2    0  501 -0.35236406103E+02 -0.34660548075E+02  0.26755110721E+03  0.27207821096E+03  0.00000000000E+00 0.  1.
<mgrwt>
<rscale>  0 0.41926398E+02</rscale>
<asrwt>0</asrwt>
<pdfrwt beam="2">  1        1 0.20095304E-02 0.38710567E+02</pdfrwt>
<pdfrwt beam="1">  1       -2 0.14820486E+00 0.45409381E+02</pdfrwt>
<totfact> 0.14585014E+03</totfact>
</mgrwt>
</event>
<event>
 5    1  0.4149151E-003  0.1544316E+03  0.7546771E-02  0.1298318E+00
          2   -1    0    0  502    0  0.00000000000E+00  0.00000000000E+00  0.48884642471E+04  0.48884642471E+04  0.00000000000E+00 0. -1.
          2   -1    0    0  501    0 -0.00000000000E+00 -0.00000000000E+00 -0.81493902892E+03  0.81493902892E+03  0.00000000000E+00 0.  1.
         25    1    1    2    0    0 -0.16120631613E+03  0.69381572139E+02  0.26763333051E+03  0.34358969500E+03  0.12500000000E+03 0.  0.
          2    1    1    2  501    0  0.44778802724E+02  0.31392657258E+02 -0.77470322908E+03  0.77663101486E+03  0.00000000000E+00 0.  1.
          2    1    1    2  502    0  0.11642751341E+03 -0.10077422940E+03  0.45805951168E+04  0.45831825662E+04  0.00000000000E+00 0. -1.
<mgrwt>
<rscale>  0 0.91898646E+02</rscale>
<asrwt>0</asrwt>
<pdfrwt beam="1">  1        2 0.75207141E+00 0.15443159E+03</pdfrwt>
<pdfrwt beam="2">  1        2 0.12537524E+00 0.54686745E+02</pdfrwt>
<totfact> 0.45438408E-01</totfact>
</mgrwt>
</event>
<event>
 5    1  0.4149151E-003  0.4759433E+02  0.7546771E-02  0.1497986E+00
         -1   -1    0    0    0  501 -0.00000000000E+00  0.00000000000E+00  0.11831189785E+03  0.11831189785E+03  0.00000000000E+00 0.  1.
          2   -1    0    0  502    0  0.00000000000E+00 -0.00000000000E+00 -0.28175851457E+03  0.28175851457E+03  0.00000000000E+00 0. -1.
         25    1    1    2    0    0 -0.23808245162E+02  0.79722716383E+01 -0.24890771769E+03  0.27966129796E+03  0.12500000000E+03 0.  0.
          2    1    1    2  502    0 -0.19525901180E+02 -0.30308620207E+02  0.37495019870E+02  0.52016822190E+02  0.00000000000E+00 0. -1.
         -1    1    1    2    0  501  0.43334146342E+02  0.22336348569E+02  0.47966081095E+02  0.68392292272E+02  0.00000000000E+00 0.  1.
<mgrwt>
<rscale>  0 0.41424078E+02</rscale>
<asrwt>0</asrwt>
<pdfrwt beam="2">  1        2 0.43347463E-01 0.36053755E+02</pdfrwt>
<pdfrwt beam="1">  1       -1 0.18201831E-01 0.47594327E+02</pdfrwt>
<totfact> 0.28627757E+03</totfact>
</mgrwt>
</event>
<event>
 5    1  0.4149151E-003  0.1076770E+03  0.7546771E-02  0.1379915E+00
          1   -1    0    0  502    0 -0.00000000000E+00  0.00000000000E+00  0.37127250083E+03  0.37127250083E+03  0.00000000000E+00 0. -1.
          2   -1    0    0  501    0  0.00000000000E+00 -0.00000000000E+00 -0.23655077376E+03  0.23655077376E+03  0.00000000000E+00 0. -1.
         25    1    1    2    0    0 -0.13459444829E+02 -0.70989829607E+02  0.13648228580E+03  0.19867845102E+03  0.12500000000E+03 0.  0.
          2    1    1    2  501    0  0.19920395528E+02  0.10906516695E+03 -0.18837295431E+03  0.21857813870E+03  0.00000000000E+00 0. -1.
          1    1    1    2  502    0 -0.64609506991E+01 -0.38075337343E+02  0.18661239558E+03  0.19056668487E+03  0.00000000000E+00 0. -1.
<mgrwt>
<rscale>  0 0.64485999E+02</rscale>
<asrwt>0</asrwt>
<pdfrwt beam="2">  1        2 0.36392427E-01 0.10767698E+03</pdfrwt>
<pdfrwt beam="1">  1        1 0.57118846E-01 0.38619622E+02</pdfrwt>
<totfact> 0.12904047E+03</totfact>
</mgrwt>
</event>
<event>
 5    1  0.4149151E-003  0.1541750E+03  0.7546771E-02  0.1226869E+00
          1   -1    0    0  502    0 -0.00000000000E+00  0.00000000000E+00  0.46485902550E+03  0.46485902550E+03  0.00000000000E+00 0. -1.
          2   -1    0    0  501    0  0.00000000000E+00 -0.00000000000E+00 -0.12533749834E+04  0.12533749834E+04  0.00000000000E+00 0. -1.
         25    1    1    2    0    0 -0.18206318729E+03  0.12702696630E+03  0.30742149649E+03  0.39926912082E+03  0.12500000000E+03 0.  0.
          2    1    1    2  501    0  0.92417261267E+02 -0.60182554918E+02 -0.11761740147E+04  0.11813332311E+04  0.00000000000E+00 0. -1.
          1    1    1    2  502    0  0.89645926020E+02 -0.66844411383E+02  0.80236560309E+02  0.13763165695E+03  0.00000000000E+00 0. -1.
<mgrwt>
<rscale>  0 0.13039655E+03</rscale>
<asrwt>0</asrwt>
<pdfrwt beam="2">  1        2 0.19282692E+00 0.11028549E+03</pdfrwt>
<pdfrwt beam="1">  1        1 0.71516774E-01 0.15417496E+03</pdfrwt>
<totfact> 0.13634257E+02</totfact>
</mgrwt>
</event>
<event>
 5    1  0.4149151E-003  0.6603607E+02  0.7546771E-02  0.1494739E+00
          1   -1    0    0  502    0  0.00000000000E+00  0.00000000000E+00  0.40964927028E+03  0.40964927028E+03  0.00000000000E+00 0. -1.
          1   -1    0    0  501    0 -0.00000000000E+00 -0.00000000000E+00 -0.24755387083E+03  0.24755387083E+03  0.00000000000E+00 0. -1.
         25    1    1    2    0    0 -0.71119410485E+02 -0.36149678982E+02 -0.99570769969E+02  0.17861721101E+03  0.12500000000E+03 0.  0.
          1    1    1    2  501    0  0.61022631161E+01  0.25864163401E+02 -0.10384674325E+03  0.10719299719E+03  0.00000000000E+00 0. -1.
          1    1    1    2  502    0  0.65017147369E+02  0.10285515581E+02  0.36551291267E+03  0.37139293290E+03  0.00000000000E+00 0. -1.
<mgrwt>
<rscale>  0 0.41891063E+02</rscale>
<asrwt>0</asrwt>
<pdfrwt beam="1">  1        1 0.63022964E-01 0.66036066E+02</pdfrwt>
<pdfrwt beam="2">  1        1 0.38085211E-01 0.26574284E+02</pdfrwt>
<totfact> 0.78153463E+02</totfact>
</mgrwt>
</event>
<event>
 5    1  0.4149151E-003  0.6579623E+02  0.7546771E-02  0.1419972E+00
         -1   -1    0    0    0  501  0.00000000000E+00  0.00000000000E+00  0.21452588115E+03  0.21452588115E+03  0.00000000000E+00 0.  1.
         -3   -1    0    0    0  502 -0.00000000000E+00 -0.00000000000E+00 -0.23277923886E+03  0.23277923886E+03  0.00000000000E+00 0.  1.
         25    1    1    2    0    0  0.47979253954E+02 -0.83350305998E+02 -0.12286356782E+03  0.19992433223E+03  0.12500000000E+03 0.  0.
         -1    1    1    2    0  501 -0.52946337959E+02  0.37599137087E+02  0.16158264340E+03  0.17414350537E+03  0.00000000000E+00 0.  1.
         -3    1    1    2    0  502  0.49670840054E+01  0.45751168911E+02 -0.56972433297E+02  0.73237282418E+02  0.00000000000E+00 0.  1.
<mgrwt>
<rscale>  0 0.55026751E+02</rscale>
<asrwt>0</asrwt>
<pdfrwt beam="1">  1       -1 0.33003982E-01 0.65796233E+02</pdfrwt>
<pdfrwt beam="2">  1       -3 0.35812191E-01 0.46020011E+02</pdfrwt>
<totfact> 0.26928883E+02</totfact>
</mgrwt>
</event>
<event>
 5    1  0.4149151E-003  0.1123538E+03  0.7546771E-02  0.1420729E+00
          2   -1    0    0  502    0  0.00000000000E+00  0.00000000000E+00  0.29709472354E+04  0.29709472354E+04  0.00000000000E+00 0. -1.
         -1   -1    0    0    0  501 -0.00000000000E+00 -0.00000000000E+00 -0.83069148420E+01  0.83069148420E+01  0.00000000000E+00 0.  1.
         25    1    1    2    0    0  0.10096690965E+03 -0.43386824231E+02  0.13885932341E+04  0.13985324105E+04  0.12500000000E+03 0.  0.
          2    1    1    2  502    0 -0.91730784536E+02  0.68538500960E+02  0.13935687059E+04  0.13982652828E+04  0.00000000000E+00 0. -1.
         -1    1    1    2    0  501 -0.92361251155E+01 -0.25151676729E+02  0.18047838048E+03  0.18245645691E+03  0.00000000000E+00 0.  1.
<mgrwt>
<rscale>  0 0.54867079E+02</rscale>
<asrwt>0</asrwt>
<pdfrwt beam="1">  1        2 0.45706796E+00 0.11235381E+03</pdfrwt>
<pdfrwt beam="2">  1       -1 0.12779893E-02 0.26793896E+02</pdfrwt>
<totfact> 0.25775021E+03</totfact>
</mgrwt>
</event>
<event>
 5    1  0.4149151E-003  0.4730172E+02  0.7546771E-02  0.1525117E+00
          2   -1    0    0  502    0  0.00000000000E+00  0.00000000000E+00  0.41692032959E+04  0.41692032959E+04  0.00000000000E+00 0.  1.
         -1   -1    0    0    0  501 -0.00000000000E+00 -0.00000000000E+00 -0.32036729397E+03  0.32036729397E+03  0.00000000000E+00 0.  1.
         25    1    1    2    0    0  0.69087738067E+02 -0.33764614430E+02  0.27149223843E+04  0.27188861171E+04  0.12500000000E+03 0.  0.
          2    1    1    2  502    0 -0.24783596112E+02  0.17247701039E+02  0.14503855750E+04  0.14506998400E+04  0.00000000000E+00 0.  1.
         -1    1    1    2    0  501 -0.44304141955E+02  0.16516913390E+02 -0.31647195735E+03  0.31998463277E+03  0.00000000000E+00 0.  1.
<mgrwt>
<rscale>  0 0.37792239E+02</rscale>
<asrwt>0</asrwt>
<pdfrwt beam="1">  1        2 0.64141585E+00 0.30194533E+02</pdfrwt>
<pdfrwt beam="2">  1       -1 0.49287279E-01 0.47301719E+02</pdfrwt>
<totfact> 0.27003401E+00</totfact>
</mgrwt>
</event>
<event>
 5    1  0.4149151E-003  0.9875608E+02  0.7546771E-02  0.1350629E+00
          2   -1    0    0  502    0  0.00000000000E+00  0.00000000000E+00  0.34682882174E+03  0.34682882174E+03  0.00000000000E+00 0. -1.
         -1   -1    0    0    0  501 -0.00000000000E+00 -0.00000000000E+00 -0.80380030479E+02  0.80380030479E+02  0.00000000000E+00 0.  1.
         25    1    1    2    0    0  0.12789925108E+03  0.56478248549E+01  0.15786239832E+03  0.23861193003E+03  0.12500000000E+03 0.  0.
          2    1    1    2  502    0 -0.41565977709E+02 -0.34085535458E+02  0.73733114637E+02  0.91247610513E+02  0.00000000000E+00 0. -1.
         -1    1    1    2    0  501 -0.86333273366E+02  0.28437710603E+02  0.34853278307E+02  0.97349311673E+02  0.00000000000E+00 0.  1.
<mgrwt>
<rscale>  0 0.72860077E+02</rscale>
<asrwt>0</asrwt>
<pdfrwt beam="1">  1        2 0.53358280E-01 0.53754574E+02</pdfrwt>
<pdfrwt beam="2">  1       -1 0.12366159E-01 0.98756076E+02</pdfrwt>
<totfact> 0.43911487E+03</totfact>
</mgrwt>
</event>
<event>
 5    1  0.4149151E-003  0.7248583E+02  0.7546771E-02  0.1377633E+00
          1   -1    0    0  502    0  0.00000000000E+00  0.00000000000E+00  0.48072651495E+03  0.48072651495E+03  0.00000000000E+00 0. -1.
          1   -1    0    0  501    0 -0.00000000000E+00 -0.00000000000E+00 -0.44853691615E+03  0.44853691615E+03  0.00000000000E+00 0. -1.
         25    1    1    2    0    0  0.14253307024E+02  0.51813627947E+01 -0.14460227174E+03  0.19174154551E+03  0.12500000000E+03 0.  0.
          1    1    1    2  501    0  0.57150389319E+02  0.12252561870E+02 -0.27431165740E+03  0.28046956637E+03  0.00000000000E+00 0. -1.
          1    1    1    2  502    0 -0.71403696343E+02 -0.17433924665E+02  0.45110352794E+03  0.45705231922E+03  0.00000000000E+00 0. -1.
<mgrwt>
<rscale>  0 0.65090157E+02</rscale>
<asrwt>0</asrwt>
<pdfrwt beam="1">  1        1 0.73957926E-01 0.72485832E+02</pdfrwt>
<pdfrwt beam="2">  1        1 0.69005679E-01 0.58449057E+02</pdfrwt>
<totfact> 0.31544269E+02</totfact>
</mgrwt>
</event>
<event>
 5    1  0.4149151E-003  0.5460840E+02  0.7546771E-02  0.1485407E+00
          2   -1    0    0  501    0  0.00000000000E+00  0.00000000000E+00  0.40363295441E+03  0.40363295441E+03  0.00000000000E+00 0. -1.
          2   -1    0    0  502    0 -0.00000000000E+00 -0.00000000000E+00 -0.57527809446E+03  0.57527809446E+03  0.00000000000E+00 0.  1.
         25    1    1    2    0    0 -0.29647583724E+02 -0.79397035301E+02 -0.95368209946E+02  0.17861400814E+03  0.12500000000E+03 0.  0.
          2    1    1    2  501    0  0.90534070224E+00  0.34281840462E+02  0.35955894419E+03  0.36119066789E+03  0.00000000000E+00 0. -1.
          2    1    1    2  502    0  0.28742243022E+02  0.45115194839E+02 -0.43583587429E+03  0.43910637283E+03  0.00000000000E+00 0.  1.
<mgrwt>
<rscale>  0 0.43275040E+02</rscale>
<asrwt>0</asrwt>
<pdfrwt beam="1">  1        2 0.62097378E-01 0.34293793E+02</pdfrwt>
<pdfrwt beam="2">  1        2 0.88504322E-01 0.54608398E+02</pdfrwt>
<totfact> 0.67758261E+02</totfact>
</mgrwt>
</event>
<event>
 5    1  0.4149151E-003  0.4103017E+02  0.7546771E-02  0.1580937E+00
          2   -1    0    0  502    0  0.00000000000E+00  0.00000000000E+00  0.11925458245E+03  0.11925458245E+03  0.00000000000E+00 0. -1.
         -1   -1    0    0    0  501 -0.00000000000E+00 -0.00000000000E+00 -0.10846231430E+03  0.10846231430E+03  0.00000000000E+00 0.  1.
         25    1    1    2    0    0 -0.31908695638E+02  0.24751512054E+02 -0.17542249131E+02  0.13252747908E+03  0.12500000000E+03 0.  0.
          2    1    1    2  502    0 -0.10660071375E+02 -0.21896834509E+02  0.43546737070E+02  0.49894155897E+02  0.00000000000E+00 0. -1.
         -1    1    1    2    0  501  0.42568767013E+02 -0.28546775445E+01 -0.15212219785E+02  0.45295261780E+02  0.00000000000E+00 0.  1.
<mgrwt>
<rscale>  0 0.31610778E+02</rscale>
<asrwt>0</asrwt>
<pdfrwt beam="1">  1        2 0.18346859E-01 0.24353819E+02</pdfrwt>
<pdfrwt beam="2">  1       -1 0.16686510E-01 0.41030169E+02</pdfrwt>
<totfact> 0.77686242E+03</totfact>
</mgrwt>
</event>
<event>
 5    1  0.4149151E-003  0.5764469E+02  0.7546771E-02  0.1425654E+00
          3   -1    0    0  502    0  0.00000000000E+00  0.00000000000E+00  0.58783193744E+03  0.58783193744E+03  0.00000000000E+00 0. -1.
         -1   -1    0    0    0  501 -0.00000000000E+00 -0.00000000000E+00 -0.15669607451E+03  0.15669607451E+03  0.00000000000E+00 0. -1.
         25    1    1    2    0    0 -0.28069016485E+02 -0.80062367248E+02  0.17868930794E+03  0.23399299371E+03  0.12500000000E+03 0.  0.
          3    1    1    2  502    0  0.45960385374E+02  0.33061407443E+02  0.37438038338E+03  0.37863714180E+03  0.00000000000E+00 0. -1.
         -1    1    1    2    0  501 -0.17891368889E+02  0.47000959805E+02 -0.12193382839E+03  0.13189787644E+03  0.00000000000E+00 0. -1.
<mgrwt>
<rscale>  0 0.53842482E+02</rscale>
<asrwt>0</asrwt>
<pdfrwt beam="1">  1        3 0.90435682E-01 0.57644689E+02</pdfrwt>
<pdfrwt beam="2">  1       -1 0.24107089E-01 0.50291066E+02</pdfrwt>
<totfact> 0.71095909E+01</totfact>
</mgrwt>
</event>
<event>
 5    1  0.4149151E-003  0.2602906E+03  0.7546771E-02  0.1258206E+00
          2   -1    0    0  501    0  0.00000000000E+00  0.00000000000E+00  0.19573844891E+04  0.19573844891E+04  0.00000000000E+00 0. -1.
          2   -1    0    0  502    0 -0.00000000000E+00 -0.00000000000E+00 -0.97072657875E+03  0.97072657875E+03  0.00000000000E+00 0.  1.
         25    1    1    2    0    0 -0.11485542189E+03  0.27706041112E+03 -0.56360856820E+03  0.65056426085E+03  0.12500000000E+03 0.  0.
          2    1    1    2  501    0  0.12092029814E+03 -0.22986813228E+03  0.19034922359E+04  0.19211308568E+04  0.00000000000E+00 0. -1.
          2    1    1    2  502    0 -0.60648762416E+01 -0.47192278839E+02 -0.35322575735E+03  0.35641595021E+03  0.00000000000E+00 0.  1.
<mgrwt>
<rscale>  0 0.11128670E+03</rscale>
<asrwt>0</asrwt>
<pdfrwt beam="1">  1        2 0.30113607E+00 0.26029062E+03</pdfrwt>
<pdfrwt beam="2">  1        2 0.14934255E+00 0.47580394E+02</pdfrwt>
<totfact> 0.36690918E+01</totfact>
</mgrwt>
</event>
<event>
 5    1  0.4149151E-003  0.7482538E+02  0.7546771E-02  0.1469815E+00
         -1   -1    0    0    0  501 -0.00000000000E+00  0.00000000000E+00  0.72073933025E+03  0.72073933025E+03  0.00000000000E+00 0. -1.
          2   -1    0    0  502    0  0.00000000000E+00 -0.00000000000E+00 -0.39035885246E+03  0.39035885246E+03  0.00000000000E+00 0. -1.
         25    1    1    2    0    0  0.84346316724E+01 -0.10173963740E+03 -0.83876202323E+01  0.16160893850E+03  0.12500000000E+03 0.  0.
          2    1    1    2  502    0 -0.27075568765E+01  0.27820734566E+02 -0.30258083280E+03  0.30386918980E+03  0.00000000000E+00 0. -1.
         -1    1    1    2    0  501 -0.57270747958E+01  0.73918902833E+02  0.64134893083E+03  0.64562005441E+03  0.00000000000E+00 0. -1.
<mgrwt>
<rscale>  0 0.45733272E+02</rscale>
<asrwt>0</asrwt>
<pdfrwt beam="2">  1        2 0.60055208E-01 0.27952176E+02</pdfrwt>
<pdfrwt beam="1">  1       -1 0.11088297E+00 0.74825379E+02</pdfrwt>
<totfact> 0.80335086E+01</totfact>
</mgrwt>
</event>
<event>
 5    1  0.4149151E-003  0.5843074E+02  0.7546771E-02  0.1440530E+00
          1   -1    0    0  502    0 -0.00000000000E+00  0.00000000000E+00  0.30525716709E+03  0.30525716709E+03  0.00000000000E+00 0. -1.
          2   -1    0    0  501    0  0.00000000000E+00 -0.00000000000E+00 -0.15584783990E+03  0.15584783990E+03  0.00000000000E+00 0.  1.
         25    1    1    2    0    0 -0.93720318966E+02 -0.10214690133E+02  0.51105388572E+02  0.16469547299E+03  0.12500000000E+03 0.  0.
          2    1    1    2  501    0  0.38743860645E+02  0.21573681123E+02 -0.89775609877E+02  0.10013076742E+03  0.00000000000E+00 0.  1.
          1    1    1    2  502    0  0.54976458321E+02 -0.11358990990E+02  0.18807954850E+03  0.19627876658E+03  0.00000000000E+00 0. -1.
<mgrwt>
<rscale>  0 0.50903160E+02</rscale>
<asrwt>0</asrwt>
<pdfrwt beam="2">  1        2 0.23976591E-01 0.44345354E+02</pdfrwt>
<pdfrwt beam="1">  1        1 0.46962641E-01 0.58430735E+02</pdfrwt>
<totfact> 0.24803149E+03</totfact>
</mgrwt>
</event>
<event>
 5    1  0.4149151E-003  0.1538667E+03  0.7546771E-02  0.1378389E+00
          2   -1    0    0  501    0  0.00000000000E+00  0.00000000000E+00  0.11069307819E+04  0.11069307819E+04  0.00000000000E+00 0. -1.
          2   -1    0    0  502    0 -0.00000000000E+00 -0.00000000000E+00 -0.37885654454E+03  0.37885654454E+03  0.00000000000E+00 0. -1.
         25    1    1    2    0    0 -0.19410246410E+02 -0.16461549592E+03  0.14429022001E+03  0.25282342999E+03  0.12500000000E+03 0.  0.
          2    1    1    2  501    0  0.24708611202E+02  0.11762024878E+02  0.89013522988E+03  0.89055577488E+03  0.00000000000E+00 0. -1.
          2    1    1    2  502    0 -0.52983647922E+01  0.15285347104E+03 -0.30635121254E+03  0.34240812155E+03  0.00000000000E+00 0. -1.
<mgrwt>
<rscale>  0 0.64889221E+02</rscale>
<asrwt>0</asrwt>
<pdfrwt beam="1">  1        2 0.17029704E+00 0.27365319E+02</pdfrwt>
<pdfrwt beam="2">  1        2 0.58285623E-01 0.15386669E+03</pdfrwt>
<totfact> 0.34217239E+02</totfact>
</mgrwt>
</event>
<event>
 5    1  0.4149151E-003  0.4647405E+02  0.7546771E-02  0.1466935E+00
          2   -1    0    0  501    0  0.00000000000E+00  0.00000000000E+00  0.15348635106E+04  0.15348635106E+04  0.00000000000E+00 0.  1.
          1   -1    0    0  502    0 -0.00000000000E+00 -0.00000000000E+00 -0.85903537371E+03  0.85903537371E+03  0.00000000000E+00 0. -1.
         25    1    1    2    0    0  0.43746260622E+02  0.49644204177E+02  0.44801011250E+03  0.46980457983E+03  0.12500000000E+03 0.  0.
          2    1    1    2  501    0 -0.46221956571E+02 -0.37663239648E+01  0.10748335818E+04  0.10758335759E+04  0.00000000000E+00 0.  1.
          1    1    1    2  502    0  0.24756959482E+01 -0.45877880212E+02 -0.84701555746E+03  0.84826072852E+03  0.00000000000E+00 0. -1.
<mgrwt>
<rscale>  0 0.46208583E+02</rscale>
<asrwt>0</asrwt>
<pdfrwt beam="1">  1        2 0.23613285E+00 0.46474052E+02</pdfrwt>
<pdfrwt beam="2">  1        1 0.13215929E+00 0.45944629E+02</pdfrwt>
<totfact> 0.47204315E+01</totfact>
</mgrwt>
</event>
<event>
 5    1  0.4149151E-003  0.8106089E+02  0.7546771E-02  0.1403547E+00
          2   -1    0    0  501    0  0.00000000000E+00  0.00000000000E+00  0.62115507861E+02  0.62115507861E+02  0.00000000000E+00 0. -1.
          2   -1    0    0  502    0 -0.00000000000E+00 -0.00000000000E+00 -0.10712106991E+04  0.10712106991E+04  0.00000000000E+00 0. -1.
         25    1    1    2    0    0  0.43816770210E+02  0.25338279919E+02 -0.18074532558E+03  0.22551232893E+03  0.12500000000E+03 0.  0.
          2    1    1    2  501    0 -0.62435738405E+02 -0.63484999117E+02 -0.11408403187E+02  0.89770363742E+02  0.00000000000E+00 0. -1.
          2    1    1    2  502    0  0.18618968195E+02  0.38146719197E+02 -0.81694146246E+03  0.81804351428E+03  0.00000000000E+00 0. -1.
<mgrwt>
<rscale>  0 0.58658996E+02</rscale>
<asrwt>0</asrwt>
<pdfrwt beam="1">  1        2 0.95562315E-02 0.81060888E+02</pdfrwt>
<pdfrwt beam="2">  1        2 0.16480166E+00 0.42448064E+02</pdfrwt>
<totfact> 0.25655359E+03</totfact>
</mgrwt>
</event>
<event>
 5    1  0.4149151E-003  0.4496532E+02  0.7546771E-02  0.1491586E+00
          2   -1    0    0  502    0  0.00000000000E+00  0.00000000000E+00  0.11460371760E+03  0.11460371760E+03  0.00000000000E+00 0.  1.
          2   -1    0    0  501    0 -0.00000000000E+00 -0.00000000000E+00 -0.31016953730E+03  0.31016953730E+03  0.00000000000E+00 0. -1.
         25    1    1    2    0    0  0.39296967030E+02  0.17300593351E+02 -0.28309318251E+02  0.13516648863E+03  0.12500000000E+03 0.  0.
          2    1    1    2  501    0 -0.39838664049E+02  0.22585652826E+02 -0.21930214442E+03  0.22403272398E+03  0.00000000000E+00 0. -1.
          2    1    1    2  502    0  0.54169701846E+00 -0.39886246177E+02  0.52045642977E+02  0.65574042293E+02  0.00000000000E+00 0.  1.
<mgrwt>
<rscale>  0 0.42351662E+02</rscale>
<asrwt>0</asrwt>
<pdfrwt beam="1">  1        2 0.17631341E-01 0.39889924E+02</pdfrwt>
<pdfrwt beam="2">  1        2 0.47718390E-01 0.44965322E+02</pdfrwt>
<totfact> 0.47601893E+03</totfact>
</mgrwt>
</event>
<event>
 5    1  0.4149151E-003  0.2228678E+03  0.7546771E-02  0.1245003E+00
          1   -1    0    0  502    0 -0.00000000000E+00  0.00000000000E+00  0.89911821700E+03  0.89911821700E+03  0.00000000000E+00 0. -1.
          2   -1    0    0  501    0  0.00000000000E+00 -0.00000000000E+00 -0.61258522904E+03  0.61258522904E+03  0.00000000000E+00 0. -1.
         25    1    1    2    0    0 -0.65461584687E+02 -0.20092115873E+03 -0.13373200886E+03  0.27957786266E+03  0.12500000000E+03 0.  0.
          2    1    1    2  501    0  0.12816929730E+03  0.19170270083E+03 -0.37181165623E+03  0.43751708765E+03  0.00000000000E+00 0. -1.
          1    1    1    2  502    0 -0.62707712609E+02  0.92184578983E+01  0.79207665305E+03  0.79460849573E+03  0.00000000000E+00 0. -1.
<mgrwt>
<rscale>  0 0.11885172E+03</rscale>
<asrwt>0</asrwt>
<pdfrwt beam="2">  1        2 0.94243882E-01 0.22286776E+03</pdfrwt>
<pdfrwt beam="1">  1        1 0.13832588E+00 0.63381679E+02</pdfrwt>
<totfact> 0.14084493E+02</totfact>
</mgrwt>
</event>
<event>
 5    1  0.4149151E-003  0.1041632E+03  0.7546771E-02  0.1288826E+00
          1   -1    0    0  502    0 -0.00000000000E+00  0.00000000000E+00  0.17329292147E+04  0.17329292147E+04  0.00000000000E+00 0. -1.
          2   -1    0    0  501    0  0.00000000000E+00 -0.00000000000E+00 -0.23818375007E+04  0.23818375007E+04  0.00000000000E+00 0. -1.
         25    1    1    2    0    0 -0.58032645895E+02  0.15437615199E+03 -0.24865837231E+03  0.32350544109E+03  0.12500000000E+03 0.  0.
          2    1    1    2  501    0 -0.20406383650E+02 -0.86187682266E+02 -0.20932254214E+04  0.20950984230E+04  0.00000000000E+00 0. -1.
          1    1    1    2  502    0  0.78439029545E+02 -0.68188469725E+02  0.16929755077E+04  0.16961628514E+04  0.00000000000E+00 0. -1.
<mgrwt>
<rscale>  0 0.96050965E+02</rscale>
<asrwt>0</asrwt>
<pdfrwt beam="2">  1        2 0.36643654E+00 0.88570520E+02</pdfrwt>
<pdfrwt beam="1">  1        1 0.26660449E+00 0.10416319E+03</pdfrwt>
<totfact> 0.40917608E+00</totfact>
</mgrwt>
</event>
<event>
 5    1  0.4149151E-003  0.5352183E+02  0.7546771E-02  0.1500812E+00
          1   -1    0    0  502    0  0.00000000000E+00  0.00000000000E+00  0.65721889415E+03  0.65721889415E+03  0.00000000000E+00 0. -1.
         -2   -1    0    0    0  501 -0.00000000000E+00 -0.00000000000E+00 -0.19118809316E+02  0.19118809316E+02  0.00000000000E+00 0.  1.
         25    1    1    2    0    0 -0.14909480201E+02 -0.43653352157E+02  0.41809342751E+03  0.43881091814E+03  0.12500000000E+03 0.  0.
          1    1    1    2  502    0  0.28735583307E+02 -0.12765944252E+02  0.77221010278E+02  0.83377380080E+02  0.00000000000E+00 0. -1.
         -2    1    1    2    0  501 -0.13826103106E+02  0.56419296409E+02  0.14278564705E+03  0.15414940525E+03  0.00000000000E+00 0.  1.
<mgrwt>
<rscale>  0 0.41023427E+02</rscale>
<asrwt>0</asrwt>
<pdfrwt beam="1">  1        1 0.10111058E+00 0.31443649E+02</pdfrwt>
<pdfrwt beam="2">  1       -2 0.29413558E-02 0.53521827E+02</pdfrwt>
<totfact> 0.10678762E+04</totfact>
</mgrwt>
</event>
<event>
 5    1  0.4149151E-003  0.1784333E+03  0.7546771E-02  0.1204104E+00
          1   -1    0    0  502    0 -0.00000000000E+00  0.00000000000E+00  0.33369587098E+04  0.33369587098E+04  0.00000000000E+00 0. -1.
          2   -1    0    0  501    0  0.00000000000E+00 -0.00000000000E+00 -0.13367985030E+03  0.13367985030E+03  0.00000000000E+00 0. -1.
         25    1    1    2    0    0  0.30379964076E+02 -0.10309559838E+03  0.17984194473E+03  0.24396673894E+03  0.12500000000E+03 0.  0.
          2    1    1    2  501    0 -0.11806400202E+03  0.18682555861E+03  0.21234212797E+02  0.22202204781E+03  0.00000000000E+00 0. -1.
          1    1    1    2  502    0  0.87684037942E+02 -0.83729960225E+02  0.30022027020E+04  0.30046497734E+04  0.00000000000E+00 0. -1.
<mgrwt>
<rscale>  0 0.14708262E+03</rscale>
<asrwt>0</asrwt>
<pdfrwt beam="2">  1        2 0.20566133E-01 0.17843331E+03</pdfrwt>
<pdfrwt beam="1">  1        1 0.51337820E+00 0.12124024E+03</pdfrwt>
<totfact> 0.17269495E+01</totfact>
</mgrwt>
</event>
<event>
 5    1  0.4149151E-003  0.9167636E+02  0.7546771E-02  0.1392728E+00
          2   -1    0    0  501    0  0.00000000000E+00  0.00000000000E+00  0.64731859958E+03  0.64731859958E+03  0.00000000000E+00 0. -1.
          3   -1    0    0  502    0 -0.00000000000E+00 -0.00000000000E+00 -0.95276489742E+03  0.95276489742E+03  0.00000000000E+00 0. -1.
         25    1    1    2    0    0  0.11846827340E+03  0.50562493815E+02  0.12103956426E+03  0.21648758325E+03  0.12500000000E+03 0.  0.
          2    1    1    2  501    0 -0.30231157186E+02 -0.27546997314E+02  0.47537772044E+03  0.47713387745E+03  0.00000000000E+00 0. -1.
          3    1    1    2  502    0 -0.88237116218E+02 -0.23015496500E+02 -0.90186358253E+03  0.90646203630E+03  0.00000000000E+00 0. -1.
<mgrwt>
<rscale>  0 0.61233217E+02</rscale>
<asrwt>0</asrwt>
<pdfrwt beam="1">  1        2 0.99587478E-01 0.40899388E+02</pdfrwt>
<pdfrwt beam="2">  1        3 0.14657921E+00 0.91676356E+02</pdfrwt>
<totfact> 0.10990410E+01</totfact>
</mgrwt>
</event>
<event>
 5    1  0.4149151E-003  0.7416050E+02  0.7546771E-02  0.1383181E+00
         -2   -1    0    0    0  501 -0.00000000000E+00  0.00000000000E+00  0.36974110626E+03  0.36974110626E+03  0.00000000000E+00 0.  1.
          1   -1    0    0  502    0  0.00000000000E+00 -0.00000000000E+00 -0.22040406991E+04  0.22040406991E+04  0.00000000000E+00 0. -1.
         25    1    1    2    0    0 -0.39346392726E+02  0.14943343748E+02  0.27526316545E+02  0.13473730087E+03  0.12500000000E+03 0.  0.
          1    1    1    2  502    0  0.30847217762E+01  0.54515964291E+02 -0.21447631398E+04  0.21454580937E+04  0.00000000000E+00 0. -1.
         -2    1    1    2    0  501  0.36261670950E+02 -0.69459308039E+02  0.28293723042E+03  0.29358641081E+03  0.00000000000E+00 0.  1.
<mgrwt>
<rscale>  0 0.63634881E+02</rscale>
<asrwt>0</asrwt>
<pdfrwt beam="2">  1        1 0.33908319E+00 0.54603167E+02</pdfrwt>
<pdfrwt beam="1">  1       -2 0.56883247E-01 0.74160498E+02</pdfrwt>
<totfact> 0.81470158E+00</totfact>
</mgrwt>
</event>
<event>
 5    1  0.4149151E-003  0.1143524E+03  0.7546771E-02  0.1373078E+00
         -2   -1    0    0    0  501 -0.00000000000E+00  0.00000000000E+00  0.39608736726E+03  0.39608736726E+03  0.00000000000E+00 0.  1.
          1   -1    0    0  502    0  0.00000000000E+00 -0.00000000000E+00 -0.95228161022E+02  0.95228161022E+02  0.00000000000E+00 0. -1.
         25    1    1    2    0    0  0.13011650231E+03  0.46077167458E+02  0.47418343903E+02  0.19216375536E+03  0.12500000000E+03 0.  0.
          1    1    1    2  502    0 -0.20280425155E+02 -0.32680374787E+02  0.26603466918E+02  0.46765874233E+02  0.00000000000E+00 0. -1.
         -2    1    1    2    0  501 -0.10983607716E+03 -0.13396792671E+02  0.22683739541E+03  0.25238589869E+03  0.00000000000E+00 0.  1.
<mgrwt>
<rscale>  0 0.66318837E+02</rscale>
<asrwt>0</asrwt>
<pdfrwt beam="2">  1        1 0.14650487E-01 0.38461702E+02</pdfrwt>
<pdfrwt beam="1">  1       -2 0.60936517E-01 0.11435240E+03</pdfrwt>
<totfact> 0.79590606E+02</totfact>
</mgrwt>
</event>
<event>
 5    1  0.4149151E-003  0.7523041E+02  0.7546771E-02  0.1371037E+00
         -2   -1    0    0    0  501  0.00000000000E+00  0.00000000000E+00  0.96334868546E+02  0.96334868546E+02  0.00000000000E+00 0.  1.
         -1   -1    0    0    0  502 -0.00000000000E+00 -0.00000000000E+00 -0.36277129408E+03  0.36277129408E+03  0.00000000000E+00 0.  1.
         25    1    1    2    0    0 -0.10531840966E+02 -0.24259819239E+02 -0.17669803194E+03  0.21805195022E+03  0.12500000000E+03 0.  0.
         -2    1    1    2    0  501 -0.74833506674E+02  0.77175857315E+01  0.39744710974E+02  0.85083822793E+02  0.00000000000E+00 0.  1.
         -1    1    1    2    0  502  0.85365347640E+02  0.16542233508E+02 -0.12948310457E+03  0.15597038961E+03  0.00000000000E+00 0.  1.
<mgrwt>
<rscale>  0 0.66879748E+02</rscale>
<asrwt>0</asrwt>
<pdfrwt beam="1">  1       -2 0.14820749E-01 0.75230412E+02</pdfrwt>
<pdfrwt beam="2">  1       -1 0.55810969E-01 0.59456019E+02</pdfrwt>
<totfact> 0.82875915E+02</totfact>
</mgrwt>
</event>
<event>
 5    1  0.4149151E-003  0.7622056E+02  0.7546771E-02  0.1504439E+00
          1   -1    0    0  502    0  0.00000000000E+00  0.00000000000E+00  0.46818352475E+03  0.46818352475E+03  0.00000000000E+00 0. -1.
          1   -1    0    0  501    0 -0.00000000000E+00 -0.00000000000E+00 -0.75853565184E+02  0.75853565184E+02  0.00000000000E+00 0. -1.
         25    1    1    2    0    0  0.11683598330E+02  0.79198298670E+02  0.42598754772E+02  0.15442969562E+03  0.12500000000E+03 0.  0.
          1    1    1    2  501    0 -0.30227643628E+02 -0.68243376304E+02  0.51691134438E+02  0.90790099836E+02  0.00000000000E+00 0. -1.
          1    1    1    2  502    0  0.18544045298E+02 -0.10954922366E+02  0.29804007035E+03  0.29881729447E+03  0.00000000000E+00 0. -1.
<mgrwt>
<rscale>  0 0.40517280E+02</rscale>
<asrwt>0</asrwt>
<pdfrwt beam="1">  1        1 0.72028233E-01 0.21538151E+02</pdfrwt>
<pdfrwt beam="2">  1        1 0.11669780E-01 0.76220564E+02</pdfrwt>
<totfact> 0.29964775E+03</totfact>
</mgrwt>
</event>
<event>
 5    1  0.4149151E-003  0.6154042E+02  0.7546771E-02  0.1414615E+00
          2   -1    0    0  501    0  0.00000000000E+00  0.00000000000E+00  0.32944700931E+03  0.32944700931E+03  0.00000000000E+00 0.  1.
          1   -1    0    0  502    0 -0.00000000000E+00 -0.00000000000E+00 -0.67215021056E+02  0.67215021056E+02  0.00000000000E+00 0. -1.
         25    1    1    2    0    0 -0.19045168466E+02  0.39422880764E+02  0.15307878197E+03  0.20242281359E+03  0.12500000000E+03 0.  0.
          2    1    1    2  501    0  0.46465853662E+02  0.21693734565E+02  0.11607350589E+03  0.12689662110E+03  0.00000000000E+00 0.  1.
          1    1    1    2  502    0 -0.27420685196E+02 -0.61116615329E+02 -0.69202996153E+01  0.67342595678E+02  0.00000000000E+00 0. -1.
<mgrwt>
<rscale>  0 0.56176736E+02</rscale>
<asrwt>0</asrwt>
<pdfrwt beam="1">  1        2 0.50684155E-01 0.51280539E+02</pdfrwt>
<pdfrwt beam="2">  1        1 0.10340773E-01 0.61540416E+02</pdfrwt>
<totfact> 0.74462245E+03</totfact>
</mgrwt>
</event>
<event>
 5    1  0.4149151E-003  0.1205041E+03  0.7546771E-02  0.1242895E+00
          2   -1    0    0  501    0  0.00000000000E+00  0.00000000000E+00  0.16354042392E+04  0.16354042392E+04  0.00000000000E+00 0. -1.
          1   -1    0    0  502    0 -0.00000000000E+00 -0.00000000000E+00 -0.75433271406E+03  0.75433271406E+03  0.00000000000E+00 0.  1.
         25    1    1    2    0    0 -0.11283002460E+03 -0.74159521626E+02  0.38353295944E+02  0.18795271855E+03  0.12500000000E+03 0.  0.
          2    1    1    2  501    0 -0.88678309432E+00  0.11973855784E+03  0.15143468114E+04  0.15190735248E+04  0.00000000000E+00 0. -1.
          1    1    1    2  502    0  0.11371680769E+03 -0.45579036214E+02 -0.67162858223E+03  0.68271070986E+03  0.00000000000E+00 0.  1.
<mgrwt>
<rscale>  0 0.12012236E+03</rscale>
<asrwt>0</asrwt>
<pdfrwt beam="1">  1        2 0.25160065E+00 0.11974184E+03</pdfrwt>
<pdfrwt beam="2">  1        1 0.11605119E+00 0.12050409E+03</pdfrwt>
<totfact> 0.44578128E+01</totfact>
</mgrwt>
</event>
<event>
 5    1  0.4149151E-003  0.6671232E+02  0.7546771E-02  0.1421501E+00
          2   -1    0    0  502    0  0.00000000000E+00  0.00000000000E+00  0.15314878404E+04  0.15314878404E+04  0.00000000000E+00 0. -1.
          2   -1    0    0  501    0 -0.00000000000E+00 -0.00000000000E+00 -0.18549341538E+04  0.18549341538E+04  0.00000000000E+00 0. -1.
         25    1    1    2    0    0 -0.40013018759E+01 -0.37279643807E+02  0.56031790800E+03  0.57531464459E+03  0.12500000000E+03 0.  0.
          2    1    1    2  501    0  0.47904540499E+02  0.46487176399E+02 -0.18463102703E+04  0.18475165809E+04  0.00000000000E+00 0. -1.
          2    1    1    2  502    0 -0.43903238623E+02 -0.92075325927E+01  0.96254604900E+03  0.96359076866E+03  0.00000000000E+00 0. -1.
<mgrwt>
<rscale>  0 0.54704712E+02</rscale>
<asrwt>0</asrwt>
<pdfrwt beam="1">  1        2 0.23561351E+00 0.44858366E+02</pdfrwt>
<pdfrwt beam="2">  1        2 0.28537448E+00 0.66712316E+02</pdfrwt>
<totfact> 0.24294904E+01</totfact>
</mgrwt>
</event>
<event>
 5    1  0.4149151E-003  0.2518373E+03  0.7546771E-02  0.1160875E+00
          1   -1    0    0  502    0 -0.00000000000E+00  0.00000000000E+00  0.40391068091E+03  0.40391068091E+03  0.00000000000E+00 0. -1.
          2   -1    0    0  501    0  0.00000000000E+00 -0.00000000000E+00 -0.28416939958E+04  0.28416939958E+04  0.00000000000E+00 0. -1.
         25    1    1    2    0    0  0.22046109424E+03 -0.12208626081E+03 -0.14048663360E+04  0.14327534928E+04  0.12500000000E+03 0.  0.
          2    1    1    2  501    0 -0.13585552907E+03  0.23284078479E+03 -0.13971208340E+04  0.14228907831E+04  0.00000000000E+00 0. -1.
          1    1    1    2  502    0 -0.84605565174E+02 -0.11075452398E+03  0.36420385502E+03  0.38996040088E+03  0.00000000000E+00 0. -1.
<mgrwt>
<rscale>  0 0.18734773E+03</rscale>
<asrwt>0</asrwt>
<pdfrwt beam="2">  1        2 0.43718367E+00 0.25183731E+03</pdfrwt>
<pdfrwt beam="1">  1        1 0.62140108E-01 0.13937240E+03</pdfrwt>
<totfact> 0.21599917E+01</totfact>
</mgrwt>
</event>
<event>
 5    1  0.4149151E-003  0.3418586E+02  0.7546771E-02  0.1559864E+00
          1   -1    0    0  502    0  0.00000000000E+00  0.00000000000E+00  0.55220630385E+02  0.55220630385E+02  0.00000000000E+00 0. -1.
         -2   -1    0    0    0  501 -0.00000000000E+00 -0.00000000000E+00 -0.21032910246E+03  0.21032910246E+03  0.00000000000E+00 0.  1.
         25    1    1    2    0    0 -0.65138848538E+00  0.30512911866E+01 -0.54992840076E+02  0.13659775673E+03  0.12500000000E+03 0.  0.
          1    1    1    2  502    0 -0.30487071041E+02  0.15466464540E+02 -0.16779912097E+02  0.38081996744E+02  0.00000000000E+00 0. -1.
         -2    1    1    2    0  501  0.31138459527E+02 -0.18517755727E+02 -0.83335719904E+02  0.90869979371E+02  0.00000000000E+00 0.  1.
<mgrwt>
<rscale>  0 0.33763405E+02</rscale>
<asrwt>0</asrwt>
<pdfrwt beam="1">  1        1 0.84954815E-02 0.34185860E+02</pdfrwt>
<pdfrwt beam="2">  1       -2 0.32358324E-01 0.33346171E+02</pdfrwt>
<totfact> 0.51471009E+03</totfact>
</mgrwt>
</event>
<event>
 5    1  0.4149151E-003  0.7748996E+02  0.7546771E-02  0.1504477E+00
         -1   -1    0    0    0  501 -0.00000000000E+00  0.00000000000E+00  0.22818265611E+02  0.22818265611E+02  0.00000000000E+00 0.  1.
          2   -1    0    0  502    0  0.00000000000E+00 -0.00000000000E+00 -0.75963390661E+03  0.75963390661E+03  0.00000000000E+00 0. -1.
         25    1    1    2    0    0 -0.73433284936E+02  0.17591322217E+02 -0.33526297492E+03  0.36568861659E+03  0.12500000000E+03 0.  0.
          2    1    1    2  502    0  0.68698566540E+02 -0.38235092103E+02 -0.37309685570E+03  0.38129080640E+03  0.00000000000E+00 0. -1.
         -1    1    1    2    0  501  0.47347183959E+01  0.20643769887E+02 -0.28455810388E+02  0.35472749235E+02  0.00000000000E+00 0.  1.
<mgrwt>
<rscale>  0 0.40511971E+02</rscale>
<asrwt>0</asrwt>
<pdfrwt beam="2">  1        2 0.11686678E+00 0.77489961E+02</pdfrwt>
<pdfrwt beam="1">  1       -1 0.35105018E-02 0.21179773E+02</pdfrwt>
<totfact> 0.98782589E+03</totfact>
</mgrwt>
</event>
<event>
 5    1  0.4149151E-003  0.8159348E+02  0.7546771E-02  0.1413862E+00
          2   -1    0    0  502    0  0.00000000000E+00  0.00000000000E+00  0.66222122386E+02  0.66222122386E+02  0.00000000000E+00 0.  1.
          2   -1    0    0  501    0 -0.00000000000E+00 -0.00000000000E+00 -0.99419437162E+03  0.99419437162E+03  0.00000000000E+00 0.  1.
         25    1    1    2    0    0  0.86595863745E+02 -0.78235064990E+02 -0.52338417091E+03  0.55061380238E+03  0.12500000000E+03 0.  0.
          2    1    1    2  501    0 -0.34476671794E+02  0.18023850711E+02 -0.42565395495E+03  0.42742811028E+03  0.00000000000E+00 0.  1.
          2    1    1    2  502    0 -0.52119191951E+02  0.60211214279E+02  0.21065876623E+02  0.82374581349E+02  0.00000000000E+00 0.  1.
<mgrwt>
<rscale>  0 0.56340842E+02</rscale>
<asrwt>0</asrwt>
<pdfrwt beam="1">  1        2 0.10188019E-01 0.81593477E+02</pdfrwt>
<pdfrwt beam="2">  1        2 0.15295297E+00 0.38903729E+02</pdfrwt>
<totfact> 0.26332848E+03</totfact>
</mgrwt>
</event>
<event>
 5    1  0.4149151E-003  0.2587292E+03  0.7546771E-02  0.1238166E+00
          3   -1    0    0  502    0 -0.00000000000E+00  0.00000000000E+00  0.20274315111E+03  0.20274315111E+03  0.00000000000E+00 0. -1.
          2   -1    0    0  501    0  0.00000000000E+00 -0.00000000000E+00 -0.19772484733E+04  0.19772484733E+04  0.00000000000E+00 0. -1.
         25    1    1    2    0    0 -0.19303912541E+03  0.24016450463E+03 -0.41052412354E+03  0.52829740604E+03  0.12500000000E+03 0.  0.
          2    1    1    2  501    0  0.15181859207E+03 -0.19863769741E+03 -0.14910162392E+04  0.15118317517E+04  0.00000000000E+00 0. -1.
          3    1    1    2  502    0  0.41220533342E+02 -0.41526807211E+02  0.12703504052E+03  0.13986246675E+03  0.00000000000E+00 0. -1.
<mgrwt>
<rscale>  0 0.12303926E+03</rscale>
<asrwt>0</asrwt>
<pdfrwt beam="2">  1        2 0.30419208E+00 0.25872919E+03</pdfrwt>
<pdfrwt beam="1">  1        3 0.31191254E-01 0.58511606E+02</pdfrwt>
<totfact> 0.43543736E+01</totfact>
</mgrwt>
</event>
<event>
 5    1  0.4149151E-003  0.1737179E+03  0.7546771E-02  0.1238912E+00
         -3   -1    0    0    0  501 -0.00000000000E+00  0.00000000000E+00  0.10317780506E+03  0.10317780506E+03  0.00000000000E+00 0.  1.
          1   -1    0    0  502    0  0.00000000000E+00 -0.00000000000E+00 -0.13359315369E+04  0.13359315369E+04  0.00000000000E+00 0. -1.
         25    1    1    2    0    0  0.14048068103E+03  0.10752560092E+03 -0.63073196753E+03  0.66689158898E+03  0.12500000000E+03 0.  0.
          1    1    1    2  502    0 -0.68354549220E+02  0.52984686038E+02 -0.58949088573E+03  0.59580133074E+03  0.00000000000E+00 0. -1.
         -3    1    1    2    0  501 -0.72126131807E+02 -0.16051028696E+03 -0.12530878554E+02  0.17641642221E+03  0.00000000000E+00 0.  1.
<mgrwt>
<rscale>  0 0.12257268E+03</rscale>
<asrwt>0</asrwt>
<pdfrwt beam="2">  1        1 0.20552793E+00 0.86485382E+02</pdfrwt>
<pdfrwt beam="1">  1       -3 0.15873508E-01 0.17371795E+03</pdfrwt>
<totfact> 0.18361970E+02</totfact>
</mgrwt>
</event>
<event>
 5    1  0.4149151E-003  0.4419365E+02  0.7546771E-02  0.1597724E+00
         -2   -1    0    0    0  501 -0.00000000000E+00  0.00000000000E+00  0.52575145641E+02  0.52575145641E+02  0.00000000000E+00 0.  1.
          1   -1    0    0  502    0  0.00000000000E+00 -0.00000000000E+00 -0.52467456313E+03  0.52467456313E+03  0.00000000000E+00 0. -1.
         25    1    1    2    0    0  0.17701912493E+02 -0.36117506228E+02 -0.45934302410E+03  0.47774349368E+03  0.12500000000E+03 0.  0.
          1    1    1    2  502    0 -0.40944847470E+01  0.51329159135E+02 -0.40185336454E+02  0.65316985913E+02  0.00000000000E+00 0. -1.
         -2    1    1    2    0  501 -0.13607427746E+02 -0.15211652908E+02  0.27428943067E+02  0.34189229179E+02  0.00000000000E+00 0.  1.
<mgrwt>
<rscale>  0 0.30032979E+02</rscale>
<asrwt>0</asrwt>
<pdfrwt beam="2">  1        1 0.80719161E-01 0.44193650E+02</pdfrwt>
<pdfrwt beam="1">  1       -2 0.80884842E-02 0.20409715E+02</pdfrwt>
<totfact> 0.29000154E+03</totfact>
</mgrwt>
</event>
<event>
 5    1  0.4149151E-003  0.8642835E+02  0.7546771E-02  0.1334009E+00
         -3   -1    0    0    0  501 -0.00000000000E+00  0.00000000000E+00  0.65334246710E+03  0.65334246710E+03  0.00000000000E+00 0.  1.
          1   -1    0    0  502    0  0.00000000000E+00 -0.00000000000E+00 -0.71895617199E+03  0.71895617199E+03  0.00000000000E+00 0. -1.
         25    1    1    2    0    0 -0.12510571786E+03  0.46839466184E+02 -0.13704898953E+03  0.22858871749E+03  0.12500000000E+03 0.  0.
          1    1    1    2  502    0  0.68607938463E+02  0.17869870089E+02 -0.53073191165E+03  0.53544630312E+03  0.00000000000E+00 0. -1.
         -3    1    1    2    0  501  0.56497779393E+02 -0.64709336274E+02  0.60216719630E+03  0.60826361849E+03  0.00000000000E+00 0.  1.
<mgrwt>
<rscale>  0 0.78278407E+02</rscale>
<asrwt>0</asrwt>
<pdfrwt beam="2">  1        1 0.11060864E+00 0.70896978E+02</pdfrwt>
<pdfrwt beam="1">  1       -3 0.10051423E+00 0.86428352E+02</pdfrwt>
<totfact> 0.13808098E+01</totfact>
</mgrwt>
</event>
<event>
 5    1  0.4149151E-003  0.1395062E+03  0.7546771E-02  0.1406510E+00
          2   -1    0    0  502    0  0.00000000000E+00  0.00000000000E+00  0.17346568954E+04  0.17346568954E+04  0.00000000000E+00 0. -1.
          2   -1    0    0  501    0 -0.00000000000E+00 -0.00000000000E+00 -0.75872037583E+03  0.75872037583E+03  0.00000000000E+00 0. -1.
         25    1    1    2    0    0  0.52901211992E+02 -0.11268778644E+03  0.13921964850E+04  0.14033293015E+04  0.12500000000E+03 0.  0.
          2    1    1    2  501    0 -0.76672249633E+02  0.11663776475E+03 -0.74624372101E+03  0.75918554595E+03  0.00000000000E+00 0. -1.
          2    1    1    2  502    0  0.23771037641E+02 -0.39499783106E+01  0.32998375551E+03  0.33086242377E+03  0.00000000000E+00 0. -1.
<mgrwt>
<rscale>  0 0.57979976E+02</rscale>
<asrwt>0</asrwt>
<pdfrwt beam="1">  1        2 0.26687029E+00 0.24096982E+02</pdfrwt>
<pdfrwt beam="2">  1        2 0.11672621E+00 0.13950617E+03</pdfrwt>
<totfact> 0.78740638E+01</totfact>
</mgrwt>
</event>
<event>
 5    1  0.4149151E-003  0.5771368E+02  0.7546771E-02  0.1483202E+00
          2   -1    0    0  502    0  0.00000000000E+00  0.00000000000E+00  0.13912509869E+03  0.13912509869E+03  0.00000000000E+00 0. -1.
         -1   -1    0    0    0  501 -0.00000000000E+00 -0.00000000000E+00 -0.11578857190E+03  0.11578857190E+03  0.00000000000E+00 0.  1.
         25    1    1    2    0    0  0.29979663073E+02 -0.61786380028E+02 -0.14327028816E+02  0.14334085499E+03  0.12500000000E+03 0.  0.
          2    1    1    2  502    0 -0.32377800166E+02  0.61395407645E+01  0.44589007159E+02  0.55445427799E+02  0.00000000000E+00 0. -1.
         -1    1    1    2    0  501  0.23981370929E+01  0.55646839263E+02 -0.69254515539E+01  0.56127387796E+02  0.00000000000E+00 0.  1.
<mgrwt>
<rscale>  0 0.43611240E+02</rscale>
<asrwt>0</asrwt>
<pdfrwt beam="1">  1        2 0.21403861E-01 0.32954755E+02</pdfrwt>
<pdfrwt beam="2">  1       -1 0.17813626E-01 0.57713681E+02</pdfrwt>
<totfact> 0.61743545E+03</totfact>
</mgrwt>
</event>
<event>
 5    1  0.4149151E-003  0.1470828E+03  0.7546771E-02  0.1266358E+00
         -2   -1    0    0    0  501 -0.00000000000E+00  0.00000000000E+00  0.48432081153E+03  0.48432081153E+03  0.00000000000E+00 0.  1.
          2   -1    0    0  502    0  0.00000000000E+00 -0.00000000000E+00 -0.52002802371E+03  0.52002802371E+03  0.00000000000E+00 0. -1.
         25    1    1    2    0    0  0.96493884442E+02  0.13649260511E+03  0.10650911340E+03  0.23432987907E+03  0.12500000000E+03 0.  0.
          2    1    1    2  502    0  0.33260407098E+02 -0.70268657978E+02 -0.43558698124E+03  0.44247028963E+03  0.00000000000E+00 0. -1.
         -2    1    1    2    0  501 -0.12975429154E+03 -0.66223947137E+02  0.29337065567E+03  0.32754866654E+03  0.00000000000E+00 0.  1.
<mgrwt>
<rscale>  0 0.10693280E+03</rscale>
<asrwt>0</asrwt>
<pdfrwt beam="2">  1        2 0.80004311E-01 0.77742774E+02</pdfrwt>
<pdfrwt beam="1">  1       -2 0.74510894E-01 0.14708277E+03</pdfrwt>
<totfact> 0.10352231E+02</totfact>
</mgrwt>
</event>
<event>
 5    1  0.4149151E-003  0.7545638E+02  0.7546771E-02  0.1408971E+00
          1   -1    0    0  502    0 -0.00000000000E+00  0.00000000000E+00  0.90794134476E+03  0.90794134476E+03  0.00000000000E+00 0.  1.
          2   -1    0    0  501    0  0.00000000000E+00 -0.00000000000E+00 -0.12623178525E+04  0.12623178525E+04  0.00000000000E+00 0. -1.
         25    1    1    2    0    0 -0.71707775359E+02 -0.54493226510E+02  0.50391067584E+02  0.16209804587E+03  0.12500000000E+03 0.  0.
          2    1    1    2  501    0  0.30479124470E+02  0.68984181480E+02 -0.12046887491E+04  0.12070471310E+04  0.00000000000E+00 0. -1.
          1    1    1    2  502    0  0.41228650889E+02 -0.14490954970E+02  0.79992117376E+03  0.80111402038E+03  0.00000000000E+00 0.  1.
<mgrwt>
<rscale>  0 0.57424122E+02</rscale>
<asrwt>0</asrwt>
<pdfrwt beam="2">  1        2 0.19420275E+00 0.75456384E+02</pdfrwt>
<pdfrwt beam="1">  1        1 0.13968328E+00 0.43701138E+02</pdfrwt>
<totfact> 0.57667108E+01</totfact>
</mgrwt>
</event>
<event>
 5    1  0.4149151E-003  0.4736338E+02  0.7546771E-02  0.1471449E+00
          1   -1    0    0  502    0  0.00000000000E+00  0.00000000000E+00  0.59637855493E+03  0.59637855493E+03  0.00000000000E+00 0. -1.
          1   -1    0    0  501    0 -0.00000000000E+00 -0.00000000000E+00 -0.13784290463E+04  0.13784290463E+04  0.00000000000E+00 0. -1.
         25    1    1    2    0    0 -0.71817572615E+02 -0.55755373865E+02 -0.53763073409E+03  0.55940882340E+03  0.12500000000E+03 0.  0.
          1    1    1    2  501    0  0.34950752310E+02  0.26142094710E+02 -0.82837901788E+03  0.82952803537E+03  0.00000000000E+00 0. -1.
          1    1    1    2  502    0  0.36866820305E+02  0.29613279155E+02  0.58395926064E+03  0.58587074242E+03  0.00000000000E+00 0. -1.
<mgrwt>
<rscale>  0 0.45466661E+02</rscale>
<asrwt>0</asrwt>
<pdfrwt beam="1">  1        1 0.91750547E-01 0.47363383E+02</pdfrwt>
<pdfrwt beam="2">  1        1 0.21206601E+00 0.43645896E+02</pdfrwt>
<totfact> 0.46007383E+01</totfact>
</mgrwt>
</event>
<event>
 5    1  0.4149151E-003  0.9510191E+02  0.7546771E-02  0.1335837E+00
          1   -1    0    0  502    0  0.00000000000E+00  0.00000000000E+00  0.48083567590E+03  0.48083567590E+03  0.00000000000E+00 0. -1.
         -1   -1    0    0    0  501 -0.00000000000E+00 -0.00000000000E+00 -0.19990009662E+04  0.19990009662E+04  0.00000000000E+00 0.  1.
         25    1    1    2    0    0 -0.75421324934E+02 -0.77349234120E+02  0.11434093408E+03  0.20092319299E+03  0.12500000000E+03 0.  0.
          1    1    1    2  502    0  0.14435725938E+02  0.94719572044E+02  0.31557544787E+03  0.32980001639E+03  0.00000000000E+00 0. -1.
         -1    1    1    2    0  501  0.60985598996E+02 -0.17370337924E+02 -0.19480816723E+04  0.19491134328E+04  0.00000000000E+00 0.  1.
<mgrwt>
<rscale>  0 0.77656422E+02</rscale>
<asrwt>0</asrwt>
<pdfrwt beam="1">  1        1 0.73974719E-01 0.95101909E+02</pdfrwt>
<pdfrwt beam="2">  1       -1 0.30753861E+00 0.63411134E+02</pdfrwt>
<totfact> 0.20583336E+00</totfact>
</mgrwt>
</event>
<event>
 5    1  0.4149151E-003  0.6511833E+02  0.7546771E-02  0.1400254E+00
          2   -1    0    0  502    0  0.00000000000E+00  0.00000000000E+00  0.60286413768E+03  0.60286413768E+03  0.00000000000E+00 0. -1.
         -1   -1    0    0    0  501 -0.00000000000E+00 -0.00000000000E+00 -0.37482049166E+02  0.37482049166E+02  0.00000000000E+00 0.  1.
         25    1    1    2    0    0 -0.62428671658E+02 -0.54964074002E+02  0.16355442015E+03  0.22202125310E+03  0.12500000000E+03 0.  0.
          2    1    1    2  502    0  0.54174880036E+02 -0.24985859292E+01  0.24912692721E+03  0.25496153910E+03  0.00000000000E+00 0. -1.
         -1    1    1    2    0  501  0.82537916227E+01  0.57462659931E+02  0.15270074116E+03  0.16336339465E+03  0.00000000000E+00 0.  1.
<mgrwt>
<rscale>  0 0.59426657E+02</rscale>
<asrwt>0</asrwt>
<pdfrwt beam="1">  1        2 0.92748322E-01 0.54232468E+02</pdfrwt>
<pdfrwt beam="2">  1       -1 0.57664695E-02 0.65118327E+02</pdfrwt>
<totfact> 0.74337313E+03</totfact>
</mgrwt>
</event>
<event>
 5    1  0.4149151E-003  0.6148274E+02  0.7546771E-02  0.1526756E+00
          2   -1    0    0  502    0  0.00000000000E+00  0.00000000000E+00  0.34144277949E+04  0.34144277949E+04  0.00000000000E+00 0. -1.
         -1   -1    0    0    0  501 -0.00000000000E+00 -0.00000000000E+00 -0.42218241224E+01  0.42218241224E+01  0.00000000000E+00 0.  1.
         25    1    1    2    0    0  0.46925620890E+02 -0.33662282832E+02  0.20155916872E+04  0.20202895864E+04  0.12500000000E+03 0.  0.
          2    1    1    2  502    0  0.14537311066E+02  0.17796048774E+02  0.80699399775E+03  0.80732109174E+03  0.00000000000E+00 0. -1.
         -1    1    1    2    0  501 -0.61462931956E+02  0.15866234058E+02  0.58762028576E+03  0.59103894087E+03  0.00000000000E+00 0.  1.
<mgrwt>
<rscale>  0 0.37587359E+02</rscale>
<asrwt>0</asrwt>
<pdfrwt beam="1">  1        2 0.52529438E+00 0.22978964E+02</pdfrwt>
<pdfrwt beam="2">  1       -1 0.64951413E-03 0.61482737E+02</pdfrwt>
<totfact> 0.57895989E+03</totfact>
</mgrwt>
</event>
<event>
 5    1  0.4149151E-003  0.9192232E+02  0.7546771E-02  0.1457348E+00
          1   -1    0    0  501    0  0.00000000000E+00  0.00000000000E+00  0.21290116541E+03  0.21290116541E+03  0.00000000000E+00 0. -1.
          3   -1    0    0  502    0 -0.00000000000E+00 -0.00000000000E+00 -0.12299424430E+03  0.12299424430E+03  0.00000000000E+00 0. -1.
         25    1    1    2    0    0  0.48742101499E+02  0.60780506256E+02  0.67899473535E+02  0.16218939825E+03  0.12500000000E+03 0.  0.
          1    1    1    2  501    0 -0.44682252057E+01  0.24494416142E+02  0.64130917411E+02  0.68794738364E+02  0.00000000000E+00 0. -1.
          3    1    1    2  502    0 -0.44273876293E+02 -0.85274922398E+02 -0.42123469836E+02  0.10491127310E+03  0.00000000000E+00 0. -1.
<mgrwt>
<rscale>  0 0.47840769E+02</rscale>
<asrwt>0</asrwt>
<pdfrwt beam="1">  1        1 0.32754025E-01 0.24898624E+02</pdfrwt>
<pdfrwt beam="2">  1        3 0.18922191E-01 0.91922319E+02</pdfrwt>
<totfact> 0.16246661E+03</totfact>
</mgrwt>
</event>
<event>
 5    1  0.4149151E-003  0.1055760E+03  0.7546771E-02  0.1336865E+00
          1   -1    0    0  502    0 -0.00000000000E+00  0.00000000000E+00  0.93971841289E+03  0.93971841289E+03  0.00000000000E+00 0. -1.
          2   -1    0    0  501    0  0.00000000000E+00 -0.00000000000E+00 -0.91221765964E+03  0.91221765964E+03  0.00000000000E+00 0.  1.
         25    1    1    2    0    0  0.92823079299E+01 -0.15828239695E+03  0.11283067541E+03  0.23129037969E+03  0.12500000000E+03 0.  0.
          2    1    1    2  501    0 -0.19968090502E+02  0.10268933761E+03 -0.84872829397E+03  0.85515118060E+03  0.00000000000E+00 0.  1.
          1    1    1    2  502    0  0.10685782572E+02  0.55593059343E+02  0.76339837181E+03  0.76549451225E+03  0.00000000000E+00 0. -1.
<mgrwt>
<rscale>  0 0.77309323E+02</rscale>
<asrwt>0</asrwt>
<pdfrwt beam="2">  1        2 0.14034118E+00 0.10557596E+03</pdfrwt>
<pdfrwt beam="1">  1        1 0.14457206E+00 0.56610725E+02</pdfrwt>
<totfact> 0.83405526E+01</totfact>
</mgrwt>
</event>
<event>
 5    1  0.4149151E-003  0.9073633E+02  0.7546771E-02  0.1478199E+00
          1   -1    0    0  502    0  0.00000000000E+00  0.00000000000E+00  0.34287114849E+02  0.34287114849E+02  0.00000000000E+00 0. -1.
         -2   -1    0    0    0  501 -0.00000000000E+00 -0.00000000000E+00 -0.66565312823E+03  0.66565312823E+03  0.00000000000E+00 0.  1.
         25    1    1    2    0    0  0.39069662326E+02 -0.86752324392E+02 -0.22171685398E+03  0.27172737742E+03  0.12500000000E+03 0.  0.
          1    1    1    2  502    0 -0.21640569729E+02 -0.17895943916E+01 -0.24971466102E+02  0.33092159579E+02  0.00000000000E+00 0. -1.
         -2    1    1    2    0  501 -0.17429092596E+02  0.88541918784E+02 -0.38467769330E+03  0.39512070608E+03  0.00000000000E+00 0.  1.
<mgrwt>
<rscale>  0 0.44387932E+02</rscale>
<asrwt>0</asrwt>
<pdfrwt beam="1">  1        1 0.52749410E-02 0.21714440E+02</pdfrwt>
<pdfrwt beam="2">  1       -2 0.10240817E+00 0.90736326E+02</pdfrwt>
<totfact> 0.88931145E+02</totfact>
</mgrwt>
</event>
<event>
 5    1  0.4149151E-003  0.1256655E+03  0.7546771E-02  0.1346228E+00
          1   -1    0    0  501    0  0.00000000000E+00  0.00000000000E+00  0.63967168715E+03  0.63967168715E+03  0.00000000000E+00 0. -1.
          1   -1    0    0  502    0 -0.00000000000E+00 -0.00000000000E+00 -0.10403821327E+04  0.10403821327E+04  0.00000000000E+00 0. -1.
         25    1    1    2    0    0 -0.46618091746E+02  0.11517501585E+03  0.83040321252E+02  0.19483127497E+03  0.12500000000E+03 0.  0.
          1    1    1    2  501    0  0.42543715417E+02  0.10680848674E+02  0.49573697931E+03  0.49767378965E+03  0.00000000000E+00 0. -1.
          1    1    1    2  502    0  0.40743763298E+01 -0.12585586452E+03 -0.97948774609E+03  0.98754875521E+03  0.00000000000E+00 0. -1.
<mgrwt>
<rscale>  0 0.74244101E+02</rscale>
<asrwt>0</asrwt>
<pdfrwt beam="1">  1        1 0.98411030E-01 0.43863974E+02</pdfrwt>
<pdfrwt beam="2">  1        1 0.16005879E+00 0.12566546E+03</pdfrwt>
<totfact> 0.64995060E+01</totfact>
</mgrwt>
</event>
<event>
 5    1  0.4149151E-003  0.4229188E+02  0.7546771E-02  0.1502516E+00
         -2   -1    0    0    0  501 -0.00000000000E+00  0.00000000000E+00  0.34570854982E+02  0.34570854982E+02  0.00000000000E+00 0.  1.
          1   -1    0    0  502    0  0.00000000000E+00 -0.00000000000E+00 -0.34859843044E+03  0.34859843044E+03  0.00000000000E+00 0. -1.
         25    1    1    2    0    0  0.23997788985E+02  0.25585183317E+02 -0.17825200234E+03  0.22052045669E+03  0.12500000000E+03 0.  0.
          1    1    1    2  502    0  0.91485508322E+01 -0.46756926720E+02 -0.93296863277E+02  0.10475786785E+03  0.00000000000E+00 0. -1.
         -2    1    1    2    0  501 -0.33146339818E+02  0.21171743403E+02 -0.42478709839E+02  0.57890960880E+02  0.00000000000E+00 0.  1.
<mgrwt>
<rscale>  0 0.40784547E+02</rscale>
<asrwt>0</asrwt>
<pdfrwt beam="2">  1        1 0.53630528E-01 0.42291880E+02</pdfrwt>
<pdfrwt beam="1">  1       -2 0.53185930E-02 0.39330936E+02</pdfrwt>
<totfact> 0.95085253E+03</totfact>
</mgrwt>
</event>
<event>
 5    1  0.4149151E-003  0.5493509E+02  0.7546771E-02  0.1428841E+00
         -1   -1    0    0    0  501 -0.00000000000E+00  0.00000000000E+00  0.23822932093E+03  0.23822932093E+03  0.00000000000E+00 0.  1.
          2   -1    0    0  502    0  0.00000000000E+00 -0.00000000000E+00 -0.69405514965E+02  0.69405514965E+02  0.00000000000E+00 0. -1.
         25    1    1    2    0    0  0.54248990832E+02  0.43149787636E+02  0.13086500959E+03  0.19379243513E+03  0.12500000000E+03 0.  0.
          2    1    1    2  502    0 -0.50565572915E+02  0.98014186932E+01  0.31490689509E+02  0.60370592994E+02  0.00000000000E+00 0. -1.
         -1    1    1    2    0  501 -0.36834179168E+01 -0.52951206329E+02  0.64681068597E+01  0.53471807765E+02  0.00000000000E+00 0.  1.
<mgrwt>
<rscale>  0 0.53193304E+02</rscale>
<asrwt>0</asrwt>
<pdfrwt beam="2">  1        2 0.10677772E-01 0.51506747E+02</pdfrwt>
<pdfrwt beam="1">  1       -1 0.36650664E-01 0.54935087E+02</pdfrwt>
<totfact> 0.43300477E+03</totfact>
</mgrwt>
</event>
<event>
 5    1  0.4149151E-003  0.8670315E+02  0.7546771E-02  0.1360423E+00
         -1   -1    0    0    0  501  0.00000000000E+00  0.00000000000E+00  0.19813178151E+02  0.19813178151E+02  0.00000000000E+00 0.  1.
         -3   -1    0    0    0  502 -0.00000000000E+00 -0.00000000000E+00 -0.12087898952E+04  0.12087898952E+04  0.00000000000E+00 0.  1.
         25    1    1    2    0    0  0.57353081496E+02 -0.97655259609E+02 -0.57157169537E+03  0.59594054119E+03  0.12500000000E+03 0.  0.
         -1    1    1    2    0  501 -0.53777179721E+02  0.16859878475E+02 -0.21931759299E+03  0.22644303291E+03  0.00000000000E+00 0.  1.
         -3    1    1    2    0  502 -0.35759017746E+01  0.80795381135E+02 -0.39808742869E+03  0.40621949925E+03  0.00000000000E+00 0.  1.
<mgrwt>
<rscale>  0 0.69902994E+02</rscale>
<asrwt>0</asrwt>
<pdfrwt beam="1">  1       -1 0.30481806E-02 0.56358145E+02</pdfrwt>
<pdfrwt beam="2">  1       -3 0.18596772E+00 0.86703147E+02</pdfrwt>
<totfact> 0.27931247E+02</totfact>
</mgrwt>
</event>
<event>
 5    1  0.4149151E-003  0.4048426E+02  0.7546771E-02  0.1537231E+00
          2   -1    0    0  502    0  0.00000000000E+00  0.00000000000E+00  0.65334294460E+03  0.65334294460E+03  0.00000000000E+00 0. -1.
         -1   -1    0    0    0  501 -0.00000000000E+00 -0.00000000000E+00 -0.17263299262E+02  0.17263299262E+02  0.00000000000E+00 0.  1.
         25    1    1    2    0    0 -0.18965107025E+02  0.27242275958E+02  0.43632677142E+03  0.45509105500E+03  0.12500000000E+03 0.  0.
          2    1    1    2  502    0  0.28763954598E+02  0.15286297628E+02  0.12281304912E+03  0.12705936019E+03  0.00000000000E+00 0. -1.
         -1    1    1    2    0  501 -0.97988475728E+01 -0.42528573586E+02  0.76939824795E+02  0.88455828663E+02  0.00000000000E+00 0.  1.
<mgrwt>
<rscale>  0 0.36314127E+02</rscale>
<asrwt>0</asrwt>
<pdfrwt beam="1">  1        2 0.10051428E+00 0.32573547E+02</pdfrwt>
<pdfrwt beam="2">  1       -1 0.26558927E-02 0.40484256E+02</pdfrwt>
<totfact> 0.19639855E+04</totfact>
</mgrwt>
</event>
<event>
 5    1  0.4149151E-003  0.4132749E+02  0.7546771E-02  0.1558612E+00
         -1   -1    0    0    0  501 -0.00000000000E+00  0.00000000000E+00  0.98978614050E+01  0.98978614050E+01  0.00000000000E+00 0.  1.
          2   -1    0    0  502    0  0.00000000000E+00 -0.00000000000E+00 -0.11347175547E+04  0.11347175547E+04  0.00000000000E+00 0. -1.
         25    1    1    2    0    0 -0.67259949690E+01 -0.18104507940E+02 -0.58745389966E+03  0.60091604775E+03  0.12500000000E+03 0.  0.
          2    1    1    2  502    0  0.28962856482E+02  0.34795089067E+02 -0.44343372628E+03  0.44573872939E+03  0.00000000000E+00 0. -1.
         -1    1    1    2    0  501 -0.22236861513E+02 -0.16690581127E+02 -0.93932067341E+02  0.97960638949E+02  0.00000000000E+00 0.  1.
<mgrwt>
<rscale>  0 0.33897829E+02</rscale>
<asrwt>0</asrwt>
<pdfrwt beam="2">  1        2 0.17457196E+00 0.41327486E+02</pdfrwt>
<pdfrwt beam="1">  1       -1 0.15227476E-02 0.27803840E+02</pdfrwt>
<totfact> 0.20118917E+04</totfact>
</mgrwt>
</event>
<event>
 5    1  0.4149151E-003  0.7752614E+02  0.7546771E-02  0.1435161E+00
          2   -1    0    0  502    0  0.00000000000E+00  0.00000000000E+00  0.16210670364E+04  0.16210670364E+04  0.00000000000E+00 0. -1.
         -2   -1    0    0    0  501 -0.00000000000E+00 -0.00000000000E+00 -0.61037675203E+02  0.61037675203E+02  0.00000000000E+00 0.  1.
         25    1    1    2    0    0  0.43723948266E+02  0.19481982000E+02  0.19063339023E+03  0.23293222350E+03  0.12500000000E+03 0.  0.
          2    1    1    2  502    0 -0.78005172401E+02 -0.13523551590E+02  0.14003592481E+04  0.14025953504E+04  0.00000000000E+00 0. -1.
         -2    1    1    2    0  501  0.34281224135E+02 -0.59584304102E+01 -0.30963277131E+02  0.46577137652E+02  0.00000000000E+00 0.  1.
<mgrwt>
<rscale>  0 0.51937817E+02</rscale>
<asrwt>0</asrwt>
<pdfrwt beam="1">  1        2 0.24939490E+00 0.77526141E+02</pdfrwt>
<pdfrwt beam="2">  1       -2 0.93904128E-02 0.34795190E+02</pdfrwt>
<totfact> 0.83076204E+02</totfact>
</mgrwt>
</event>
<event>
 5    1  0.4149151E-003  0.1178214E+03  0.7546771E-02  0.1401403E+00
          2   -1    0    0  501    0  0.00000000000E+00  0.00000000000E+00  0.32926347413E+04  0.32926347413E+04  0.00000000000E+00 0. -1.
          3   -1    0    0  502    0 -0.00000000000E+00 -0.00000000000E+00 -0.87696169059E+02  0.87696169059E+02  0.00000000000E+00 0. -1.
         25    1    1    2    0    0 -0.94748114370E+02 -0.15294802231E+02  0.80811456373E+03  0.82333789191E+03  0.12500000000E+03 0.  0.
          2    1    1    2  501    0  0.12222598899E+03  0.40167314939E+01  0.24725903027E+04  0.24756126781E+04  0.00000000000E+00 0. -1.
          3    1    1    2  502    0 -0.27477874620E+02  0.11278070738E+02 -0.75766294192E+02  0.81380340431E+02  0.00000000000E+00 0. -1.
<mgrwt>
<rscale>  0 0.59157160E+02</rscale>
<asrwt>0</asrwt>
<pdfrwt beam="1">  1        2 0.50655910E+00 0.11782138E+03</pdfrwt>
<pdfrwt beam="2">  1        3 0.13491721E-01 0.29702331E+02</pdfrwt>
<totfact> 0.34746289E+01</totfact>
</mgrwt>
</event>
<event>
 5    1  0.4149151E-003  0.1206973E+03  0.7546771E-02  0.1331732E+00
          2   -1    0    0  501    0  0.00000000000E+00  0.00000000000E+00  0.46424910255E+03  0.46424910255E+03  0.00000000000E+00 0. -1.
          1   -1    0    0  502    0 -0.00000000000E+00 -0.00000000000E+00 -0.53993551092E+03  0.53993551092E+03  0.00000000000E+00 0. -1.
         25    1    1    2    0    0 -0.11467665076E+03 -0.13233097432E+02  0.22342974900E+02  0.17161019091E+03  0.12500000000E+03 0.  0.
          2    1    1    2  501    0 -0.10373182391E+01  0.51780044815E+02  0.35738131620E+03  0.36111446141E+03  0.00000000000E+00 0. -1.
          1    1    1    2  502    0  0.11571396900E+03 -0.38546947384E+02 -0.45541069947E+03  0.47145996115E+03  0.00000000000E+00 0. -1.
<mgrwt>
<rscale>  0 0.79063036E+02</rscale>
<asrwt>0</asrwt>
<pdfrwt beam="1">  1        2 0.71422939E-01 0.51790434E+02</pdfrwt>
<pdfrwt beam="2">  1        1 0.83067001E-01 0.12069726E+03</pdfrwt>
<totfact> 0.39162733E+02</totfact>
</mgrwt>
</event>
<event>
 5    1  0.4149151E-003  0.8943026E+02  0.7546771E-02  0.1332503E+00
          2   -1    0    0  501    0  0.00000000000E+00  0.00000000000E+00  0.78053160638E+03  0.78053160638E+03  0.00000000000E+00 0.  1.
          2   -1    0    0  502    0 -0.00000000000E+00 -0.00000000000E+00 -0.80896714532E+03  0.80896714532E+03  0.00000000000E+00 0. -1.
         25    1    1    2    0    0 -0.11230643061E+02  0.12147055698E+03 -0.99218774183E+02  0.20087455963E+03  0.12500000000E+03 0.  0.
          2    1    1    2  501    0 -0.43023073266E+02 -0.78151285498E+02  0.72513380051E+03  0.73060087387E+03  0.00000000000E+00 0.  1.
          2    1    1    2  502    0  0.54253716328E+02 -0.43319271487E+02 -0.65435056527E+03  0.65802331819E+03  0.00000000000E+00 0. -1.
<mgrwt>
<rscale>  0 0.78796071E+02</rscale>
<asrwt>0</asrwt>
<pdfrwt beam="1">  1        2 0.12008179E+00 0.89430256E+02</pdfrwt>
<pdfrwt beam="2">  1        2 0.12445648E+00 0.69426400E+02</pdfrwt>
<totfact> 0.21874610E+02</totfact>
</mgrwt>
</event>
<event>
 5    1  0.4149151E-003  0.4795611E+02  0.7546771E-02  0.1466877E+00
          2   -1    0    0  501    0  0.00000000000E+00  0.00000000000E+00  0.19290499112E+03  0.19290499112E+03  0.00000000000E+00 0. -1.
          2   -1    0    0  502    0 -0.00000000000E+00 -0.00000000000E+00 -0.75248952013E+03  0.75248952013E+03  0.00000000000E+00 0. -1.
         25    1    1    2    0    0  0.99671023045E+01  0.52899716875E+02 -0.12678068510E+03  0.18600017551E+03  0.12500000000E+03 0.  0.
          2    1    1    2  501    0  0.31484910756E+02 -0.36595850906E+02  0.15887170157E+03  0.16604449244E+03  0.00000000000E+00 0. -1.
          2    1    1    2  502    0 -0.41452013060E+02 -0.16303865969E+02 -0.59167554547E+03  0.59334984330E+03  0.00000000000E+00 0. -1.
<mgrwt>
<rscale>  0 0.46218097E+02</rscale>
<asrwt>0</asrwt>
<pdfrwt beam="1">  1        2 0.29677691E-01 0.47956108E+02</pdfrwt>
<pdfrwt beam="2">  1        2 0.11576762E+00 0.44543074E+02</pdfrwt>
<totfact> 0.10771910E+03</totfact>
</mgrwt>
</event>
<event>
 5    1  0.4149151E-003  0.1098108E+03  0.7546771E-02  0.1365033E+00
          2   -1    0    0  501    0  0.00000000000E+00  0.00000000000E+00  0.18463057044E+04  0.18463057044E+04  0.00000000000E+00 0. -1.
          2   -1    0    0  502    0 -0.00000000000E+00 -0.00000000000E+00 -0.95405171349E+02  0.95405171349E+02  0.00000000000E+00 0. -1.
         25    1    1    2    0    0 -0.11465106502E+03  0.92979241163E+01  0.38021423179E+03  0.41643628583E+03  0.12500000000E+03 0.  0.
          2    1    1    2  501    0  0.16112784259E+02  0.39666817113E+02  0.14083296561E+04  0.14089803045E+04  0.00000000000E+00 0. -1.
          2    1    1    2  502    0  0.98538280758E+02 -0.48964741229E+02 -0.37643354841E+02  0.11629428542E+03  0.00000000000E+00 0. -1.
<mgrwt>
<rscale>  0 0.68567430E+02</rscale>
<asrwt>0</asrwt>
<pdfrwt beam="1">  1        2 0.28404701E+00 0.42814462E+02</pdfrwt>
<pdfrwt beam="2">  1        2 0.14677720E-01 0.10981085E+03</pdfrwt>
<totfact> 0.64122498E+02</totfact>
</mgrwt>
</event>
<event>
 5    1  0.4149151E-003  0.3063000E+02  0.7546771E-02  0.1632846E+00
         -1   -1    0    0    0  502 -0.00000000000E+00  0.00000000000E+00  0.74493072908E+03  0.74493072908E+03  0.00000000000E+00 0.  1.
         -2   -1    0    0    0  501  0.00000000000E+00 -0.00000000000E+00 -0.29914709429E+02  0.29914709429E+02  0.00000000000E+00 0.  1.
         25    1    1    2    0    0  0.23578988986E+02 -0.29806385330E+02  0.26077238676E+03  0.29167040821E+03  0.12500000000E+03 0.  0.
         -2    1    1    2    0  501 -0.23920947767E+02 -0.84787560788E+00 -0.36879876549E+01  0.24218420429E+02  0.00000000000E+00 0.  1.
         -1    1    1    2    0  502  0.34195878142E+00  0.30654260938E+02  0.45793162055E+03  0.45895660987E+03  0.00000000000E+00 0.  1.
<mgrwt>
<rscale>  0 0.27076905E+02</rscale>
<asrwt>0</asrwt>
<pdfrwt beam="2">  1       -2 0.46022635E-02 0.23935969E+02</pdfrwt>
<pdfrwt beam="1">  1       -1 0.11460471E+00 0.30630001E+02</pdfrwt>
<totfact> 0.10409065E+03</totfact>
</mgrwt>
</event>
<event>
 5    1  0.4149151E-003  0.1344982E+03  0.7546771E-02  0.1276440E+00
          1   -1    0    0  501    0  0.00000000000E+00  0.00000000000E+00  0.46088457123E+03  0.46088457123E+03  0.00000000000E+00 0. -1.
          1   -1    0    0  502    0 -0.00000000000E+00 -0.00000000000E+00 -0.90617978098E+03  0.90617978098E+03  0.00000000000E+00 0.  1.
         25    1    1    2    0    0 -0.58649440761E+02  0.47057760863E+02 -0.16371382241E+03  0.21927472587E+03  0.12500000000E+03 0.  0.
          1    1    1    2  501    0 -0.51908549366E+02  0.57057340955E+02  0.42149682499E+03  0.42849692079E+03  0.00000000000E+00 0. -1.
          1    1    1    2  502    0  0.11055799013E+03 -0.10411510182E+03 -0.70307821233E+03  0.71929270555E+03  0.00000000000E+00 0.  1.
<mgrwt>
<rscale>  0 0.10185636E+03</rscale>
<asrwt>0</asrwt>
<pdfrwt beam="1">  1        1 0.70905319E-01 0.77136487E+02</pdfrwt>
<pdfrwt beam="2">  1        1 0.13941227E+00 0.13449820E+03</pdfrwt>
<totfact> 0.12208809E+02</totfact>
</mgrwt>
</event>
<event>
 5    1  0.4149151E-003  0.7056517E+02  0.7546771E-02  0.1397106E+00
          1   -1    0    0  502    0 -0.00000000000E+00  0.00000000000E+00  0.12558325129E+04  0.12558325129E+04  0.00000000000E+00 0. -1.
          2   -1    0    0  501    0  0.00000000000E+00 -0.00000000000E+00 -0.84599703924E+02  0.84599703924E+02  0.00000000000E+00 0. -1.
         25    1    1    2    0    0  0.43444418826E+02 -0.40964370334E+02  0.67488028840E+03  0.68895130513E+03  0.12500000000E+03 0.  0.
          2    1    1    2  501    0 -0.34677915804E+02 -0.37819841764E+02 -0.65982678637E+02  0.83585956689E+02  0.00000000000E+00 0. -1.
          1    1    1    2  502    0 -0.87665030226E+01  0.78784212098E+02  0.56233519917E+03  0.56789495497E+03  0.00000000000E+00 0. -1.
<mgrwt>
<rscale>  0 0.60173286E+02</rscale>
<asrwt>0</asrwt>
<pdfrwt beam="2">  1        2 0.13015340E-01 0.51311775E+02</pdfrwt>
<pdfrwt beam="1">  1        1 0.19320499E+00 0.70565173E+02</pdfrwt>
<totfact> 0.67235198E+02</totfact>
</mgrwt>
</event>
<event>
 5    1  0.4149151E-003  0.4867309E+02  0.7546771E-02  0.1537630E+00
          1   -1    0    0  502    0  0.00000000000E+00  0.00000000000E+00  0.15563761175E+02  0.15563761175E+02  0.00000000000E+00 0. -1.
         -2   -1    0    0    0  501 -0.00000000000E+00 -0.00000000000E+00 -0.13318512522E+04  0.13318512522E+04  0.00000000000E+00 0.  1.
         25    1    1    2    0    0 -0.19564329464E+02  0.18069309925E+02 -0.28099439461E+03  0.30869420589E+03  0.12500000000E+03 0.  0.
          1    1    1    2  502    0 -0.27022728288E+02 -0.91785315181E-01 -0.18505782902E+03  0.18702041694E+03  0.00000000000E+00 0. -1.
         -2    1    1    2    0  501  0.46587057752E+02 -0.17977524610E+02 -0.85023526737E+03  0.85170039053E+03  0.00000000000E+00 0.  1.
<mgrwt>
<rscale>  0 0.36266888E+02</rscale>
<asrwt>0</asrwt>
<pdfrwt beam="1">  1        1 0.23944245E-02 0.27022884E+02</pdfrwt>
<pdfrwt beam="2">  1       -2 0.20490022E+00 0.48673087E+02</pdfrwt>
<totfact> 0.46343951E+02</totfact>
</mgrwt>
</event>
<event>
 5    1  0.4149151E-003  0.6121176E+02  0.7546771E-02  0.1502590E+00
          2   -1    0    0  501    0  0.00000000000E+00  0.00000000000E+00  0.13165375734E+04  0.13165375734E+04  0.00000000000E+00 0. -1.
          1   -1    0    0  502    0 -0.00000000000E+00 -0.00000000000E+00 -0.14350970433E+04  0.14350970433E+04  0.00000000000E+00 0.  1.
         25    1    1    2    0    0  0.16500233648E+02 -0.30133130106E+02  0.14461079045E+03  0.19421005112E+03  0.12500000000E+03 0.  0.
          2    1    1    2  501    0  0.16705248374E+02 -0.21415538612E+02  0.11462997110E+04  0.11466214363E+04  0.00000000000E+00 0. -1.
          1    1    1    2  502    0 -0.33205482022E+02  0.51548668718E+02 -0.14094699714E+04  0.14108031293E+04  0.00000000000E+00 0.  1.
<mgrwt>
<rscale>  0 0.40774251E+02</rscale>
<asrwt>0</asrwt>
<pdfrwt beam="1">  1        2 0.20254424E+00 0.27160461E+02</pdfrwt>
<pdfrwt beam="2">  1        1 0.22078416E+00 0.61211757E+02</pdfrwt>
<totfact> 0.25268922E+01</totfact>
</mgrwt>
</event>
<event>
 5    1  0.4154177E-003  0.3387780E+02  0.7546771E-02  0.1569289E+00
         -1   -1    0    0    0  501 -0.00000000000E+00  0.00000000000E+00  0.66578042565E+01  0.66578042565E+01  0.00000000000E+00 0.  1.
          2   -1    0    0  502    0  0.00000000000E+00 -0.00000000000E+00 -0.16065046628E+04  0.16065046628E+04  0.00000000000E+00 0. -1.
         25    1    1    2    0    0  0.97904131580E+01  0.78985859983E-01 -0.10090587755E+04  0.10168187994E+04  0.12500000000E+03 0.  0.
          2    1    1    2  502    0 -0.33020580740E+02  0.21504516403E+02 -0.46324261054E+03  0.46491560438E+03  0.00000000000E+00 0. -1.
         -1    1    1    2    0  501  0.23230167582E+02 -0.21583502263E+02 -0.12754547245E+03  0.13142806321E+03  0.00000000000E+00 0.  1.
<mgrwt>
<rscale>  0 0.32775691E+02</rscale>
<asrwt>0</asrwt>
<pdfrwt beam="2">  1        2 0.24715438E+00 0.33877801E+02</pdfrwt>
<pdfrwt beam="1">  1       -1 0.10242784E-02 0.31709435E+02</pdfrwt>
<totfact> 0.20971169E+04</totfact>
</mgrwt>
</event>
<event>
 5    1  0.4149151E-003  0.7724050E+02  0.7546771E-02  0.1345174E+00
          1   -1    0    0  502    0  0.00000000000E+00  0.00000000000E+00  0.24999192058E+04  0.24999192058E+04  0.00000000000E+00 0. -1.
         -1   -1    0    0    0  501 -0.00000000000E+00 -0.00000000000E+00 -0.69997885089E+03  0.69997885089E+03  0.00000000000E+00 0.  1.
         25    1    1    2    0    0  0.26526650411E+01  0.96771789831E+00  0.46130306800E+03  0.47794716618E+03  0.12500000000E+03 0.  0.
          1    1    1    2  502    0 -0.89807822302E+01 -0.77948555842E+02  0.20273763666E+04  0.20288941726E+04  0.00000000000E+00 0. -1.
         -1    1    1    2    0  501  0.63281171892E+01  0.76980837944E+02 -0.68873907964E+03  0.69305671796E+03  0.00000000000E+00 0.  1.
<mgrwt>
<rscale>  0 0.74580916E+02</rscale>
<asrwt>0</asrwt>
<pdfrwt beam="1">  1        1 0.38460295E+00 0.72012910E+02</pdfrwt>
<pdfrwt beam="2">  1       -1 0.10768906E+00 0.77240498E+02</pdfrwt>
<totfact> 0.17622904E+00</totfact>
</mgrwt>
</event>
<event>
 5    1  0.4149151E-003  0.1514474E+03  0.7546771E-02  0.1416089E+00
          2   -1    0    0  501    0  0.00000000000E+00  0.00000000000E+00  0.19927319347E+04  0.19927319347E+04  0.00000000000E+00 0. -1.
          1   -1    0    0  502    0 -0.00000000000E+00 -0.00000000000E+00 -0.12719686914E+04  0.12719686914E+04  0.00000000000E+00 0. -1.
         25    1    1    2    0    0 -0.12844605083E+03 -0.41239812670E+02  0.87185569982E+02  0.20353238989E+03  0.12500000000E+03 0.  0.
          2    1    1    2  501    0  0.14109376062E+03  0.57501618077E+02  0.18441436924E+04  0.18504269355E+04  0.00000000000E+00 0. -1.
          1    1    1    2  502    0 -0.12647709791E+02 -0.16261805407E+02 -0.12105660191E+04  0.12107413008E+04  0.00000000000E+00 0. -1.
<mgrwt>
<rscale>  0 0.55856988E+02</rscale>
<asrwt>0</asrwt>
<pdfrwt beam="1">  1        2 0.30657414E+00 0.15144738E+03</pdfrwt>
<pdfrwt beam="2">  1        1 0.19568749E+00 0.20601235E+02</pdfrwt>
<totfact> 0.13944480E+01</totfact>
</mgrwt>
</event>
<event>
 5    1  0.4149151E-003  0.4946880E+02  0.7546771E-02  0.1468179E+00
          2   -1    0    0  502    0  0.00000000000E+00  0.00000000000E+00  0.40616334805E+03  0.40616334805E+03  0.00000000000E+00 0. -1.
          2   -1    0    0  501    0 -0.00000000000E+00 -0.00000000000E+00 -0.57703412122E+02  0.57703412122E+02  0.00000000000E+00 0. -1.
         25    1    1    2    0    0  0.54960705648E+02 -0.44606636431E+00  0.27397962843E+03  0.30612205889E+03  0.12500000000E+03 0.  0.
          2    1    1    2  501    0 -0.33408134995E+02  0.37399152752E+02 -0.20032703048E+02  0.54001012044E+02  0.00000000000E+00 0. -1.
          2    1    1    2  502    0 -0.21552570653E+02 -0.36953086388E+02  0.94513010544E+02  0.10374368924E+03  0.00000000000E+00 0. -1.
<mgrwt>
<rscale>  0 0.46002463E+02</rscale>
<asrwt>0</asrwt>
<pdfrwt beam="1">  1        2 0.62486667E-01 0.42779012E+02</pdfrwt>
<pdfrwt beam="2">  1        2 0.88774483E-02 0.49468804E+02</pdfrwt>
<totfact> 0.80932576E+03</totfact>
</mgrwt>
</event>
<event>
 5    1  0.4149151E-003  0.5565177E+02  0.7546771E-02  0.1494511E+00
          1   -1    0    0  501    0  0.00000000000E+00  0.00000000000E+00  0.10439991146E+04  0.10439991146E+04  0.00000000000E+00 0. -1.
          1   -1    0    0  502    0 -0.00000000000E+00 -0.00000000000E+00 -0.22595888590E+04  0.22595888590E+04  0.00000000000E+00 0. -1.
         25    1    1    2    0    0  0.12953958078E+02  0.56989717267E+02  0.58322601028E+03  0.59932729954E+03  0.12500000000E+03 0.  0.
          1    1    1    2  501    0 -0.39773516446E+02 -0.40311202052E+02  0.45084027401E+03  0.45438296435E+03  0.00000000000E+00 0. -1.
          1    1    1    2  502    0  0.26819558368E+02 -0.16678515215E+02 -0.22496560286E+04  0.22498777097E+04  0.00000000000E+00 0. -1.
<mgrwt>
<rscale>  0 0.41924080E+02</rscale>
<asrwt>0</asrwt>
<pdfrwt beam="1">  1        1 0.16061525E+00 0.55651770E+02</pdfrwt>
<pdfrwt beam="2">  1        1 0.34762905E+00 0.31582615E+02</pdfrwt>
<totfact> 0.61501356E+00</totfact>
</mgrwt>
</event>
<event>
 5    1  0.4149151E-003  0.7226778E+02  0.7546771E-02  0.1405315E+00
         -3   -1    0    0    0  501 -0.00000000000E+00  0.00000000000E+00  0.24695750603E+02  0.24695750603E+02  0.00000000000E+00 0.  1.
          1   -1    0    0  502    0  0.00000000000E+00 -0.00000000000E+00 -0.10108839040E+04  0.10108839040E+04  0.00000000000E+00 0. -1.
         25    1    1    2    0    0 -0.37596778954E+02  0.32508689954E+02 -0.43828367781E+03  0.45846255566E+03  0.12500000000E+03 0.  0.
          1    1    1    2  502    0  0.24665409145E+02 -0.77648075789E+02 -0.51084019694E+03  0.51729615588E+03  0.00000000000E+00 0. -1.
         -3    1    1    2    0  501  0.12931369809E+02  0.45139385835E+02 -0.37064278695E+02  0.59820943105E+02  0.00000000000E+00 0.  1.
<mgrwt>
<rscale>  0 0.58252410E+02</rscale>
<asrwt>0</asrwt>
<pdfrwt beam="2">  1        1 0.15552058E+00 0.72267782E+02</pdfrwt>
<pdfrwt beam="1">  1       -3 0.37993467E-02 0.46955133E+02</pdfrwt>
<totfact> 0.25986604E+03</totfact>
</mgrwt>
</event>
<event>
 5    1  0.4149151E-003  0.5587742E+02  0.7546771E-02  0.1420807E+00
          2   -1    0    0  501    0  0.00000000000E+00  0.00000000000E+00  0.18209250431E+04  0.18209250431E+04  0.00000000000E+00 0. -1.
          2   -1    0    0  502    0 -0.00000000000E+00 -0.00000000000E+00 -0.27237514075E+04  0.27237514075E+04  0.00000000000E+00 0. -1.
         25    1    1    2    0    0 -0.60451249352E+02 -0.85144830012E+02  0.14015017572E+03  0.21487453870E+03  0.12500000000E+03 0.  0.
          2    1    1    2  501    0  0.15994491739E+02  0.51412023026E+02  0.16426817318E+04  0.16435638995E+04  0.00000000000E+00 0. -1.
          2    1    1    2  502    0  0.44456757613E+02  0.33732806986E+02 -0.26856582720E+04  0.26862380124E+04  0.00000000000E+00 0. -1.
<mgrwt>
<rscale>  0 0.54850550E+02</rscale>
<asrwt>0</asrwt>
<pdfrwt beam="1">  1        2 0.28014231E+00 0.53842547E+02</pdfrwt>
<pdfrwt beam="2">  1        2 0.41903868E+00 0.55877424E+02</pdfrwt>
<totfact> 0.64120324E+00</totfact>
</mgrwt>
</event>
<event>
 5    1  0.4149151E-003  0.1230736E+03  0.7546771E-02  0.1362789E+00
         -1   -1    0    0    0  501  0.00000000000E+00  0.00000000000E+00  0.27364442266E+03  0.27364442266E+03  0.00000000000E+00 0.  1.
         -1   -1    0    0    0  502 -0.00000000000E+00 -0.00000000000E+00 -0.21655397702E+04  0.21655397702E+04  0.00000000000E+00 0. -1.
         25    1    1    2    0    0  0.81327650008E+02 -0.87295550248E+02 -0.84807643638E+02  0.19248905467E+03  0.12500000000E+03 0.  0.
         -1    1    1    2    0  501 -0.29919420985E+02 -0.24897473358E+02  0.21618554411E+03  0.21966166123E+03  0.00000000000E+00 0.  1.
         -1    1    1    2    0  502 -0.51408229023E+02  0.11219302361E+03 -0.20232732480E+04  0.20270334770E+04  0.00000000000E+00 0. -1.
<mgrwt>
<rscale>  0 0.69213296E+02</rscale>
<asrwt>0</asrwt>
<pdfrwt beam="1">  1       -1 0.42099142E-01 0.38923719E+02</pdfrwt>
<pdfrwt beam="2">  1       -1 0.33315996E+00 0.12307355E+03</pdfrwt>
<totfact> 0.12670120E+00</totfact>
</mgrwt>
</event>
<event>
 5    1  0.4149151E-003  0.8347715E+02  0.7546771E-02  0.1378034E+00
          1   -1    0    0  502    0  0.00000000000E+00  0.00000000000E+00  0.32790411917E+04  0.32790411917E+04  0.00000000000E+00 0. -1.
         -2   -1    0    0    0  501 -0.00000000000E+00 -0.00000000000E+00 -0.10224134955E+03  0.10224134955E+03  0.00000000000E+00 0.  1.
         25    1    1    2    0    0  0.40154607859E+02 -0.52822540187E+02  0.57352758934E+03  0.59072964122E+03  0.12500000000E+03 0.  0.
          1    1    1    2  502    0 -0.17758512271E+01  0.85778209783E+02  0.26893461852E+04  0.26907143957E+04  0.00000000000E+00 0. -1.
         -2    1    1    2    0  501 -0.38378756632E+02 -0.32955669597E+02 -0.86073932405E+02  0.99838504390E+02  0.00000000000E+00 0.  1.
<mgrwt>
<rscale>  0 0.64983275E+02</rscale>
<asrwt>0</asrwt>
<pdfrwt beam="1">  1        1 0.50446780E+00 0.83477150E+02</pdfrwt>
<pdfrwt beam="2">  1       -2 0.15729441E-01 0.50586610E+02</pdfrwt>
<totfact> 0.14548160E+01</totfact>
</mgrwt>
</event>
<event>
 5    1  0.4149151E-003  0.1412092E+03  0.7546771E-02  0.1271059E+00
          1   -1    0    0  502    0 -0.00000000000E+00  0.00000000000E+00  0.26464859107E+03  0.26464859107E+03  0.00000000000E+00 0. -1.
          2   -1    0    0  501    0  0.00000000000E+00 -0.00000000000E+00 -0.10250795649E+04  0.10250795649E+04  0.00000000000E+00 0. -1.
         25    1    1    2    0    0  0.19750875051E+03  0.53080727801E+02 -0.37010179332E+03  0.44093946025E+03  0.12500000000E+03 0.  0.
          2    1    1    2  501    0 -0.12038149094E+03 -0.46955252511E+02 -0.60601925696E+03  0.61964170204E+03  0.00000000000E+00 0. -1.
          1    1    1    2  502    0 -0.77127259563E+02 -0.61254752903E+01  0.21569007647E+03  0.22914699366E+03  0.00000000000E+00 0. -1.
<mgrwt>
<rscale>  0 0.10452450E+03</rscale>
<asrwt>0</asrwt>
<pdfrwt beam="2">  1        2 0.15770455E+00 0.14120918E+03</pdfrwt>
<pdfrwt beam="1">  1        1 0.40715167E-01 0.77370121E+02</pdfrwt>
<totfact> 0.36565413E+02</totfact>
</mgrwt>
</event>
<event>
 5    1  0.4149151E-003  0.1956311E+03  0.7546771E-02  0.1260309E+00
         -2   -1    0    0    0  501 -0.00000000000E+00  0.00000000000E+00  0.54206295139E+03  0.54206295139E+03  0.00000000000E+00 0.  1.
          1   -1    0    0  502    0  0.00000000000E+00 -0.00000000000E+00 -0.46319944682E+03  0.46319944682E+03  0.00000000000E+00 0. -1.
         25    1    1    2    0    0  0.17028133199E+03  0.25811485585E+02 -0.11263809314E+03  0.24077853899E+03  0.12500000000E+03 0.  0.
          1    1    1    2  502    0  0.26664043448E+02 -0.55984459249E+02 -0.26195009409E+03  0.26918967789E+03  0.00000000000E+00 0. -1.
         -2    1    1    2    0  501 -0.19694537544E+03  0.30172973665E+02  0.45345169180E+03  0.49529418132E+03  0.00000000000E+00 0.  1.
<mgrwt>
<rscale>  0 0.11014112E+03</rscale>
<asrwt>0</asrwt>
<pdfrwt beam="2">  1        1 0.71261453E-01 0.62009926E+02</pdfrwt>
<pdfrwt beam="1">  1       -2 0.83394300E-01 0.19563105E+03</pdfrwt>
<totfact> 0.59934473E+01</totfact>
</mgrwt>
</event>
<event>
 5    1  0.4149151E-003  0.3636425E+02  0.7546771E-02  0.1585825E+00
         -3   -1    0    0    0  501 -0.00000000000E+00  0.00000000000E+00  0.12020642932E+03  0.12020642932E+03  0.00000000000E+00 0.  1.
          1   -1    0    0  502    0  0.00000000000E+00 -0.00000000000E+00 -0.99889037236E+03  0.99889037236E+03  0.00000000000E+00 0. -1.
         25    1    1    2    0    0  0.29052464117E+02  0.12640168039E+02 -0.13593139055E+03  0.18736638561E+03  0.12500000000E+03 0.  0.
          1    1    1    2  502    0 -0.33972864378E+02  0.13567135429E+02 -0.83495171971E+03  0.83575271278E+03  0.00000000000E+00 0. -1.
         -3    1    1    2    0  501  0.49204002611E+01 -0.26207303468E+02  0.92199167221E+02  0.95977703296E+02  0.00000000000E+00 0.  1.
<mgrwt>
<rscale>  0 0.31139368E+02</rscale>
<asrwt>0</asrwt>
<pdfrwt beam="2">  1        1 0.15367544E+00 0.36364255E+02</pdfrwt>
<pdfrwt beam="1">  1       -3 0.18493296E-01 0.26665204E+02</pdfrwt>
<totfact> 0.20513058E+02</totfact>
</mgrwt>
</event>
<event>
 5    1  0.4149151E-003  0.6506193E+02  0.7546771E-02  0.1526812E+00
          1   -1    0    0  502    0  0.00000000000E+00  0.00000000000E+00  0.70358872063E+03  0.70358872063E+03  0.00000000000E+00 0. -1.
         -2   -1    0    0    0  501 -0.00000000000E+00 -0.00000000000E+00 -0.10917419233E+03  0.10917419233E+03  0.00000000000E+00 0.  1.
         25    1    1    2    0    0  0.32439472495E+02  0.41881081291E+02  0.39529030107E+03  0.41795426360E+03  0.12500000000E+03 0.  0.
          1    1    1    2  502    0  0.21247465967E+02 -0.44412686489E+01  0.28556198800E+03  0.28638580388E+03  0.00000000000E+00 0. -1.
         -2    1    1    2    0  501 -0.53686938462E+02 -0.37439812643E+02 -0.86437760776E+02  0.10842284547E+03  0.00000000000E+00 0.  1.
<mgrwt>
<rscale>  0 0.37580289E+02</rscale>
<asrwt>0</asrwt>
<pdfrwt beam="1">  1        1 0.10824442E+00 0.21706674E+02</pdfrwt>
<pdfrwt beam="2">  1       -2 0.16796030E-01 0.65061932E+02</pdfrwt>
<totfact> 0.73162380E+02</totfact>
</mgrwt>
</event>
<event>
 5    1  0.4149151E-003  0.1000522E+03  0.7546771E-02  0.1458650E+00
          1   -1    0    0  502    0  0.00000000000E+00  0.00000000000E+00  0.32934822604E+04  0.32934822604E+04  0.00000000000E+00 0. -1.
         -2   -1    0    0    0  501 -0.00000000000E+00 -0.00000000000E+00 -0.11182183813E+02  0.11182183813E+02  0.00000000000E+00 0.  1.
         25    1    1    2    0    0 -0.17921791268E+02 -0.10060253996E+03  0.28042552582E+04  0.28088991821E+04  0.12500000000E+03 0.  0.
          1    1    1    2  502    0  0.22650466898E+02  0.64509076143E+00  0.17884011735E+03  0.18026992918E+03  0.00000000000E+00 0. -1.
         -2    1    1    2    0  501 -0.47286756294E+01  0.99957449199E+02  0.29920470095E+03  0.31549533292E+03  0.00000000000E+00 0.  1.
<mgrwt>
<rscale>  0 0.47614574E+02</rscale>
<asrwt>0</asrwt>
<pdfrwt beam="1">  1        1 0.50668881E+00 0.22659651E+02</pdfrwt>
<pdfrwt beam="2">  1       -2 0.17203386E-02 0.10005219E+03</pdfrwt>
<totfact> 0.54368735E+02</totfact>
</mgrwt>
</event>
<event>
 5    1  0.4149151E-003  0.9513030E+02  0.7546771E-02  0.1424194E+00
         -2   -1    0    0    0  501 -0.00000000000E+00  0.00000000000E+00  0.33027528118E+02  0.33027528118E+02  0.00000000000E+00 0.  1.
          1   -1    0    0  502    0  0.00000000000E+00 -0.00000000000E+00 -0.67804598609E+03  0.67804598609E+03  0.00000000000E+00 0. -1.
         25    1    1    2    0    0  0.98118382227E+02 -0.20970888133E+02 -0.24834219715E+03  0.29557713370E+03  0.12500000000E+03 0.  0.
          1    1    1    2  502    0 -0.65184554372E+01  0.30118231950E+02 -0.12070847016E+03  0.12457982552E+03  0.00000000000E+00 0. -1.
         -2    1    1    2    0  501 -0.91599926790E+02 -0.91473438173E+01 -0.27596779066E+03  0.29091655499E+03  0.00000000000E+00 0.  1.
<mgrwt>
<rscale>  0 0.54143260E+02</rscale>
<asrwt>0</asrwt>
<pdfrwt beam="2">  1        1 0.10431476E+00 0.30815551E+02</pdfrwt>
<pdfrwt beam="1">  1       -2 0.50811584E-02 0.95130302E+02</pdfrwt>
<totfact> 0.49369339E+03</totfact>
</mgrwt>
</event>
<event>
 5    1  0.4149151E-003  0.1277894E+03  0.7546771E-02  0.1394155E+00
          2   -1    0    0  502    0  0.00000000000E+00  0.00000000000E+00  0.76356295920E+02  0.76356295920E+02  0.00000000000E+00 0. -1.
         -2   -1    0    0    0  501 -0.00000000000E+00 -0.00000000000E+00 -0.38617134094E+03  0.38617134094E+03  0.00000000000E+00 0.  1.
         25    1    1    2    0    0 -0.26655770490E+02 -0.13046787130E+03 -0.20096466564E+03  0.27155881937E+03  0.12500000000E+03 0.  0.
          2    1    1    2  502    0  0.51220272701E+02  0.11503795258E+03 -0.99497108923E+02  0.16048963067E+03  0.00000000000E+00 0.  1.
         -2    1    1    2    0  501 -0.24564502211E+02  0.15429918716E+02 -0.93532704489E+01  0.30479186809E+02  0.00000000000E+00 0. -1.
<mgrwt>
<rscale>  0 0.60885029E+02</rscale>
<asrwt>0</asrwt>
<pdfrwt beam="1">  1        2 0.11747123E-01 0.12778936E+03</pdfrwt>
<pdfrwt beam="2">  1       -2 0.59410974E-01 0.29008570E+02</pdfrwt>
<totfact> 0.13769083E+03</totfact>
</mgrwt>
</event>
<event>
 5    1  0.4149151E-003  0.5066710E+02  0.7546771E-02  0.1499583E+00
          2   -1    0    0  502    0  0.00000000000E+00  0.00000000000E+00  0.31258298807E+04  0.31258298807E+04  0.00000000000E+00 0. -1.
         -1   -1    0    0    0  501 -0.00000000000E+00 -0.00000000000E+00 -0.84581017492E+02  0.84581017492E+02  0.00000000000E+00 0.  1.
         25    1    1    2    0    0  0.29539995636E+02 -0.66528602390E+02  0.47113509392E+03  0.49284068724E+03  0.12500000000E+03 0.  0.
          2    1    1    2  502    0 -0.37163694757E+02  0.33910688392E+02  0.26397852184E+04  0.26402645842E+04  0.00000000000E+00 0. -1.
         -1    1    1    2    0  501  0.76236991207E+01  0.32617913997E+02 -0.69671449156E+02  0.77305626764E+02  0.00000000000E+00 0.  1.
<mgrwt>
<rscale>  0 0.41197039E+02</rscale>
<asrwt>0</asrwt>
<pdfrwt beam="1">  1        2 0.48089682E+00 0.50667102E+02</pdfrwt>
<pdfrwt beam="2">  1       -1 0.13012467E-01 0.33497001E+02</pdfrwt>
<totfact> 0.94596981E+01</totfact>
</mgrwt>
</event>
<event>
 5    1  0.4149151E-003  0.7363195E+02  0.7546771E-02  0.1390260E+00
          2   -1    0    0  501    0  0.00000000000E+00  0.00000000000E+00  0.78521994480E+03  0.78521994480E+03  0.00000000000E+00 0. -1.
          3   -1    0    0  502    0 -0.00000000000E+00 -0.00000000000E+00 -0.14047258700E+03  0.14047258700E+03  0.00000000000E+00 0. -1.
         25    1    1    2    0    0  0.70766309771E+02  0.36341632453E+02  0.75432396409E+01  0.14835931151E+03  0.12500000000E+03 0.  0.
          2    1    1    2  501    0 -0.29462647519E+02 -0.67834020079E+02  0.69540476365E+03  0.69932630952E+03  0.00000000000E+00 0. -1.
          3    1    1    2  502    0 -0.41303662252E+02  0.31492387627E+02 -0.58200645479E+02  0.78006910771E+02  0.00000000000E+00 0. -1.
<mgrwt>
<rscale>  0 0.61842084E+02</rscale>
<asrwt>0</asrwt>
<pdfrwt beam="1">  1        2 0.12080307E+00 0.73631955E+02</pdfrwt>
<pdfrwt beam="2">  1        3 0.21611168E-01 0.51939994E+02</pdfrwt>
<totfact> 0.40817928E+02</totfact>
</mgrwt>
</event>
<event>
 5    1  0.4149151E-003  0.3948097E+02  0.7546771E-02  0.1552338E+00
          2   -1    0    0  502    0  0.00000000000E+00  0.00000000000E+00  0.45669672382E+02  0.45669672382E+02  0.00000000000E+00 0. -1.
         -1   -1    0    0    0  501 -0.00000000000E+00 -0.00000000000E+00 -0.27746889587E+03  0.27746889587E+03  0.00000000000E+00 0.  1.
         25    1    1    2    0    0 -0.54983967330E+02  0.14197202648E+02 -0.15600305698E+03  0.20781422236E+03  0.12500000000E+03 0.  0.
          2    1    1    2  502    0  0.27895441611E+02  0.11809248480E+02  0.49063381261E+00  0.30296117472E+02  0.00000000000E+00 0. -1.
         -1    1    1    2    0  501  0.27088525719E+02 -0.26006451128E+02 -0.76286800326E+02  0.85028228429E+02  0.00000000000E+00 0.  1.
<mgrwt>
<rscale>  0 0.34582703E+02</rscale>
<asrwt>0</asrwt>
<pdfrwt beam="1">  1        2 0.70261034E-02 0.30292144E+02</pdfrwt>
<pdfrwt beam="2">  1       -1 0.42687523E-01 0.39480973E+02</pdfrwt>
<totfact> 0.52363352E+03</totfact>
</mgrwt>
</event>
<event>
 5    1  0.4149151E-003  0.1672481E+03  0.7546771E-02  0.1190898E+00
          2   -1    0    0  501    0  0.00000000000E+00  0.00000000000E+00  0.92361278410E+03  0.92361278410E+03  0.00000000000E+00 0. -1.
          1   -1    0    0  502    0 -0.00000000000E+00 -0.00000000000E+00 -0.13626959023E+04  0.13626959023E+04  0.00000000000E+00 0. -1.
         25    1    1    2    0    0 -0.12280968710E+02  0.22146443878E+03 -0.26934693495E+03  0.37063471398E+03  0.12500000000E+03 0.  0.
          2    1    1    2  501    0  0.11931861467E+03 -0.11725478620E+03  0.85951220553E+03  0.87564082143E+03  0.00000000000E+00 0. -1.
          1    1    1    2  502    0 -0.10703764596E+03 -0.10420965258E+03 -0.10292483888E+04  0.10400331510E+04  0.00000000000E+00 0. -1.
<mgrwt>
<rscale>  0 0.15806590E+03</rscale>
<asrwt>0</asrwt>
<pdfrwt beam="1">  1        2 0.14209428E+00 0.16724814E+03</pdfrwt>
<pdfrwt beam="2">  1        1 0.20964552E+00 0.14938778E+03</pdfrwt>
<totfact> 0.38342754E+01</totfact>
</mgrwt>
</event>
<event>
 5    1  0.4149151E-003  0.1129505E+03  0.7546771E-02  0.1269310E+00
          2   -1    0    0  501    0  0.00000000000E+00  0.00000000000E+00  0.79950693971E+02  0.79950693971E+02  0.00000000000E+00 0.  1.
          1   -1    0    0  502    0 -0.00000000000E+00 -0.00000000000E+00 -0.10993365277E+04  0.10993365277E+04  0.00000000000E+00 0. -1.
         25    1    1    2    0    0  0.96631842034E+02  0.87499436958E+02 -0.65520787211E+02  0.19212453753E+03  0.12500000000E+03 0.  0.
          2    1    1    2  501    0 -0.10761110976E+03  0.10262900537E+02 -0.20399197397E+03  0.23086403686E+03  0.00000000000E+00 0.  1.
          1    1    1    2  502    0  0.10979267728E+02 -0.97762337495E+02 -0.74987307256E+03  0.75629864730E+03  0.00000000000E+00 0. -1.
<mgrwt>
<rscale>  0 0.10541215E+03</rscale>
<asrwt>0</asrwt>
<pdfrwt beam="1">  1        2 0.12300108E-01 0.11295049E+03</pdfrwt>
<pdfrwt beam="2">  1        1 0.16912869E+00 0.98376923E+02</pdfrwt>
<totfact> 0.93440710E+02</totfact>
</mgrwt>
</event>
<event>
 5    1  0.4149151E-003  0.5339566E+02  0.7546771E-02  0.1543611E+00
          2   -1    0    0  501    0  0.00000000000E+00  0.00000000000E+00  0.15937246079E+04  0.15937246079E+04  0.00000000000E+00 0. -1.
          1   -1    0    0  502    0 -0.00000000000E+00 -0.00000000000E+00 -0.46216628389E+02  0.46216628389E+02  0.00000000000E+00 0. -1.
         25    1    1    2    0    0 -0.74529586468E+02 -0.17224183684E+02  0.74180129866E+03  0.75613854448E+03  0.12500000000E+03 0.  0.
          2    1    1    2  501    0  0.23318520002E+02  0.41957771698E+01  0.82662946220E+03  0.82696893877E+03  0.00000000000E+00 0. -1.
          1    1    1    2  502    0  0.51211066466E+02  0.13028406514E+02 -0.20922781344E+02  0.56833753035E+02  0.00000000000E+00 0. -1.
<mgrwt>
<rscale>  0 0.35568286E+02</rscale>
<asrwt>0</asrwt>
<pdfrwt beam="1">  1        2 0.24518836E+00 0.23692993E+02</pdfrwt>
<pdfrwt beam="2">  1        1 0.71102517E-02 0.53395659E+02</pdfrwt>
<totfact> 0.18570902E+03</totfact>
</mgrwt>
</event>
<event>
 5    1  0.4149151E-003  0.1508747E+03  0.7546771E-02  0.1203485E+00
          1   -1    0    0  502    0 -0.00000000000E+00  0.00000000000E+00  0.24995433565E+03  0.24995433565E+03  0.00000000000E+00 0. -1.
          2   -1    0    0  501    0  0.00000000000E+00 -0.00000000000E+00 -0.23791945092E+04  0.23791945092E+04  0.00000000000E+00 0. -1.
         25    1    1    2    0    0  0.11318853776E+03  0.31072143112E+02 -0.14658933088E+04  0.14758879754E+04  0.12500000000E+03 0.  0.
          2    1    1    2  501    0 -0.82676917733E+02  0.11832522221E+03 -0.87809707360E+03  0.88988246505E+03  0.00000000000E+00 0. -1.
          1    1    1    2  502    0 -0.30511620024E+02 -0.14939736532E+03  0.21475020883E+03  0.26337840441E+03  0.00000000000E+00 0. -1.
<mgrwt>
<rscale>  0 0.14757523E+03</rscale>
<asrwt>0</asrwt>
<pdfrwt beam="2">  1        2 0.36602992E+00 0.14434795E+03</pdfrwt>
<pdfrwt beam="1">  1        1 0.38454513E-01 0.15087466E+03</pdfrwt>
<totfact> 0.75813151E+01</totfact>
</mgrwt>
</event>
<event>
 5    1  0.4149151E-003  0.1005290E+03  0.7546771E-02  0.1354079E+00
          1   -1    0    0  502    0 -0.00000000000E+00  0.00000000000E+00  0.67152188392E+03  0.67152188392E+03  0.00000000000E+00 0. -1.
          2   -1    0    0  501    0  0.00000000000E+00 -0.00000000000E+00 -0.74941816946E+03  0.74941816946E+03  0.00000000000E+00 0. -1.
         25    1    1    2    0    0 -0.79570850836E+02  0.11471360786E+03 -0.17646902449E+03  0.25740444584E+03  0.12500000000E+03 0.  0.
          2    1    1    2  501    0  0.72514644676E+02 -0.63921405825E+02 -0.52703654472E+03  0.53582818075E+03  0.00000000000E+00 0. -1.
          1    1    1    2  502    0  0.70562061599E+01 -0.50792202038E+02  0.62560928368E+03  0.62770742680E+03  0.00000000000E+00 0. -1.
<mgrwt>
<rscale>  0 0.71799200E+02</rscale>
<asrwt>0</asrwt>
<pdfrwt beam="2">  1        2 0.11529510E+00 0.10052897E+03</pdfrwt>
<pdfrwt beam="1">  1        1 0.10331106E+00 0.51279994E+02</pdfrwt>
<totfact> 0.17460860E+02</totfact>
</mgrwt>
</event>
<event>
 5    1  0.4149151E-003  0.8723937E+02  0.7546771E-02  0.1400722E+00
          2   -1    0    0  502    0  0.00000000000E+00  0.00000000000E+00  0.64992078472E+03  0.64992078472E+03  0.00000000000E+00 0. -1.
          2   -1    0    0  501    0 -0.00000000000E+00 -0.00000000000E+00 -0.12877515109E+03  0.12877515109E+03  0.00000000000E+00 0. -1.
         25    1    1    2    0    0  0.45786821464E+02 -0.41474447225E+02  0.46345707480E+02  0.14693361560E+03  0.12500000000E+03 0.  0.
          2    1    1    2  501    0  0.38566251538E+02  0.11800226937E+02 -0.69398218208E+02  0.80266517328E+02  0.00000000000E+00 0. -1.
          2    1    1    2  502    0 -0.84353073003E+02  0.29674220289E+02  0.54419814436E+03  0.55149580288E+03  0.00000000000E+00 0. -1.
<mgrwt>
<rscale>  0 0.59316637E+02</rscale>
<asrwt>0</asrwt>
<pdfrwt beam="1">  1        2 0.99987811E-01 0.87239368E+02</pdfrwt>
<pdfrwt beam="2">  1        2 0.19811562E-01 0.40331143E+02</pdfrwt>
<totfact> 0.19070792E+03</totfact>
</mgrwt>
</event>
<event>
 5    1  0.4149151E-003  0.3456274E+02  0.7546771E-02  0.1634946E+00
         -3   -1    0    0    0  502 -0.00000000000E+00  0.00000000000E+00  0.25352760506E+03  0.25352760506E+03  0.00000000000E+00 0.  1.
         -2   -1    0    0    0  501  0.00000000000E+00 -0.00000000000E+00 -0.17202893969E+03  0.17202893969E+03  0.00000000000E+00 0.  1.
         25    1    1    2    0    0 -0.14806163667E+02 -0.22152811527E+01 -0.28348893234E+02  0.12904568842E+03  0.12500000000E+03 0.  0.
         -2    1    1    2    0  501  0.35668952953E+02  0.42029194490E+01 -0.89306094142E+02  0.96257556522E+02  0.00000000000E+00 0.  1.
         -3    1    1    2    0  502 -0.20862789286E+02 -0.19876382964E+01  0.19915365274E+03  0.20025329981E+03  0.00000000000E+00 0.  1.
<mgrwt>
<rscale>  0 0.26913569E+02</rscale>
<asrwt>0</asrwt>
<pdfrwt beam="2">  1       -2 0.26465991E-01 0.34562737E+02</pdfrwt>
<pdfrwt beam="1">  1       -3 0.39004247E-01 0.20957258E+02</pdfrwt>
<totfact> 0.26265870E+02</totfact>
</mgrwt>
</event>
<event>
 5    1  0.4149151E-003  0.8435869E+02  0.7546771E-02  0.1318663E+00
          1   -1    0    0  502    0 -0.00000000000E+00  0.00000000000E+00  0.34470088872E+03  0.34470088872E+03  0.00000000000E+00 0. -1.
          2   -1    0    0  501    0  0.00000000000E+00 -0.00000000000E+00 -0.81098473122E+03  0.81098473122E+03  0.00000000000E+00 0. -1.
         25    1    1    2    0    0  0.11930316318E+02  0.59952272001E+02 -0.28042008434E+03  0.31304477486E+03  0.12500000000E+03 0.  0.
          2    1    1    2  501    0 -0.82394834137E+02 -0.11538361718E+02 -0.50522733670E+03  0.51203193673E+03  0.00000000000E+00 0. -1.
          1    1    1    2  502    0  0.70464517819E+02 -0.48413910283E+02  0.31936357854E+03  0.33060890835E+03  0.00000000000E+00 0. -1.
<mgrwt>
<rscale>  0 0.83776745E+02</rscale>
<asrwt>0</asrwt>
<pdfrwt beam="2">  1        2 0.12476688E+00 0.83198813E+02</pdfrwt>
<pdfrwt beam="1">  1        1 0.53030906E-01 0.84358692E+02</pdfrwt>
<totfact> 0.36843658E+02</totfact>
</mgrwt>
</event>
<event>
 5    1  0.4149151E-003  0.1037088E+03  0.7546771E-02  0.1341582E+00
         -3   -1    0    0    0  501 -0.00000000000E+00  0.00000000000E+00  0.30073296194E+03  0.30073296194E+03  0.00000000000E+00 0.  1.
          1   -1    0    0  502    0  0.00000000000E+00 -0.00000000000E+00 -0.63908310671E+03  0.63908310671E+03  0.00000000000E+00 0. -1.
         25    1    1    2    0    0  0.72548764771E+02  0.11911598505E+03  0.16905690716E+02  0.18804984324E+03  0.12500000000E+03 0.  0.
          1    1    1    2  502    0  0.35303100415E+01 -0.55207153652E+02 -0.53955827031E+03  0.54238678078E+03  0.00000000000E+00 0. -1.
         -3    1    1    2    0  501 -0.76079074813E+02 -0.63908831400E+02  0.18430243482E+03  0.20937944463E+03  0.00000000000E+00 0.  1.
<mgrwt>
<rscale>  0 0.75744046E+02</rscale>
<asrwt>0</asrwt>
<pdfrwt beam="2">  1        1 0.98320477E-01 0.55319914E+02</pdfrwt>
<pdfrwt beam="1">  1       -3 0.46266610E-01 0.10370878E+03</pdfrwt>
<totfact> 0.83740901E+01</totfact>
</mgrwt>
</event>
<event>
 5    1  0.4149151E-003  0.5446847E+02  0.7546771E-02  0.1471798E+00
          2   -1    0    0  502    0  0.00000000000E+00  0.00000000000E+00  0.19179132531E+04  0.19179132531E+04  0.00000000000E+00 0. -1.
         -2   -1    0    0    0  501 -0.00000000000E+00 -0.00000000000E+00 -0.72749135850E+01  0.72749135850E+01  0.00000000000E+00 0.  1.
         25    1    1    2    0    0  0.37753941372E+02  0.26713924651E+02  0.97941232457E+03  0.98843942423E+03  0.12500000000E+03 0.  0.
          2    1    1    2  502    0 -0.19162260594E+02  0.32650147359E+02  0.43360760294E+03  0.43525713972E+03  0.00000000000E+00 0. -1.
         -2    1    1    2    0  501 -0.18591680778E+02 -0.59364072011E+02  0.49761841204E+03  0.50149160277E+03  0.00000000000E+00 0.  1.
<mgrwt>
<rscale>  0 0.45409962E+02</rscale>
<asrwt>0</asrwt>
<pdfrwt beam="1">  1        2 0.29506317E+00 0.37857950E+02</pdfrwt>
<pdfrwt beam="2">  1       -2 0.11192190E-02 0.54468472E+02</pdfrwt>
<totfact> 0.14381885E+04</totfact>
</mgrwt>
</event>
<event>
 5    1  0.4149151E-003  0.7347214E+02  0.7546771E-02  0.1498476E+00
         -1   -1    0    0    0  501 -0.00000000000E+00  0.00000000000E+00  0.34632302514E+03  0.34632302514E+03  0.00000000000E+00 0.  1.
          1   -1    0    0  502    0  0.00000000000E+00 -0.00000000000E+00 -0.81604275013E+03  0.81604275013E+03  0.00000000000E+00 0. -1.
         25    1    1    2    0    0  0.71543255198E+02 -0.64206607158E+02 -0.17032621892E+03  0.23211408105E+03  0.12500000000E+03 0.  0.
          1    1    1    2  502    0 -0.15737686042E+02  0.17149952370E+02 -0.61037451048E+03  0.61081817153E+03  0.00000000000E+00 0. -1.
         -1    1    1    2    0  501 -0.55805569156E+02  0.47056654789E+02  0.31098100441E+03  0.31943352269E+03  0.00000000000E+00 0.  1.
<mgrwt>
<rscale>  0 0.41354257E+02</rscale>
<asrwt>0</asrwt>
<pdfrwt beam="2">  1        1 0.12554504E+00 0.23276504E+02</pdfrwt>
<pdfrwt beam="1">  1       -1 0.53280466E-01 0.73472140E+02</pdfrwt>
<totfact> 0.95039351E+01</totfact>
</mgrwt>
</event>
<event>
 5    1  0.4149151E-003  0.7886093E+02  0.7546771E-02  0.1380962E+00
          3   -1    0    0  502    0  0.00000000000E+00  0.00000000000E+00  0.24557723571E+02  0.24557723571E+02  0.00000000000E+00 0. -1.
         -3   -1    0    0    0  501 -0.00000000000E+00 -0.00000000000E+00 -0.85190045460E+03  0.85190045460E+03  0.00000000000E+00 0.  1.
         25    1    1    2    0    0 -0.81858419035E+02  0.48425927434E+02 -0.47952818414E+03  0.50459701802E+03  0.12500000000E+03 0.  0.
          3    1    1    2  502    0  0.59136210581E+01 -0.51947806200E+02 -0.10294547701E+03  0.11546132132E+03  0.00000000000E+00 0. -1.
         -3    1    1    2    0  501  0.75944797977E+02  0.35218787661E+01 -0.24486906987E+03  0.25639983882E+03  0.00000000000E+00 0.  1.
<mgrwt>
<rscale>  0 0.64211457E+02</rscale>
<asrwt>0</asrwt>
<pdfrwt beam="1">  1        3 0.37781109E-02 0.52283319E+02</pdfrwt>
<pdfrwt beam="2">  1       -3 0.13106162E+00 0.78860930E+02</pdfrwt>
<totfact> 0.33804279E+02</totfact>
</mgrwt>
</event>
<event>
 5    1  0.4149151E-003  0.2269948E+03  0.7546771E-02  0.1225206E+00
          1   -1    0    0  502    0 -0.00000000000E+00  0.00000000000E+00  0.24664872765E+04  0.24664872765E+04  0.00000000000E+00 0. -1.
          2   -1    0    0  501    0  0.00000000000E+00 -0.00000000000E+00 -0.27728244820E+03  0.27728244820E+03  0.00000000000E+00 0. -1.
         25    1    1    2    0    0 -0.21746519282E+03 -0.13773181393E+03  0.12866139562E+03  0.31375136236E+03  0.12500000000E+03 0.  0.
          2    1    1    2  501    0  0.69016496375E+02 -0.32325971711E+02 -0.17093302523E+03  0.18715326429E+03  0.00000000000E+00 0. -1.
          1    1    1    2  502    0  0.14844869644E+03  0.17005778564E+03  0.22314764579E+04  0.22428650980E+04  0.00000000000E+00 0. -1.
<mgrwt>
<rscale>  0 0.13152828E+03</rscale>
<asrwt>0</asrwt>
<pdfrwt beam="2">  1        2 0.42658840E-01 0.76211844E+02</pdfrwt>
<pdfrwt beam="1">  1        1 0.37945956E+00 0.22699476E+03</pdfrwt>
<totfact> 0.27568460E+01</totfact>
</mgrwt>
</event>
<event>
 5    1  0.4149151E-003  0.4713619E+02  0.7546771E-02  0.1571921E+00
         -2   -1    0    0    0  501 -0.00000000000E+00  0.00000000000E+00  0.16428629898E+02  0.16428629898E+02  0.00000000000E+00 0.  1.
          1   -1    0    0  502    0  0.00000000000E+00 -0.00000000000E+00 -0.10048316255E+04  0.10048316255E+04  0.00000000000E+00 0. -1.
         25    1    1    2    0    0 -0.55703838082E-01  0.49559025836E+02 -0.32413903186E+03  0.35092337073E+03  0.12500000000E+03 0.  0.
          1    1    1    2  502    0  0.21320423850E+02 -0.69301425216E+01 -0.46180374458E+03  0.46234758122E+03  0.00000000000E+00 0. -1.
         -2    1    1    2    0  501 -0.21264720012E+02 -0.42628883314E+02 -0.20246021915E+03  0.20798930345E+03  0.00000000000E+00 0.  1.
<mgrwt>
<rscale>  0 0.32507241E+02</rscale>
<asrwt>0</asrwt>
<pdfrwt beam="2">  1        1 0.15458948E+00 0.22418460E+02</pdfrwt>
<pdfrwt beam="1">  1       -2 0.25274816E-02 0.47136186E+02</pdfrwt>
<totfact> 0.72769130E+03</totfact>
</mgrwt>
</event>
<event>
 5    1  0.4149151E-003  0.2924841E+03  0.7546771E-02  0.1205288E+00
         -1   -1    0    0    0  501 -0.00000000000E+00  0.00000000000E+00  0.23020831398E+03  0.23020831398E+03  0.00000000000E+00 0.  1.
          2   -1    0    0  502    0  0.00000000000E+00 -0.00000000000E+00 -0.17020792119E+04  0.17020792119E+04  0.00000000000E+00 0. -1.
         25    1    1    2    0    0  0.15790867451E+03 -0.23741884269E+03 -0.66955104350E+03  0.73839451258E+03  0.12500000000E+03 0.  0.
          2    1    1    2  502    0 -0.22219694957E+03  0.20277847061E+03 -0.96755541688E+03  0.10132393978E+04  0.00000000000E+00 0. -1.
         -1    1    1    2    0  501  0.64288275053E+02  0.34640372079E+02  0.16523556247E+03  0.18065361550E+03  0.00000000000E+00 0.  1.
<mgrwt>
<rscale>  0 0.14614797E+03</rscale>
<asrwt>0</asrwt>
<pdfrwt beam="2">  1        2 0.26185835E+00 0.29248414E+03</pdfrwt>
<pdfrwt beam="1">  1       -1 0.35416663E-01 0.73026965E+02</pdfrwt>
<totfact> 0.92530142E+01</totfact>
</mgrwt>
</event>
<event>
 5    1  0.4149151E-003  0.4530759E+02  0.7546771E-02  0.1476419E+00
          3   -1    0    0  502    0 -0.00000000000E+00  0.00000000000E+00  0.19127984114E+02  0.19127984114E+02  0.00000000000E+00 0. -1.
          2   -1    0    0  501    0  0.00000000000E+00 -0.00000000000E+00 -0.10077479992E+04  0.10077479992E+04  0.00000000000E+00 0. -1.
         25    1    1    2    0    0  0.36481152685E+01 -0.14591155221E+02 -0.54553257093E+03  0.55987230374E+03  0.12500000000E+03 0.  0.
          2    1    1    2  501    0  0.26319715102E+02  0.46861849316E+02 -0.40566996967E+03  0.40921496138E+03  0.00000000000E+00 0. -1.
          3    1    1    2  502    0 -0.29967830370E+02 -0.32270694095E+02 -0.37417474520E+02  0.57788718224E+02  0.00000000000E+00 0. -1.
<mgrwt>
<rscale>  0 0.44668993E+02</rscale>
<asrwt>0</asrwt>
<pdfrwt beam="2">  1        2 0.15503812E+00 0.45307589E+02</pdfrwt>
<pdfrwt beam="1">  1        3 0.29427674E-02 0.44039398E+02</pdfrwt>
<totfact> 0.71488109E+03</totfact>
</mgrwt>
</event>
<event>
 5    1  0.4149151E-003  0.9103933E+02  0.7546771E-02  0.1424096E+00
          1   -1    0    0  502    0  0.00000000000E+00  0.00000000000E+00  0.24109396971E+03  0.24109396971E+03  0.00000000000E+00 0. -1.
         -2   -1    0    0    0  501 -0.00000000000E+00 -0.00000000000E+00 -0.96560814734E+02  0.96560814734E+02  0.00000000000E+00 0.  1.
         25    1    1    2    0    0 -0.58123461671E+02  0.74542559446E+02  0.14591529899E+03  0.21412894350E+03  0.12500000000E+03 0.  0.
          1    1    1    2  502    0  0.29806904480E+02  0.12246391124E+02 -0.57106218890E-01  0.32224663092E+02  0.00000000000E+00 0. -1.
         -2    1    1    2    0  501  0.28316557191E+02 -0.86788950569E+02 -0.13250377951E+01  0.91301177852E+02  0.00000000000E+00 0.  1.
<mgrwt>
<rscale>  0 0.54163705E+02</rscale>
<asrwt>0</asrwt>
<pdfrwt beam="1">  1        1 0.37091380E-01 0.32224612E+02</pdfrwt>
<pdfrwt beam="2">  1       -2 0.14855510E-01 0.91039325E+02</pdfrwt>
<totfact> 0.32778702E+03</totfact>
</mgrwt>
</event>
<event>
 5    1  0.4149151E-003  0.4919228E+02  0.7546771E-02  0.1496605E+00
          1   -1    0    0  501    0  0.00000000000E+00  0.00000000000E+00  0.32499753814E+03  0.32499753814E+03  0.00000000000E+00 0. -1.
          3   -1    0    0  502    0 -0.00000000000E+00 -0.00000000000E+00 -0.16576682738E+03  0.16576682738E+03  0.00000000000E+00 0. -1.
         25    1    1    2    0    0 -0.63770213257E+02  0.66624859243E+01  0.43447598391E+01  0.14055214604E+03  0.12500000000E+03 0.  0.
          1    1    1    2  501    0  0.25847528596E+02  0.23918419789E+02  0.24513617836E+03  0.24765284469E+03  0.00000000000E+00 0. -1.
          3    1    1    2  502    0  0.37922684661E+02 -0.30580905713E+02 -0.90250227435E+02  0.10255937479E+03  0.00000000000E+00 0. -1.
<mgrwt>
<rscale>  0 0.41621733E+02</rscale>
<asrwt>0</asrwt>
<pdfrwt beam="1">  1        1 0.49999621E-01 0.35216268E+02</pdfrwt>
<pdfrwt beam="2">  1        3 0.25502589E-01 0.49192284E+02</pdfrwt>
<totfact> 0.55521628E+02</totfact>
</mgrwt>
</event>
<event>
 5    1  0.4149151E-003  0.8236451E+02  0.7546771E-02  0.1367970E+00
         -2   -1    0    0    0  501 -0.00000000000E+00  0.00000000000E+00  0.30511894502E+03  0.30511894502E+03  0.00000000000E+00 0.  1.
          1   -1    0    0  502    0  0.00000000000E+00 -0.00000000000E+00 -0.21446489173E+04  0.21446489173E+04  0.00000000000E+00 0. -1.
         25    1    1    2    0    0 -0.36455574672E+02 -0.10387957818E+03  0.58737813942E+01  0.16667176424E+03  0.12500000000E+03 0.  0.
          1    1    1    2  502    0 -0.14321952759E+02  0.80977033662E+02 -0.20598715896E+04  0.20615123972E+04  0.00000000000E+00 0. -1.
         -2    1    1    2    0  501  0.50777527432E+02  0.22902544520E+02  0.21446783592E+03  0.22158370085E+03  0.00000000000E+00 0.  1.
<mgrwt>
<rscale>  0 0.67734735E+02</rscale>
<asrwt>0</asrwt>
<pdfrwt beam="2">  1        1 0.32994599E+00 0.82364510E+02</pdfrwt>
<pdfrwt beam="1">  1       -2 0.46941376E-01 0.55703535E+02</pdfrwt>
<totfact> 0.12198827E+01</totfact>
</mgrwt>
</event>
<event>
 5    1  0.4149151E-003  0.6985659E+02  0.7546771E-02  0.1387116E+00
          1   -1    0    0  502    0 -0.00000000000E+00  0.00000000000E+00  0.18726560167E+04  0.18726560167E+04  0.00000000000E+00 0.  1.
          2   -1    0    0  501    0  0.00000000000E+00 -0.00000000000E+00 -0.94584564554E+03  0.94584564554E+03  0.00000000000E+00 0. -1.
         25    1    1    2    0    0  0.15505783966E+02 -0.67424455232E+01 -0.11598883389E+03  0.17136014559E+03  0.12500000000E+03 0.  0.
          2    1    1    2  501    0 -0.68158274929E+02  0.26251095508E+02 -0.80008008581E+03  0.80340700406E+03  0.00000000000E+00 0. -1.
          1    1    1    2  502    0  0.52652490963E+02 -0.19508649985E+02  0.18428792908E+04  0.18437345126E+04  0.00000000000E+00 0.  1.
<mgrwt>
<rscale>  0 0.62629692E+02</rscale>
<asrwt>0</asrwt>
<pdfrwt beam="2">  1        2 0.14551471E+00 0.69856587E+02</pdfrwt>
<pdfrwt beam="1">  1        1 0.28810093E+00 0.56150443E+02</pdfrwt>
<totfact> 0.20340206E+01</totfact>
</mgrwt>
</event>
<event>
 5    1  0.4149151E-003  0.3973070E+02  0.7546771E-02  0.1531325E+00
         -2   -1    0    0    0  501 -0.00000000000E+00  0.00000000000E+00  0.36830742828E+02  0.36830742828E+02  0.00000000000E+00 0.  1.
          3   -1    0    0  502    0  0.00000000000E+00 -0.00000000000E+00 -0.13364289996E+04  0.13364289996E+04  0.00000000000E+00 0. -1.
         25    1    1    2    0    0  0.17887917795E+02 -0.43507320124E+01 -0.15243727953E+03  0.19799250153E+03  0.12500000000E+03 0.  0.
          3    1    1    2  502    0 -0.12042301185E+02  0.38354317135E+02 -0.11391343811E+04  0.11398435020E+04  0.00000000000E+00 0. -1.
         -2    1    1    2    0  501 -0.58456166104E+01 -0.34003585123E+02 -0.80265960909E+01  0.35423738927E+02  0.00000000000E+00 0.  1.
<mgrwt>
<rscale>  0 0.37024371E+02</rscale>
<asrwt>0</asrwt>
<pdfrwt beam="2">  1        3 0.20560447E+00 0.39730697E+02</pdfrwt>
<pdfrwt beam="1">  1       -2 0.56662678E-02 0.34502392E+02</pdfrwt>
<totfact> 0.83150611E+01</totfact>
</mgrwt>
</event>
<event>
 5    1  0.4149151E-003  0.4922853E+03  0.7546771E-02  0.1189680E+00
          1   -1    0    0  502    0 -0.00000000000E+00  0.00000000000E+00  0.91695397682E+03  0.91695397682E+03  0.00000000000E+00 0. -1.
          2   -1    0    0  501    0  0.00000000000E+00 -0.00000000000E+00 -0.11939315999E+04  0.11939315999E+04  0.00000000000E+00 0. -1.
         25    1    1    2    0    0 -0.29410183491E+03 -0.38083518784E+03  0.30815785785E+03  0.58490819361E+03  0.12500000000E+03 0.  0.
          2    1    1    2  501    0  0.24489902170E+02 -0.45235893709E+02 -0.91952461304E+03  0.92096229856E+03  0.00000000000E+00 0. -1.
          1    1    1    2  502    0  0.26961193274E+03  0.42607108155E+03  0.33438913214E+03  0.60501508452E+03  0.00000000000E+00 0. -1.
<mgrwt>
<rscale>  0 0.15913202E+03</rscale>
<asrwt>0</asrwt>
<pdfrwt beam="2">  1        2 0.18368178E+00 0.51439687E+02</pdfrwt>
<pdfrwt beam="1">  1        1 0.14106984E+00 0.49228527E+03</pdfrwt>
<totfact> 0.55251396E+01</totfact>
</mgrwt>
</event>
<event>
 5    1  0.5222893E-003  0.1251806E+03  0.7546771E-02  0.1370402E+00
         -2   -1    0    0    0  501 -0.00000000000E+00  0.00000000000E+00  0.16143789775E+02  0.16143789775E+02  0.00000000000E+00 0.  1.
          1   -1    0    0  502    0  0.00000000000E+00 -0.00000000000E+00 -0.19022129739E+04  0.19022129739E+04  0.00000000000E+00 0. -1.
         25    1    1    2    0    0  0.66416937146E+02 -0.12374553193E+03 -0.96728571086E+03  0.98538866071E+03  0.12500000000E+03 0.  0.
          1    1    1    2  502    0 -0.77964463139E+02  0.89732500083E+02 -0.80270746846E+03  0.81146143408E+03  0.00000000000E+00 0. -1.
         -2    1    1    2    0  501  0.11547525994E+02  0.34013031851E+02 -0.11607600482E+03  0.12150666890E+03  0.00000000000E+00 0.  1.
<mgrwt>
<rscale>  0 0.67055671E+02</rscale>
<asrwt>0</asrwt>
<pdfrwt beam="2">  1        1 0.29264809E+00 0.12518064E+03</pdfrwt>
<pdfrwt beam="1">  1       -2 0.24836605E-02 0.35919795E+02</pdfrwt>
<totfact> 0.16279350E+03</totfact>
</mgrwt>
</event>
<event>
 5    1  0.4149151E-003  0.1584896E+03  0.7546771E-02  0.1265188E+00
          1   -1    0    0  502    0 -0.00000000000E+00  0.00000000000E+00  0.96848501206E+03  0.96848501206E+03  0.00000000000E+00 0. -1.
          2   -1    0    0  501    0  0.00000000000E+00 -0.00000000000E+00 -0.18114174163E+04  0.18114174163E+04  0.00000000000E+00 0. -1.
         25    1    1    2    0    0  0.33904919527E+02 -0.84513951986E+02 -0.70344425638E+02  0.16989846929E+03  0.12500000000E+03 0.  0.
          2    1    1    2  501    0 -0.54999219695E+02  0.15437206957E+03 -0.16858674906E+04  0.16938136987E+04  0.00000000000E+00 0. -1.
          1    1    1    2  502    0  0.21094300169E+02 -0.69858117585E+02  0.91327951202E+03  0.91619026035E+03  0.00000000000E+00 0. -1.
<mgrwt>
<rscale>  0 0.10754317E+03</rscale>
<asrwt>0</asrwt>
<pdfrwt beam="2">  1        2 0.27867960E+00 0.15848958E+03</pdfrwt>
<pdfrwt beam="1">  1        1 0.14899769E+00 0.72973462E+02</pdfrwt>
<totfact> 0.24737300E+01</totfact>
</mgrwt>
</event>
<event>
 5    1  0.4149151E-003  0.1093506E+03  0.7546771E-02  0.1321395E+00
          3   -1    0    0  502    0 -0.00000000000E+00  0.00000000000E+00  0.32748661007E+03  0.32748661007E+03  0.00000000000E+00 0. -1.
          2   -1    0    0  501    0  0.00000000000E+00 -0.00000000000E+00 -0.54519971065E+03  0.54519971065E+03  0.00000000000E+00 0. -1.
         25    1    1    2    0    0 -0.39972829565E+02 -0.80763309983E+02 -0.17572838854E+03  0.23372206974E+03  0.12500000000E+03 0.  0.
          2    1    1    2  501    0  0.55378907288E+02 -0.29265382545E+02 -0.32706018654E+03  0.33300398137E+03  0.00000000000E+00 0. -1.
          3    1    1    2  502    0 -0.15406077723E+02  0.11002869253E+03  0.28507547451E+03  0.30596026961E+03  0.00000000000E+00 0. -1.
<mgrwt>
<rscale>  0 0.82760478E+02</rscale>
<asrwt>0</asrwt>
<pdfrwt beam="2">  1        2 0.83876877E-01 0.62636140E+02</pdfrwt>
<pdfrwt beam="1">  1        3 0.50382556E-01 0.10935056E+03</pdfrwt>
<totfact> 0.13705192E+02</totfact>
</mgrwt>
</event>
<event>
 5    1  0.4149151E-003  0.1011606E+03  0.7546771E-02  0.1399950E+00
          2   -1    0    0  502    0  0.00000000000E+00  0.00000000000E+00  0.52586167917E+03  0.52586167917E+03  0.00000000000E+00 0. -1.
         -3   -1    0    0    0  501 -0.00000000000E+00 -0.00000000000E+00 -0.24900574318E+03  0.24900574318E+03  0.00000000000E+00 0.  1.
         25    1    1    2    0    0 -0.81279616920E+02  0.21932379742E+01  0.71478251440E+02  0.16536422481E+03  0.12500000000E+03 0.  0.
          2    1    1    2  502    0  0.99352116831E+02 -0.32159489115E+02  0.39915618495E+03  0.41259027599E+03  0.00000000000E+00 0. -1.
         -3    1    1    2    0  501 -0.18072499911E+02  0.29966251141E+02 -0.19377850040E+03  0.19691292156E+03  0.00000000000E+00 0.  1.
<mgrwt>
<rscale>  0 0.59498165E+02</rscale>
<asrwt>0</asrwt>
<pdfrwt beam="1">  1        2 0.80901797E-01 0.10116063E+03</pdfrwt>
<pdfrwt beam="2">  1       -3 0.38308576E-01 0.34994163E+02</pdfrwt>
<totfact> 0.22015743E+02</totfact>
</mgrwt>
</event>
<event>
 5    1  0.4149151E-003  0.7149262E+02  0.7546771E-02  0.1454671E+00
          2   -1    0    0  502    0  0.00000000000E+00  0.00000000000E+00  0.13032926776E+02  0.13032926776E+02  0.00000000000E+00 0. -1.
         -2   -1    0    0    0  501 -0.00000000000E+00 -0.00000000000E+00 -0.19872392129E+04  0.19872392129E+04  0.00000000000E+00 0.  1.
         25    1    1    2    0    0 -0.29585341332E+02  0.73689165524E+02 -0.50639972820E+03  0.52760882315E+03  0.12500000000E+03 0.  0.
          2    1    1    2  502    0  0.33240973738E+02 -0.41248603721E+02 -0.13295420769E+04  0.13305970630E+04  0.00000000000E+00 0. -1.
         -2    1    1    2    0  501 -0.36556324060E+01 -0.32440561804E+02 -0.13826448099E+03  0.14206625357E+03  0.00000000000E+00 0.  1.
<mgrwt>
<rscale>  0 0.48310867E+02</rscale>
<asrwt>0</asrwt>
<pdfrwt beam="1">  1        2 0.20050668E-02 0.71492624E+02</pdfrwt>
<pdfrwt beam="2">  1       -2 0.30572894E+00 0.32645883E+02</pdfrwt>
<totfact> 0.20231528E+02</totfact>
</mgrwt>
</event>
<event>
 5    1  0.4149151E-003  0.8853072E+02  0.7546771E-02  0.1370124E+00
          1   -1    0    0  502    0  0.00000000000E+00  0.00000000000E+00  0.16777378727E+03  0.16777378727E+03  0.00000000000E+00 0. -1.
          1   -1    0    0  501    0 -0.00000000000E+00 -0.00000000000E+00 -0.18105142074E+04  0.18105142074E+04  0.00000000000E+00 0. -1.
         25    1    1    2    0    0 -0.39653496362E+02 -0.52896945073E+02 -0.27443688786E+03  0.30872494553E+03  0.12500000000E+03 0.  0.
          1    1    1    2  501    0 -0.45353997028E+02  0.23119555109E+02 -0.15049992714E+04  0.15058599888E+04  0.00000000000E+00 0. -1.
          1    1    1    2  502    0  0.85007493389E+02  0.29777389964E+02  0.13669573912E+03  0.16370306038E+03  0.00000000000E+00 0. -1.
<mgrwt>
<rscale>  0 0.67132801E+02</rscale>
<asrwt>0</asrwt>
<pdfrwt beam="1">  1        1 0.25811351E-01 0.88530725E+02</pdfrwt>
<pdfrwt beam="2">  1        1 0.27854066E+00 0.50906766E+02</pdfrwt>
<totfact> 0.11607873E+02</totfact>
</mgrwt>
</event>
<event>
 5    1  0.4149151E-003  0.1254717E+03  0.7546771E-02  0.1397357E+00
         -1   -1    0    0    0  501 -0.00000000000E+00  0.00000000000E+00  0.41382950606E+03  0.41382950606E+03  0.00000000000E+00 0.  1.
          2   -1    0    0  502    0  0.00000000000E+00 -0.00000000000E+00 -0.35597584457E+03  0.35597584457E+03  0.00000000000E+00 0.  1.
         25    1    1    2    0    0  0.88932837020E+02  0.74581955598E+02 -0.22461002907E+03  0.28203932839E+03  0.12500000000E+03 0.  0.
          2    1    1    2  502    0  0.23164911730E+02 -0.17112372146E+02 -0.90042601426E+02  0.94536323641E+02  0.00000000000E+00 0.  1.
         -1    1    1    2    0  501 -0.11209774875E+03 -0.57469583452E+02  0.37250629198E+03  0.39322969860E+03  0.00000000000E+00 0.  1.
<mgrwt>
<rscale>  0 0.60113219E+02</rscale>
<asrwt>0</asrwt>
<pdfrwt beam="2">  1        2 0.54765514E-01 0.28800111E+02</pdfrwt>
<pdfrwt beam="1">  1       -1 0.63666078E-01 0.12547170E+03</pdfrwt>
<totfact> 0.27284933E+02</totfact>
</mgrwt>
</event>
<event>
 5    1  0.4149151E-003  0.7307216E+02  0.7546771E-02  0.1410710E+00
          2   -1    0    0  502    0  0.00000000000E+00  0.00000000000E+00  0.51025264378E+03  0.51025264378E+03  0.00000000000E+00 0.  1.
          2   -1    0    0  501    0 -0.00000000000E+00 -0.00000000000E+00 -0.10859418624E+04  0.10859418624E+04  0.00000000000E+00 0.  1.
         25    1    1    2    0    0 -0.78223926266E+02 -0.58169671473E+02  0.39301787472E+02  0.16331663669E+03  0.12500000000E+03 0.  0.
          2    1    1    2  501    0  0.71488885642E+02  0.14163526550E+02 -0.10214206600E+04  0.10240173002E+04  0.00000000000E+00 0.  1.
          2    1    1    2  502    0  0.67350406233E+01  0.44006144923E+02  0.40642965394E+03  0.40886056935E+03  0.00000000000E+00 0.  1.
<mgrwt>
<rscale>  0 0.57035665E+02</rscale>
<asrwt>0</asrwt>
<pdfrwt beam="1">  1        2 0.78500408E-01 0.44518553E+02</pdfrwt>
<pdfrwt beam="2">  1        2 0.16706798E+00 0.73072165E+02</pdfrwt>
<totfact> 0.24387500E+02</totfact>
</mgrwt>
</event>
<event>
 5    1  0.4149151E-003  0.1240763E+03  0.7546771E-02  0.1269167E+00
          2   -1    0    0  501    0  0.00000000000E+00  0.00000000000E+00  0.18963733353E+04  0.18963733353E+04  0.00000000000E+00 0. -1.
          1   -1    0    0  502    0 -0.00000000000E+00 -0.00000000000E+00 -0.15311342898E+04  0.15311342898E+04  0.00000000000E+00 0. -1.
         25    1    1    2    0    0  0.83153477271E+02 -0.19019985171E+03  0.82056553161E+02  0.25582955711E+03  0.12500000000E+03 0.  0.
          2    1    1    2  501    0 -0.14187930258E+02  0.88550008512E+02  0.17236505783E+04  0.17259819574E+04  0.00000000000E+00 0. -1.
          1    1    1    2  502    0 -0.68965547013E+02  0.10164984320E+03 -0.14404680860E+04  0.14456961105E+04  0.00000000000E+00 0. -1.
<mgrwt>
<rscale>  0 0.10548502E+03</rscale>
<asrwt>0</asrwt>
<pdfrwt beam="1">  1        2 0.29174974E+00 0.89679437E+02</pdfrwt>
<pdfrwt beam="2">  1        1 0.23555912E+00 0.12407627E+03</pdfrwt>
<totfact> 0.95103806E+00</totfact>
</mgrwt>
</event>
<event>
 5    1  0.4149151E-003  0.1822564E+03  0.7546771E-02  0.1259514E+00
          2   -1    0    0  502    0  0.00000000000E+00  0.00000000000E+00  0.19310676388E+04  0.19310676388E+04  0.00000000000E+00 0. -1.
         -3   -1    0    0    0  501 -0.00000000000E+00 -0.00000000000E+00 -0.35794464320E+02  0.35794464320E+02  0.00000000000E+00 0.  1.
         25    1    1    2    0    0  0.66278904377E+02  0.11848317956E+03  0.10268074311E+04  0.10432591517E+04  0.12500000000E+03 0.  0.
          2    1    1    2  502    0  0.11571232803E+02  0.66076831998E+02  0.49759070457E+03  0.50209217324E+03  0.00000000000E+00 0. -1.
         -3    1    1    2    0  501 -0.77850137180E+02 -0.18456001155E+03  0.37087503880E+03  0.42151077819E+03  0.00000000000E+00 0.  1.
<mgrwt>
<rscale>  0 0.11057210E+03</rscale>
<asrwt>0</asrwt>
<pdfrwt beam="1">  1        2 0.29708725E+00 0.67082346E+02</pdfrwt>
<pdfrwt beam="2">  1       -3 0.55068422E-02 0.18225645E+03</pdfrwt>
<totfact> 0.11149166E+03</totfact>
</mgrwt>
</event>
<event>
 5    1  0.4149151E-003  0.4885432E+02  0.7546771E-02  0.1488447E+00
          2   -1    0    0  502    0  0.00000000000E+00  0.00000000000E+00  0.52768259939E+03  0.52768259939E+03  0.00000000000E+00 0. -1.
         -1   -1    0    0    0  501 -0.00000000000E+00 -0.00000000000E+00 -0.38930710595E+02  0.38930710595E+02  0.00000000000E+00 0.  1.
         25    1    1    2    0    0 -0.49308447802E+02 -0.57616524661E+01  0.43405450779E+03  0.45441482744E+03  0.12500000000E+03 0.  0.
          2    1    1    2  502    0  0.45475876676E+02 -0.31568404869E+02  0.49597600089E+02  0.74327259334E+02  0.00000000000E+00 0. -1.
         -1    1    1    2    0  501  0.38325711264E+01  0.37330057336E+02  0.50997809156E+01  0.37871223211E+02  0.00000000000E+00 0.  1.
<mgrwt>
<rscale>  0 0.42817296E+02</rscale>
<asrwt>0</asrwt>
<pdfrwt beam="1">  1        2 0.81181933E-01 0.48854318E+02</pdfrwt>
<pdfrwt beam="2">  1       -1 0.59893405E-02 0.37526281E+02</pdfrwt>
<totfact> 0.76747100E+03</totfact>
</mgrwt>
</event>
<event>
 5    1  0.4149151E-003  0.9551254E+02  0.7546771E-02  0.1313243E+00
         -1   -1    0    0    0  501 -0.00000000000E+00  0.00000000000E+00  0.26816779443E+03  0.26816779443E+03  0.00000000000E+00 0.  1.
          1   -1    0    0  502    0  0.00000000000E+00 -0.00000000000E+00 -0.14603883912E+04  0.14603883912E+04  0.00000000000E+00 0. -1.
         25    1    1    2    0    0 -0.15242874526E+03 -0.70839824954E+02 -0.33463786931E+03  0.39479147250E+03  0.12500000000E+03 0.  0.
          1    1    1    2  502    0  0.82520427237E+02  0.38200990282E+02 -0.10874756673E+04  0.10912709396E+04  0.00000000000E+00 0. -1.
         -1    1    1    2    0  501  0.69908318021E+02  0.32638834672E+02  0.22989293981E+03  0.24249377359E+03  0.00000000000E+00 0.  1.
<mgrwt>
<rscale>  0 0.85842912E+02</rscale>
<asrwt>0</asrwt>
<pdfrwt beam="2">  1        1 0.22467514E+00 0.95512542E+02</pdfrwt>
<pdfrwt beam="1">  1       -1 0.41256583E-01 0.77152229E+02</pdfrwt>
<totfact> 0.49371741E+01</totfact>
</mgrwt>
</event>
<event>
 5    1  0.4149151E-003  0.1298787E+03  0.7546771E-02  0.1273304E+00
         -1   -1    0    0    0  501  0.00000000000E+00  0.00000000000E+00  0.43243518296E+03  0.43243518296E+03  0.00000000000E+00 0.  1.
         -1   -1    0    0    0  502 -0.00000000000E+00 -0.00000000000E+00 -0.19289488832E+03  0.19289488832E+03  0.00000000000E+00 0.  1.
         25    1    1    2    0    0 -0.19702308735E+02  0.16228836199E+03 -0.49959235474E+02  0.21177020238E+03  0.12500000000E+03 0.  0.
         -1    1    1    2    0  501 -0.44416413742E+02 -0.69309125890E+02  0.28912445193E+03  0.30061523821E+03  0.00000000000E+00 0.  1.
         -1    1    1    2    0  502  0.64118722477E+02 -0.92979236098E+02  0.37507818052E+00  0.11294463069E+03  0.00000000000E+00 0.  1.
<mgrwt>
<rscale>  0 0.10340021E+03</rscale>
<asrwt>0</asrwt>
<pdfrwt beam="1">  1       -1 0.66528489E-01 0.82319941E+02</pdfrwt>
<pdfrwt beam="2">  1       -1 0.29676137E-01 0.12987867E+03</pdfrwt>
<totfact> 0.21274718E+02</totfact>
</mgrwt>
</event>
<event>
 5    1  0.4149151E-003  0.7802644E+02  0.7546771E-02  0.1379086E+00
          2   -1    0    0  502    0  0.00000000000E+00  0.00000000000E+00  0.45835550728E+03  0.45835550728E+03  0.00000000000E+00 0.  1.
         -1   -1    0    0    0  501 -0.00000000000E+00 -0.00000000000E+00 -0.25389435637E+03  0.25389435637E+03  0.00000000000E+00 0.  1.
         25    1    1    2    0    0  0.46014904994E+02  0.20592515340E+02  0.53367476278E+02  0.14496382547E+03  0.12500000000E+03 0.  0.
          2    1    1    2  502    0 -0.10824348015E+02  0.52554321054E+02  0.34914599250E+03  0.35324502438E+03  0.00000000000E+00 0.  1.
         -1    1    1    2    0  501 -0.35190556980E+02 -0.73146836394E+02 -0.19805231787E+03  0.21404101380E+03  0.00000000000E+00 0.  1.
<mgrwt>
<rscale>  0 0.64704719E+02</rscale>
<asrwt>0</asrwt>
<pdfrwt beam="1">  1        2 0.70516232E-01 0.53657461E+02</pdfrwt>
<pdfrwt beam="2">  1       -1 0.39060670E-01 0.78026440E+02</pdfrwt>
<totfact> 0.51314237E+02</totfact>
</mgrwt>
</event>
<event>
 5    1  0.4149151E-003  0.3836314E+02  0.7546771E-02  0.1609522E+00
          3   -1    0    0  502    0 -0.00000000000E+00  0.00000000000E+00  0.18784457232E+03  0.18784457232E+03  0.00000000000E+00 0. -1.
          2   -1    0    0  501    0  0.00000000000E+00 -0.00000000000E+00 -0.22681720110E+03  0.22681720110E+03  0.00000000000E+00 0. -1.
         25    1    1    2    0    0 -0.19836383499E+02  0.35034046034E+02 -0.25986981923E+02  0.13387004789E+03  0.12500000000E+03 0.  0.
          2    1    1    2  501    0 -0.17938498404E+01 -0.38511078021E+02 -0.14342972920E+03  0.14852073339E+03  0.00000000000E+00 0. -1.
          3    1    1    2  502    0  0.21630233340E+02  0.34770319867E+01  0.13044408234E+03  0.13227099214E+03  0.00000000000E+00 0. -1.
<mgrwt>
<rscale>  0 0.28990625E+02</rscale>
<asrwt>0</asrwt>
<pdfrwt beam="2">  1        2 0.34894954E-01 0.38363137E+02</pdfrwt>
<pdfrwt beam="1">  1        3 0.28899165E-01 0.21907915E+02</pdfrwt>
<totfact> 0.82269817E+02</totfact>
</mgrwt>
</event>
<event>
 5    1  0.4149151E-003  0.9855757E+02  0.7546771E-02  0.1329733E+00
          1   -1    0    0  501    0  0.00000000000E+00  0.00000000000E+00  0.43085801785E+03  0.43085801785E+03  0.00000000000E+00 0. -1.
          3   -1    0    0  502    0 -0.00000000000E+00 -0.00000000000E+00 -0.12595226219E+03  0.12595226219E+03  0.00000000000E+00 0. -1.
         25    1    1    2    0    0  0.50674765802E+02  0.44948095217E+02  0.24294646974E+02  0.14423416039E+03  0.12500000000E+03 0.  0.
          1    1    1    2  501    0  0.64530065543E+02 -0.15354283609E+01  0.28216437352E+03  0.28945331331E+03  0.00000000000E+00 0. -1.
          3    1    1    2  502    0 -0.11520483134E+03 -0.43412666856E+02 -0.15532648298E+01  0.12312280634E+03  0.00000000000E+00 0. -1.
<mgrwt>
<rscale>  0 0.79760432E+02</rscale>
<asrwt>0</asrwt>
<pdfrwt beam="1">  1        1 0.66285848E-01 0.64548330E+02</pdfrwt>
<pdfrwt beam="2">  1        3 0.19377271E-01 0.98557570E+02</pdfrwt>
<totfact> 0.68288870E+02</totfact>
</mgrwt>
</event>
<event>
 5    1  0.4149151E-003  0.1011339E+03  0.7546771E-02  0.1365823E+00
          1   -1    0    0  502    0 -0.00000000000E+00  0.00000000000E+00  0.84170774986E+03  0.84170774986E+03  0.00000000000E+00 0. -1.
          2   -1    0    0  501    0  0.00000000000E+00 -0.00000000000E+00 -0.69164688313E+03  0.69164688313E+03  0.00000000000E+00 0.  1.
         25    1    1    2    0    0  0.12872260328E+02  0.56392536956E+02 -0.13486989219E+03  0.19277111072E+03  0.12500000000E+03 0.  0.
          2    1    1    2  501    0 -0.79813598111E+01  0.45488138222E+02 -0.52360589711E+03  0.52563866707E+03  0.00000000000E+00 0.  1.
          1    1    1    2  502    0 -0.48909005169E+01 -0.10188067518E+03  0.80853665603E+03  0.81494485520E+03  0.00000000000E+00 0. -1.
<mgrwt>
<rscale>  0 0.68342311E+02</rscale>
<asrwt>0</asrwt>
<pdfrwt beam="2">  1        2 0.10640721E+00 0.46183036E+02</pdfrwt>
<pdfrwt beam="1">  1        1 0.12949350E+00 0.10113392E+03</pdfrwt>
<totfact> 0.13772371E+02</totfact>
</mgrwt>
</event>
<event>
 5    1  0.4149151E-003  0.8294828E+02  0.7546771E-02  0.1376378E+00
          2   -1    0    0  502    0  0.00000000000E+00  0.00000000000E+00  0.20287772788E+04  0.20287772788E+04  0.00000000000E+00 0.  1.
         -1   -1    0    0    0  501 -0.00000000000E+00 -0.00000000000E+00 -0.24830821889E+02  0.24830821889E+02  0.00000000000E+00 0.  1.
         25    1    1    2    0    0 -0.12062000268E+03  0.30705128164E+02  0.53122473938E+03  0.55974700863E+03  0.12500000000E+03 0.  0.
          2    1    1    2  502    0  0.50421619911E+02 -0.10986017702E+02  0.13508985218E+04  0.13518838147E+04  0.00000000000E+00 0.  1.
         -1    1    1    2    0  501  0.70198382773E+02 -0.19719110462E+02  0.12182319582E+03  0.14197727741E+03  0.00000000000E+00 0.  1.
<mgrwt>
<rscale>  0 0.65425615E+02</rscale>
<asrwt>0</asrwt>
<pdfrwt beam="1">  1        2 0.31211945E+00 0.51604577E+02</pdfrwt>
<pdfrwt beam="2">  1       -1 0.38201280E-02 0.82948285E+02</pdfrwt>
<totfact> 0.22986294E+03</totfact>
</mgrwt>
</event>
<event>
 5    1  0.4149151E-003  0.4742976E+02  0.7546771E-02  0.1510661E+00
          1   -1    0    0  502    0  0.00000000000E+00  0.00000000000E+00  0.18594721990E+04  0.18594721990E+04  0.00000000000E+00 0. -1.
          1   -1    0    0  501    0 -0.00000000000E+00 -0.00000000000E+00 -0.60834279556E+03  0.60834279556E+03  0.00000000000E+00 0. -1.
         25    1    1    2    0    0 -0.52617440970E+02  0.28579790201E+02 -0.14779663193E+03  0.20261846883E+03  0.12500000000E+03 0.  0.
          1    1    1    2  501    0  0.47106902899E+02  0.41374951177E+01 -0.43169378627E+03  0.43427606919E+03  0.00000000000E+00 0. -1.
          1    1    1    2  502    0  0.55105380712E+01 -0.32717285319E+02  0.18306198216E+04  0.18309204565E+04  0.00000000000E+00 0. -1.
<mgrwt>
<rscale>  0 0.39669002E+02</rscale>
<asrwt>0</asrwt>
<pdfrwt beam="1">  1        1 0.28607264E+00 0.33178107E+02</pdfrwt>
<pdfrwt beam="2">  1        1 0.93591200E-01 0.47429762E+02</pdfrwt>
<totfact> 0.23546934E+01</totfact>
</mgrwt>
</event>
<event>
 5    1  0.4149151E-003  0.8141858E+02  0.7546771E-02  0.1387974E+00
          1   -1    0    0  502    0  0.00000000000E+00  0.00000000000E+00  0.31845998294E+03  0.31845998294E+03  0.00000000000E+00 0. -1.
          1   -1    0    0  501    0 -0.00000000000E+00 -0.00000000000E+00 -0.11936707193E+03  0.11936707193E+03  0.00000000000E+00 0. -1.
         25    1    1    2    0    0 -0.12407600409E+03  0.63201640760E-01  0.17323038265E+03  0.24703972202E+03  0.12500000000E+03 0.  0.
          1    1    1    2  501    0  0.77004503345E+02  0.85033015130E+01 -0.56259067064E+02  0.95744881320E+02  0.00000000000E+00 0. -1.
          1    1    1    2  502    0  0.47071500742E+02 -0.85665031538E+01  0.82121595422E+02  0.95042451531E+02  0.00000000000E+00 0. -1.
<mgrwt>
<rscale>  0 0.62413491E+02</rscale>
<asrwt>0</asrwt>
<pdfrwt beam="1">  1        1 0.48993843E-01 0.47844657E+02</pdfrwt>
<pdfrwt beam="2">  1        1 0.18364165E-01 0.81418578E+02</pdfrwt>
<totfact> 0.26534740E+03</totfact>
</mgrwt>
</event>
<event>
 5    1  0.4149151E-003  0.2890416E+02  0.7546771E-02  0.1658141E+00
         -2   -1    0    0    0  501 -0.00000000000E+00  0.00000000000E+00  0.83867563616E+02  0.83867563616E+02  0.00000000000E+00 0.  1.
          2   -1    0    0  502    0  0.00000000000E+00 -0.00000000000E+00 -0.31913410202E+03  0.31913410202E+03  0.00000000000E+00 0. -1.
         25    1    1    2    0    0  0.47119571521E+02  0.15718504404E+02 -0.46710367843E+02  0.14238744279E+03  0.12500000000E+03 0.  0.
          2    1    1    2  502    0 -0.21024417255E+02 -0.63799503706E+01 -0.21862165715E+03  0.21972291384E+03  0.00000000000E+00 0. -1.
         -2    1    1    2    0  501 -0.26095154266E+02 -0.93385540330E+01  0.30065486598E+02  0.40891309003E+02  0.00000000000E+00 0.  1.
<mgrwt>
<rscale>  0 0.25200330E+02</rscale>
<asrwt>0</asrwt>
<pdfrwt beam="2">  1        2 0.49097554E-01 0.21971115E+02</pdfrwt>
<pdfrwt beam="1">  1       -2 0.12902702E-01 0.28904161E+02</pdfrwt>
<totfact> 0.38376163E+03</totfact>
</mgrwt>
</event>
<event>
 5    1  0.4149151E-003  0.7754618E+02  0.7546771E-02  0.1451193E+00
          2   -1    0    0  501    0  0.00000000000E+00  0.00000000000E+00  0.74912245403E+03  0.74912245403E+03  0.00000000000E+00 0. -1.
          1   -1    0    0  502    0 -0.00000000000E+00 -0.00000000000E+00 -0.11414702219E+03  0.11414702219E+03  0.00000000000E+00 0. -1.
         25    1    1    2    0    0 -0.16959664158E+02  0.44678524397E+02  0.44955343275E+03  0.46904913351E+03  0.12500000000E+03 0.  0.
          2    1    1    2  501    0 -0.14535293173E+02  0.27239956861E+02  0.27406962219E+03  0.27580327736E+03  0.00000000000E+00 0. -1.
          1    1    1    2  502    0  0.31494957331E+02 -0.71918481258E+02 -0.88647623095E+02  0.11841706534E+03  0.00000000000E+00 0. -1.
<mgrwt>
<rscale>  0 0.48931267E+02</rscale>
<asrwt>0</asrwt>
<pdfrwt beam="1">  1        2 0.11524961E+00 0.30875395E+02</pdfrwt>
<pdfrwt beam="2">  1        1 0.17561081E-01 0.77546179E+02</pdfrwt>
<totfact> 0.16280130E+03</totfact>
</mgrwt>
</event>
<event>
 5    1  0.4149151E-003  0.3697735E+03  0.7546771E-02  0.1194836E+00
          2   -1    0    0  502    0  0.00000000000E+00  0.00000000000E+00  0.20726345078E+04  0.20726345078E+04  0.00000000000E+00 0. -1.
         -2   -1    0    0    0  501 -0.00000000000E+00 -0.00000000000E+00 -0.38212242175E+03  0.38212242175E+03  0.00000000000E+00 0.  1.
         25    1    1    2    0    0  0.14034891013E+03 -0.39085867496E+03  0.12458120770E+04  0.13191440602E+04  0.12500000000E+03 0.  0.
          2    1    1    2  502    0  0.20267077456E+02  0.61448870232E+02  0.69102168008E+03  0.69404443692E+03  0.00000000000E+00 0. -1.
         -2    1    1    2    0  501 -0.16061598758E+03  0.32940980473E+03 -0.24632167101E+03  0.44156843244E+03  0.00000000000E+00 0.  1.
<mgrwt>
<rscale>  0 0.15468076E+03</rscale>
<asrwt>0</asrwt>
<pdfrwt beam="1">  1        2 0.31886684E+00 0.64704854E+02</pdfrwt>
<pdfrwt beam="2">  1       -2 0.58788066E-01 0.36977346E+03</pdfrwt>
<totfact> 0.22222070E+01</totfact>
</mgrwt>
</event>
<event>
 5    1  0.4149151E-003  0.6420966E+02  0.7546771E-02  0.1467839E+00
          2   -1    0    0  501    0  0.00000000000E+00  0.00000000000E+00  0.91711144350E+03  0.91711144350E+03  0.00000000000E+00 0.  1.
          1   -1    0    0  502    0 -0.00000000000E+00 -0.00000000000E+00 -0.32043715564E+03  0.32043715564E+03  0.00000000000E+00 0. -1.
         25    1    1    2    0    0  0.20009332591E+02  0.81713474348E+02  0.12591131734E+03  0.19635713665E+03  0.12500000000E+03 0.  0.
          2    1    1    2  501    0 -0.35739753290E+02 -0.52660109280E+02  0.75367475112E+03  0.75635708997E+03  0.00000000000E+00 0.  1.
          1    1    1    2  502    0  0.15730420698E+02 -0.29053365069E+02 -0.28291178061E+03  0.28483437251E+03  0.00000000000E+00 0. -1.
<mgrwt>
<rscale>  0 0.46058575E+02</rscale>
<asrwt>0</asrwt>
<pdfrwt beam="1">  1        2 0.14109407E+00 0.64209656E+02</pdfrwt>
<pdfrwt beam="2">  1        1 0.49298025E-01 0.33038525E+02</pdfrwt>
<totfact> 0.34903943E+02</totfact>
</mgrwt>
</event>
<event>
 5    1  0.4149151E-003  0.4486864E+02  0.7546771E-02  0.1528925E+00
          2   -1    0    0  502    0  0.00000000000E+00  0.00000000000E+00  0.43556931410E+03  0.43556931410E+03  0.00000000000E+00 0. -1.
          2   -1    0    0  501    0 -0.00000000000E+00 -0.00000000000E+00 -0.76855588678E+02  0.76855588678E+02  0.00000000000E+00 0. -1.
         25    1    1    2    0    0  0.17954068004E+01  0.22555751076E+02  0.32139544845E+03  0.34558938016E+03  0.12500000000E+03 0.  0.
          2    1    1    2  501    0  0.25142950647E+02 -0.37974501618E+02 -0.53850819540E+02  0.70527593930E+02  0.00000000000E+00 0. -1.
          2    1    1    2  502    0 -0.26938357447E+02  0.15418750542E+02  0.91169096508E+02  0.96307928689E+02  0.00000000000E+00 0. -1.
<mgrwt>
<rscale>  0 0.37318534E+02</rscale>
<asrwt>0</asrwt>
<pdfrwt beam="1">  1        2 0.67010662E-01 0.31038894E+02</pdfrwt>
<pdfrwt beam="2">  1        2 0.11823937E-01 0.44868640E+02</pdfrwt>
<totfact> 0.53360128E+03</totfact>
</mgrwt>
</event>
<event>
 5    1  0.4149151E-003  0.1519087E+03  0.7546771E-02  0.1284817E+00
         -1   -1    0    0    0  501 -0.00000000000E+00  0.00000000000E+00  0.29892091211E+03  0.29892091211E+03  0.00000000000E+00 0.  1.
          2   -1    0    0  502    0  0.00000000000E+00 -0.00000000000E+00 -0.17732614186E+03  0.17732614186E+03  0.00000000000E+00 0. -1.
         25    1    1    2    0    0  0.18666325479E+02  0.13036865542E+03 -0.91274692313E+01  0.18180409433E+03  0.12500000000E+03 0.  0.
          2    1    1    2  502    0 -0.69384821244E+02 -0.16785459109E+03  0.43427863332E+02  0.18674955551E+03  0.00000000000E+00 0. -1.
         -1    1    1    2    0  501  0.50718495765E+02  0.37485935675E+02  0.87294376147E+02  0.10769340413E+03  0.00000000000E+00 0.  1.
<mgrwt>
<rscale>  0 0.97880356E+02</rscale>
<asrwt>0</asrwt>
<pdfrwt beam="2">  1        2 0.27280945E-01 0.15190870E+03</pdfrwt>
<pdfrwt beam="1">  1       -1 0.45987832E-01 0.63067909E+02</pdfrwt>
<totfact> 0.10587236E+03</totfact>
</mgrwt>
</event>
<event>
 5    1  0.4149151E-003  0.5887745E+02  0.7546771E-02  0.1467859E+00
         -3   -1    0    0    0  501 -0.00000000000E+00  0.00000000000E+00  0.15390749822E+03  0.15390749822E+03  0.00000000000E+00 0.  1.
          3   -1    0    0  502    0  0.00000000000E+00 -0.00000000000E+00 -0.12647562946E+03  0.12647562946E+03  0.00000000000E+00 0. -1.
         25    1    1    2    0    0  0.34825771405E+02  0.78527848080E+02  0.35597077222E+02  0.15579348248E+03  0.12500000000E+03 0.  0.
          3    1    1    2  502    0 -0.35794955881E+02 -0.42515384447E+02 -0.46148417293E+02  0.72239277404E+02  0.00000000000E+00 0. -1.
         -3    1    1    2    0  501  0.96918447586E+00 -0.36012463633E+02  0.37983208827E+02  0.52350367795E+02  0.00000000000E+00 0.  1.
<mgrwt>
<rscale>  0 0.46055292E+02</rscale>
<asrwt>0</asrwt>
<pdfrwt beam="2">  1        3 0.19457789E-01 0.58877455E+02</pdfrwt>
<pdfrwt beam="1">  1       -3 0.23678077E-01 0.36025503E+02</pdfrwt>
<totfact> 0.73142851E+02</totfact>
</mgrwt>
</event>
<event>
 5    1  0.4149151E-003  0.1234209E+03  0.7546771E-02  0.1346988E+00
          2   -1    0    0  501    0  0.00000000000E+00  0.00000000000E+00  0.35306055211E+04  0.35306055211E+04  0.00000000000E+00 0. -1.
          1   -1    0    0  502    0 -0.00000000000E+00 -0.00000000000E+00 -0.44881493673E+02  0.44881493673E+02  0.00000000000E+00 0. -1.
         25    1    1    2    0    0 -0.24074167716E+02 -0.10379959028E+03  0.25295655943E+03  0.30160560580E+03  0.12500000000E+03 0.  0.
          2    1    1    2  501    0 -0.39317603757E+02 -0.20565685788E+02  0.30142975742E+04  0.30146241370E+04  0.00000000000E+00 0. -1.
          1    1    1    2  502    0  0.63391771472E+02  0.12436527607E+03  0.21846989373E+03  0.25925727193E+03  0.00000000000E+00 0. -1.
<mgrwt>
<rscale>  0 0.74002418E+02</rscale>
<asrwt>0</asrwt>
<pdfrwt beam="1">  1        2 0.54316986E+00 0.44371403E+02</pdfrwt>
<pdfrwt beam="2">  1        1 0.69048480E-02 0.12342088E+03</pdfrwt>
<totfact> 0.18636140E+02</totfact>
</mgrwt>
</event>
<event>
 5    1  0.4149151E-003  0.6171636E+02  0.7546771E-02  0.1438302E+00
          1   -1    0    0  502    0  0.00000000000E+00  0.00000000000E+00  0.28413517236E+02  0.28413517236E+02  0.00000000000E+00 0. -1.
         -2   -1    0    0    0  501 -0.00000000000E+00 -0.00000000000E+00 -0.57764720565E+03  0.57764720565E+03  0.00000000000E+00 0.  1.
         25    1    1    2    0    0 -0.30610782725E+02  0.68410455329E+02 -0.38590098470E+03  0.41250646105E+03  0.12500000000E+03 0.  0.
          1    1    1    2  502    0 -0.17307155490E+02 -0.39024520039E+02 -0.10082064977E+03  0.10948631977E+03  0.00000000000E+00 0. -1.
         -2    1    1    2    0  501  0.47917938214E+02 -0.29385935290E+02 -0.62512053942E+02  0.84067942068E+02  0.00000000000E+00 0.  1.
<mgrwt>
<rscale>  0 0.51329153E+02</rscale>
<asrwt>0</asrwt>
<pdfrwt beam="1">  1        1 0.43713105E-02 0.42690172E+02</pdfrwt>
<pdfrwt beam="2">  1       -2 0.88868797E-01 0.61716358E+02</pdfrwt>
<totfact> 0.17185856E+03</totfact>
</mgrwt>
</event>
<event>
 5    1  0.4149151E-003  0.7946417E+02  0.7546771E-02  0.1341465E+00
          2   -1    0    0  502    0  0.00000000000E+00  0.00000000000E+00  0.25972638207E+04  0.25972638207E+04  0.00000000000E+00 0. -1.
          2   -1    0    0  501    0 -0.00000000000E+00 -0.00000000000E+00 -0.79608636610E+03  0.79608636610E+03  0.00000000000E+00 0. -1.
         25    1    1    2    0    0  0.49707304734E+02 -0.13446372452E+03  0.49022949240E+03  0.52583387545E+03  0.12500000000E+03 0.  0.
          2    1    1    2  501    0 -0.43662984211E+02  0.57590791605E+02 -0.77589278350E+03  0.77925141447E+03  0.00000000000E+00 0. -1.
          2    1    1    2  502    0 -0.60443205227E+01  0.76872932913E+02  0.20868407457E+04  0.20882648969E+04  0.00000000000E+00 0. -1.
<mgrwt>
<rscale>  0 0.75782499E+02</rscale>
<asrwt>0</asrwt>
<pdfrwt beam="1">  1        2 0.39957905E+00 0.79464173E+02</pdfrwt>
<pdfrwt beam="2">  1        2 0.12247483E+00 0.72271401E+02</pdfrwt>
<totfact> 0.24528853E+01</totfact>
</mgrwt>
</event>
<event>
 5    1  0.4149151E-003  0.2151783E+03  0.7546771E-02  0.1213235E+00
          2   -1    0    0  501    0  0.00000000000E+00  0.00000000000E+00  0.99369351509E+02  0.99369351509E+02  0.00000000000E+00 0. -1.
          2   -1    0    0  502    0 -0.00000000000E+00 -0.00000000000E+00 -0.40428024507E+04  0.40428024507E+04  0.00000000000E+00 0. -1.
         25    1    1    2    0    0 -0.73155549647E+02  0.13647715304E+03 -0.37902306689E+03  0.42809021593E+03  0.12500000000E+03 0.  0.
          2    1    1    2  501    0  0.10626845733E+03 -0.22142975921E+03 -0.12893282863E+03  0.27739466033E+03  0.00000000000E+00 0. -1.
          2    1    1    2  502    0 -0.33112907681E+02  0.84952606169E+02 -0.34354772036E+04  0.34366869259E+04  0.00000000000E+00 0. -1.
<mgrwt>
<rscale>  0 0.14006965E+03</rscale>
<asrwt>0</asrwt>
<pdfrwt beam="1">  1        2 0.15287589E-01 0.21517832E+03</pdfrwt>
<pdfrwt beam="2">  1        2 0.62196976E+00 0.91177903E+02</pdfrwt>
<totfact> 0.30361461E+01</totfact>
</mgrwt>
</event>
<event>
 5    1  0.4149151E-003  0.4848625E+02  0.7546771E-02  0.1503691E+00
         -2   -1    0    0    0  501 -0.00000000000E+00  0.00000000000E+00  0.25426658548E+03  0.25426658548E+03  0.00000000000E+00 0.  1.
          2   -1    0    0  502    0  0.00000000000E+00 -0.00000000000E+00 -0.50936446154E+02  0.50936446154E+02  0.00000000000E+00 0. -1.
         25    1    1    2    0    0  0.12159503048E+02 -0.25221800989E+02  0.13821870278E+03  0.18845000015E+03  0.12500000000E+03 0.  0.
          2    1    1    2  502    0  0.28759776270E+02 -0.18194147752E+02  0.98418708272E+01  0.35426179090E+02  0.00000000000E+00 0. -1.
         -2    1    1    2    0  501 -0.40919279318E+02  0.43415948742E+02  0.55269565719E+02  0.81326852391E+02  0.00000000000E+00 0.  1.
<mgrwt>
<rscale>  0 0.40621003E+02</rscale>
<asrwt>0</asrwt>
<pdfrwt beam="2">  1        2 0.78363765E-02 0.34031629E+02</pdfrwt>
<pdfrwt beam="1">  1       -2 0.39117935E-01 0.48486246E+02</pdfrwt>
<totfact> 0.45563925E+03</totfact>
</mgrwt>
</event>
<event>
 5    1  0.4149151E-003  0.9165208E+02  0.7546771E-02  0.1383077E+00
          1   -1    0    0  502    0  0.00000000000E+00  0.00000000000E+00  0.36679077072E+03  0.36679077072E+03  0.00000000000E+00 0. -1.
         -3   -1    0    0    0  501 -0.00000000000E+00 -0.00000000000E+00 -0.11349299498E+03  0.11349299498E+03  0.00000000000E+00 0.  1.
         25    1    1    2    0    0  0.50995833137E+02 -0.41304602596E+02  0.13570815823E+03  0.19582734591E+03  0.12500000000E+03 0.  0.
          1    1    1    2  502    0 -0.47066723313E+01 -0.43968391817E+02  0.16897338268E+03  0.17466360897E+03  0.00000000000E+00 0. -1.
         -3    1    1    2    0  501 -0.46289160805E+02  0.85272994413E+02 -0.51383765173E+02  0.10979281082E+03  0.00000000000E+00 0.  1.
<mgrwt>
<rscale>  0 0.63661743E+02</rscale>
<asrwt>0</asrwt>
<pdfrwt beam="1">  1        1 0.56429349E-01 0.44219591E+02</pdfrwt>
<pdfrwt beam="2">  1       -3 0.17460461E-01 0.91652080E+02</pdfrwt>
<totfact> 0.99170383E+02</totfact>
</mgrwt>
</event>
<event>
 5    1  0.4149151E-003  0.4808441E+02  0.7546771E-02  0.1496567E+00
         -1   -1    0    0    0  501 -0.00000000000E+00  0.00000000000E+00  0.83385463151E+01  0.83385463151E+01  0.00000000000E+00 0.  1.
          2   -1    0    0  502    0  0.00000000000E+00 -0.00000000000E+00 -0.17406343347E+04  0.17406343347E+04  0.00000000000E+00 0. -1.
         25    1    1    2    0    0 -0.52509653169E+02 -0.33855639801E+02 -0.81878950271E+03  0.83062910963E+03  0.12500000000E+03 0.  0.
          2    1    1    2  502    0  0.66467542482E+01  0.35418960435E+02 -0.64005604470E+03  0.64106974851E+03  0.00000000000E+00 0. -1.
         -1    1    1    2    0  501  0.45862898920E+02 -0.15633206339E+01 -0.27345024094E+03  0.27727402283E+03  0.00000000000E+00 0.  1.
<mgrwt>
<rscale>  0 0.41627264E+02</rscale>
<asrwt>0</asrwt>
<pdfrwt beam="2">  1        2 0.26778966E+00 0.36037232E+02</pdfrwt>
<pdfrwt beam="1">  1       -1 0.12828544E-02 0.48084412E+02</pdfrwt>
<totfact> 0.14295298E+04</totfact>
</mgrwt>
</event>
<event>
 5    1  0.4149151E-003  0.1035042E+03  0.7546771E-02  0.1397261E+00
          1   -1    0    0  502    0 -0.00000000000E+00  0.00000000000E+00  0.30665033492E+03  0.30665033492E+03  0.00000000000E+00 0. -1.
          2   -1    0    0  501    0  0.00000000000E+00 -0.00000000000E+00 -0.17384607583E+04  0.17384607583E+04  0.00000000000E+00 0. -1.
         25    1    1    2    0    0 -0.78462597513E+02 -0.30205978883E+02 -0.38501672437E+02  0.15548684558E+03  0.12500000000E+03 0.  0.
          2    1    1    2  501    0  0.10396955004E+03  0.63283279653E+01 -0.16385747501E+04  0.16418821293E+04  0.00000000000E+00 0. -1.
          1    1    1    2  502    0 -0.25506952523E+02  0.23877650918E+02  0.24526599914E+03  0.24774211829E+03  0.00000000000E+00 0. -1.
<mgrwt>
<rscale>  0 0.60136118E+02</rscale>
<asrwt>0</asrwt>
<pdfrwt beam="2">  1        2 0.26745550E+00 0.10350420E+03</pdfrwt>
<pdfrwt beam="1">  1        1 0.47176974E-01 0.34939188E+02</pdfrwt>
<totfact> 0.12974894E+02</totfact>
</mgrwt>
</event>
<event>
 5    1  0.4149151E-003  0.3936209E+02  0.7546771E-02  0.1585710E+00
          1   -1    0    0  502    0  0.00000000000E+00  0.00000000000E+00  0.53199729341E+02  0.53199729341E+02  0.00000000000E+00 0. -1.
         -1   -1    0    0    0  501 -0.00000000000E+00 -0.00000000000E+00 -0.20415894691E+03  0.20415894691E+03  0.00000000000E+00 0.  1.
         25    1    1    2    0    0  0.10909466845E+02  0.14357104190E+02 -0.73240863071E+02  0.14599440719E+03  0.12500000000E+03 0.  0.
          1    1    1    2  502    0  0.16246635751E+02  0.18540791213E+02 -0.23532836752E+01  0.24763926508E+02  0.00000000000E+00 0. -1.
         -1    1    1    2    0  501 -0.27156102596E+02 -0.32897895402E+02 -0.75365070822E+02  0.86600342552E+02  0.00000000000E+00 0.  1.
<mgrwt>
<rscale>  0 0.31150419E+02</rscale>
<asrwt>0</asrwt>
<pdfrwt beam="1">  1        1 0.81845738E-02 0.24651858E+02</pdfrwt>
<pdfrwt beam="2">  1       -1 0.31409069E-01 0.39362087E+02</pdfrwt>
<totfact> 0.63787805E+03</totfact>
</mgrwt>
</event>
<event>
 5    1  0.4149151E-003  0.5910747E+02  0.7546771E-02  0.1535637E+00
          1   -1    0    0  502    0  0.00000000000E+00  0.00000000000E+00  0.60335829519E+02  0.60335829519E+02  0.00000000000E+00 0. -1.
         -2   -1    0    0    0  501 -0.00000000000E+00 -0.00000000000E+00 -0.80961252871E+03  0.80961252871E+03  0.00000000000E+00 0.  1.
         25    1    1    2    0    0 -0.48396199643E+02  0.63872273230E+01 -0.46648342923E+02  0.14207060467E+03  0.12500000000E+03 0.  0.
          1    1    1    2  502    0  0.67850470977E+02 -0.17779089709E+02 -0.86622881111E+02  0.11145988505E+03  0.00000000000E+00 0. -1.
         -2    1    1    2    0  501 -0.19454271335E+02  0.11391862386E+02 -0.61600547516E+03  0.61641786852E+03  0.00000000000E+00 0.  1.
<mgrwt>
<rscale>  0 0.36503886E+02</rscale>
<asrwt>0</asrwt>
<pdfrwt beam="1">  1        1 0.92824355E-02 0.59107474E+02</pdfrwt>
<pdfrwt beam="2">  1       -2 0.12455577E+00 0.22544250E+02</pdfrwt>
<totfact> 0.31438134E+02</totfact>
</mgrwt>
</event>
<event>
 5    1  0.4149151E-003  0.1753374E+03  0.7546771E-02  0.1275369E+00
          1   -1    0    0  501    0  0.00000000000E+00  0.00000000000E+00  0.12150676061E+04  0.12150676061E+04  0.00000000000E+00 0. -1.
          1   -1    0    0  502    0 -0.00000000000E+00 -0.00000000000E+00 -0.91790282859E+03  0.91790282859E+03  0.00000000000E+00 0. -1.
         25    1    1    2    0    0 -0.21717555611E+02 -0.20695832722E+03  0.60305438184E+02  0.25013026067E+03  0.12500000000E+03 0.  0.
          1    1    1    2  501    0 -0.26300510105E+02  0.17135050940E+03  0.10516585054E+04  0.10658509867E+04  0.00000000000E+00 0. -1.
          1    1    1    2  502    0  0.48018065716E+02  0.35607817816E+02 -0.81479916601E+03  0.81698918736E+03  0.00000000000E+00 0. -1.
<mgrwt>
<rscale>  0 0.10238004E+03</rscale>
<asrwt>0</asrwt>
<pdfrwt beam="1">  1        1 0.18693348E+00 0.17533737E+03</pdfrwt>
<pdfrwt beam="2">  1        1 0.14121582E+00 0.59780024E+02</pdfrwt>
<totfact> 0.28202488E+01</totfact>
</mgrwt>
</event>
<event>
 5    1  0.4149151E-003  0.9162898E+02  0.7546771E-02  0.1308441E+00
          2   -1    0    0  501    0  0.00000000000E+00  0.00000000000E+00  0.14860485609E+04  0.14860485609E+04  0.00000000000E+00 0. -1.
          2   -1    0    0  502    0 -0.00000000000E+00 -0.00000000000E+00 -0.93773587978E+02  0.93773587978E+02  0.00000000000E+00 0. -1.
         25    1    1    2    0    0  0.93450396550E+02 -0.95238735668E+02  0.24800423322E+03  0.30811441557E+03  0.12500000000E+03 0.  0.
          2    1    1    2  501    0 -0.95998155850E+01  0.90247510639E+02  0.11777799948E+04  0.11812715546E+04  0.00000000000E+00 0. -1.
          2    1    1    2  502    0 -0.83850580965E+02  0.49912250288E+01 -0.33509255018E+02  0.90436178752E+02  0.00000000000E+00 0. -1.
<mgrwt>
<rscale>  0 0.87731081E+02</rscale>
<asrwt>0</asrwt>
<pdfrwt beam="1">  1        2 0.22862284E+00 0.91628977E+02</pdfrwt>
<pdfrwt beam="2">  1        2 0.14426707E-01 0.83999002E+02</pdfrwt>
<totfact> 0.90560725E+02</totfact>
</mgrwt>
</event>
<event>
 5    1  0.4149151E-003  0.5601272E+02  0.7546771E-02  0.1522521E+00
         -1   -1    0    0    0  501  0.00000000000E+00  0.00000000000E+00  0.82326163897E+02  0.82326163897E+02  0.00000000000E+00 0.  1.
         -1   -1    0    0    0  502 -0.00000000000E+00 -0.00000000000E+00 -0.15911403805E+04  0.15911403805E+04  0.00000000000E+00 0.  1.
         25    1    1    2    0    0  0.33668179482E+02 -0.51289337512E+02 -0.35125227806E+03  0.37784561039E+03  0.12500000000E+03 0.  0.
         -1    1    1    2    0  502  0.13990829041E+02  0.21846950734E+02 -0.12150645735E+04  0.12153414954E+04  0.00000000000E+00 0.  1.
         -1    1    1    2    0  501 -0.47659008524E+02  0.29442386778E+02  0.57502634994E+02  0.80279438612E+02  0.00000000000E+00 0.  1.
<mgrwt>
<rscale>  0 0.38119954E+02</rscale>
<asrwt>0</asrwt>
<pdfrwt beam="1">  1       -1 0.12665563E-01 0.56012724E+02</pdfrwt>
<pdfrwt beam="2">  1       -1 0.24479083E+00 0.25942871E+02</pdfrwt>
<totfact> 0.35881992E+01</totfact>
</mgrwt>
</event>
<event>
 5    1  0.4149151E-003  0.9532326E+02  0.7546771E-02  0.1421354E+00
          3   -1    0    0  502    0 -0.00000000000E+00  0.00000000000E+00  0.15543954809E+02  0.15543954809E+02  0.00000000000E+00 0. -1.
          2   -1    0    0  501    0  0.00000000000E+00 -0.00000000000E+00 -0.20784315864E+04  0.20784315864E+04  0.00000000000E+00 0. -1.
         25    1    1    2    0    0 -0.30981469714E+02 -0.77334425599E+02 -0.94299770300E+03  0.95488749741E+03  0.12500000000E+03 0.  0.
          2    1    1    2  501    0 -0.31428978046E+02 -0.18264303831E+00 -0.86334229787E+03  0.86391419557E+03  0.00000000000E+00 0. -1.
          3    1    1    2  502    0  0.62410447760E+02  0.77517068638E+02 -0.25654763075E+03  0.27517384825E+03  0.00000000000E+00 0. -1.
<mgrwt>
<rscale>  0 0.54735394E+02</rscale>
<asrwt>0</asrwt>
<pdfrwt beam="2">  1        2 0.31975873E+00 0.31429509E+02</pdfrwt>
<pdfrwt beam="1">  1        3 0.23913775E-02 0.95323264E+02</pdfrwt>
<totfact> 0.34577000E+03</totfact>
</mgrwt>
</event>
<event>
 5    1  0.4149151E-003  0.5910757E+02  0.7546771E-02  0.1488168E+00
          2   -1    0    0  501    0  0.00000000000E+00  0.00000000000E+00  0.56984279602E+02  0.56984279602E+02  0.00000000000E+00 0. -1.
          2   -1    0    0  502    0 -0.00000000000E+00 -0.00000000000E+00 -0.26017530009E+04  0.26017530009E+04  0.00000000000E+00 0. -1.
         25    1    1    2    0    0 -0.81937463480E+02 -0.30224979563E+02 -0.28285129822E+03  0.32133651242E+03  0.12500000000E+03 0.  0.
          2    1    1    2  501    0  0.55325679684E+02  0.14175005195E+02  0.15968333304E+02  0.59303029209E+02  0.00000000000E+00 0. -1.
          2    1    1    2  502    0  0.26611783795E+02  0.16049974368E+02 -0.22778857564E+04  0.22780977388E+04  0.00000000000E+00 0. -1.
<mgrwt>
<rscale>  0 0.42859004E+02</rscale>
<asrwt>0</asrwt>
<pdfrwt beam="1">  1        2 0.87668110E-02 0.59107568E+02</pdfrwt>
<pdfrwt beam="2">  1        2 0.40026975E+00 0.31077141E+02</pdfrwt>
<totfact> 0.50914342E+02</totfact>
</mgrwt>
</event>
<event>
 5    1  0.4149151E-003  0.4006433E+02  0.7546771E-02  0.1542121E+00
          2   -1    0    0  502    0  0.00000000000E+00  0.00000000000E+00  0.65135461392E+03  0.65135461392E+03  0.00000000000E+00 0. -1.
          2   -1    0    0  501    0 -0.00000000000E+00 -0.00000000000E+00 -0.58889139290E+03  0.58889139290E+03  0.00000000000E+00 0. -1.
         25    1    1    2    0    0 -0.39668979349E+02 -0.54819860642E+02  0.35855874292E+03  0.38570483166E+03  0.12500000000E+03 0.  0.
          2    1    1    2  501    0  0.24491966067E+02  0.20413031255E+02 -0.57360746138E+03  0.57449287898E+03  0.00000000000E+00 0. -1.
          2    1    1    2  502    0  0.15177013282E+02  0.34406829387E+02  0.27751193948E+03  0.28004829618E+03  0.00000000000E+00 0. -1.
<mgrwt>
<rscale>  0 0.35740528E+02</rscale>
<asrwt>0</asrwt>
<pdfrwt beam="1">  1        2 0.10020840E+00 0.40064334E+02</pdfrwt>
<pdfrwt beam="2">  1        2 0.90598675E-01 0.31883354E+02</pdfrwt>
<totfact> 0.40413529E+02</totfact>
</mgrwt>
</event>
<event>
 5    1  0.4149151E-003  0.6243717E+02  0.7546771E-02  0.1388403E+00
         -1   -1    0    0    0  501  0.00000000000E+00  0.00000000000E+00  0.33298677622E+03  0.33298677622E+03  0.00000000000E+00 0.  1.
         -1   -1    0    0    0  502 -0.00000000000E+00 -0.00000000000E+00 -0.18110549725E+03  0.18110549725E+03  0.00000000000E+00 0.  1.
         25    1    1    2    0    0 -0.82745249046E+02 -0.12352171053E+02  0.75213508455E+02  0.16817081858E+03  0.12500000000E+03 0.  0.
         -1    1    1    2    0  501  0.34137057375E+02  0.51964349299E+02  0.19898284865E+03  0.20847015696E+03  0.00000000000E+00 0.  1.
         -1    1    1    2    0  502  0.48608191671E+02 -0.39612178246E+02 -0.12231507814E+03  0.13745129793E+03  0.00000000000E+00 0.  1.
<mgrwt>
<rscale>  0 0.62305553E+02</rscale>
<asrwt>0</asrwt>
<pdfrwt beam="1">  1       -1 0.51228735E-01 0.62174209E+02</pdfrwt>
<pdfrwt beam="2">  1       -1 0.27862384E-01 0.62437174E+02</pdfrwt>
<totfact> 0.37897260E+02</totfact>
</mgrwt>
</event>
<event>
 5    1  0.7955661E-003  0.1146450E+03  0.7546771E-02  0.1343058E+00
         -1   -1    0    0    0  501 -0.00000000000E+00  0.00000000000E+00  0.38679517962E+02  0.38679517962E+02  0.00000000000E+00 0.  1.
          2   -1    0    0  502    0  0.00000000000E+00 -0.00000000000E+00 -0.89371447998E+03  0.89371447998E+03  0.00000000000E+00 0. -1.
         25    1    1    2    0    0  0.15954214369E+02  0.14730832040E+03 -0.56199160448E+03  0.59448619978E+03  0.12500000000E+03 0.  0.
          2    1    1    2  502    0  0.17503686480E+02 -0.46205280135E+02 -0.16020499353E+03  0.16765126574E+03  0.00000000000E+00 0. -1.
         -1    1    1    2    0  501 -0.33457900849E+02 -0.10110304027E+03 -0.13283836400E+03  0.17025653242E+03  0.00000000000E+00 0.  1.
<mgrwt>
<rscale>  0 0.75263274E+02</rscale>
<asrwt>0</asrwt>
<pdfrwt beam="2">  1        2 0.13749454E+00 0.49409584E+02</pdfrwt>
<pdfrwt beam="1">  1       -1 0.59506947E-02 0.11464497E+03</pdfrwt>
<totfact> 0.47524098E+03</totfact>
</mgrwt>
</event>
<event>
 5    1  0.4149151E-003  0.5755804E+02  0.7546771E-02  0.1433512E+00
         -2   -1    0    0    0  501 -0.00000000000E+00  0.00000000000E+00  0.10679940207E+02  0.10679940207E+02  0.00000000000E+00 0.  1.
          1   -1    0    0  502    0  0.00000000000E+00 -0.00000000000E+00 -0.17685380428E+04  0.17685380428E+04  0.00000000000E+00 0. -1.
         25    1    1    2    0    0  0.72951294794E+02  0.18901126053E+02 -0.66062336147E+03  0.67655551856E+03  0.12500000000E+03 0.  0.
          1    1    1    2  502    0 -0.51366995200E+02  0.23358046752E+02 -0.42099437970E+03  0.42475926627E+03  0.00000000000E+00 0. -1.
         -2    1    1    2    0  501 -0.21584299595E+02 -0.42259172805E+02 -0.67624036138E+03  0.67790319813E+03  0.00000000000E+00 0.  1.
<mgrwt>
<rscale>  0 0.52261465E+02</rscale>
<asrwt>0</asrwt>
<pdfrwt beam="2">  1        1 0.27208279E+00 0.57558040E+02</pdfrwt>
<pdfrwt beam="1">  1       -2 0.16430677E-02 0.47452288E+02</pdfrwt>
<totfact> 0.40359795E+03</totfact>
</mgrwt>
</event>
<event>
 5    1  0.4149151E-003  0.4891189E+02  0.7546771E-02  0.1469471E+00
          1   -1    0    0  502    0  0.00000000000E+00  0.00000000000E+00  0.13819189942E+04  0.13819189942E+04  0.00000000000E+00 0. -1.
         -1   -1    0    0    0  501 -0.00000000000E+00 -0.00000000000E+00 -0.13701483785E+02  0.13701483785E+02  0.00000000000E+00 0.  1.
         25    1    1    2    0    0  0.32264474586E+01  0.61899546355E+02  0.44379562966E+03  0.46521126889E+03  0.12500000000E+03 0.  0.
          1    1    1    2  502    0 -0.35616811739E+02 -0.33820532729E+02  0.71275212463E+03  0.71444242377E+03  0.00000000000E+00 0. -1.
         -1    1    1    2    0  501  0.32390364281E+02 -0.28079013626E+02  0.21166975608E+03  0.21596678528E+03  0.00000000000E+00 0.  1.
<mgrwt>
<rscale>  0 0.45789723E+02</rscale>
<asrwt>0</asrwt>
<pdfrwt beam="1">  1        1 0.21260281E+00 0.48911894E+02</pdfrwt>
<pdfrwt beam="2">  1       -1 0.21079217E-02 0.42866849E+02</pdfrwt>
<totfact> 0.50000022E+03</totfact>
</mgrwt>
</event>
<event>
 5    1  0.4149151E-003  0.8457206E+02  0.7546771E-02  0.1438336E+00
          1   -1    0    0  501    0  0.00000000000E+00  0.00000000000E+00  0.16204646079E+04  0.16204646079E+04  0.00000000000E+00 0. -1.
          1   -1    0    0  502    0 -0.00000000000E+00 -0.00000000000E+00 -0.45748221352E+03  0.45748221352E+03  0.00000000000E+00 0. -1.
         25    1    1    2    0    0  0.58402567731E+02 -0.27173210692E+02  0.60517756248E+03  0.62130035042E+03  0.12500000000E+03 0.  0.
          1    1    1    2  501    0  0.25767498159E+02  0.17494496888E+02  0.10029887068E+04  0.10034721557E+04  0.00000000000E+00 0. -1.
          1    1    1    2  502    0 -0.84170065890E+02  0.96787138037E+01 -0.44518387493E+03  0.45317431524E+03  0.00000000000E+00 0. -1.
<mgrwt>
<rscale>  0 0.51322615E+02</rscale>
<asrwt>0</asrwt>
<pdfrwt beam="1">  1        1 0.24930224E+00 0.31145166E+02</pdfrwt>
<pdfrwt beam="2">  1        1 0.70381880E-01 0.84572059E+02</pdfrwt>
<totfact> 0.46879556E+01</totfact>
</mgrwt>
</event>
<event>
 5    1  0.4149151E-003  0.9262310E+02  0.7546771E-02  0.1324152E+00
         -1   -1    0    0    0  501 -0.00000000000E+00  0.00000000000E+00  0.61934392883E+03  0.61934392883E+03  0.00000000000E+00 0.  1.
          1   -1    0    0  502    0  0.00000000000E+00 -0.00000000000E+00 -0.53398701974E+03  0.53398701974E+03  0.00000000000E+00 0. -1.
         25    1    1    2    0    0 -0.49856430007E+02  0.34186542820E+02  0.13983966070E+02  0.13955262316E+03  0.12500000000E+03 0.  0.
          1    1    1    2  502    0  0.92990841376E+02  0.23658315468E+02 -0.46387168615E+03  0.47369183408E+03  0.00000000000E+00 0. -1.
         -1    1    1    2    0  501 -0.43134411369E+02 -0.57844858288E+02  0.53524462916E+03  0.54008649133E+03  0.00000000000E+00 0.  1.
<mgrwt>
<rscale>  0 0.81751989E+02</rscale>
<asrwt>0</asrwt>
<pdfrwt beam="2">  1        1 0.82151849E-01 0.92623104E+02</pdfrwt>
<pdfrwt beam="1">  1       -1 0.95283681E-01 0.72156809E+02</pdfrwt>
<totfact> 0.50977530E+01</totfact>
</mgrwt>
</event>
<event>
 5    1  0.4149151E-003  0.7425460E+02  0.7546771E-02  0.1401072E+00
         -1   -1    0    0    0  501 -0.00000000000E+00  0.00000000000E+00  0.22692428065E+03  0.22692428065E+03  0.00000000000E+00 0.  1.
          1   -1    0    0  502    0  0.00000000000E+00 -0.00000000000E+00 -0.97292370028E+02  0.97292370028E+02  0.00000000000E+00 0. -1.
         25    1    1    2    0    0  0.73349616255E+02 -0.70217006636E+02  0.59631743291E+02  0.17173100778E+03  0.12500000000E+03 0.  0.
          1    1    1    2  502    0 -0.26740703430E+02  0.62441727120E+02 -0.12367049568E+00  0.67926797364E+02  0.00000000000E+00 0. -1.
         -1    1    1    2    0  501 -0.46608912825E+02  0.77752795155E+01  0.70123837825E+02  0.84558845531E+02  0.00000000000E+00 0.  1.
<mgrwt>
<rscale>  0 0.59234721E+02</rscale>
<asrwt>0</asrwt>
<pdfrwt beam="2">  1        1 0.14968057E-01 0.74254595E+02</pdfrwt>
<pdfrwt beam="1">  1       -1 0.34911428E-01 0.47252997E+02</pdfrwt>
<totfact> 0.27214537E+03</totfact>
</mgrwt>
</event>
<event>
 5    1  0.4149151E-003  0.5729843E+02  0.7546771E-02  0.1414970E+00
          1   -1    0    0  502    0  0.00000000000E+00  0.00000000000E+00  0.16928932609E+03  0.16928932609E+03  0.00000000000E+00 0. -1.
          1   -1    0    0  501    0 -0.00000000000E+00 -0.00000000000E+00 -0.31020457042E+03  0.31020457042E+03  0.00000000000E+00 0. -1.
         25    1    1    2    0    0  0.42997613790E+02  0.80847288006E+02 -0.17951604918E+02  0.15598826523E+03  0.12500000000E+03 0.  0.
          1    1    1    2  501    0 -0.49705551319E+02 -0.26333012793E+02 -0.21175524942E+03  0.21909896178E+03  0.00000000000E+00 0. -1.
          1    1    1    2  502    0  0.67079375290E+01 -0.54514275213E+02  0.88791610011E+02  0.10440666950E+03  0.00000000000E+00 0. -1.
<mgrwt>
<rscale>  0 0.56099383E+02</rscale>
<asrwt>0</asrwt>
<pdfrwt beam="1">  1        1 0.26044512E-01 0.54925428E+02</pdfrwt>
<pdfrwt beam="2">  1        1 0.47723780E-01 0.57298429E+02</pdfrwt>
<totfact> 0.17540822E+03</totfact>
</mgrwt>
</event>
<event>
 5    1  0.4149151E-003  0.1380615E+03  0.7546771E-02  0.1267811E+00
          2   -1    0    0  501    0  0.00000000000E+00  0.00000000000E+00  0.67326386607E+02  0.67326386607E+02  0.00000000000E+00 0. -1.
          1   -1    0    0  502    0 -0.00000000000E+00 -0.00000000000E+00 -0.78261606778E+03  0.78261606778E+03  0.00000000000E+00 0. -1.
         25    1    1    2    0    0 -0.67021466407E+02 -0.13291517826E+03 -0.23291953914E+03  0.30337243330E+03  0.12500000000E+03 0.  0.
          2    1    1    2  501    0  0.81389511258E+02 -0.66603320070E+01 -0.59527905808E+02  0.10105535184E+03  0.00000000000E+00 0. -1.
          1    1    1    2  502    0 -0.14368044851E+02  0.13957551027E+03 -0.42284223622E+03  0.44551466925E+03  0.00000000000E+00 0. -1.
<mgrwt>
<rscale>  0 0.10618059E+03</rscale>
<asrwt>0</asrwt>
<pdfrwt beam="1">  1        2 0.10357905E-01 0.81661573E+02</pdfrwt>
<pdfrwt beam="2">  1        1 0.12040247E+00 0.13806148E+03</pdfrwt>
<totfact> 0.19116765E+03</totfact>
</mgrwt>
</event>
<event>
 5    1  0.4149151E-003  0.9622228E+02  0.7546771E-02  0.1296677E+00
         -1   -1    0    0    0  501 -0.00000000000E+00  0.00000000000E+00  0.18959531228E+03  0.18959531228E+03  0.00000000000E+00 0.  1.
          2   -1    0    0  502    0  0.00000000000E+00 -0.00000000000E+00 -0.10605626434E+04  0.10605626434E+04  0.00000000000E+00 0. -1.
         25    1    1    2    0    0  0.46093764675E+02  0.15447135510E+03  0.42727857417E+02  0.20841474153E+03  0.12500000000E+03 0.  0.
          2    1    1    2  502    0 -0.66973871290E+02 -0.67839838957E+02 -0.94309928364E+03  0.94790505958E+03  0.00000000000E+00 0. -1.
         -1    1    1    2    0  501  0.20880106615E+02 -0.86631516142E+02  0.29404095108E+02  0.93838154556E+02  0.00000000000E+00 0.  1.
<mgrwt>
<rscale>  0 0.92599067E+02</rscale>
<asrwt>0</asrwt>
<pdfrwt beam="2">  1        2 0.16316348E+00 0.96222285E+02</pdfrwt>
<pdfrwt beam="1">  1       -1 0.29168510E-01 0.89112280E+02</pdfrwt>
<totfact> 0.30840155E+02</totfact>
</mgrwt>
</event>
<event>
 5    1  0.4149151E-003  0.2583152E+03  0.7546771E-02  0.1247238E+00
          2   -1    0    0  502    0  0.00000000000E+00  0.00000000000E+00  0.33934248983E+04  0.33934248983E+04  0.00000000000E+00 0. -1.
         -2   -1    0    0    0  501 -0.00000000000E+00 -0.00000000000E+00 -0.25460871329E+03  0.25460871329E+03  0.00000000000E+00 0. -1.
         25    1    1    2    0    0 -0.11338636030E+03 -0.23079862788E+03  0.44474367229E+03  0.52872148375E+03  0.12500000000E+03 0.  0.
          2    1    1    2  502    0  0.15970382124E+03  0.20408445622E+03  0.28974539189E+04  0.29090195922E+04  0.00000000000E+00 0. -1.
         -2    1    1    2    0  501 -0.46317460937E+02  0.26714171664E+02 -0.20338140619E+03  0.21029253562E+03  0.00000000000E+00 0. -1.
<mgrwt>
<rscale>  0 0.11752406E+03</rscale>
<asrwt>0</asrwt>
<pdfrwt beam="1">  1        2 0.52206534E+00 0.25831521E+03</pdfrwt>
<pdfrwt beam="2">  1       -2 0.39170574E-01 0.53469189E+02</pdfrwt>
<totfact> 0.74313679E+00</totfact>
</mgrwt>
</event>
<event>
 5    1  0.4149151E-003  0.2376561E+03  0.7546771E-02  0.1323612E+00
          1   -1    0    0  502    0  0.00000000000E+00  0.00000000000E+00  0.21254585664E+03  0.21254585664E+03  0.00000000000E+00 0. -1.
         -1   -1    0    0    0  501 -0.00000000000E+00 -0.00000000000E+00 -0.36645599618E+03  0.36645599618E+03  0.00000000000E+00 0.  1.
         25    1    1    2    0    0  0.20460266944E+03  0.14569773387E+03 -0.23080636130E+02  0.28150985376E+03  0.12500000000E+03 0.  0.
          1    1    1    2  502    0 -0.17841057441E+03 -0.13509345855E+03 -0.76940951360E+02  0.23664421734E+03  0.00000000000E+00 0. -1.
         -1    1    1    2    0  501 -0.26192095038E+02 -0.10604275323E+02 -0.53888552053E+02  0.60847781718E+02  0.00000000000E+00 0.  1.
<mgrwt>
<rscale>  0 0.81948304E+02</rscale>
<asrwt>0</asrwt>
<pdfrwt beam="1">  1        1 0.32699363E-01 0.23765605E+03</pdfrwt>
<pdfrwt beam="2">  1       -1 0.56377845E-01 0.28257326E+02</pdfrwt>
<totfact> 0.45690305E+02</totfact>
</mgrwt>
</event>
<event>
 5    1  0.4149151E-003  0.1165576E+03  0.7546771E-02  0.1338264E+00
         -3   -1    0    0    0  501 -0.00000000000E+00  0.00000000000E+00  0.39562271808E+03  0.39562271808E+03  0.00000000000E+00 0.  1.
          2   -1    0    0  502    0  0.00000000000E+00 -0.00000000000E+00 -0.88414597165E+03  0.88414597165E+03  0.00000000000E+00 0. -1.
         25    1    1    2    0    0  0.13985059749E+03 -0.70784629541E+02 -0.13457932217E+03  0.24146479527E+03  0.12500000000E+03 0.  0.
          2    1    1    2  502    0 -0.50641667280E+02 -0.12558797236E+01 -0.68555698210E+03  0.68742601886E+03  0.00000000000E+00 0. -1.
         -3    1    1    2    0  501 -0.89208930212E+02  0.72040509264E+02  0.33161305069E+03  0.35087787561E+03  0.00000000000E+00 0.  1.
<mgrwt>
<rscale>  0 0.76840649E+02</rscale>
<asrwt>0</asrwt>
<pdfrwt beam="2">  1        2 0.13602245E+00 0.50657237E+02</pdfrwt>
<pdfrwt beam="1">  1       -3 0.60865035E-01 0.11655759E+03</pdfrwt>
<totfact> 0.54248817E+01</totfact>
</mgrwt>
</event>
<event>
 5    1  0.4149151E-003  0.1381413E+03  0.7546771E-02  0.1248621E+00
          1   -1    0    0  502    0  0.00000000000E+00  0.00000000000E+00  0.19541480867E+04  0.19541480867E+04  0.00000000000E+00 0. -1.
         -2   -1    0    0    0  501 -0.00000000000E+00 -0.00000000000E+00 -0.26586732426E+03  0.26586732426E+03  0.00000000000E+00 0.  1.
         25    1    1    2    0    0  0.24456524212E+02  0.13982490662E+03  0.13379003250E+03  0.23167628036E+03  0.12500000000E+03 0.  0.
          1    1    1    2  502    0 -0.96915410449E+02 -0.18191803980E+02  0.17467740806E+04  0.17495551512E+04  0.00000000000E+00 0. -1.
         -2    1    1    2    0  501  0.72458886237E+02 -0.12163310264E+03 -0.19228335067E+03  0.23878397936E+03  0.00000000000E+00 0.  1.
<mgrwt>
<rscale>  0 0.11671262E+03</rscale>
<asrwt>0</asrwt>
<pdfrwt beam="1">  1        1 0.30063816E+00 0.98608004E+02</pdfrwt>
<pdfrwt beam="2">  1       -2 0.40902667E-01 0.13814127E+03</pdfrwt>
<totfact> 0.20560186E+01</totfact>
</mgrwt>
</event>
<event>
 5    1  0.4149151E-003  0.6810602E+02  0.7546771E-02  0.1387486E+00
          1   -1    0    0  502    0 -0.00000000000E+00  0.00000000000E+00  0.13506553696E+04  0.13506553696E+04  0.00000000000E+00 0. -1.
          2   -1    0    0  501    0  0.00000000000E+00 -0.00000000000E+00 -0.17083552688E+03  0.17083552688E+03  0.00000000000E+00 0.  1.
         25    1    1    2    0    0 -0.88672135069E+02  0.45928710452E+02  0.60921893714E+02  0.17119775441E+03  0.12500000000E+03 0.  0.
          2    1    1    2  501    0  0.55827942590E+02  0.13435634538E+02 -0.10757710690E+03  0.12194305793E+03  0.00000000000E+00 0.  1.
          1    1    1    2  502    0  0.32844192479E+02 -0.59364344990E+02  0.12264750560E+04  0.12283500842E+04  0.00000000000E+00 0. -1.
<mgrwt>
<rscale>  0 0.62536211E+02</rscale>
<asrwt>0</asrwt>
<pdfrwt beam="2">  1        2 0.26282390E-01 0.57421907E+02</pdfrwt>
<pdfrwt beam="1">  1        1 0.20779313E+00 0.68106023E+02</pdfrwt>
<totfact> 0.26998862E+02</totfact>
</mgrwt>
</event>
<event>
 5    1  0.4149151E-003  0.1873881E+03  0.7546771E-02  0.1290691E+00
          1   -1    0    0  502    0  0.00000000000E+00  0.00000000000E+00  0.47989184958E+03  0.47989184958E+03  0.00000000000E+00 0. -1.
          1   -1    0    0  501    0 -0.00000000000E+00 -0.00000000000E+00 -0.28533314205E+03  0.28533314205E+03  0.00000000000E+00 0. -1.
         25    1    1    2    0    0  0.15937259956E+03 -0.46404548555E+02 -0.75593000084E+02  0.22111605387E+03  0.12500000000E+03 0.  0.
          1    1    1    2  501    0 -0.19854611193E+03  0.74797167832E+02 -0.51916343966E+02  0.21842729145E+03  0.00000000000E+00 0. -1.
          1    1    1    2  502    0  0.39173512375E+02 -0.28392619277E+02  0.32206805158E+03  0.32568164632E+03  0.00000000000E+00 0. -1.
<mgrwt>
<rscale>  0 0.95215501E+02</rscale>
<asrwt>0</asrwt>
<pdfrwt beam="1">  1        1 0.73829515E-01 0.48380832E+02</pdfrwt>
<pdfrwt beam="2">  1        1 0.43897406E-01 0.18738809E+03</pdfrwt>
<totfact> 0.55308839E+02</totfact>
</mgrwt>
</event>
<event>
 5    1  0.4149151E-003  0.1692564E+03  0.7546771E-02  0.1243121E+00
          2   -1    0    0  501    0  0.00000000000E+00  0.00000000000E+00  0.10482535061E+03  0.10482535061E+03  0.00000000000E+00 0. -1.
          2   -1    0    0  502    0 -0.00000000000E+00 -0.00000000000E+00 -0.70741883536E+03  0.70741883536E+03  0.00000000000E+00 0. -1.
         25    1    1    2    0    0 -0.23109712333E+02 -0.12754477470E+03 -0.12858212026E+03  0.22126927036E+03  0.12500000000E+03 0.  0.
          2    1    1    2  501    0 -0.79689127635E+02 -0.29738235215E+02 -0.44030027341E+01  0.85171040442E+02  0.00000000000E+00 0. -1.
          2    1    1    2  502    0  0.10279883997E+03  0.15728300991E+03 -0.46960836175E+03  0.50580387517E+03  0.00000000000E+00 0. -1.
<mgrwt>
<rscale>  0 0.11998528E+03</rscale>
<asrwt>0</asrwt>
<pdfrwt beam="1">  1        2 0.16126977E-01 0.85057155E+02</pdfrwt>
<pdfrwt beam="2">  1        2 0.10883367E+00 0.16925640E+03</pdfrwt>
<totfact> 0.22094573E+03</totfact>
</mgrwt>
</event>
<event>
 5    1  0.4149151E-003  0.5482002E+02  0.7546771E-02  0.1445180E+00
          2   -1    0    0  501    0  0.00000000000E+00  0.00000000000E+00  0.87132906935E+02  0.87132906935E+02  0.00000000000E+00 0.  1.
          3   -1    0    0  502    0 -0.00000000000E+00 -0.00000000000E+00 -0.86771078337E+03  0.86771078337E+03  0.00000000000E+00 0. -1.
         25    1    1    2    0    0 -0.78004196869E+02 -0.17622724896E+02 -0.53818722347E+03  0.55827027744E+03  0.12500000000E+03 0.  0.
          2    1    1    2  501    0  0.29474860806E+02  0.34870217085E+02  0.68017704363E+02  0.81921349878E+02  0.00000000000E+00 0.  1.
          3    1    1    2  502    0  0.48529336063E+02 -0.17247492188E+02 -0.31040835732E+03  0.31465206299E+03  0.00000000000E+00 0. -1.
<mgrwt>
<rscale>  0 0.50029994E+02</rscale>
<asrwt>0</asrwt>
<pdfrwt beam="1">  1        2 0.13405063E-01 0.45658509E+02</pdfrwt>
<pdfrwt beam="2">  1        3 0.13349396E+00 0.54820018E+02</pdfrwt>
<totfact> 0.11432887E+02</totfact>
</mgrwt>
</event>
<event>
 5    1  0.4149151E-003  0.5749381E+02  0.7546771E-02  0.1526227E+00
          1   -1    0    0  502    0  0.00000000000E+00  0.00000000000E+00  0.49630883139E+03  0.49630883139E+03  0.00000000000E+00 0. -1.
         -2   -1    0    0    0  501 -0.00000000000E+00 -0.00000000000E+00 -0.27710699706E+02  0.27710699706E+02  0.00000000000E+00 0.  1.
         25    1    1    2    0    0 -0.55639565582E+02 -0.90219948205E+01  0.28857461349E+03  0.31949564191E+03  0.12500000000E+03 0.  0.
          1    1    1    2  502    0  0.58364974042E+02 -0.15486488763E+02  0.73205935522E+02  0.94896841490E+02  0.00000000000E+00 0. -1.
         -2    1    1    2    0  501 -0.27254084597E+01  0.24508483584E+02  0.10681758267E+03  0.10962704770E+03  0.00000000000E+00 0.  1.
<mgrwt>
<rscale>  0 0.37653309E+02</rscale>
<asrwt>0</asrwt>
<pdfrwt beam="1">  1        1 0.76355198E-01 0.57493808E+02</pdfrwt>
<pdfrwt beam="2">  1       -2 0.42631849E-02 0.24659554E+02</pdfrwt>
<totfact> 0.79401523E+03</totfact>
</mgrwt>
</event>
<event>
 5    1  0.4149151E-003  0.1932138E+03  0.7546771E-02  0.1263496E+00
          2   -1    0    0  502    0  0.00000000000E+00  0.00000000000E+00  0.41397416877E+03  0.41397416877E+03  0.00000000000E+00 0. -1.
         -2   -1    0    0    0  501 -0.00000000000E+00 -0.00000000000E+00 -0.16339513067E+04  0.16339513067E+04  0.00000000000E+00 0. -1.
         25    1    1    2    0    0 -0.76104407491E+02  0.22070334039E+03 -0.34783668371E+03  0.43716953672E+03  0.12500000000E+03 0.  0.
          2    1    1    2  502    0  0.97981897303E+02 -0.16391619210E+03  0.34380843773E+03  0.39328515365E+03  0.00000000000E+00 0. -1.
         -2    1    1    2    0  501 -0.21877489812E+02 -0.56787148293E+02 -0.12159488919E+04  0.12174707851E+04  0.00000000000E+00 0. -1.
<mgrwt>
<rscale>  0 0.10843498E+03</rscale>
<asrwt>0</asrwt>
<pdfrwt beam="1">  1        2 0.63688334E-01 0.19321384E+03</pdfrwt>
<pdfrwt beam="2">  1       -2 0.25137712E+00 0.60855606E+02</pdfrwt>
<totfact> 0.62763919E+00</totfact>
</mgrwt>
</event>
<event>
 5    1  0.4149151E-003  0.4091051E+02  0.7546771E-02  0.1510487E+00
          1   -1    0    0  502    0  0.00000000000E+00  0.00000000000E+00  0.49783820086E+03  0.49783820086E+03  0.00000000000E+00 0. -1.
          1   -1    0    0  501    0 -0.00000000000E+00 -0.00000000000E+00 -0.17733416029E+04  0.17733416029E+04  0.00000000000E+00 0. -1.
         25    1    1    2    0    0  0.37229024656E+02  0.16207073727E+02  0.34210036013E+03  0.36647827482E+03  0.12500000000E+03 0.  0.
          1    1    1    2  501    0 -0.26990704610E+02  0.27469350851E+02 -0.17574317205E+04  0.17578536104E+04  0.00000000000E+00 0. -1.
          1    1    1    2  502    0 -0.10238320046E+02 -0.43676424578E+02  0.13982795831E+03  0.14684791856E+03  0.00000000000E+00 0. -1.
<mgrwt>
<rscale>  0 0.39692401E+02</rscale>
<asrwt>0</asrwt>
<pdfrwt beam="1">  1        1 0.76590494E-01 0.40910508E+02</pdfrwt>
<pdfrwt beam="2">  1        1 0.27282178E+00 0.38510562E+02</pdfrwt>
<totfact> 0.33716812E+01</totfact>
</mgrwt>
</event>
<event>
 5    1  0.4149151E-003  0.1211955E+03  0.7546771E-02  0.1427334E+00
         -1   -1    0    0    0  501 -0.00000000000E+00  0.00000000000E+00  0.67358318457E+03  0.67358318457E+03  0.00000000000E+00 0.  1.
          1   -1    0    0  502    0  0.00000000000E+00 -0.00000000000E+00 -0.14510723314E+04  0.14510723314E+04  0.00000000000E+00 0. -1.
         25    1    1    2    0    0  0.11485942646E+03 -0.36072945710E+02  0.21667314742E+03  0.27760799353E+03  0.12500000000E+03 0.  0.
          1    1    1    2  502    0 -0.12051302267E+03  0.13143846558E+02 -0.14176891124E+04  0.14228628074E+04  0.00000000000E+00 0. -1.
         -1    1    1    2    0  501  0.56535962098E+01  0.22929099152E+02  0.42352681816E+03  0.42418471500E+03  0.00000000000E+00 0.  1.
<mgrwt>
<rscale>  0 0.53498873E+02</rscale>
<asrwt>0</asrwt>
<pdfrwt beam="2">  1        1 0.22324189E+00 0.12119545E+03</pdfrwt>
<pdfrwt beam="1">  1       -1 0.10362818E+00 0.23615815E+02</pdfrwt>
<totfact> 0.87283125E+00</totfact>
</mgrwt>
</event>
<event>
 5    1  0.4149151E-003  0.1960135E+03  0.7546771E-02  0.1238284E+00
          1   -1    0    0  502    0  0.00000000000E+00  0.00000000000E+00  0.76377195134E+03  0.76377195134E+03  0.00000000000E+00 0.  1.
          1   -1    0    0  501    0 -0.00000000000E+00 -0.00000000000E+00 -0.19533775316E+04  0.19533775316E+04  0.00000000000E+00 0. -1.
         25    1    1    2    0    0  0.12633661623E+03 -0.93136794543E+01 -0.39733046568E+03  0.43536672379E+03  0.12500000000E+03 0.  0.
          1    1    1    2  501    0  0.65531990749E+02 -0.40695284424E+02 -0.15228382239E+04  0.15247907411E+04  0.00000000000E+00 0. -1.
          1    1    1    2  502    0 -0.19186860698E+03  0.50008963878E+02  0.73056310928E+03  0.75699201809E+03  0.00000000000E+00 0.  1.
<mgrwt>
<rscale>  0 0.12296520E+03</rscale>
<asrwt>0</asrwt>
<pdfrwt beam="1">  1        1 0.11750338E+00 0.19601350E+03</pdfrwt>
<pdfrwt beam="2">  1        1 0.30051962E+00 0.77139795E+02</pdfrwt>
<totfact> 0.12721059E+01</totfact>
</mgrwt>
</event>
<event>
 5    1  0.4149151E-003  0.1588721E+03  0.7546771E-02  0.1325376E+00
         -3   -1    0    0    0  501 -0.00000000000E+00  0.00000000000E+00  0.20438158315E+04  0.20438158315E+04  0.00000000000E+00 0.  1.
          2   -1    0    0  502    0  0.00000000000E+00 -0.00000000000E+00 -0.24357080859E+04  0.24357080859E+04  0.00000000000E+00 0. -1.
         25    1    1    2    0    0 -0.13038071444E+03  0.99769443231E+02 -0.13231620919E+04  0.13391549552E+04  0.12500000000E+03 0.  0.
          2    1    1    2  502    0 -0.16141260072E+02 -0.38355283549E+02 -0.11010563841E+04  0.11018424701E+04  0.00000000000E+00 0. -1.
         -3    1    1    2    0  501  0.14652197452E+03 -0.61414159683E+02  0.20323262216E+04  0.20385264921E+04  0.00000000000E+00 0.  1.
<mgrwt>
<rscale>  0 0.81309262E+02</rscale>
<asrwt>0</asrwt>
<pdfrwt beam="2">  1        2 0.37472432E+00 0.41613316E+02</pdfrwt>
<pdfrwt beam="1">  1       -3 0.31443321E+00 0.15887213E+03</pdfrwt>
<totfact> 0.13127454E-01</totfact>
</mgrwt>
</event>
<event>
 5    1  0.4149151E-003  0.1923325E+03  0.7546771E-02  0.1204835E+00
          2   -1    0    0  501    0  0.00000000000E+00  0.00000000000E+00  0.25256173150E+04  0.25256173150E+04  0.00000000000E+00 0. -1.
          1   -1    0    0  502    0 -0.00000000000E+00 -0.00000000000E+00 -0.89899107556E+02  0.89899107556E+02  0.00000000000E+00 0. -1.
         25    1    1    2    0    0  0.19707084000E+02 -0.23722036805E+03  0.12557569918E+04  0.12842166853E+04  0.12500000000E+03 0.  0.
          2    1    1    2  501    0 -0.92989837072E+02  0.61697246051E+02  0.11288398615E+04  0.11343425818E+04  0.00000000000E+00 0. -1.
          1    1    1    2  502    0  0.73282753072E+02  0.17552312199E+03  0.51121354106E+02  0.19695715549E+03  0.00000000000E+00 0. -1.
<mgrwt>
<rscale>  0 0.14650437E+03</rscale>
<asrwt>0</asrwt>
<pdfrwt beam="1">  1        2 0.38855646E+00 0.11159597E+03</pdfrwt>
<pdfrwt beam="2">  1        1 0.13830634E-01 0.19233248E+03</pdfrwt>
<totfact> 0.24189916E+02</totfact>
</mgrwt>
</event>
<event>
 5    1  0.4149151E-003  0.4580832E+02  0.7546771E-02  0.1498914E+00
          2   -1    0    0  501    0  0.00000000000E+00  0.00000000000E+00  0.68836698991E+02  0.68836698991E+02  0.00000000000E+00 0. -1.
          2   -1    0    0  502    0 -0.00000000000E+00 -0.00000000000E+00 -0.99292565362E+03  0.99292565362E+03  0.00000000000E+00 0. -1.
         25    1    1    2    0    0 -0.48506820517E+02 -0.38553274320E+01 -0.16163275841E+03  0.21004267132E+03  0.12500000000E+03 0.  0.
          2    1    1    2  501    0  0.34903746040E+02 -0.30790751192E+02  0.31941817085E+02  0.56450168514E+02  0.00000000000E+00 0. -1.
          2    1    1    2  502    0  0.13603074477E+02  0.34646078624E+02 -0.79439801331E+03  0.79526951278E+03  0.00000000000E+00 0. -1.
<mgrwt>
<rscale>  0 0.41291965E+02</rscale>
<asrwt>0</asrwt>
<pdfrwt beam="1">  1        2 0.10590262E-01 0.45808322E+02</pdfrwt>
<pdfrwt beam="2">  1        2 0.15275779E+00 0.37220887E+02</pdfrwt>
<totfact> 0.24255994E+03</totfact>
</mgrwt>
</event>
<event>
 5    1  0.4149151E-003  0.2958709E+03  0.7546771E-02  0.1168820E+00
          1   -1    0    0  501    0  0.00000000000E+00  0.00000000000E+00  0.41303986787E+03  0.41303986787E+03  0.00000000000E+00 0. -1.
          1   -1    0    0  502    0 -0.00000000000E+00 -0.00000000000E+00 -0.51064376748E+03  0.51064376748E+03  0.00000000000E+00 0. -1.
         25    1    1    2    0    0 -0.10405771587E+03  0.22374208446E+03 -0.12433993017E+03  0.30327206733E+03  0.12500000000E+03 0.  0.
          1    1    1    2  501    0  0.21147361696E+03 -0.23705196876E+03  0.22859159181E+03  0.39136791183E+03  0.00000000000E+00 0. -1.
          1    1    1    2  502    0 -0.10741590109E+03  0.13309884299E+02 -0.20185556126E+03  0.22904365618E+03  0.00000000000E+00 0. -1.
<mgrwt>
<rscale>  0 0.17895332E+03</rscale>
<asrwt>0</asrwt>
<pdfrwt beam="1">  1        1 0.63544595E-01 0.29587091E+03</pdfrwt>
<pdfrwt beam="2">  1        1 0.78560580E-01 0.10823737E+03</pdfrwt>
<totfact> 0.31268641E+02</totfact>
</mgrwt>
</event>
<event>
 5    1  0.4149151E-003  0.8405595E+02  0.7546771E-02  0.1447817E+00
          1   -1    0    0  502    0  0.00000000000E+00  0.00000000000E+00  0.74680661499E+03  0.74680661499E+03  0.00000000000E+00 0. -1.
         -2   -1    0    0    0  501 -0.00000000000E+00 -0.00000000000E+00 -0.25023934549E+02  0.25023934549E+02  0.00000000000E+00 0.  1.
         25    1    1    2    0    0  0.30732486430E+01  0.88979538690E+02  0.40645971603E+03  0.43446668908E+03  0.12500000000E+03 0.  0.
          1    1    1    2  502    0  0.24344569809E+02 -0.78928502433E+02  0.16838618505E+03  0.18755338944E+03  0.00000000000E+00 0. -1.
         -2    1    1    2    0  501 -0.27417818452E+02 -0.10051036257E+02  0.14693677936E+03  0.14981047102E+03  0.00000000000E+00 0.  1.
<mgrwt>
<rscale>  0 0.49543987E+02</rscale>
<asrwt>0</asrwt>
<pdfrwt beam="1">  1        1 0.11489331E+00 0.84055951E+02</pdfrwt>
<pdfrwt beam="2">  1       -2 0.38498367E-02 0.29202056E+02</pdfrwt>
<totfact> 0.53792854E+03</totfact>
</mgrwt>
</event>
<event>
 5    1  0.4149151E-003  0.7065370E+02  0.7546771E-02  0.1517112E+00
          2   -1    0    0  502    0  0.00000000000E+00  0.00000000000E+00  0.21009822363E+03  0.21009822363E+03  0.00000000000E+00 0. -1.
          2   -1    0    0  501    0 -0.00000000000E+00 -0.00000000000E+00 -0.12940216568E+04  0.12940216568E+04  0.00000000000E+00 0.  1.
         25    1    1    2    0    0 -0.23090059033E+02 -0.60184090392E+02  0.78999378316E+02  0.16131080973E+03  0.12500000000E+03 0.  0.
          2    1    1    2  501    0  0.43886479124E+02  0.55467385524E+02 -0.12505885185E+04  0.12525870415E+04  0.00000000000E+00 0.  1.
          2    1    1    2  502    0 -0.20796420091E+02  0.47167048679E+01  0.87665706946E+02  0.90222029282E+02  0.00000000000E+00 0. -1.
<mgrwt>
<rscale>  0 0.38815739E+02</rscale>
<asrwt>0</asrwt>
<pdfrwt beam="1">  1        2 0.32322803E-01 0.21324596E+02</pdfrwt>
<pdfrwt beam="2">  1        2 0.19908026E+00 0.70653699E+02</pdfrwt>
<totfact> 0.45720299E+02</totfact>
</mgrwt>
</event>
<event>
 5    1  0.4149151E-003  0.8876887E+02  0.7546771E-02  0.1466722E+00
         -1   -1    0    0    0  501 -0.00000000000E+00  0.00000000000E+00  0.27673144054E+03  0.27673144054E+03  0.00000000000E+00 0.  1.
          2   -1    0    0  502    0  0.00000000000E+00 -0.00000000000E+00 -0.14840981863E+03  0.14840981863E+03  0.00000000000E+00 0. -1.
         25    1    1    2    0    0 -0.30467625726E+02 -0.90855731700E+02  0.21809939622E+03  0.26902673999E+03  0.12500000000E+03 0.  0.
          2    1    1    2  502    0  0.18664485865E+02  0.15231413167E+02 -0.74190271862E+02  0.78003560295E+02  0.00000000000E+00 0. -1.
         -1    1    1    2    0  501  0.11803139861E+02  0.75624318533E+02 -0.15587502443E+02  0.78110958876E+02  0.00000000000E+00 0.  1.
<mgrwt>
<rscale>  0 0.46243906E+02</rscale>
<asrwt>0</asrwt>
<pdfrwt beam="2">  1        2 0.22832280E-01 0.24090641E+02</pdfrwt>
<pdfrwt beam="1">  1       -1 0.42574068E-01 0.88768865E+02</pdfrwt>
<totfact> 0.13759574E+03</totfact>
</mgrwt>
</event>
<event>
 5    1  0.4149151E-003  0.6046656E+02  0.7546771E-02  0.1441354E+00
          1   -1    0    0  502    0 -0.00000000000E+00  0.00000000000E+00  0.64263219692E+02  0.64263219692E+02  0.00000000000E+00 0. -1.
          2   -1    0    0  501    0  0.00000000000E+00 -0.00000000000E+00 -0.83279949848E+03  0.83279949848E+03  0.00000000000E+00 0. -1.
         25    1    1    2    0    0 -0.39989118441E+02 -0.19858741051E+02 -0.16840231942E+03  0.21442443978E+03  0.12500000000E+03 0.  0.
          2    1    1    2  501    0 -0.21690020318E+02  0.36652753683E+02 -0.61543585026E+03  0.61690774603E+03  0.00000000000E+00 0. -1.
          1    1    1    2  502    0  0.61679138759E+02 -0.16794012632E+02  0.15301890894E+02  0.65730532352E+02  0.00000000000E+00 0. -1.
<mgrwt>
<rscale>  0 0.50746941E+02</rscale>
<asrwt>0</asrwt>
<pdfrwt beam="2">  1        2 0.12812301E+00 0.42589686E+02</pdfrwt>
<pdfrwt beam="1">  1        1 0.98866487E-02 0.60466564E+02</pdfrwt>
<totfact> 0.29209042E+03</totfact>
</mgrwt>
</event>
<event>
 5    1  0.4149151E-003  0.1050259E+03  0.7546771E-02  0.1286035E+00
          2   -1    0    0  502    0  0.00000000000E+00  0.00000000000E+00  0.17852248591E+04  0.17852248591E+04  0.00000000000E+00 0. -1.
         -2   -1    0    0    0  501 -0.00000000000E+00 -0.00000000000E+00 -0.13189439514E+03  0.13189439514E+03  0.00000000000E+00 0.  1.
         25    1    1    2    0    0 -0.16865969067E+03  0.75556798372E+02  0.62929323491E+03  0.66767499320E+03  0.12500000000E+03 0.  0.
          2    1    1    2  502    0  0.67545129405E+02 -0.59748971918E+02  0.11112979498E+04  0.11149508587E+04  0.00000000000E+00 0. -1.
         -2    1    1    2    0  501  0.10111456127E+03 -0.15807826454E+02 -0.87260720750E+02  0.13449340230E+03  0.00000000000E+00 0.  1.
<mgrwt>
<rscale>  0 0.97319811E+02</rscale>
<asrwt>0</asrwt>
<pdfrwt beam="1">  1        2 0.27464996E+00 0.90179178E+02</pdfrwt>
<pdfrwt beam="2">  1       -2 0.20291447E-01 0.10502586E+03</pdfrwt>
<totfact> 0.21388461E+02</totfact>
</mgrwt>
</event>
<event>
 5    1  0.4149151E-003  0.1603362E+03  0.7546771E-02  0.1197182E+00
          2   -1    0    0  502    0  0.00000000000E+00  0.00000000000E+00  0.14219043027E+04  0.14219043027E+04  0.00000000000E+00 0. -1.
          2   -1    0    0  501    0 -0.00000000000E+00 -0.00000000000E+00 -0.24543420097E+03  0.24543420097E+03  0.00000000000E+00 0.  1.
         25    1    1    2    0    0 -0.47866386400E+02 -0.19120248763E+02  0.27628652686E+03  0.30759717128E+03  0.12500000000E+03 0.  0.
          2    1    1    2  501    0  0.60910055988E+02  0.16398143908E+03 -0.19094618872E+03  0.25896021755E+03  0.00000000000E+00 0.  1.
          2    1    1    2  502    0 -0.13043669589E+02 -0.14486119032E+03  0.10911297636E+04  0.11007811149E+04  0.00000000000E+00 0. -1.
<mgrwt>
<rscale>  0 0.15271039E+03</rscale>
<asrwt>0</asrwt>
<pdfrwt beam="1">  1        2 0.21875450E+00 0.14544725E+03</pdfrwt>
<pdfrwt beam="2">  1        2 0.37759109E-01 0.16033623E+03</pdfrwt>
<totfact> 0.33098861E+02</totfact>
</mgrwt>
</event>
<event>
 5    1  0.4149151E-003  0.3304643E+02  0.7546771E-02  0.1607735E+00
          1   -1    0    0  502    0 -0.00000000000E+00  0.00000000000E+00  0.10791948148E+03  0.10791948148E+03  0.00000000000E+00 0. -1.
          2   -1    0    0  501    0  0.00000000000E+00 -0.00000000000E+00 -0.10478606915E+04  0.10478606915E+04  0.00000000000E+00 0. -1.
         25    1    1    2    0    0 -0.33577714549E+02  0.44049866359E+02 -0.74060628410E+02  0.15549221949E+03  0.12500000000E+03 0.  0.
          2    1    1    2  501    0  0.26651271625E+02 -0.19296342323E+02 -0.93032487157E+03  0.93090655051E+03  0.00000000000E+00 0. -1.
          1    1    1    2  502    0  0.69264429249E+01 -0.24753524037E+02  0.64444289995E+02  0.69381402961E+02  0.00000000000E+00 0. -1.
<mgrwt>
<rscale>  0 0.29145090E+02</rscale>
<asrwt>0</asrwt>
<pdfrwt beam="2">  1        2 0.16120933E+00 0.33046427E+02</pdfrwt>
<pdfrwt beam="1">  1        1 0.16602998E-01 0.25704330E+02</pdfrwt>
<totfact> 0.10931833E+03</totfact>
</mgrwt>
</event>
<event>
 5    1  0.4149151E-003  0.6325451E+02  0.7546771E-02  0.1422239E+00
         -1   -1    0    0    0  501 -0.00000000000E+00  0.00000000000E+00  0.34499807611E+03  0.34499807611E+03  0.00000000000E+00 0.  1.
          2   -1    0    0  502    0  0.00000000000E+00 -0.00000000000E+00 -0.63469704632E+02  0.63469704632E+02  0.00000000000E+00 0. -1.
         25    1    1    2    0    0 -0.52878427028E+02 -0.86377343338E+02  0.19066008377E+03  0.24946631242E+03  0.12500000000E+03 0.  0.
          2    1    1    2  502    0  0.17100023230E+02  0.55832423175E+02  0.19728498681E+01  0.58425699899E+02  0.00000000000E+00 0. -1.
         -1    1    1    2    0  501  0.35778403798E+02  0.30544920163E+02  0.88895437838E+02  0.10057576843E+03  0.00000000000E+00 0.  1.
<mgrwt>
<rscale>  0 0.54550072E+02</rscale>
<asrwt>0</asrwt>
<pdfrwt beam="2">  1        2 0.97645701E-02 0.63254508E+02</pdfrwt>
<pdfrwt beam="1">  1       -1 0.53076626E-01 0.47043451E+02</pdfrwt>
<totfact> 0.25674827E+03</totfact>
</mgrwt>
</event>
<event>
 5    1  0.4149151E-003  0.6861903E+02  0.7546771E-02  0.1475219E+00
         -1   -1    0    0    0  501 -0.00000000000E+00  0.00000000000E+00  0.17392380647E+02  0.17392380647E+02  0.00000000000E+00 0.  1.
          2   -1    0    0  502    0  0.00000000000E+00 -0.00000000000E+00 -0.98714721729E+03  0.98714721729E+03  0.00000000000E+00 0. -1.
         25    1    1    2    0    0  0.61071443421E+02  0.16852968684E+02 -0.74358870515E+03  0.75667886595E+03  0.12500000000E+03 0.  0.
          2    1    1    2  502    0  0.86583025074E+01 -0.28019949133E+02 -0.86865763393E+02  0.91682847914E+02  0.00000000000E+00 0. -1.
         -1    1    1    2    0  501 -0.69729745929E+02  0.11166980449E+02 -0.13930036810E+03  0.15617788407E+03  0.00000000000E+00 0.  1.
<mgrwt>
<rscale>  0 0.44859814E+02</rscale>
<asrwt>0</asrwt>
<pdfrwt beam="2">  1        2 0.15186884E+00 0.29327185E+02</pdfrwt>
<pdfrwt beam="1">  1       -1 0.26757502E-02 0.68619030E+02</pdfrwt>
<totfact> 0.13013616E+04</totfact>
</mgrwt>
</event>
<event>
 5    1  0.4149151E-003  0.8888667E+02  0.7546771E-02  0.1367658E+00
          2   -1    0    0  502    0  0.00000000000E+00  0.00000000000E+00  0.27792870337E+04  0.27792870337E+04  0.00000000000E+00 0. -1.
          2   -1    0    0  501    0 -0.00000000000E+00 -0.00000000000E+00 -0.47632254370E+02  0.47632254370E+02  0.00000000000E+00 0. -1.
         25    1    1    2    0    0  0.12485796053E+03 -0.49502613109E+02  0.11205078766E+04  0.11354307203E+04  0.12500000000E+03 0.  0.
          2    1    1    2  501    0 -0.73158780729E+02  0.47209032156E+02  0.79212800923E+01  0.87427950869E+02  0.00000000000E+00 0. -1.
          2    1    1    2  502    0 -0.51699179798E+02  0.22935809526E+01  0.16032256226E+04  0.16040606169E+04  0.00000000000E+00 0. -1.
<mgrwt>
<rscale>  0 0.67822474E+02</rscale>
<asrwt>0</asrwt>
<pdfrwt beam="1">  1        2 0.42758249E+00 0.51750031E+02</pdfrwt>
<pdfrwt beam="2">  1        2 0.73280413E-02 0.88886672E+02</pdfrwt>
<totfact> 0.48702474E+02</totfact>
</mgrwt>
</event>
<event>
 5    1  0.4149151E-003  0.1818843E+03  0.7546771E-02  0.1380730E+00
         -2   -1    0    0    0  501 -0.00000000000E+00  0.00000000000E+00  0.14669154062E+03  0.14669154062E+03  0.00000000000E+00 0. -1.
          2   -1    0    0  502    0  0.00000000000E+00 -0.00000000000E+00 -0.20770747915E+04  0.20770747915E+04  0.00000000000E+00 0. -1.
         25    1    1    2    0    0  0.19018274738E+03 -0.50381872757E+02 -0.45597220567E+03  0.51209712247E+03  0.12500000000E+03 0.  0.
          2    1    1    2  502    0 -0.16924831949E+03  0.59189457065E+02 -0.15868560260E+04  0.15969534848E+04  0.00000000000E+00 0. -1.
         -2    1    1    2    0  501 -0.20934427889E+02 -0.88075843076E+01  0.11244498080E+03  0.11471572481E+03  0.00000000000E+00 0. -1.
<mgrwt>
<rscale>  0 0.64272167E+02</rscale>
<asrwt>0</asrwt>
<pdfrwt beam="2">  1        2 0.31954996E+00 0.18188429E+03</pdfrwt>
<pdfrwt beam="1">  1       -2 0.22567930E-01 0.22711755E+02</pdfrwt>
<totfact> 0.11009805E+02</totfact>
</mgrwt>
</event>
<event>
 5    1  0.4149151E-003  0.4429408E+02  0.7546771E-02  0.1531332E+00
          1   -1    0    0  501    0  0.00000000000E+00  0.00000000000E+00  0.27382962934E+03  0.27382962934E+03  0.00000000000E+00 0. -1.
          3   -1    0    0  502    0 -0.00000000000E+00 -0.00000000000E+00 -0.11994468870E+04  0.11994468870E+04  0.00000000000E+00 0. -1.
         25    1    1    2    0    0 -0.19616963755E+02 -0.47189778285E+01 -0.92654242981E+03  0.93515398104E+03  0.12500000000E+03 0.  0.
          1    1    1    2  501    0  0.40465493358E+02 -0.18150659941E+02  0.26679584997E+03  0.27045688782E+03  0.00000000000E+00 0. -1.
          3    1    1    2  502    0 -0.20848529602E+02  0.22869637770E+02 -0.26587067782E+03  0.26766564748E+03  0.00000000000E+00 0. -1.
<mgrwt>
<rscale>  0 0.37023554E+02</rscale>
<asrwt>0</asrwt>
<pdfrwt beam="1">  1        1 0.42127635E-01 0.44294078E+02</pdfrwt>
<pdfrwt beam="2">  1        3 0.18453029E+00 0.30946430E+02</pdfrwt>
<totfact> 0.11010083E+01</totfact>
</mgrwt>
</event>
<event>
 5    1  0.4149151E-003  0.3993576E+02  0.7546771E-02  0.1514543E+00
         -1   -1    0    0    0  501 -0.00000000000E+00  0.00000000000E+00  0.56989326824E+02  0.56989326824E+02  0.00000000000E+00 0.  1.
          1   -1    0    0  502    0  0.00000000000E+00 -0.00000000000E+00 -0.15543156981E+04  0.15543156981E+04  0.00000000000E+00 0. -1.
         25    1    1    2    0    0 -0.35033331851E+01  0.40233226334E+02 -0.84937131796E+03  0.85946938376E+03  0.12500000000E+03 0.  0.
          1    1    1    2  502    0  0.35097552960E+02 -0.15541105657E+02 -0.69154384467E+03  0.69260829715E+03  0.00000000000E+00 0. -1.
         -1    1    1    2    0  501 -0.31594219774E+02 -0.24692120677E+02  0.43588791354E+02  0.59227344010E+02  0.00000000000E+00 0.  1.
<mgrwt>
<rscale>  0 0.39152410E+02</rscale>
<asrwt>0</asrwt>
<pdfrwt beam="2">  1        1 0.23912547E+00 0.38384426E+02</pdfrwt>
<pdfrwt beam="1">  1       -1 0.87675897E-02 0.39935759E+02</pdfrwt>
<totfact> 0.52253290E+02</totfact>
</mgrwt>
</event>
<event>
 5    1  0.4149151E-003  0.9213937E+02  0.7546771E-02  0.1344940E+00
          3   -1    0    0  502    0 -0.00000000000E+00  0.00000000000E+00  0.55085703016E+02  0.55085703016E+02  0.00000000000E+00 0. -1.
          2   -1    0    0  501    0  0.00000000000E+00 -0.00000000000E+00 -0.88973548959E+03  0.88973548959E+03  0.00000000000E+00 0. -1.
         25    1    1    2    0    0  0.32473865629E+02 -0.17964458723E+02 -0.87483535192E+02  0.15702115353E+03  0.12500000000E+03 0.  0.
          2    1    1    2  501    0 -0.88722676533E+02  0.40214732585E+02 -0.71032743735E+03  0.71697559673E+03  0.00000000000E+00 0. -1.
          3    1    1    2  502    0  0.56248810904E+02 -0.22250273862E+02 -0.36838814031E+02  0.70824442350E+02  0.00000000000E+00 0. -1.
<mgrwt>
<rscale>  0 0.74655759E+02</rscale>
<asrwt>0</asrwt>
<pdfrwt beam="2">  1        2 0.13688237E+00 0.92139366E+02</pdfrwt>
<pdfrwt beam="1">  1        3 0.84747240E-02 0.60489697E+02</pdfrwt>
<totfact> 0.16730751E+03</totfact>
</mgrwt>
</event>
<event>
 5    1  0.4149151E-003  0.2583686E+02  0.7546771E-02  0.1673015E+00
         -2   -1    0    0    0  501 -0.00000000000E+00  0.00000000000E+00  0.28271323915E+02  0.28271323915E+02  0.00000000000E+00 0.  1.
          1   -1    0    0  502    0  0.00000000000E+00 -0.00000000000E+00 -0.55540260631E+03  0.55540260631E+03  0.00000000000E+00 0. -1.
         25    1    1    2    0    0 -0.38843198215E+01 -0.39219882123E+02 -0.44141515637E+03  0.46046240604E+03  0.12500000000E+03 0.  0.
          1    1    1    2  502    0  0.15623244846E+02  0.16379703631E+02 -0.93639598632E+02  0.96336674754E+02  0.00000000000E+00 0. -1.
         -2    1    1    2    0  501 -0.11738925025E+02  0.22840178492E+02  0.79234726085E+01  0.26874849441E+02  0.00000000000E+00 0.  1.
<mgrwt>
<rscale>  0 0.24183436E+02</rscale>
<asrwt>0</asrwt>
<pdfrwt beam="2">  1        1 0.85446556E-01 0.22635823E+02</pdfrwt>
<pdfrwt beam="1">  1       -2 0.43494344E-02 0.25836859E+02</pdfrwt>
<totfact> 0.69084099E+03</totfact>
</mgrwt>
</event>
<event>
 5    1  0.4149151E-003  0.6144984E+02  0.7546771E-02  0.1425174E+00
          1   -1    0    0  502    0 -0.00000000000E+00  0.00000000000E+00  0.97083784483E+03  0.97083784483E+03  0.00000000000E+00 0. -1.
          2   -1    0    0  501    0  0.00000000000E+00 -0.00000000000E+00 -0.17704379356E+04  0.17704379356E+04  0.00000000000E+00 0. -1.
         25    1    1    2    0    0 -0.26159621170E+01  0.70657030348E+02  0.13251885512E+02  0.14422160610E+03  0.12500000000E+03 0.  0.
          2    1    1    2  501    0 -0.39653810761E+02 -0.25876372062E+02 -0.17035610571E+04  0.17042189668E+04  0.00000000000E+00 0. -1.
          1    1    1    2  502    0  0.42269772878E+02 -0.44780658285E+02  0.89070908088E+03  0.89283520754E+03  0.00000000000E+00 0. -1.
<mgrwt>
<rscale>  0 0.53941104E+02</rscale>
<asrwt>0</asrwt>
<pdfrwt beam="2">  1        2 0.27237507E+00 0.47349882E+02</pdfrwt>
<pdfrwt beam="1">  1        1 0.14935967E+00 0.61449841E+02</pdfrwt>
<totfact> 0.29434708E+01</totfact>
</mgrwt>
</event>
<event>
 5    1  0.4149151E-003  0.9486251E+02  0.7546771E-02  0.1369130E+00
         -2   -1    0    0    0  501  0.00000000000E+00  0.00000000000E+00  0.26251079063E+04  0.26251079063E+04  0.00000000000E+00 0.  1.
         -2   -1    0    0    0  502 -0.00000000000E+00 -0.00000000000E+00 -0.89899145194E+02  0.89899145194E+02  0.00000000000E+00 0.  1.
         25    1    1    2    0    0  0.11615825669E+03 -0.29760897846E+02  0.15470288728E+03  0.23224219033E+03  0.12500000000E+03 0.  0.
         -2    1    1    2    0  502 -0.90310531030E+02 -0.10568256910E+02 -0.10273800784E+02  0.91505360781E+02  0.00000000000E+00 0.  1.
         -2    1    1    2    0  501 -0.25847725658E+02  0.40329154756E+02  0.23907796746E+04  0.23912595003E+04  0.00000000000E+00 0.  1.
<mgrwt>
<rscale>  0 0.67409557E+02</rscale>
<asrwt>0</asrwt>
<pdfrwt beam="1">  1       -2 0.40386270E+00 0.47901416E+02</pdfrwt>
<pdfrwt beam="2">  1       -2 0.13830640E-01 0.94862506E+02</pdfrwt>
<totfact> 0.27106166E+00</totfact>
</mgrwt>
</event>
<event>
 5    1  0.4149151E-003  0.2682599E+03  0.7546771E-02  0.1215736E+00
          1   -1    0    0  502    0  0.00000000000E+00  0.00000000000E+00  0.19028497370E+04  0.19028497370E+04  0.00000000000E+00 0. -1.
         -1   -1    0    0    0  501 -0.00000000000E+00 -0.00000000000E+00 -0.29233026906E+03  0.29233026906E+03  0.00000000000E+00 0.  1.
         25    1    1    2    0    0  0.25750366022E+03 -0.88660976221E+02 -0.22975237599E+02  0.30053579699E+03  0.12500000000E+03 0.  0.
          1    1    1    2  502    0 -0.22235818361E+03  0.15060953115E+03  0.17432436463E+04  0.17638097412E+04  0.00000000000E+00 0. -1.
         -1    1    1    2    0  501 -0.35145476609E+02 -0.61948554931E+02 -0.10974894077E+03  0.13083446787E+03  0.00000000000E+00 0.  1.
<mgrwt>
<rscale>  0 0.13822622E+03</rscale>
<asrwt>0</asrwt>
<pdfrwt beam="1">  1        1 0.29274611E+00 0.26825993E+03</pdfrwt>
<pdfrwt beam="2">  1       -1 0.44973889E-01 0.71223788E+02</pdfrwt>
<totfact> 0.19872163E+01</totfact>
</mgrwt>
</event>
<event>
 5    1  0.4149151E-003  0.6173670E+02  0.7546771E-02  0.1525408E+00
         -1   -1    0    0    0  501 -0.00000000000E+00  0.00000000000E+00  0.13803372485E+02  0.13803372485E+02  0.00000000000E+00 0.  1.
          2   -1    0    0  502    0  0.00000000000E+00 -0.00000000000E+00 -0.13715776417E+04  0.13715776417E+04  0.00000000000E+00 0. -1.
         25    1    1    2    0    0  0.66926225104E+02 -0.17910551098E+02 -0.46892958487E+03  0.49022429868E+03  0.12500000000E+03 0.  0.
          2    1    1    2  502    0 -0.50745633086E+02  0.34382716888E+02 -0.82484081174E+03  0.82711526114E+03  0.00000000000E+00 0. -1.
         -1    1    1    2    0  501 -0.16180592018E+02 -0.16472165790E+02 -0.64003872566E+02  0.68041454330E+02  0.00000000000E+00 0.  1.
<mgrwt>
<rscale>  0 0.37755723E+02</rscale>
<asrwt>0</asrwt>
<pdfrwt beam="2">  1        2 0.21101188E+00 0.61736700E+02</pdfrwt>
<pdfrwt beam="1">  1       -1 0.21235965E-02 0.23089907E+02</pdfrwt>
<totfact> 0.90275392E+03</totfact>
</mgrwt>
</event>
<event>
 5    1  0.4149151E-003  0.9630243E+02  0.7546771E-02  0.1340977E+00
         -2   -1    0    0    0  501 -0.00000000000E+00  0.00000000000E+00  0.15328274156E+03  0.15328274156E+03  0.00000000000E+00 0. -1.
          2   -1    0    0  502    0  0.00000000000E+00 -0.00000000000E+00 -0.58787234243E+03  0.58787234243E+03  0.00000000000E+00 0. -1.
         25    1    1    2    0    0 -0.55198125671E+02  0.88634963969E+02 -0.18907202736E+03  0.24955204156E+03  0.12500000000E+03 0.  0.
          2    1    1    2  502    0 -0.33650299265E+02 -0.49539227663E+02 -0.34643818489E+03  0.35157629850E+03  0.00000000000E+00 0. -1.
         -2    1    1    2    0  501  0.88848424936E+02 -0.39095736307E+02  0.10092061139E+03  0.14002674393E+03  0.00000000000E+00 0. -1.
<mgrwt>
<rscale>  0 0.75942633E+02</rscale>
<asrwt>0</asrwt>
<pdfrwt beam="2">  1        2 0.90441900E-01 0.59887208E+02</pdfrwt>
<pdfrwt beam="1">  1       -2 0.23581960E-01 0.96302427E+02</pdfrwt>
<totfact> 0.82211714E+02</totfact>
</mgrwt>
</event>
<event>
 5    1  0.4149151E-003  0.9292992E+02  0.7546771E-02  0.1429595E+00
          2   -1    0    0  501    0  0.00000000000E+00  0.00000000000E+00  0.52169847305E+03  0.52169847305E+03  0.00000000000E+00 0.  1.
          1   -1    0    0  502    0 -0.00000000000E+00 -0.00000000000E+00 -0.30529303396E+03  0.30529303396E+03  0.00000000000E+00 0. -1.
         25    1    1    2    0    0 -0.11617011383E+03  0.17135443111E+02 -0.20387835085E+02  0.17271300639E+03  0.12500000000E+03 0.  0.
          2    1    1    2  501    0  0.91788996861E+02  0.81152271304E+00  0.43967280563E+03  0.44915259603E+03  0.00000000000E+00 0.  1.
          1    1    1    2  502    0  0.24381116967E+02 -0.17946965824E+02 -0.20287953146E+03  0.20512590458E+03  0.00000000000E+00 0. -1.
<mgrwt>
<rscale>  0 0.53041371E+02</rscale>
<asrwt>0</asrwt>
<pdfrwt beam="1">  1        2 0.80261303E-01 0.92929919E+02</pdfrwt>
<pdfrwt beam="2">  1        1 0.46968159E-01 0.30274287E+02</pdfrwt>
<totfact> 0.70352507E+02</totfact>
</mgrwt>
</event>
<event>
 5    1  0.4149151E-003  0.6476660E+02  0.7546771E-02  0.1438986E+00
         -1   -1    0    0    0  501 -0.00000000000E+00  0.00000000000E+00  0.32861686307E+02  0.32861686307E+02  0.00000000000E+00 0.  1.
          1   -1    0    0  502    0  0.00000000000E+00 -0.00000000000E+00 -0.59399991946E+03  0.59399991946E+03  0.00000000000E+00 0. -1.
         25    1    1    2    0    0  0.52440339785E+02  0.65427342638E+02 -0.36705635163E+03  0.39671915970E+03  0.12500000000E+03 0.  0.
          1    1    1    2  502    0 -0.54943871381E+02 -0.25033202374E+02 -0.17552501123E+03  0.18561928723E+03  0.00000000000E+00 0. -1.
         -1    1    1    2    0  501  0.25035315958E+01 -0.40394140264E+02 -0.18556870293E+02  0.44523158841E+02  0.00000000000E+00 0.  1.
<mgrwt>
<rscale>  0 0.51197765E+02</rscale>
<asrwt>0</asrwt>
<pdfrwt beam="2">  1        1 0.91384597E-01 0.64766605E+02</pdfrwt>
<pdfrwt beam="1">  1       -1 0.50556444E-02 0.40471647E+02</pdfrwt>
<totfact> 0.53883433E+03</totfact>
</mgrwt>
</event>
<event>
 5    1  0.4149151E-003  0.7391560E+02  0.7546771E-02  0.1507485E+00
         -1   -1    0    0    0  501 -0.00000000000E+00  0.00000000000E+00  0.34600636908E+02  0.34600636908E+02  0.00000000000E+00 0.  1.
          1   -1    0    0  502    0  0.00000000000E+00 -0.00000000000E+00 -0.97018888431E+03  0.97018888431E+03  0.00000000000E+00 0. -1.
         25    1    1    2    0    0 -0.27867602414E+02  0.71383880977E+02 -0.83892831692E+03  0.85164428176E+03  0.12500000000E+03 0.  0.
          1    1    1    2  502    0  0.61185546178E+01 -0.70946513407E+02 -0.10741740657E+03  0.12887724279E+03  0.00000000000E+00 0. -1.
         -1    1    1    2    0  501  0.21749047796E+02 -0.43736756977E+00  0.10757476087E+02  0.24267996666E+02  0.00000000000E+00 0.  1.
<mgrwt>
<rscale>  0 0.40098863E+02</rscale>
<asrwt>0</asrwt>
<pdfrwt beam="2">  1        1 0.14925983E+00 0.73915595E+02</pdfrwt>
<pdfrwt beam="1">  1       -1 0.53231747E-02 0.21753445E+02</pdfrwt>
<totfact> 0.22610943E+03</totfact>
</mgrwt>
</event>
<event>
 5    1  0.4149151E-003  0.1242074E+03  0.7546771E-02  0.1256368E+00
          1   -1    0    0  502    0 -0.00000000000E+00  0.00000000000E+00  0.56483981950E+03  0.56483981950E+03  0.00000000000E+00 0. -1.
          2   -1    0    0  501    0  0.00000000000E+00 -0.00000000000E+00 -0.16741262694E+04  0.16741262694E+04  0.00000000000E+00 0.  1.
         25    1    1    2    0    0 -0.37028238911E+02 -0.59485082467E+02 -0.28942878859E+02  0.14619252973E+03  0.12500000000E+03 0.  0.
          2    1    1    2  501    0 -0.44738030320E+02  0.11968169233E+03 -0.15788603369E+04  0.15840218314E+04  0.00000000000E+00 0.  1.
          1    1    1    2  502    0  0.81766269231E+02 -0.60196609868E+02  0.49851676589E+03  0.50875172776E+03  0.00000000000E+00 0. -1.
<mgrwt>
<rscale>  0 0.11230050E+03</rscale>
<asrwt>0</asrwt>
<pdfrwt beam="2">  1        2 0.25755788E+00 0.12420744E+03</pdfrwt>
<pdfrwt beam="1">  1        1 0.86898436E-01 0.10153499E+03</pdfrwt>
<totfact> 0.63837243E+01</totfact>
</mgrwt>
</event>
<event>
 5    1  0.4149151E-003  0.3844722E+02  0.7546771E-02  0.1581358E+00
          2   -1    0    0  502    0  0.00000000000E+00  0.00000000000E+00  0.46317081981E+03  0.46317081981E+03  0.00000000000E+00 0. -1.
         -2   -1    0    0    0  501 -0.00000000000E+00 -0.00000000000E+00 -0.25194106166E+03  0.25194106166E+03  0.00000000000E+00 0.  1.
         25    1    1    2    0    0  0.46353168465E+02 -0.85756722321E+01 -0.89786990387E+01  0.13389464298E+03  0.12500000000E+03 0.  0.
          2    1    1    2  502    0 -0.10960403666E+02  0.23491464034E+02  0.39824360882E+03  0.39908639578E+03  0.00000000000E+00 0. -1.
         -2    1    1    2    0  501 -0.35392764799E+02 -0.14915791802E+02 -0.17803515164E+03  0.18213084270E+03  0.00000000000E+00 0.  1.
<mgrwt>
<rscale>  0 0.31569771E+02</rscale>
<asrwt>0</asrwt>
<pdfrwt beam="1">  1        2 0.71257049E-01 0.25922564E+02</pdfrwt>
<pdfrwt beam="2">  1       -2 0.38760163E-01 0.38447217E+02</pdfrwt>
<totfact> 0.43184194E+02</totfact>
</mgrwt>
</event>
<event>
 5    1  0.4149151E-003  0.8150256E+02  0.7546771E-02  0.1349519E+00
          1   -1    0    0  501    0  0.00000000000E+00  0.00000000000E+00  0.93076847364E+03  0.93076847364E+03  0.00000000000E+00 0. -1.
          1   -1    0    0  502    0 -0.00000000000E+00 -0.00000000000E+00 -0.12226711136E+04  0.12226711136E+04  0.00000000000E+00 0. -1.
         25    1    1    2    0    0 -0.44323154324E+02 -0.20092810006E+01 -0.41127149791E+03  0.43213172090E+03  0.12500000000E+03 0.  0.
          1    1    1    2  501    0  0.51676760415E+02 -0.63331518412E+02  0.91716824297E+03  0.92080342892E+03  0.00000000000E+00 0. -1.
          1    1    1    2  502    0 -0.73536060913E+01  0.65340799412E+02 -0.79779938498E+03  0.80050443738E+03  0.00000000000E+00 0. -1.
<mgrwt>
<rscale>  0 0.73205614E+02</rscale>
<asrwt>0</asrwt>
<pdfrwt beam="1">  1        1 0.14319515E+00 0.81502564E+02</pdfrwt>
<pdfrwt beam="2">  1        1 0.18810325E+00 0.65753293E+02</pdfrwt>
<totfact> 0.28888921E+01</totfact>
</mgrwt>
</event>
<event>
 5    1  0.4149151E-003  0.5948203E+02  0.7546771E-02  0.1430723E+00
          3   -1    0    0  502    0  0.00000000000E+00  0.00000000000E+00  0.16850268416E+03  0.16850268416E+03  0.00000000000E+00 0. -1.
         -1   -1    0    0    0  501 -0.00000000000E+00 -0.00000000000E+00 -0.31162150873E+03  0.31162150873E+03  0.00000000000E+00 0.  1.
         25    1    1    2    0    0 -0.15633896227E+02 -0.55292332097E+02  0.14040523424E+02  0.13828881733E+03  0.12500000000E+03 0.  0.
          3    1    1    2  502    0  0.46765884289E+02  0.34863303167E+01  0.82377681260E+02  0.94790742176E+02  0.00000000000E+00 0. -1.
         -1    1    1    2    0  501 -0.31131988062E+02  0.51806001780E+02 -0.23953702926E+03  0.24704463339E+03  0.00000000000E+00 0.  1.
<mgrwt>
<rscale>  0 0.52815231E+02</rscale>
<asrwt>0</asrwt>
<pdfrwt beam="1">  1        3 0.25923491E-01 0.46895655E+02</pdfrwt>
<pdfrwt beam="2">  1       -1 0.47941769E-01 0.59482027E+02</pdfrwt>
<totfact> 0.25448835E+02</totfact>
</mgrwt>
</event>
<event>
 5    1  0.4149151E-003  0.1691629E+03  0.7546771E-02  0.1335596E+00
          1   -1    0    0  502    0  0.00000000000E+00  0.00000000000E+00  0.21743587953E+03  0.21743587953E+03  0.00000000000E+00 0. -1.
         -2   -1    0    0    0  501 -0.00000000000E+00 -0.00000000000E+00 -0.20318611267E+03  0.20318611267E+03  0.00000000000E+00 0.  1.
         25    1    1    2    0    0 -0.10483632987E+03  0.14988445586E+03  0.48993901672E+01  0.22159650312E+03  0.12500000000E+03 0.  0.
          1    1    1    2  502    0  0.35005668332E+02 -0.71290387933E+01 -0.14058891262E+02  0.38391046261E+02  0.00000000000E+00 0. -1.
         -2    1    1    2    0  501  0.69830661535E+02 -0.14275541707E+03  0.23409267957E+02  0.16063444282E+03  0.00000000000E+00 0.  1.
<mgrwt>
<rscale>  0 0.77738101E+02</rscale>
<asrwt>0</asrwt>
<pdfrwt beam="1">  1        1 0.33451674E-01 0.35724222E+02</pdfrwt>
<pdfrwt beam="2">  1       -2 0.31259402E-01 0.16916288E+03</pdfrwt>
<totfact> 0.10611243E+03</totfact>
</mgrwt>
</event>
<event>
 5    1  0.4149151E-003  0.5939627E+02  0.7546771E-02  0.1531439E+00
         -1   -1    0    0    0  501 -0.00000000000E+00  0.00000000000E+00  0.90368631245E+03  0.90368631245E+03  0.00000000000E+00 0.  1.
          2   -1    0    0  502    0  0.00000000000E+00 -0.00000000000E+00 -0.16140159435E+02  0.16140159435E+02  0.00000000000E+00 0. -1.
         25    1    1    2    0    0  0.52108883395E+02  0.33196549468E+02  0.57261476963E+03  0.58934711421E+03  0.12500000000E+03 0.  0.
          2    1    1    2  502    0 -0.17267545887E+02  0.15286245586E+02  0.23239301997E+02  0.32739923677E+02  0.00000000000E+00 0. -1.
         -1    1    1    2    0  501 -0.34841337508E+02 -0.48482795054E+02  0.29169208138E+03  0.29773943400E+03  0.00000000000E+00 0.  1.
<mgrwt>
<rscale>  0 0.37010447E+02</rscale>
<asrwt>0</asrwt>
<pdfrwt beam="2">  1        2 0.24831022E-02 0.23061601E+02</pdfrwt>
<pdfrwt beam="1">  1       -1 0.13902862E+00 0.59396274E+02</pdfrwt>
<totfact> 0.17043104E+03</totfact>
</mgrwt>
</event>
<event>
 5    1  0.4149151E-003  0.1838779E+03  0.7546771E-02  0.1243324E+00
          2   -1    0    0  501    0  0.00000000000E+00  0.00000000000E+00  0.16600810990E+04  0.16600810990E+04  0.00000000000E+00 0. -1.
          1   -1    0    0  502    0 -0.00000000000E+00 -0.00000000000E+00 -0.15319325480E+03  0.15319325480E+03  0.00000000000E+00 0. -1.
         25    1    1    2    0    0 -0.21561649172E+03 -0.10091733152E+03  0.76634124891E+03  0.81214450013E+03  0.12500000000E+03 0.  0.
          2    1    1    2  501    0  0.13806377384E+03  0.91409248079E+02  0.85037429382E+03  0.86634502126E+03  0.00000000000E+00 0. -1.
          1    1    1    2  502    0  0.77552717879E+02  0.95080834440E+01 -0.10982769850E+03  0.13478483245E+03  0.00000000000E+00 0. -1.
<mgrwt>
<rscale>  0 0.11986244E+03</rscale>
<asrwt>0</asrwt>
<pdfrwt beam="1">  1        2 0.25539708E+00 0.18387790E+03</pdfrwt>
<pdfrwt beam="2">  1        1 0.23568194E-01 0.78133397E+02</pdfrwt>
<totfact> 0.31620337E+02</totfact>
</mgrwt>
</event>
<event>
 5    1  0.4149151E-003  0.5430596E+02  0.7546771E-02  0.1476952E+00
          2   -1    0    0  502    0  0.00000000000E+00  0.00000000000E+00  0.24478069241E+03  0.24478069241E+03  0.00000000000E+00 0.  1.
         -1   -1    0    0    0  501 -0.00000000000E+00 -0.00000000000E+00 -0.67303098665E+03  0.67303098665E+03  0.00000000000E+00 0.  1.
         25    1    1    2    0    0 -0.50704028656E+02  0.24776913770E+02  0.36131285362E+00  0.13714927825E+03  0.12500000000E+03 0.  0.
          2    1    1    2  502    0 -0.24997148642E+01 -0.36517876639E+02  0.17287784993E+03  0.17671037006E+03  0.00000000000E+00 0.  1.
         -1    1    1    2    0  501  0.53203743520E+02  0.11740962869E+02 -0.60148945703E+03  0.60395203075E+03  0.00000000000E+00 0.  1.
<mgrwt>
<rscale>  0 0.44584516E+02</rscale>
<asrwt>0</asrwt>
<pdfrwt beam="1">  1        2 0.37658568E-01 0.36603332E+02</pdfrwt>
<pdfrwt beam="2">  1       -1 0.10354323E+00 0.54305960E+02</pdfrwt>
<totfact> 0.15202386E+02</totfact>
</mgrwt>
</event>
<event>
 5    1  0.4149151E-003  0.7768881E+02  0.7546771E-02  0.1354987E+00
         -2   -1    0    0    0  501 -0.00000000000E+00  0.00000000000E+00  0.69662452499E+02  0.69662452499E+02  0.00000000000E+00 0.  1.
          2   -1    0    0  502    0  0.00000000000E+00 -0.00000000000E+00 -0.40805426594E+03  0.40805426594E+03  0.00000000000E+00 0. -1.
         25    1    1    2    0    0  0.11891568874E+03  0.49923587468E+02 -0.19451762758E+03  0.26475538343E+03  0.12500000000E+03 0.  0.
          2    1    1    2  502    0 -0.50909552814E+02 -0.41763030253E+02 -0.12600762694E+03  0.14217543849E+03  0.00000000000E+00 0. -1.
         -2    1    1    2    0  501 -0.68006135930E+02 -0.81605572151E+01 -0.17866558923E+02  0.70785896519E+02  0.00000000000E+00 0.  1.
<mgrwt>
<rscale>  0 0.71523685E+02</rscale>
<asrwt>0</asrwt>
<pdfrwt beam="2">  1        2 0.62777580E-01 0.65847804E+02</pdfrwt>
<pdfrwt beam="1">  1       -2 0.10717300E-01 0.77688810E+02</pdfrwt>
<totfact> 0.43308843E+03</totfact>
</mgrwt>
</event>
<event>
 5    1  0.4149151E-003  0.1327911E+03  0.7546771E-02  0.1233523E+00
          2   -1    0    0  502    0  0.00000000000E+00  0.00000000000E+00  0.16023676827E+04  0.16023676827E+04  0.00000000000E+00 0. -1.
         -2   -1    0    0    0  501 -0.00000000000E+00 -0.00000000000E+00 -0.57971847501E+02  0.57971847501E+02  0.00000000000E+00 0.  1.
         25    1    1    2    0    0  0.52339530085E+02  0.33190374697E+02  0.42430471919E+03  0.44665481315E+03  0.12500000000E+03 0.  0.
          2    1    1    2  502    0 -0.14572676924E+03 -0.10782405858E+03  0.10680108195E+04  0.10832864023E+04  0.00000000000E+00 0. -1.
         -2    1    1    2    0  501  0.93387239156E+02  0.74633683880E+02  0.52080296547E+02  0.13039831477E+03  0.00000000000E+00 0.  1.
<mgrwt>
<rscale>  0 0.12599490E+03</rscale>
<asrwt>0</asrwt>
<pdfrwt beam="1">  1        2 0.24651807E+00 0.13279113E+03</pdfrwt>
<pdfrwt beam="2">  1       -2 0.89187470E-02 0.11954649E+03</pdfrwt>
<totfact> 0.96786211E+02</totfact>
</mgrwt>
</event>
<event>
 5    1  0.4149151E-003  0.8495041E+02  0.7546771E-02  0.1497985E+00
         -2   -1    0    0    0  501 -0.00000000000E+00  0.00000000000E+00  0.85762130834E+01  0.85762130834E+01  0.00000000000E+00 0.  1.
          1   -1    0    0  502    0  0.00000000000E+00 -0.00000000000E+00 -0.23329033986E+04  0.23329033986E+04  0.00000000000E+00 0. -1.
         25    1    1    2    0    0  0.51094329067E+02 -0.81061277002E+02 -0.11470780391E+04  0.11578404851E+04  0.12500000000E+03 0.  0.
          1    1    1    2  502    0 -0.18703231070E+02  0.76297394390E+01 -0.65024743807E+03  0.65056110742E+03  0.00000000000E+00 0. -1.
         -2    1    1    2    0  501 -0.32391097997E+02  0.73431537564E+02 -0.52700170841E+03  0.53307801925E+03  0.00000000000E+00 0.  1.
<mgrwt>
<rscale>  0 0.41424198E+02</rscale>
<asrwt>0</asrwt>
<pdfrwt beam="2">  1        1 0.35890822E+00 0.20199598E+02</pdfrwt>
<pdfrwt beam="1">  1       -2 0.13194174E-02 0.84950412E+02</pdfrwt>
<totfact> 0.32099361E+03</totfact>
</mgrwt>
</event>
<event>
 5    1  0.4149151E-003  0.7269832E+02  0.7546771E-02  0.1372401E+00
          2   -1    0    0  502    0  0.00000000000E+00  0.00000000000E+00  0.13200230021E+03  0.13200230021E+03  0.00000000000E+00 0. -1.
          2   -1    0    0  501    0 -0.00000000000E+00 -0.00000000000E+00 -0.14039575936E+04  0.14039575936E+04  0.00000000000E+00 0. -1.
         25    1    1    2    0    0 -0.28081574434E+02 -0.19435809121E+02 -0.52450107429E+03  0.54027095279E+03  0.12500000000E+03 0.  0.
          2    1    1    2  501    0 -0.41249761388E+02  0.44717791741E+02 -0.85943092773E+03  0.86158153604E+03  0.00000000000E+00 0. -1.
          2    1    1    2  502    0  0.69331335821E+02 -0.25281982619E+02  0.11197670867E+03  0.13410740493E+03  0.00000000000E+00 0. -1.
<mgrwt>
<rscale>  0 0.66504116E+02</rscale>
<asrwt>0</asrwt>
<pdfrwt beam="1">  1        2 0.20308047E-01 0.72698321E+02</pdfrwt>
<pdfrwt beam="2">  1        2 0.21599346E+00 0.60837683E+02</pdfrwt>
<totfact> 0.69506429E+02</totfact>
</mgrwt>
</event>
<event>
 5    1  0.4149151E-003  0.5142962E+02  0.7546771E-02  0.1460174E+00
         -1   -1    0    0    0  501 -0.00000000000E+00  0.00000000000E+00  0.30908402970E+03  0.30908402970E+03  0.00000000000E+00 0.  1.
          2   -1    0    0  502    0  0.00000000000E+00 -0.00000000000E+00 -0.53404407301E+02  0.53404407301E+02  0.00000000000E+00 0. -1.
         25    1    1    2    0    0 -0.26222975542E+02 -0.69002712779E+02  0.17240005443E+03  0.22537923060E+03  0.12500000000E+03 0.  0.
          2    1    1    2  502    0 -0.13327291053E+02  0.41509813566E+02  0.32695417371E+01  0.43719231606E+02  0.00000000000E+00 0. -1.
         -1    1    1    2    0  501  0.39550266595E+02  0.27492899213E+02  0.80010026235E+02  0.93389974799E+02  0.00000000000E+00 0.  1.
<mgrwt>
<rscale>  0 0.47351529E+02</rscale>
<asrwt>0</asrwt>
<pdfrwt beam="2">  1        2 0.82160629E-02 0.43596804E+02</pdfrwt>
<pdfrwt beam="1">  1       -1 0.47551388E-01 0.51429625E+02</pdfrwt>
<totfact> 0.37300856E+03</totfact>
</mgrwt>
</event>
<event>
 5    1  0.4149151E-003  0.6627121E+02  0.7546771E-02  0.1420883E+00
          3   -1    0    0  502    0 -0.00000000000E+00  0.00000000000E+00  0.75582752521E+02  0.75582752521E+02  0.00000000000E+00 0. -1.
          2   -1    0    0  501    0  0.00000000000E+00 -0.00000000000E+00 -0.37962900467E+04  0.37962900467E+04  0.00000000000E+00 0. -1.
         25    1    1    2    0    0  0.24434883163E+01 -0.76991941320E+02 -0.95466037491E+03  0.96588568738E+03  0.12500000000E+03 0.  0.
          2    1    1    2  501    0  0.38161525817E+02  0.24541569602E+02 -0.28200731090E+04  0.28204380742E+04  0.00000000000E+00 0. -1.
          3    1    1    2  502    0 -0.40605014134E+02  0.52450371718E+02  0.54026189681E+02  0.85549037619E+02  0.00000000000E+00 0. -1.
<mgrwt>
<rscale>  0 0.54834633E+02</rscale>
<asrwt>0</asrwt>
<pdfrwt beam="2">  1        2 0.58404452E+00 0.45371695E+02</pdfrwt>
<pdfrwt beam="1">  1        3 0.11628118E-01 0.66271207E+02</pdfrwt>
<totfact> 0.28719542E+01</totfact>
</mgrwt>
</event>
<event>
 5    1  0.4149151E-003  0.2546211E+03  0.7546771E-02  0.1261280E+00
          2   -1    0    0  501    0  0.00000000000E+00  0.00000000000E+00  0.44619377172E+03  0.44619377172E+03  0.00000000000E+00 0. -1.
          1   -1    0    0  502    0 -0.00000000000E+00 -0.00000000000E+00 -0.26885898734E+03  0.26885898734E+03  0.00000000000E+00 0. -1.
         25    1    1    2    0    0 -0.38211130880E+02  0.26621986970E+03 -0.13757001319E+02  0.29689621862E+03  0.12500000000E+03 0.  0.
          2    1    1    2  501    0  0.40834646233E+02 -0.23655764571E+02  0.16797615693E+03  0.17447937651E+03  0.00000000000E+00 0. -1.
          1    1    1    2  502    0 -0.26235153528E+01 -0.24256410513E+03  0.23115628778E+02  0.24367716393E+03  0.00000000000E+00 0. -1.
<mgrwt>
<rscale>  0 0.10961762E+03</rscale>
<asrwt>0</asrwt>
<pdfrwt beam="1">  1        2 0.68645196E-01 0.47191774E+02</pdfrwt>
<pdfrwt beam="2">  1        1 0.41362921E-01 0.25462113E+03</pdfrwt>
<totfact> 0.98304894E+02</totfact>
</mgrwt>
</event>
<event>
 5    1  0.4149151E-003  0.8124496E+02  0.7546771E-02  0.1353526E+00
          1   -1    0    0  502    0 -0.00000000000E+00  0.00000000000E+00  0.72801784773E+03  0.72801784773E+03  0.00000000000E+00 0. -1.
          2   -1    0    0  501    0  0.00000000000E+00 -0.00000000000E+00 -0.25572553378E+03  0.25572553378E+03  0.00000000000E+00 0. -1.
         25    1    1    2    0    0 -0.81168784519E+02 -0.11036716352E+03  0.22979032379E+03  0.29529286356E+03  0.12500000000E+03 0.  0.
          2    1    1    2  501    0  0.25609084052E+02  0.58380601254E+02 -0.21521182652E+03  0.22445545229E+03  0.00000000000E+00 0. -1.
          1    1    1    2  502    0  0.55559700466E+02  0.51986562268E+02  0.45771381668E+03  0.46399506566E+03  0.00000000000E+00 0. -1.
<mgrwt>
<rscale>  0 0.71968067E+02</rscale>
<asrwt>0</asrwt>
<pdfrwt beam="2">  1        2 0.39342390E-01 0.63750449E+02</pdfrwt>
<pdfrwt beam="1">  1        1 0.11200274E+00 0.81244959E+02</pdfrwt>
<totfact> 0.48897590E+02</totfact>
</mgrwt>
</event>
<event>
 5    1  0.4149151E-003  0.4684443E+02  0.7546771E-02  0.1546588E+00
          2   -1    0    0  502    0  0.00000000000E+00  0.00000000000E+00  0.17359340742E+04  0.17359340742E+04  0.00000000000E+00 0. -1.
         -1   -1    0    0    0  501 -0.00000000000E+00 -0.00000000000E+00 -0.81106438930E+01  0.81106438930E+01  0.00000000000E+00 0.  1.
         25    1    1    2    0    0 -0.40667193245E+02  0.23005210454E+01  0.13181300100E+04  0.13246700858E+04  0.12500000000E+03 0.  0.
          2    1    1    2  502    0  0.52792700355E+02  0.21253399769E+02  0.19756558267E+03  0.20559896807E+03  0.00000000000E+00 0. -1.
         -1    1    1    2    0  501 -0.12125507110E+02 -0.23553920814E+02  0.21212783769E+03  0.21377566426E+03  0.00000000000E+00 0.  1.
<mgrwt>
<rscale>  0 0.35227731E+02</rscale>
<asrwt>0</asrwt>
<pdfrwt beam="1">  1        2 0.26706649E+00 0.46844432E+02</pdfrwt>
<pdfrwt beam="2">  1       -1 0.12477927E-02 0.26491793E+02</pdfrwt>
<totfact> 0.12942455E+04</totfact>
</mgrwt>
</event>
<event>
 5    1  0.4149151E-003  0.4160683E+02  0.7546771E-02  0.1523113E+00
         -1   -1    0    0    0  501 -0.00000000000E+00  0.00000000000E+00  0.12244544377E+02  0.12244544377E+02  0.00000000000E+00 0.  1.
          2   -1    0    0  502    0  0.00000000000E+00 -0.00000000000E+00 -0.32233272980E+04  0.32233272980E+04  0.00000000000E+00 0.  1.
         25    1    1    2    0    0  0.24621002444E+02 -0.62697148971E+02 -0.83424787776E+03  0.84624561907E+03  0.12500000000E+03 0.  0.
          2    1    1    2  502    0  0.25201258849E+01  0.40936173577E+02 -0.23330201029E+04  0.23333805780E+04  0.00000000000E+00 0.  1.
         -1    1    1    2    0  501 -0.27141128328E+02  0.21760975394E+02 -0.43814772977E+02  0.55945645300E+02  0.00000000000E+00 0.  1.
<mgrwt>
<rscale>  0 0.38044765E+02</rscale>
<asrwt>0</asrwt>
<pdfrwt beam="2">  1        2 0.49589684E+00 0.41606834E+02</pdfrwt>
<pdfrwt beam="1">  1       -1 0.18837748E-02 0.34787654E+02</pdfrwt>
<totfact> 0.13581634E+03</totfact>
</mgrwt>
</event>
<event>
 5    1  0.4149151E-003  0.2000694E+03  0.7546771E-02  0.1234738E+00
          3   -1    0    0  502    0 -0.00000000000E+00  0.00000000000E+00  0.11882032080E+04  0.11882032080E+04  0.00000000000E+00 0. -1.
          1   -1    0    0  501    0  0.00000000000E+00 -0.00000000000E+00 -0.21246243950E+04  0.21246243950E+04  0.00000000000E+00 0. -1.
         25    1    1    2    0    0 -0.24191098331E+03 -0.89735984838E+02 -0.20860425991E+03  0.35456199468E+03  0.12500000000E+03 0.  0.
          1    1    1    2  501    0  0.45130545817E+02  0.64062320490E+02 -0.18333694649E+04  0.18350434169E+04  0.00000000000E+00 0. -1.
          3    1    1    2  502    0  0.19678043749E+03  0.25673664348E+02  0.11055525378E+04  0.11232221915E+04  0.00000000000E+00 0. -1.
<mgrwt>
<rscale>  0 0.12521190E+03</rscale>
<asrwt>0</asrwt>
<pdfrwt beam="2">  1        1 0.32686530E+00 0.78362919E+02</pdfrwt>
<pdfrwt beam="1">  1        3 0.18280049E+00 0.20006938E+03</pdfrwt>
<totfact> 0.36620574E-01</totfact>
</mgrwt>
</event>
<event>
 5    1  0.5276430E-003  0.9889247E+02  0.7546771E-02  0.1343429E+00
          2   -1    0    0  502    0  0.00000000000E+00  0.00000000000E+00  0.13841721673E+03  0.13841721673E+03  0.00000000000E+00 0. -1.
         -1   -1    0    0    0  501 -0.00000000000E+00 -0.00000000000E+00 -0.23771620222E+03  0.23771620222E+03  0.00000000000E+00 0.  1.
         25    1    1    2    0    0  0.86183166316E+02 -0.10037844864E+03 -0.12312086441E+03  0.21974330106E+03  0.12500000000E+03 0.  0.
          2    1    1    2  502    0 -0.23424841230E+02  0.52070786470E+02  0.46909728604E+02  0.73895958130E+02  0.00000000000E+00 0. -1.
         -1    1    1    2    0  501 -0.62758325086E+02  0.48307662171E+02 -0.23087849680E+02  0.82494159762E+02  0.00000000000E+00 0.  1.
<mgrwt>
<rscale>  0 0.75143082E+02</rscale>
<asrwt>0</asrwt>
<pdfrwt beam="1">  1        2 0.21294957E-01 0.57097198E+02</pdfrwt>
<pdfrwt beam="2">  1       -1 0.36571723E-01 0.98892467E+02</pdfrwt>
<totfact> 0.20096377E+03</totfact>
</mgrwt>
</event>
<event>
 5    1  0.4149151E-003  0.2020511E+03  0.7546771E-02  0.1295516E+00
          1   -1    0    0  502    0  0.00000000000E+00  0.00000000000E+00  0.84006509979E+03  0.84006509979E+03  0.00000000000E+00 0. -1.
         -2   -1    0    0    0  501 -0.00000000000E+00 -0.00000000000E+00 -0.42221954305E+03  0.42221954305E+03  0.00000000000E+00 0.  1.
         25    1    1    2    0    0 -0.13350230388E+03 -0.10906008916E+03  0.14572866122E+03  0.25802870168E+03  0.12500000000E+03 0.  0.
          1    1    1    2  502    0  0.15079454803E+03  0.14831758365E+03  0.61930496687E+03  0.65442779840E+03  0.00000000000E+00 0. -1.
         -2    1    1    2    0  501 -0.17292244149E+02 -0.39257494492E+02 -0.34718807135E+03  0.34982814276E+03  0.00000000000E+00 0.  1.
<mgrwt>
<rscale>  0 0.93099057E+02</rscale>
<asrwt>0</asrwt>
<pdfrwt beam="1">  1        1 0.12924078E+00 0.20205113E+03</pdfrwt>
<pdfrwt beam="2">  1       -2 0.64956853E-01 0.42897233E+02</pdfrwt>
<totfact> 0.44003449E+01</totfact>
</mgrwt>
</event>
<event>
 5    1  0.4149151E-003  0.9495992E+02  0.7546771E-02  0.1419246E+00
          1   -1    0    0  502    0 -0.00000000000E+00  0.00000000000E+00  0.12307081434E+04  0.12307081434E+04  0.00000000000E+00 0.  1.
          2   -1    0    0  501    0  0.00000000000E+00 -0.00000000000E+00 -0.39073604124E+04  0.39073604124E+04  0.00000000000E+00 0. -1.
         25    1    1    2    0    0 -0.11342818694E+03  0.49934973400E+02 -0.27467066884E+03  0.32623370685E+03  0.12500000000E+03 0.  0.
          2    1    1    2  501    0  0.90028699607E+02 -0.28011405848E+02 -0.36060785856E+04  0.36073109890E+04  0.00000000000E+00 0. -1.
          1    1    1    2  502    0  0.23399487332E+02 -0.21923567552E+02  0.12040969854E+04  0.12045238599E+04  0.00000000000E+00 0.  1.
<mgrwt>
<rscale>  0 0.55180716E+02</rscale>
<asrwt>0</asrwt>
<pdfrwt beam="2">  1        2 0.60113236E+00 0.94959918E+02</pdfrwt>
<pdfrwt beam="1">  1        1 0.18933972E+00 0.32065228E+02</pdfrwt>
<totfact> 0.11578316E+00</totfact>
</mgrwt>
</event>
<event>
 5    1  0.4149151E-003  0.1173031E+03  0.7546771E-02  0.1305936E+00
          1   -1    0    0  502    0  0.00000000000E+00  0.00000000000E+00  0.87858789700E+03  0.87858789700E+03  0.00000000000E+00 0. -1.
         -1   -1    0    0    0  501 -0.00000000000E+00 -0.00000000000E+00 -0.44179174364E+02  0.44179174364E+02  0.00000000000E+00 0.  1.
         25    1    1    2    0    0  0.13772999402E+03  0.48637751015E+02  0.26100900046E+03  0.32416952417E+03  0.12500000000E+03 0.  0.
          1    1    1    2  502    0 -0.41328153079E+02 -0.52899377901E+02  0.33017924392E+03  0.33693425699E+03  0.00000000000E+00 0. -1.
         -1    1    1    2    0  501 -0.96401840938E+02  0.42616268857E+01  0.24322047825E+03  0.26166329020E+03  0.00000000000E+00 0.  1.
<mgrwt>
<rscale>  0 0.88738320E+02</rscale>
<asrwt>0</asrwt>
<pdfrwt beam="1">  1        1 0.13516736E+00 0.67129430E+02</pdfrwt>
<pdfrwt beam="2">  1       -1 0.67967967E-02 0.11730309E+03</pdfrwt>
<totfact> 0.22307718E+03</totfact>
</mgrwt>
</event>
<event>
 5    1  0.4149151E-003  0.4430928E+03  0.7546771E-02  0.1213744E+00
         -1   -1    0    0    0  501 -0.00000000000E+00  0.00000000000E+00  0.40132136824E+03  0.40132136824E+03  0.00000000000E+00 0.  1.
          2   -1    0    0  502    0  0.00000000000E+00 -0.00000000000E+00 -0.21182755063E+04  0.21182755063E+04  0.00000000000E+00 0. -1.
         25    1    1    2    0    0  0.38857739498E+03 -0.26318028271E+03 -0.96719815451E+02  0.49521306101E+03  0.12500000000E+03 0.  0.
          2    1    1    2  502    0 -0.34544871181E+03  0.27209255747E+03 -0.17929780095E+04  0.18461146538E+04  0.00000000000E+00 0. -1.
         -1    1    1    2    0  501 -0.43128683170E+02 -0.89122747666E+01  0.17274368690E+03  0.17826915975E+03  0.00000000000E+00 0.  1.
<mgrwt>
<rscale>  0 0.13969166E+03</rscale>
<asrwt>0</asrwt>
<pdfrwt beam="2">  1        2 0.32588854E+00 0.44309281E+03</pdfrwt>
<pdfrwt beam="1">  1       -1 0.61741748E-01 0.44039890E+02</pdfrwt>
<totfact> 0.20068605E+01</totfact>
</mgrwt>
</event>
<event>
 5    1  0.4149151E-003  0.1186135E+03  0.7546771E-02  0.1305379E+00
          2   -1    0    0  502    0  0.00000000000E+00  0.00000000000E+00  0.71701379474E+02  0.71701379474E+02  0.00000000000E+00 0. -1.
          2   -1    0    0  501    0 -0.00000000000E+00 -0.00000000000E+00 -0.89008407823E+03  0.89008407823E+03  0.00000000000E+00 0. -1.
         25    1    1    2    0    0  0.12537090851E+03 -0.10989766162E+03 -0.45862270393E+03  0.50374114909E+03  0.12500000000E+03 0.  0.
          2    1    1    2  501    0 -0.65174525803E+02  0.81108457833E+02 -0.37536350355E+03  0.38951772815E+03  0.00000000000E+00 0. -1.
          2    1    1    2  502    0 -0.60196382704E+02  0.28789203783E+02  0.15603508724E+02  0.68526580461E+02  0.00000000000E+00 0. -1.
<mgrwt>
<rscale>  0 0.88964366E+02</rscale>
<asrwt>0</asrwt>
<pdfrwt beam="1">  1        2 0.11030982E-01 0.66726477E+02</pdfrwt>
<pdfrwt beam="2">  1        2 0.13693601E+00 0.11861346E+03</pdfrwt>
<totfact> 0.25838372E+03</totfact>
</mgrwt>
</event>
<event>
 5    1  0.4149151E-003  0.1564319E+03  0.7546771E-02  0.1325416E+00
         -1   -1    0    0    0  501 -0.00000000000E+00  0.00000000000E+00  0.33825453443E+02  0.33825453443E+02  0.00000000000E+00 0.  1.
          2   -1    0    0  502    0  0.00000000000E+00 -0.00000000000E+00 -0.24429183005E+04  0.24429183005E+04  0.00000000000E+00 0. -1.
         25    1    1    2    0    0 -0.10595911820E+03 -0.15788800826E+03 -0.20429858800E+04  0.20556196788E+04  0.12500000000E+03 0.  0.
          2    1    1    2  502    0  0.35929788767E+02  0.22224182247E+02 -0.15461995541E+03  0.16028784922E+03  0.00000000000E+00 0. -1.
         -1    1    1    2    0  501  0.70029329433E+02  0.13566382601E+03 -0.21148701163E+03  0.26083622593E+03  0.00000000000E+00 0.  1.
<mgrwt>
<rscale>  0 0.81295012E+02</rscale>
<asrwt>0</asrwt>
<pdfrwt beam="2">  1        2 0.37583350E+00 0.42247651E+02</pdfrwt>
<pdfrwt beam="1">  1       -1 0.52039171E-02 0.15643187E+03</pdfrwt>
<totfact> 0.99474839E+02</totfact>
</mgrwt>
</event>
<event>
 5    1  0.4149151E-003  0.7539464E+02  0.7546771E-02  0.1493664E+00
         -1   -1    0    0    0  501 -0.00000000000E+00  0.00000000000E+00  0.14173138650E+02  0.14173138650E+02  0.00000000000E+00 0.  1.
          2   -1    0    0  502    0  0.00000000000E+00 -0.00000000000E+00 -0.13923601527E+04  0.13923601527E+04  0.00000000000E+00 0. -1.
         25    1    1    2    0    0  0.63641457319E+02 -0.58485459933E+02 -0.57160484918E+03  0.59146249900E+03  0.12500000000E+03 0.  0.
          2    1    1    2  502    0 -0.40417492306E+02  0.61731269008E+02 -0.75268957107E+03  0.75629750340E+03  0.00000000000E+00 0. -1.
         -1    1    1    2    0  501 -0.23223965012E+02 -0.32458090748E+01 -0.53892593801E+02  0.58773288950E+02  0.00000000000E+00 0.  1.
<mgrwt>
<rscale>  0 0.42047364E+02</rscale>
<asrwt>0</asrwt>
<pdfrwt beam="2">  1        2 0.21420924E+00 0.75394643E+02</pdfrwt>
<pdfrwt beam="1">  1       -1 0.21804830E-02 0.23449687E+02</pdfrwt>
<totfact> 0.83914297E+03</totfact>
</mgrwt>
</event>
<event>
 5    1  0.8629013E-003  0.7113332E+02  0.7546771E-02  0.1393554E+00
          2   -1    0    0  502    0  0.00000000000E+00  0.00000000000E+00  0.89351787408E+03  0.89351787408E+03  0.00000000000E+00 0. -1.
         -1   -1    0    0    0  501 -0.00000000000E+00 -0.00000000000E+00 -0.24275985554E+02  0.24275985554E+02  0.00000000000E+00 0.  1.
         25    1    1    2    0    0  0.11629282483E+01  0.10389852413E+03  0.50874994656E+03  0.53408591429E+03  0.12500000000E+03 0.  0.
          2    1    1    2  502    0  0.26823289990E+02 -0.44972319982E+02  0.24975046382E+03  0.25518090177E+03  0.00000000000E+00 0. -1.
         -1    1    1    2    0  501 -0.27986218239E+02 -0.58926204152E+02  0.11074147814E+03  0.12852704357E+03  0.00000000000E+00 0.  1.
<mgrwt>
<rscale>  0 0.61031401E+02</rscale>
<asrwt>0</asrwt>
<pdfrwt beam="1">  1        2 0.13746426E+00 0.52364095E+02</pdfrwt>
<pdfrwt beam="2">  1       -1 0.37347677E-02 0.71133319E+02</pdfrwt>
<totfact> 0.89287323E+03</totfact>
</mgrwt>
</event>
<event>
 5    1  0.4149151E-003  0.7670030E+02  0.7546771E-02  0.1483856E+00
          2   -1    0    0  501    0  0.00000000000E+00  0.00000000000E+00  0.75631216037E+03  0.75631216037E+03  0.00000000000E+00 0. -1.
          2   -1    0    0  502    0 -0.00000000000E+00 -0.00000000000E+00 -0.81934763065E+03  0.81934763065E+03  0.00000000000E+00 0.  1.
         25    1    1    2    0    0  0.82965469285E+02 -0.45999507314E+02 -0.43334127026E+03  0.46087837905E+03  0.12500000000E+03 0.  0.
          2    1    1    2  501    0 -0.16124757421E+02  0.18688510131E+02  0.73883405921E+03  0.73924626158E+03  0.00000000000E+00 0. -1.
          2    1    1    2  502    0 -0.66840711864E+02  0.27310997183E+02 -0.36852825923E+03  0.37553515039E+03  0.00000000000E+00 0.  1.
<mgrwt>
<rscale>  0 0.43511159E+02</rscale>
<asrwt>0</asrwt>
<pdfrwt beam="1">  1        2 0.11635572E+00 0.24683359E+02</pdfrwt>
<pdfrwt beam="2">  1        2 0.12605348E+00 0.76700297E+02</pdfrwt>
<totfact> 0.23292364E+02</totfact>
</mgrwt>
</event>
<event>
 5    1  0.4149151E-003  0.1023673E+03  0.7546771E-02  0.1292287E+00
          2   -1    0    0  502    0  0.00000000000E+00  0.00000000000E+00  0.17033684670E+04  0.17033684670E+04  0.00000000000E+00 0. -1.
          2   -1    0    0  501    0 -0.00000000000E+00 -0.00000000000E+00 -0.14066259792E+03  0.14066259792E+03  0.00000000000E+00 0. -1.
         25    1    1    2    0    0  0.16679229596E+03 -0.23896414842E+02  0.20895217016E+03  0.29610254651E+03  0.12500000000E+03 0.  0.
          2    1    1    2  501    0 -0.83398544040E+02  0.49557764384E+02 -0.71181188649E+02  0.12032477208E+03  0.00000000000E+00 0. -1.
          2    1    1    2  502    0 -0.83393751917E+02 -0.25661349542E+02  0.14249348875E+04  0.14276037463E+04  0.00000000000E+00 0. -1.
<mgrwt>
<rscale>  0 0.94508300E+02</rscale>
<asrwt>0</asrwt>
<pdfrwt beam="1">  1        2 0.26205667E+00 0.87252637E+02</pdfrwt>
<pdfrwt beam="2">  1        2 0.21640401E-01 0.10236732E+03</pdfrwt>
<totfact> 0.44938850E+02</totfact>
</mgrwt>
</event>
<event>
 5    1  0.4149151E-003  0.8767923E+02  0.7546771E-02  0.1464277E+00
         -1   -1    0    0    0  501 -0.00000000000E+00  0.00000000000E+00  0.11572438890E+03  0.11572438890E+03  0.00000000000E+00 0.  1.
          1   -1    0    0  502    0  0.00000000000E+00 -0.00000000000E+00 -0.16919956204E+04  0.16919956204E+04  0.00000000000E+00 0. -1.
         25    1    1    2    0    0  0.10702130654E+02  0.97006291762E+02 -0.49993545451E+02  0.16628021779E+03  0.12500000000E+03 0.  0.
          1    1    1    2  502    0  0.18343962691E+02 -0.16724813894E+02 -0.15520590564E+04  0.15522575607E+04  0.00000000000E+00 0. -1.
         -1    1    1    2    0  501 -0.29046093345E+02 -0.80281477869E+02  0.25781370348E+02  0.89182230766E+02  0.00000000000E+00 0.  1.
<mgrwt>
<rscale>  0 0.46653301E+02</rscale>
<asrwt>0</asrwt>
<pdfrwt beam="2">  1        1 0.26030700E+00 0.24823786E+02</pdfrwt>
<pdfrwt beam="1">  1       -1 0.17803753E-01 0.87679230E+02</pdfrwt>
<totfact> 0.16413637E+02</totfact>
</mgrwt>
</event>
<event>
 5    1  0.4149151E-003  0.1761736E+03  0.7546771E-02  0.1309008E+00
         -1   -1    0    0    0  501 -0.00000000000E+00  0.00000000000E+00  0.20275943720E+03  0.20275943720E+03  0.00000000000E+00 0.  1.
          2   -1    0    0  502    0  0.00000000000E+00 -0.00000000000E+00 -0.89118103566E+03  0.89118103566E+03  0.00000000000E+00 0.  1.
         25    1    1    2    0    0 -0.13748386245E+03  0.15647375778E+03 -0.41971478032E+03  0.48494468358E+03  0.12500000000E+03 0.  0.
          2    1    1    2  502    0  0.41726146898E+02 -0.12166069678E+02 -0.39327002088E+03  0.39566449665E+03  0.00000000000E+00 0.  1.
         -1    1    1    2    0  501  0.95757715555E+02 -0.14430768810E+03  0.12456320275E+03  0.21333129263E+03  0.00000000000E+00 0.  1.
<mgrwt>
<rscale>  0 0.87505084E+02</rscale>
<asrwt>0</asrwt>
<pdfrwt beam="2">  1        2 0.13710477E+00 0.43463601E+02</pdfrwt>
<pdfrwt beam="1">  1       -1 0.31193760E-01 0.17617362E+03</pdfrwt>
<totfact> 0.36398951E+02</totfact>
</mgrwt>
</event>
<event>
 5    1  0.4149151E-003  0.9843915E+02  0.7546771E-02  0.1329931E+00
          1   -1    0    0  502    0  0.00000000000E+00  0.00000000000E+00  0.19856736707E+03  0.19856736707E+03  0.00000000000E+00 0. -1.
          1   -1    0    0  501    0 -0.00000000000E+00 -0.00000000000E+00 -0.22787045601E+04  0.22787045601E+04  0.00000000000E+00 0. -1.
         25    1    1    2    0    0  0.38323013769E+01 -0.12154986175E+03  0.54711962198E+02  0.18277706156E+03  0.12500000000E+03 0.  0.
          1    1    1    2  501    0  0.49394552177E+02  0.85096518320E+02 -0.22003556180E+04  0.22025544454E+04  0.00000000000E+00 0. -1.
          1    1    1    2  502    0 -0.53226853554E+02  0.36453343427E+02  0.65506462840E+02  0.91940420165E+02  0.00000000000E+00 0. -1.
<mgrwt>
<rscale>  0 0.79690765E+02</rscale>
<asrwt>0</asrwt>
<pdfrwt beam="1">  1        1 0.30548825E-01 0.64513132E+02</pdfrwt>
<pdfrwt beam="2">  1        1 0.35056994E+00 0.98439152E+02</pdfrwt>
<totfact> 0.43976475E+01</totfact>
</mgrwt>
</event>
<event>
 5    1  0.4149151E-003  0.8153896E+02  0.7546771E-02  0.1378120E+00
          1   -1    0    0  501    0  0.00000000000E+00  0.00000000000E+00  0.18952010901E+04  0.18952010901E+04  0.00000000000E+00 0. -1.
          1   -1    0    0  502    0 -0.00000000000E+00 -0.00000000000E+00 -0.10867448346E+04  0.10867448346E+04  0.00000000000E+00 0. -1.
         25    1    1    2    0    0 -0.45077660592E+02 -0.86651382104E+02  0.18463625096E+03  0.24342555879E+03  0.12500000000E+03 0.  0.
          1    1    1    2  501    0  0.70179004131E+02  0.41393380025E+02  0.16795487630E+04  0.16815238778E+04  0.00000000000E+00 0. -1.
          1    1    1    2  502    0 -0.25101343539E+02  0.45258002078E+02 -0.10557287585E+04  0.10569964881E+04  0.00000000000E+00 0. -1.
<mgrwt>
<rscale>  0 0.64960595E+02</rscale>
<asrwt>0</asrwt>
<pdfrwt beam="1">  1        1 0.29156940E+00 0.81538960E+02</pdfrwt>
<pdfrwt beam="2">  1        1 0.16719151E+00 0.51752915E+02</pdfrwt>
<totfact> 0.84768423E+00</totfact>
</mgrwt>
</event>
<event>
 5    1  0.4149151E-003  0.5654022E+02  0.7546771E-02  0.1473437E+00
          1   -1    0    0  502    0  0.00000000000E+00  0.00000000000E+00  0.15762540964E+03  0.15762540964E+03  0.00000000000E+00 0. -1.
         -2   -1    0    0    0  501 -0.00000000000E+00 -0.00000000000E+00 -0.90682514648E+02  0.90682514648E+02  0.00000000000E+00 0.  1.
         25    1    1    2    0    0  0.57203798021E+02  0.20231605477E+02  0.34519461285E+02  0.14317187425E+03  0.12500000000E+03 0.  0.
          1    1    1    2  502    0 -0.14187275998E+01 -0.36018866416E+02  0.30351494181E+02  0.47123080597E+02  0.00000000000E+00 0. -1.
         -2    1    1    2    0  501 -0.55785070422E+02  0.15787260939E+02  0.20719395232E+01  0.58012969440E+02  0.00000000000E+00 0.  1.
<mgrwt>
<rscale>  0 0.45145253E+02</rscale>
<asrwt>0</asrwt>
<pdfrwt beam="1">  1        1 0.24250063E-01 0.36046796E+02</pdfrwt>
<pdfrwt beam="2">  1       -2 0.13951156E-01 0.56540221E+02</pdfrwt>
<totfact> 0.58541219E+03</totfact>
</mgrwt>
</event>
<event>
 5    1  0.4149151E-003  0.1026449E+03  0.7546771E-02  0.1300598E+00
          2   -1    0    0  502    0  0.00000000000E+00  0.00000000000E+00  0.17195087300E+04  0.17195087300E+04  0.00000000000E+00 0. -1.
          2   -1    0    0  501    0 -0.00000000000E+00 -0.00000000000E+00 -0.21346339096E+04  0.21346339096E+04  0.00000000000E+00 0. -1.
         25    1    1    2    0    0  0.18016399207E+03 -0.32088148925E+02  0.48253913645E+03  0.53099692235E+03  0.12500000000E+03 0.  0.
          2    1    1    2  501    0 -0.10066119626E+03  0.19048362788E+02 -0.21078215177E+04  0.21103097088E+04  0.00000000000E+00 0. -1.
          2    1    1    2  502    0 -0.79502795814E+02  0.13039786137E+02  0.12101572016E+04  0.12128360084E+04  0.00000000000E+00 0. -1.
<mgrwt>
<rscale>  0 0.90937292E+02</rscale>
<asrwt>0</asrwt>
<pdfrwt beam="1">  1        2 0.26453981E+00 0.80565070E+02</pdfrwt>
<pdfrwt beam="2">  1        2 0.32840522E+00 0.10264487E+03</pdfrwt>
<totfact> 0.12827683E+01</totfact>
</mgrwt>
</event>
<event>
 5    1  0.4149151E-003  0.2301735E+03  0.7546771E-02  0.1358494E+00
          2   -1    0    0  502    0  0.00000000000E+00  0.00000000000E+00  0.10673067407E+04  0.10673067407E+04  0.00000000000E+00 0. -1.
         -3   -1    0    0    0  501 -0.00000000000E+00 -0.00000000000E+00 -0.17841056411E+03  0.17841056411E+03  0.00000000000E+00 0.  1.
         25    1    1    2    0    0  0.53422313887E+02  0.20877453513E+03  0.20409871662E+03  0.32205905711E+03  0.12500000000E+03 0.  0.
          2    1    1    2  502    0 -0.68432025996E+02 -0.22427485457E+03  0.78597449861E+03  0.82020611132E+03  0.00000000000E+00 0. -1.
         -3    1    1    2    0  501  0.15009712110E+02  0.15500319433E+02 -0.10117703868E+03  0.10345213635E+03  0.00000000000E+00 0.  1.
<mgrwt>
<rscale>  0 0.70472476E+02</rscale>
<asrwt>0</asrwt>
<pdfrwt beam="1">  1        2 0.16420103E+00 0.23017347E+03</pdfrwt>
<pdfrwt beam="2">  1       -3 0.27447780E-01 0.21576639E+02</pdfrwt>
<totfact> 0.15227528E+02</totfact>
</mgrwt>
</event>
<event>
 5    1  0.4149151E-003  0.3065778E+03  0.7546771E-02  0.1244047E+00
          1   -1    0    0  501    0  0.00000000000E+00  0.00000000000E+00  0.30579571715E+03  0.30579571715E+03  0.00000000000E+00 0. -1.
          3   -1    0    0  502    0 -0.00000000000E+00 -0.00000000000E+00 -0.15920339613E+04  0.15920339613E+04  0.00000000000E+00 0. -1.
         25    1    1    2    0    0 -0.28296110554E+03 -0.16018386841E+03 -0.63016559000E+03  0.72004133893E+03  0.12500000000E+03 0.  0.
          1    1    1    2  501    0  0.43586333626E+02 -0.16264506160E+02  0.23440002239E+03  0.23897211790E+03  0.00000000000E+00 0. -1.
          3    1    1    2  502    0  0.23937477191E+03  0.17644837457E+03 -0.89047267649E+03  0.93881622158E+03  0.00000000000E+00 0. -1.
<mgrwt>
<rscale>  0 0.11942627E+03</rscale>
<asrwt>0</asrwt>
<pdfrwt beam="1">  1        1 0.47045495E-01 0.46522066E+02</pdfrwt>
<pdfrwt beam="2">  1        3 0.24492830E+00 0.30657785E+03</pdfrwt>
<totfact> 0.40086504E+00</totfact>
</mgrwt>
</event>
<event>
 5    1  0.4149151E-003  0.2014511E+03  0.7546771E-02  0.1383106E+00
          2   -1    0    0  502    0  0.00000000000E+00  0.00000000000E+00  0.32036135864E+03  0.32036135864E+03  0.00000000000E+00 0. -1.
         -3   -1    0    0    0  501 -0.00000000000E+00 -0.00000000000E+00 -0.93018102571E+03  0.93018102571E+03  0.00000000000E+00 0.  1.
         25    1    1    2    0    0 -0.78962452792E+02  0.16943087377E+03 -0.71949328154E+02  0.23610081694E+03  0.12500000000E+03 0.  0.
          2    1    1    2  502    0  0.32476074101E+01  0.19849602536E+02  0.22444169995E+03  0.22534114216E+03  0.00000000000E+00 0. -1.
         -3    1    1    2    0  501  0.75714845382E+02 -0.18928047631E+03 -0.76231203886E+03  0.78910042524E+03  0.00000000000E+00 0.  1.
<mgrwt>
<rscale>  0 0.63654469E+02</rscale>
<asrwt>0</asrwt>
<pdfrwt beam="1">  1        2 0.49286364E-01 0.20113520E+02</pdfrwt>
<pdfrwt beam="2">  1       -3 0.14310477E+00 0.20145114E+03</pdfrwt>
<totfact> 0.23648115E+01</totfact>
</mgrwt>
</event>
<event>
 5    1  0.4149151E-003  0.8500447E+02  0.7546771E-02  0.1379274E+00
         -1   -1    0    0    0  501 -0.00000000000E+00  0.00000000000E+00  0.11158078572E+03  0.11158078572E+03  0.00000000000E+00 0.  1.
          1   -1    0    0  502    0  0.00000000000E+00 -0.00000000000E+00 -0.23694373949E+03  0.23694373949E+03  0.00000000000E+00 0. -1.
         25    1    1    2    0    0 -0.64862248963E+02  0.88264545879E+02 -0.11944695526E+02  0.16662958066E+03  0.12500000000E+03 0.  0.
          1    1    1    2  502    0  0.46281603543E+02 -0.16625648351E+02 -0.92868815286E+02  0.10508575480E+03  0.00000000000E+00 0. -1.
         -1    1    1    2    0  501  0.18580645420E+02 -0.71638897528E+02 -0.20549442955E+02  0.76809189743E+02  0.00000000000E+00 0.  1.
<mgrwt>
<rscale>  0 0.64655113E+02</rscale>
<asrwt>0</asrwt>
<pdfrwt beam="2">  1        1 0.36452882E-01 0.49177220E+02</pdfrwt>
<pdfrwt beam="1">  1       -1 0.17166275E-01 0.85004471E+02</pdfrwt>
<totfact> 0.28704983E+03</totfact>
</mgrwt>
</event>
<event>
 5    1  0.4149151E-003  0.1278289E+03  0.7546771E-02  0.1293929E+00
         -3   -1    0    0    0  501 -0.00000000000E+00  0.00000000000E+00  0.73408322590E+02  0.73408322590E+02  0.00000000000E+00 0.  1.
          1   -1    0    0  502    0  0.00000000000E+00 -0.00000000000E+00 -0.28421293582E+04  0.28421293582E+04  0.00000000000E+00 0. -1.
         25    1    1    2    0    0 -0.46718565080E+02  0.57871824630E+02 -0.17372370048E+03  0.22657602811E+03  0.12500000000E+03 0.  0.
          1    1    1    2  502    0  0.37469931545E+02 -0.12605961266E+03 -0.26142115027E+04  0.26175172975E+04  0.00000000000E+00 0. -1.
         -3    1    1    2    0  501  0.92486335351E+01  0.68187788032E+02  0.19214167546E+02  0.71444355225E+02  0.00000000000E+00 0.  1.
<mgrwt>
<rscale>  0 0.93787976E+02</rscale>
<asrwt>0</asrwt>
<pdfrwt beam="2">  1        1 0.43725056E+00 0.12782895E+03</pdfrwt>
<pdfrwt beam="1">  1       -3 0.11293591E-01 0.68812148E+02</pdfrwt>
<totfact> 0.30474501E+01</totfact>
</mgrwt>
</event>
<event>
 5    1  0.4149151E-003  0.3254160E+02  0.7546771E-02  0.1602324E+00
          2   -1    0    0  502    0  0.00000000000E+00  0.00000000000E+00  0.37801258124E+03  0.37801258124E+03  0.00000000000E+00 0. -1.
         -1   -1    0    0    0  501 -0.00000000000E+00 -0.00000000000E+00 -0.39026866801E+02  0.39026866801E+02  0.00000000000E+00 0.  1.
         25    1    1    2    0    0  0.21889021186E+02 -0.45782604679E+01  0.29957377275E+03  0.32537599026E+03  0.12500000000E+03 0.  0.
          2    1    1    2  502    0 -0.18912893466E+02 -0.27826963395E+02  0.47426888747E+02  0.58149352596E+02  0.00000000000E+00 0. -1.
         -1    1    1    2    0  501 -0.29761277197E+01  0.32405223863E+02 -0.80149470608E+01  0.33514105183E+02  0.00000000000E+00 0.  1.
<mgrwt>
<rscale>  0 0.29620269E+02</rscale>
<asrwt>0</asrwt>
<pdfrwt beam="1">  1        2 0.58155779E-01 0.26961190E+02</pdfrwt>
<pdfrwt beam="2">  1       -1 0.60041336E-02 0.32541602E+02</pdfrwt>
<totfact> 0.10608407E+04</totfact>
</mgrwt>
</event>
<event>
 5    1  0.4149151E-003  0.8761656E+02  0.7546771E-02  0.1372557E+00
          1   -1    0    0  502    0  0.00000000000E+00  0.00000000000E+00  0.13509167927E+04  0.13509167927E+04  0.00000000000E+00 0. -1.
         -1   -1    0    0    0  501 -0.00000000000E+00 -0.00000000000E+00 -0.18958778216E+02  0.18958778216E+02  0.00000000000E+00 0.  1.
         25    1    1    2    0    0 -0.10158013994E+03 -0.30629366838E+01  0.95259707715E+03  0.96612323117E+03  0.12500000000E+03 0.  0.
          1    1    1    2  502    0  0.24921005521E+02  0.43823766034E+02  0.16310916100E+03  0.17072251576E+03  0.00000000000E+00 0.  1.
         -1    1    1    2    0  501  0.76659134423E+02 -0.40760829350E+02  0.21625177636E+03  0.23302982401E+03  0.00000000000E+00 0. -1.
<mgrwt>
<rscale>  0 0.66461325E+02</rscale>
<asrwt>0</asrwt>
<pdfrwt beam="1">  1        1 0.20783328E+00 0.50414075E+02</pdfrwt>
<pdfrwt beam="2">  1       -1 0.29167362E-02 0.87616557E+02</pdfrwt>
<totfact> 0.36353200E+03</totfact>
</mgrwt>
</event>
<event>
 5    1  0.4149151E-003  0.1487206E+03  0.7546771E-02  0.1242372E+00
          2   -1    0    0  502    0  0.00000000000E+00  0.00000000000E+00  0.17563391085E+04  0.17563391085E+04  0.00000000000E+00 0. -1.
         -1   -1    0    0    0  501 -0.00000000000E+00 -0.00000000000E+00 -0.17328623403E+03  0.17328623403E+03  0.00000000000E+00 0.  1.
         25    1    1    2    0    0 -0.11786889253E+03 -0.11848719753E+03  0.27151162946E+03  0.34245562740E+03  0.12500000000E+03 0.  0.
          2    1    1    2  502    0  0.14753933799E+03  0.25571251335E+02  0.14276770725E+04  0.14355081221E+04  0.00000000000E+00 0. -1.
         -1    1    1    2    0  501 -0.29670445459E+02  0.92915946197E+02 -0.11613582749E+03  0.15166159309E+03  0.00000000000E+00 0.  1.
<mgrwt>
<rscale>  0 0.12044062E+03</rscale>
<asrwt>0</asrwt>
<pdfrwt beam="1">  1        2 0.27020600E+00 0.14872057E+03</pdfrwt>
<pdfrwt beam="2">  1       -1 0.26659422E-01 0.97538241E+02</pdfrwt>
<totfact> 0.14833186E+02</totfact>
</mgrwt>
</event>
<event>
 5    1  0.4149151E-003  0.4859198E+02  0.7546771E-02  0.1525210E+00
          2   -1    0    0  501    0  0.00000000000E+00  0.00000000000E+00  0.69568462980E+03  0.69568462980E+03  0.00000000000E+00 0. -1.
          3   -1    0    0  502    0 -0.00000000000E+00 -0.00000000000E+00 -0.21894374590E+03  0.21894374590E+03  0.00000000000E+00 0. -1.
         25    1    1    2    0    0 -0.17660445730E+02  0.15414865567E+02 -0.59436938263E+01  0.12731785782E+03  0.12500000000E+03 0.  0.
          2    1    1    2  501    0 -0.29202929136E+02  0.31710750133E+01  0.63047450129E+03  0.63115842984E+03  0.00000000000E+00 0. -1.
          3    1    1    2  502    0  0.46863374866E+02 -0.18585940580E+02 -0.14778992356E+03  0.15615208803E+03  0.00000000000E+00 0. -1.
<mgrwt>
<rscale>  0 0.37780546E+02</rscale>
<asrwt>0</asrwt>
<pdfrwt beam="1">  1        2 0.10702840E+00 0.29374594E+02</pdfrwt>
<pdfrwt beam="2">  1        3 0.33683653E-01 0.48591980E+02</pdfrwt>
<totfact> 0.21789245E+02</totfact>
</mgrwt>
</event>
<event>
 5    1  0.4149151E-003  0.9137223E+02  0.7546771E-02  0.1422303E+00
          1   -1    0    0  502    0  0.00000000000E+00  0.00000000000E+00  0.41086899565E+03  0.41086899565E+03  0.00000000000E+00 0. -1.
         -1   -1    0    0    0  501 -0.00000000000E+00 -0.00000000000E+00 -0.48823008594E+02  0.48823008594E+02  0.00000000000E+00 0.  1.
         25    1    1    2    0    0 -0.75316572434E+02  0.49328586428E+02  0.16662570638E+03  0.22692514525E+03  0.12500000000E+03 0.  0.
          1    1    1    2  502    0  0.91335712408E+02 -0.20992281951E+02  0.15046649031E+03  0.17726548724E+03  0.00000000000E+00 0. -1.
         -1    1    1    2    0  501 -0.16019139974E+02 -0.28336304477E+02  0.44953790371E+02  0.55501371746E+02  0.00000000000E+00 0.  1.
<mgrwt>
<rscale>  0 0.54536643E+02</rscale>
<asrwt>0</asrwt>
<pdfrwt beam="1">  1        1 0.63210612E-01 0.91372230E+02</pdfrwt>
<pdfrwt beam="2">  1       -1 0.75112324E-02 0.32550868E+02</pdfrwt>
<totfact> 0.47335985E+03</totfact>
</mgrwt>
</event>
<event>
 5    1  0.4149151E-003  0.5010163E+02  0.7546771E-02  0.1501468E+00
          2   -1    0    0  502    0  0.00000000000E+00  0.00000000000E+00  0.14443353671E+04  0.14443353671E+04  0.00000000000E+00 0. -1.
         -1   -1    0    0    0  501 -0.00000000000E+00 -0.00000000000E+00 -0.89706714153E+01  0.89706714153E+01  0.00000000000E+00 0.  1.
         25    1    1    2    0    0 -0.44113921218E+02  0.22244867847E+02  0.91657474957E+03  0.92637743050E+03  0.12500000000E+03 0.  0.
          2    1    1    2  502    0  0.21990168744E+02  0.25191845514E+02  0.30485953742E+03  0.30668800785E+03  0.00000000000E+00 0. -1.
         -1    1    1    2    0  501  0.22123752474E+02 -0.47436713362E+02  0.21393040872E+03  0.22024060019E+03  0.00000000000E+00 0.  1.
<mgrwt>
<rscale>  0 0.40931294E+02</rscale>
<asrwt>0</asrwt>
<pdfrwt beam="1">  1        2 0.22220526E+00 0.33439447E+02</pdfrwt>
<pdfrwt beam="2">  1       -1 0.13801044E-02 0.50101630E+02</pdfrwt>
<totfact> 0.18191527E+04</totfact>
</mgrwt>
</event>
<event>
 5    1  0.4149151E-003  0.6716486E+03  0.7546771E-02  0.1117444E+00
          1   -1    0    0  502    0  0.00000000000E+00  0.00000000000E+00  0.87155516772E+03  0.87155516772E+03  0.00000000000E+00 0. -1.
          1   -1    0    0  501    0 -0.00000000000E+00 -0.00000000000E+00 -0.21097965489E+04  0.21097965489E+04  0.00000000000E+00 0. -1.
         25    1    1    2    0    0  0.49652521153E+03 -0.45845010934E+03 -0.45552526508E+03  0.82452535168E+03  0.12500000000E+03 0.  0.
          1    1    1    2  501    0  0.52343936651E+02  0.71139421737E+02 -0.13037159068E+04  0.13067042017E+04  0.00000000000E+00 0. -1.
          1    1    1    2  502    0 -0.54886914818E+03  0.38731068761E+03  0.52099979070E+03  0.85012216326E+03  0.00000000000E+00 0. -1.
<mgrwt>
<rscale>  0 0.24355918E+03</rscale>
<asrwt>0</asrwt>
<pdfrwt beam="1">  1        1 0.13408541E+00 0.67164857E+03</pdfrwt>
<pdfrwt beam="2">  1        1 0.32458408E+00 0.88321600E+02</pdfrwt>
<totfact> 0.76563601E+00</totfact>
</mgrwt>
</event>
<event>
 5    1  0.4149151E-003  0.4461031E+02  0.7546771E-02  0.1545990E+00
          2   -1    0    0  502    0  0.00000000000E+00  0.00000000000E+00  0.89356615404E+03  0.89356615404E+03  0.00000000000E+00 0. -1.
         -1   -1    0    0    0  501 -0.00000000000E+00 -0.00000000000E+00 -0.14643421675E+02  0.14643421675E+02  0.00000000000E+00 0.  1.
         25    1    1    2    0    0  0.96550961442E+01  0.35260677948E+02  0.64522732948E+03  0.65823995852E+03  0.12500000000E+03 0.  0.
          2    1    1    2  502    0  0.27663938297E+02 -0.38163984463E+01  0.32079178258E+02  0.42531541906E+02  0.00000000000E+00 0. -1.
         -1    1    1    2    0  501 -0.37319034441E+02 -0.31444279501E+02  0.20161622463E+03  0.20743807528E+03  0.00000000000E+00 0.  1.
<mgrwt>
<rscale>  0 0.35295682E+02</rscale>
<asrwt>0</asrwt>
<pdfrwt beam="1">  1        2 0.13747167E+00 0.27925945E+02</pdfrwt>
<pdfrwt beam="2">  1       -1 0.22528348E-02 0.44610315E+02</pdfrwt>
<totfact> 0.17678071E+04</totfact>
</mgrwt>
</event>
<event>
 5    1  0.4149151E-003  0.6104802E+02  0.7546771E-02  0.1492171E+00
          2   -1    0    0  501    0  0.00000000000E+00  0.00000000000E+00  0.91208500473E+03  0.91208500473E+03  0.00000000000E+00 0.  1.
          2   -1    0    0  502    0 -0.00000000000E+00 -0.00000000000E+00 -0.19982594520E+03  0.19982594520E+03  0.00000000000E+00 0. -1.
         25    1    1    2    0    0  0.57716163520E+02 -0.56956244330E+02  0.39244305914E+03  0.41977580203E+03  0.12500000000E+03 0.  0.
          2    1    1    2  501    0 -0.51589218031E+02  0.28342803348E+02  0.50309910734E+03  0.50653082208E+03  0.00000000000E+00 0.  1.
          2    1    1    2  502    0 -0.61269454893E+01  0.28613440982E+02 -0.18328310696E+03  0.18560432582E+03  0.00000000000E+00 0. -1.
<mgrwt>
<rscale>  0 0.42265722E+02</rscale>
<asrwt>0</asrwt>
<pdfrwt beam="1">  1        2 0.14032077E+00 0.61048024E+02</pdfrwt>
<pdfrwt beam="2">  1        2 0.30742454E-01 0.29262065E+02</pdfrwt>
<totfact> 0.80011415E+02</totfact>
</mgrwt>
</event>
<event>
 5    1  0.4149151E-003  0.1169657E+03  0.7546771E-02  0.1294890E+00
          2   -1    0    0  501    0  0.00000000000E+00  0.00000000000E+00  0.10913134359E+04  0.10913134359E+04  0.00000000000E+00 0. -1.
          2   -1    0    0  502    0 -0.00000000000E+00 -0.00000000000E+00 -0.12472988544E+04  0.12472988544E+04  0.00000000000E+00 0. -1.
         25    1    1    2    0    0  0.18432801143E+02 -0.10724804499E+03 -0.65495494944E+03  0.67559817726E+03  0.12500000000E+03 0.  0.
          2    1    1    2  501    0 -0.87108625575E+02  0.78283209389E+02  0.10754133137E+04  0.10817716806E+04  0.00000000000E+00 0. -1.
          2    1    1    2  502    0  0.68675824432E+02  0.28964835597E+02 -0.57644378281E+03  0.58124243247E+03  0.00000000000E+00 0. -1.
<mgrwt>
<rscale>  0 0.93369848E+02</rscale>
<asrwt>0</asrwt>
<pdfrwt beam="1">  1        2 0.16789437E+00 0.11696565E+03</pdfrwt>
<pdfrwt beam="2">  1        2 0.19189213E+00 0.74534090E+02</pdfrwt>
<totfact> 0.77426278E+01</totfact>
</mgrwt>
</event>
<event>
 5    1  0.4149151E-003  0.7155015E+02  0.7546771E-02  0.1484515E+00
          2   -1    0    0  501    0  0.00000000000E+00  0.00000000000E+00  0.54930875482E+03  0.54930875482E+03  0.00000000000E+00 0. -1.
          1   -1    0    0  502    0 -0.00000000000E+00 -0.00000000000E+00 -0.40796536652E+03  0.40796536652E+03  0.00000000000E+00 0. -1.
         25    1    1    2    0    0 -0.35062310294E+02  0.70214870842E+02 -0.16265289746E+03  0.21963710694E+03  0.12500000000E+03 0.  0.
          2    1    1    2  501    0  0.26337503486E+02  0.13317437276E+00  0.51467697619E+03  0.51535043577E+03  0.00000000000E+00 0. -1.
          1    1    1    2  502    0  0.87248068079E+01 -0.70348045215E+02 -0.21068069043E+03  0.22228657863E+03  0.00000000000E+00 0. -1.
<mgrwt>
<rscale>  0 0.43410556E+02</rscale>
<asrwt>0</asrwt>
<pdfrwt beam="1">  1        2 0.84509040E-01 0.26337840E+02</pdfrwt>
<pdfrwt beam="2">  1        1 0.62763902E-01 0.71550148E+02</pdfrwt>
<totfact> 0.47825910E+02</totfact>
</mgrwt>
</event>
<event>
 5    1  0.4149151E-003  0.1472351E+03  0.7546771E-02  0.1238009E+00
          2   -1    0    0  501    0  0.00000000000E+00  0.00000000000E+00  0.14660919999E+04  0.14660919999E+04  0.00000000000E+00 0.  1.
          1   -1    0    0  502    0 -0.00000000000E+00 -0.00000000000E+00 -0.10044959541E+03  0.10044959541E+03  0.00000000000E+00 0. -1.
         25    1    1    2    0    0  0.48523449370E+01  0.89673377166E+02  0.34541535831E+03  0.37815556268E+03  0.12500000000E+03 0.  0.
          2    1    1    2  501    0 -0.85497373975E+02 -0.15372159788E+03  0.10625742325E+04  0.10770348788E+04  0.00000000000E+00 0.  1.
          1    1    1    2  502    0  0.80645029038E+02  0.64048220715E+02 -0.42347186267E+02  0.11135115388E+03  0.00000000000E+00 0. -1.
<mgrwt>
<rscale>  0 0.12313784E+03</rscale>
<asrwt>0</asrwt>
<pdfrwt beam="1">  1        2 0.22555260E+00 0.14723513E+03</pdfrwt>
<pdfrwt beam="2">  1        1 0.15453785E-01 0.10298444E+03</pdfrwt>
<totfact> 0.69847877E+02</totfact>
</mgrwt>
</event>
<event>
 5    1  0.4149151E-003  0.1021170E+03  0.7546771E-02  0.1336010E+00
          1   -1    0    0  502    0  0.00000000000E+00  0.00000000000E+00  0.76059127782E+03  0.76059127782E+03  0.00000000000E+00 0.  1.
          1   -1    0    0  501    0 -0.00000000000E+00 -0.00000000000E+00 -0.32514478062E+03  0.32514478062E+03  0.00000000000E+00 0. -1.
         25    1    1    2    0    0  0.62141655328E+02 -0.12513255494E+03 -0.20218303297E+03  0.27572217984E+03  0.12500000000E+03 0.  0.
          1    1    1    2  501    0 -0.27643290513E+02  0.77311830740E+02 -0.65120230247E+02  0.10479463283E+03  0.00000000000E+00 0. -1.
          1    1    1    2  502    0 -0.34498364815E+02  0.47820724201E+02  0.70274976042E+03  0.70521924578E+03  0.00000000000E+00 0.  1.
<mgrwt>
<rscale>  0 0.77597700E+02</rscale>
<asrwt>0</asrwt>
<pdfrwt beam="1">  1        1 0.11701404E+00 0.58965743E+02</pdfrwt>
<pdfrwt beam="2">  1        1 0.50022274E-01 0.10211697E+03</pdfrwt>
<totfact> 0.25495555E+02</totfact>
</mgrwt>
</event>
<event>
 5    1  0.4149151E-003  0.1352818E+03  0.7546771E-02  0.1265670E+00
          2   -1    0    0  502    0  0.00000000000E+00  0.00000000000E+00  0.79964364478E+03  0.79964364478E+03  0.00000000000E+00 0. -1.
          2   -1    0    0  501    0 -0.00000000000E+00 -0.00000000000E+00 -0.31416956058E+03  0.31416956058E+03  0.00000000000E+00 0. -1.
         25    1    1    2    0    0  0.17697107895E+03 -0.10619707253E+03  0.20326393100E+02  0.24214611963E+03  0.12500000000E+03 0.  0.
          2    1    1    2  501    0 -0.51251284697E+02  0.67925621612E+02 -0.18750797833E+03  0.20591218077E+03  0.00000000000E+00 0. -1.
          2    1    1    2  502    0 -0.12571979425E+03  0.38271450915E+02  0.65265566943E+03  0.66575490495E+03  0.00000000000E+00 0. -1.
<mgrwt>
<rscale>  0 0.10729094E+03</rscale>
<asrwt>0</asrwt>
<pdfrwt beam="1">  1        2 0.12302210E+00 0.13528178E+03</pdfrwt>
<pdfrwt beam="2">  1        2 0.48333779E-01 0.85091623E+02</pdfrwt>
<totfact> 0.58544550E+02</totfact>
</mgrwt>
</event>
<event>
 5    1  0.4149151E-003  0.7957239E+02  0.7546771E-02  0.1424828E+00
          2   -1    0    0  502    0  0.00000000000E+00  0.00000000000E+00  0.13161256834E+04  0.13161256834E+04  0.00000000000E+00 0. -1.
         -1   -1    0    0    0  501 -0.00000000000E+00 -0.00000000000E+00 -0.15141391562E+02  0.15141391562E+02  0.00000000000E+00 0.  1.
         25    1    1    2    0    0 -0.44856658245E+02 -0.72737347534E+02  0.90939917186E+03  0.92191902860E+03  0.12500000000E+03 0.  0.
          2    1    1    2  502    0 -0.22017861138E+02  0.29315095194E+02  0.16847503114E+03  0.17241808818E+03  0.00000000000E+00 0. -1.
         -1    1    1    2    0  501  0.66874519383E+02  0.43422252340E+02  0.22311008885E+03  0.23692995819E+03  0.00000000000E+00 0.  1.
<mgrwt>
<rscale>  0 0.54012468E+02</rscale>
<asrwt>0</asrwt>
<pdfrwt beam="1">  1        2 0.20248078E+00 0.36662802E+02</pdfrwt>
<pdfrwt beam="2">  1       -1 0.23294459E-02 0.79572389E+02</pdfrwt>
<totfact> 0.10717569E+04</totfact>
</mgrwt>
</event>
<event>
 5    1  0.4149151E-003  0.2735154E+03  0.7546771E-02  0.1205868E+00
          2   -1    0    0  502    0  0.00000000000E+00  0.00000000000E+00  0.56348903346E+03  0.56348903346E+03  0.00000000000E+00 0. -1.
         -3   -1    0    0    0  501 -0.00000000000E+00 -0.00000000000E+00 -0.38421652824E+03  0.38421652824E+03  0.00000000000E+00 0.  1.
         25    1    1    2    0    0 -0.22850002912E+03  0.17402305209E+03 -0.17591862642E+03  0.35926125465E+03  0.12500000000E+03 0.  0.
          2    1    1    2  502    0  0.25360010818E+03 -0.10058890304E+03  0.41068085740E+03  0.49304148803E+03  0.00000000000E+00 0. -1.
         -3    1    1    2    0  501 -0.25100079058E+02 -0.73434149041E+02 -0.55489725753E+02  0.95402819026E+02  0.00000000000E+00 0.  1.
<mgrwt>
<rscale>  0 0.14569233E+03</rscale>
<asrwt>0</asrwt>
<pdfrwt beam="1">  1        2 0.86690621E-01 0.27351541E+03</pdfrwt>
<pdfrwt beam="2">  1       -3 0.59110235E-01 0.77605336E+02</pdfrwt>
<totfact> 0.91629950E+01</totfact>
</mgrwt>
</event>
<event>
 5    1  0.4149151E-003  0.7447697E+02  0.7546771E-02  0.1447990E+00
         -2   -1    0    0    0  501 -0.00000000000E+00  0.00000000000E+00  0.25155869045E+03  0.25155869045E+03  0.00000000000E+00 0.  1.
          2   -1    0    0  502    0  0.00000000000E+00 -0.00000000000E+00 -0.73877995604E+02  0.73877995604E+02  0.00000000000E+00 0. -1.
         25    1    1    2    0    0 -0.15143326829E+02 -0.68483110325E+02  0.46951345181E+02  0.15082667391E+03  0.12500000000E+03 0.  0.
          2    1    1    2  502    0 -0.15476364095E+02  0.80561222406E+02  0.83620817961E+02  0.11714123782E+03  0.00000000000E+00 0. -1.
         -2    1    1    2    0  501  0.30619690924E+02 -0.12078112081E+02  0.47108531706E+02  0.57468774332E+02  0.00000000000E+00 0.  1.
<mgrwt>
<rscale>  0 0.49512270E+02</rscale>
<asrwt>0</asrwt>
<pdfrwt beam="2">  1        2 0.11365846E-01 0.74476967E+02</pdfrwt>
<pdfrwt beam="1">  1       -2 0.38701337E-01 0.32915745E+02</pdfrwt>
<totfact> 0.31411388E+03</totfact>
</mgrwt>
</event>
<event>
 5    1  0.4149151E-003  0.1220661E+03  0.7546771E-02  0.1269909E+00
         -3   -1    0    0    0  501 -0.00000000000E+00  0.00000000000E+00  0.16412848991E+03  0.16412848991E+03  0.00000000000E+00 0.  1.
          1   -1    0    0  502    0  0.00000000000E+00 -0.00000000000E+00 -0.16271656854E+04  0.16271656854E+04  0.00000000000E+00 0.  1.
         25    1    1    2    0    0 -0.22929688381E+02  0.44646478362E+02 -0.11660761762E+03  0.17816120545E+03  0.12500000000E+03 0.  0.
          1    1    1    2  502    0 -0.28592525105E+02  0.85869209485E+02 -0.14410529035E+04  0.14438921443E+04  0.00000000000E+00 0.  1.
         -3    1    1    2    0  501  0.51522213486E+02 -0.13051568785E+03  0.94623325690E+02  0.16924082551E+03  0.00000000000E+00 0.  1.
<mgrwt>
<rscale>  0 0.10510720E+03</rscale>
<asrwt>0</asrwt>
<pdfrwt beam="2">  1        1 0.25033319E+00 0.90504440E+02</pdfrwt>
<pdfrwt beam="1">  1       -3 0.25250536E-01 0.12206609E+03</pdfrwt>
<totfact> 0.51042510E+01</totfact>
</mgrwt>
</event>
<event>
 5    1  0.4149151E-003  0.1702260E+03  0.7546771E-02  0.1265123E+00
          2   -1    0    0  502    0  0.00000000000E+00  0.00000000000E+00  0.10450692488E+04  0.10450692488E+04  0.00000000000E+00 0. -1.
          2   -1    0    0  501    0 -0.00000000000E+00 -0.00000000000E+00 -0.16048205102E+04  0.16048205102E+04  0.00000000000E+00 0. -1.
         25    1    1    2    0    0 -0.17529546241E+03  0.74684912984E+02  0.13184768871E+03  0.26327770203E+03  0.12500000000E+03 0.  0.
          2    1    1    2  501    0  0.53269998757E+02  0.42241620756E+02 -0.15299177757E+04  0.15314275849E+04  0.00000000000E+00 0. -1.
          2    1    1    2  502    0  0.12202546366E+03 -0.11692653374E+03  0.83831882553E+03  0.85518447209E+03  0.00000000000E+00 0. -1.
<mgrwt>
<rscale>  0 0.10757754E+03</rscale>
<asrwt>0</asrwt>
<pdfrwt beam="1">  1        2 0.16077989E+00 0.17022604E+03</pdfrwt>
<pdfrwt beam="2">  1        2 0.24689546E+00 0.67985640E+02</pdfrwt>
<totfact> 0.53373767E+01</totfact>
</mgrwt>
</event>
<event>
 5    1  0.4149151E-003  0.1342116E+03  0.7546771E-02  0.1396150E+00
          2   -1    0    0  501    0  0.00000000000E+00  0.00000000000E+00  0.17098524709E+04  0.17098524709E+04  0.00000000000E+00 0.  1.
          2   -1    0    0  502    0 -0.00000000000E+00 -0.00000000000E+00 -0.27822817662E+03  0.27822817662E+03  0.00000000000E+00 0. -1.
         25    1    1    2    0    0 -0.15624706769E+03 -0.90309826489E+01  0.11998902268E+04  0.12164934283E+04  0.12500000000E+03 0.  0.
          2    1    1    2  501    0  0.24089089669E+02 -0.12598267445E+02  0.48464660408E+03  0.48540841714E+03  0.00000000000E+00 0.  1.
          2    1    1    2  502    0  0.13215797802E+03  0.21629250094E+02 -0.25291253656E+03  0.28617880209E+03  0.00000000000E+00 0. -1.
<mgrwt>
<rscale>  0 0.60402685E+02</rscale>
<asrwt>0</asrwt>
<pdfrwt beam="1">  1        2 0.26305422E+00 0.27184565E+02</pdfrwt>
<pdfrwt beam="2">  1        2 0.42804336E-01 0.13421161E+03</pdfrwt>
<totfact> 0.24150537E+02</totfact>
</mgrwt>
</event>
<event>
 5    1  0.4149151E-003  0.1805571E+03  0.7546771E-02  0.1207937E+00
          2   -1    0    0  501    0  0.00000000000E+00  0.00000000000E+00  0.12167521737E+03  0.12167521737E+03  0.00000000000E+00 0. -1.
          1   -1    0    0  502    0 -0.00000000000E+00 -0.00000000000E+00 -0.86922946868E+03  0.86922946868E+03  0.00000000000E+00 0. -1.
         25    1    1    2    0    0 -0.40154300628E+02  0.14970403272E+03 -0.14347227612E+03  0.24542403975E+03  0.12500000000E+03 0.  0.
          2    1    1    2  501    0 -0.58215076051E+02 -0.20923239943E+03 -0.12040157855E+03  0.24832183184E+03  0.00000000000E+00 0. -1.
          1    1    1    2  502    0  0.98369376679E+02  0.59528366712E+02 -0.48368039664E+03  0.49715881447E+03  0.00000000000E+00 0. -1.
<mgrwt>
<rscale>  0 0.14408422E+03</rscale>
<asrwt>0</asrwt>
<pdfrwt beam="1">  1        2 0.18719264E-01 0.18055705E+03</pdfrwt>
<pdfrwt beam="2">  1        1 0.13372761E+00 0.11497896E+03</pdfrwt>
<totfact> 0.85049317E+02</totfact>
</mgrwt>
</event>
<event>
 5    1  0.4149151E-003  0.5427560E+02  0.7546771E-02  0.1478294E+00
         -1   -1    0    0    0  501 -0.00000000000E+00  0.00000000000E+00  0.24935589268E+02  0.24935589268E+02  0.00000000000E+00 0.  1.
          2   -1    0    0  502    0  0.00000000000E+00 -0.00000000000E+00 -0.68094524175E+03  0.68094524175E+03  0.00000000000E+00 0. -1.
         25    1    1    2    0    0 -0.33800254605E+02 -0.34840037389E+02 -0.50779251111E+03  0.52519950472E+03  0.12500000000E+03 0.  0.
          2    1    1    2  502    0  0.63251391234E+02  0.13658453416E+02 -0.11243624757E+03  0.12972741272E+03  0.00000000000E+00 0. -1.
         -1    1    1    2    0  501 -0.29451136629E+02  0.21181583973E+02 -0.35780893808E+02  0.50953913589E+02  0.00000000000E+00 0.  1.
<mgrwt>
<rscale>  0 0.44372990E+02</rscale>
<asrwt>0</asrwt>
<pdfrwt beam="2">  1        2 0.10476081E+00 0.54275604E+02</pdfrwt>
<pdfrwt beam="1">  1       -1 0.38362443E-02 0.36277113E+02</pdfrwt>
<totfact> 0.10869964E+04</totfact>
</mgrwt>
</event>
<event>
 5    1  0.4149151E-003  0.4689108E+02  0.7546771E-02  0.1559889E+00
          2   -1    0    0  502    0  0.00000000000E+00  0.00000000000E+00  0.16660700182E+04  0.16660700182E+04  0.00000000000E+00 0. -1.
         -1   -1    0    0    0  501 -0.00000000000E+00 -0.00000000000E+00 -0.96193682592E+01  0.96193682592E+01  0.00000000000E+00 0.  1.
         25    1    1    2    0    0  0.26243621517E+02 -0.43734604664E+02  0.60193832008E+03  0.61689236054E+03  0.12500000000E+03 0.  0.
          2    1    1    2  502    0  0.14090601206E+02  0.19806340730E+02  0.77473942498E+03  0.77512064402E+03  0.00000000000E+00 0. -1.
         -1    1    1    2    0  501 -0.40334222722E+02  0.23928263934E+02  0.27977290488E+03  0.28367638189E+03  0.00000000000E+00 0.  1.
<mgrwt>
<rscale>  0 0.33760735E+02</rscale>
<asrwt>0</asrwt>
<pdfrwt beam="1">  1        2 0.25631823E+00 0.24307122E+02</pdfrwt>
<pdfrwt beam="2">  1       -1 0.14799041E-02 0.46891082E+02</pdfrwt>
<totfact> 0.13197846E+04</totfact>
</mgrwt>
</event>
