<event>
 7    1  0.6493044E-004  0.8355593E+02  0.7546771E-02  0.1331455E+00
          2   -1    0    0  503    0  0.00000000000E+00  0.00000000000E+00  0.12946524604E+04  0.12946524604E+04  0.00000000000E+00 0. -1.
         -2   -1    0    0    0  501 -0.00000000000E+00 -0.00000000000E+00 -0.26865683303E+02  0.26865683303E+02  0.00000000000E+00 0.  1.
         25    2    1    2    0    0  0.77168349516E+02  0.32095661228E+02  0.34572084914E+03  0.37700645474E+03  0.12500350295E+03 0.  0.
          4    1    3    3  502    0  0.48783558171E+02 -0.77352754912E+01  0.31583038627E+03  0.31967188777E+03  0.12700000000E+01 0. -1.
         -4    1    3    3    0  502  0.28384791345E+02  0.39830936719E+02  0.29890462863E+02  0.57334566971E+02  0.12700000000E+01 0. -1.
          1    1    1    2  503    0 -0.64597402373E+02  0.52997815652E+02  0.72091440194E+03  0.72574042728E+03  0.00000000000E+00 0. -1.
         -1    1    1    2    0  501 -0.12570947143E+02 -0.85093476880E+02  0.20115152599E+03  0.21877126166E+03  0.00000000000E+00 0.  1.
<mgrwt>
<rscale>  0 0.79158994E+02</rscale>
<asrwt>0</asrwt>
<pdfrwt beam="1">  1        2 0.19917725E+00 0.83555927E+02</pdfrwt>
<pdfrwt beam="2">  1       -2 0.41331831E-02 0.74993439E+02</pdfrwt>
<totfact> 0.44252617E+03</totfact>
</mgrwt>
</event>
<event>
 7    1  0.6493044E-004  0.1085137E+03  0.7546771E-02  0.1423694E+00
         -2   -1    0    0    0  501 -0.00000000000E+00  0.00000000000E+00  0.32358046789E+02  0.32358046789E+02  0.00000000000E+00 0.  1.
          2   -1    0    0  503    0  0.00000000000E+00 -0.00000000000E+00 -0.83867164449E+03  0.83867164449E+03  0.00000000000E+00 0. -1.
         25    2    1    2    0    0 -0.11989107824E+03  0.29481590376E+02 -0.58414600025E+03  0.60999563873E+03  0.12500037942E+03 0.  0.
          4    1    3    3  502    0  0.92528747683E+01  0.19901557148E+02 -0.26013085491E+03  0.26105815874E+03  0.12700000000E+01 0. -1.
         -4    1    3    3    0  502 -0.12914395301E+03  0.95800332278E+01 -0.32401514534E+03  0.34893748000E+03  0.12700000000E+01 0. -1.
          1    1    1    2  503    0  0.93341471736E+02 -0.23955612947E+02 -0.21050445341E+03  0.23151377204E+03  0.00000000000E+00 0. -1.
         -1    1    1    2    0  501  0.26549606507E+02 -0.55259774290E+01 -0.11663144043E+02  0.29520280507E+02  0.00000000000E+00 0.  1.
<mgrwt>
<rscale>  0 0.54247029E+02</rscale>
<asrwt>0</asrwt>
<pdfrwt beam="2">  1        2 0.12902640E+00 0.10851375E+03</pdfrwt>
<pdfrwt beam="1">  1       -2 0.49781614E-02 0.27118592E+02</pdfrwt>
<totfact> 0.53863323E+03</totfact>
</mgrwt>
</event>
<event>
 7    1  0.6493044E-004  0.2071739E+03  0.7546771E-02  0.1215415E+00
          2   -1    0    0  503    0  0.00000000000E+00  0.00000000000E+00  0.21515962646E+04  0.21515962646E+04  0.00000000000E+00 0. -1.
          1   -1    0    0  502    0 -0.00000000000E+00 -0.00000000000E+00 -0.45066922496E+02  0.45066922496E+02  0.00000000000E+00 0. -1.
         25    2    1    2    0    0 -0.12937863921E+02 -0.20995304436E+03  0.11234681445E+04  0.11498056614E+04  0.12499887282E+03 0.  0.
          4    1    3    3  501    0 -0.50500094833E+01  0.31070580293E+01 -0.22124599459E+00  0.60678048064E+01  0.12700000000E+01 0.  1.
         -4    1    3    3    0  501 -0.78878544374E+01 -0.21306010239E+03  0.11236893905E+04  0.11437378566E+04  0.12700000000E+01 0.  1.
          2    1    1    2  502    0  0.91890758495E+02  0.10927649718E+02  0.92210727417E+02  0.13063744975E+03  0.00000000000E+00 0. -1.
          1    1    1    2  503    0 -0.78952894575E+02  0.19902539465E+03  0.89085047023E+03  0.91622007596E+03  0.00000000000E+00 0. -1.
<mgrwt>
<rscale>  0 0.13846122E+03</rscale>
<asrwt>0</asrwt>
<pdfrwt beam="1">  1        2 0.33101473E+00 0.20717392E+03</pdfrwt>
<pdfrwt beam="2">  1        1 0.69333744E-02 0.92538235E+02</pdfrwt>
<totfact> 0.84639675E+02</totfact>
</mgrwt>
</event>
<event>
 7    1  0.6493044E-004  0.1003543E+03  0.7546771E-02  0.1335319E+00
          1   -1    0    0  503    0  0.00000000000E+00  0.00000000000E+00  0.60331643082E+02  0.60331643082E+02  0.00000000000E+00 0. -1.
         -1   -1    0    0    0  501 -0.00000000000E+00 -0.00000000000E+00 -0.12243419525E+04  0.12243419525E+04  0.00000000000E+00 0.  1.
         25    2    1    2    0    0 -0.59902920244E+02 -0.78951073087E+02 -0.81818309396E+03  0.83358882826E+03  0.12500051025E+03 0.  0.
          4    1    3    3  502    0 -0.55984145661E+02 -0.62591469325E+02 -0.81085979606E+03  0.81519760694E+03  0.12700000000E+01 0.  1.
         -4    1    3    3    0  502 -0.39187745836E+01 -0.16359603762E+02 -0.73232979023E+01  0.18391221320E+02  0.12700000000E+01 0.  1.
          2    1    1    2  503    0  0.38749991009E+01  0.10141694372E+03 -0.14955543810E+01  0.10150196438E+03  0.00000000000E+00 0. -1.
         -2    1    1    2    0  501  0.56027921144E+02 -0.22465870630E+02 -0.34433166109E+03  0.34958280295E+03  0.00000000000E+00 0.  1.
<mgrwt>
<rscale>  0 0.77831950E+02</rscale>
<asrwt>0</asrwt>
<pdfrwt beam="1">  1        1 0.92817920E-02 0.10035430E+03</pdfrwt>
<pdfrwt beam="2">  1       -1 0.18836029E+00 0.60364255E+02</pdfrwt>
<totfact> 0.15185556E+02</totfact>
</mgrwt>
</event>
<event>
 7    1  0.6493044E-004  0.7680973E+02  0.7546771E-02  0.1373629E+00
          1   -1    0    0  502    0 -0.00000000000E+00  0.00000000000E+00  0.68894556675E+02  0.68894556675E+02  0.00000000000E+00 0. -1.
          2   -1    0    0  503    0  0.00000000000E+00 -0.00000000000E+00 -0.30123173370E+04  0.30123173370E+04  0.00000000000E+00 0. -1.
         25    2    1    2    0    0 -0.40563612462E+02  0.11399148945E+03 -0.11328801126E+04  0.11461596841E+04  0.12500082186E+03 0.  0.
          4    1    3    3  501    0 -0.76957071847E+02  0.41082038934E+02 -0.72390527450E+03  0.72914373355E+03  0.12700000000E+01 0.  1.
         -4    1    3    3    0  501  0.36393459384E+02  0.72909450516E+02 -0.40897483812E+03  0.41701595051E+03  0.12700000000E+01 0.  1.
          2    1    1    2  502    0  0.39240464265E+02 -0.41344718511E+02  0.48346569571E+02  0.74743498539E+02  0.00000000000E+00 0. -1.
          1    1    1    2  503    0  0.13231481969E+01 -0.72646770940E+02 -0.18588892373E+04  0.18603087111E+04  0.00000000000E+00 0. -1.
<mgrwt>
<rscale>  0 0.66168643E+02</rscale>
<asrwt>0</asrwt>
<pdfrwt beam="2">  1        2 0.46343350E+00 0.76809733E+02</pdfrwt>
<pdfrwt beam="1">  1        1 0.10599161E-01 0.57001752E+02</pdfrwt>
<totfact> 0.18349139E+02</totfact>
</mgrwt>
</event>
<event>
 7    1  0.6493044E-004  0.5230947E+02  0.7546771E-02  0.1502337E+00
          2   -1    0    0  503    0  0.00000000000E+00  0.00000000000E+00  0.69468995749E+03  0.69468995749E+03  0.00000000000E+00 0. -1.
         -2   -1    0    0    0  501 -0.00000000000E+00 -0.00000000000E+00 -0.47557888248E+03  0.47557888248E+03  0.00000000000E+00 0.  1.
         25    2    1    2    0    0  0.53917409373E+02  0.24128792962E+02 -0.85902297800E+02  0.16276876535E+03  0.12500072208E+03 0.  0.
          4    1    3    3  502    0  0.88028090546E+02  0.33080630653E+02 -0.86059351617E+02  0.12747979350E+03  0.12700000000E+01 0.  1.
         -4    1    3    3    0  502 -0.34110681173E+02 -0.89518376913E+01  0.15705381709E+00  0.35288971847E+02  0.12700000000E+01 0.  1.
          1    1    1    2  503    0 -0.51769520059E+02  0.76364417877E+01  0.65448876378E+03  0.65657744430E+03  0.00000000000E+00 0. -1.
         -1    1    1    2    0  501 -0.21478893148E+01 -0.31765234750E+02 -0.34947539098E+03  0.35092263032E+03  0.00000000000E+00 0.  1.
<mgrwt>
<rscale>  0 0.40809517E+02</rscale>
<asrwt>0</asrwt>
<pdfrwt beam="1">  1        2 0.10687538E+00 0.52309465E+02</pdfrwt>
<pdfrwt beam="2">  1       -2 0.73165982E-01 0.31837770E+02</pdfrwt>
<totfact> 0.80252549E+01</totfact>
</mgrwt>
</event>
<event>
 7    1  0.6493044E-004  0.2072603E+03  0.7546771E-02  0.1287581E+00
          2   -1    0    0  503    0  0.00000000000E+00  0.00000000000E+00  0.66018065339E+03  0.66018065339E+03  0.00000000000E+00 0. -1.
          1   -1    0    0  502    0 -0.00000000000E+00 -0.00000000000E+00 -0.53972291360E+03  0.53972291360E+03  0.00000000000E+00 0. -1.
         25    2    1    2    0    0 -0.11087669328E+03  0.18202720629E+03 -0.18929303430E+03  0.31126313182E+03  0.12500135781E+03 0.  0.
          4    1    3    3  501    0 -0.35794422992E+02  0.10190286664E+02 -0.93589037570E+02  0.10072538664E+03  0.12700000000E+01 0.  1.
         -4    1    3    3    0  501 -0.75082270285E+02  0.17183691962E+03 -0.95703996725E+02  0.21053774518E+03  0.12700000000E+01 0.  1.
          2    1    1    2  502    0  0.42913012574E+02  0.13667137246E+02 -0.26961563618E+03  0.27335125492E+03  0.00000000000E+00 0. -1.
          1    1    1    2  503    0  0.67963680703E+02 -0.19569434353E+03  0.57936641028E+03  0.61528918026E+03  0.00000000000E+00 0. -1.
<mgrwt>
<rscale>  0 0.96614440E+02</rscale>
<asrwt>0</asrwt>
<pdfrwt beam="1">  1        2 0.10156625E+00 0.20726030E+03</pdfrwt>
<pdfrwt beam="2">  1        1 0.83034294E-01 0.45036844E+02</pdfrwt>
<totfact> 0.26541420E+02</totfact>
</mgrwt>
</event>
<event>
 7    1  0.6493044E-004  0.1138731E+03  0.7546771E-02  0.1373779E+00
          1   -1    0    0  502    0 -0.00000000000E+00  0.00000000000E+00  0.15447658756E+04  0.15447658756E+04  0.00000000000E+00 0. -1.
          2   -1    0    0  503    0  0.00000000000E+00 -0.00000000000E+00 -0.15526734237E+03  0.15526734237E+03  0.00000000000E+00 0. -1.
         25    2    1    2    0    0  0.11470760399E+03  0.41552254608E+02  0.15181314207E+03  0.23142563137E+03  0.12500467380E+03 0.  0.
          4    1    3    3  501    0  0.93814793725E+02  0.79726533749E+02  0.78062926807E+02  0.14578398111E+03  0.12700000000E+01 0. -1.
         -4    1    3    3    0  501  0.20892810270E+02 -0.38174279141E+02  0.73750215259E+02  0.85641650262E+02  0.12700000000E+01 0. -1.
          2    1    1    2  502    0 -0.25565869516E+02  0.28653839878E+02  0.13249232950E+04  0.13254796844E+04  0.00000000000E+00 0. -1.
          1    1    1    2  503    0 -0.89141734479E+02 -0.70206094486E+02 -0.87237903801E+02  0.14312790220E+03  0.00000000000E+00 0. -1.
<mgrwt>
<rscale>  0 0.66127669E+02</rscale>
<asrwt>0</asrwt>
<pdfrwt beam="2">  1        2 0.23887285E-01 0.11387307E+03</pdfrwt>
<pdfrwt beam="1">  1        1 0.23765628E+00 0.38401253E+02</pdfrwt>
<totfact> 0.24476115E+02</totfact>
</mgrwt>
</event>
<event>
 7    1  0.6493044E-004  0.6494307E+02  0.7546771E-02  0.1466104E+00
         -2   -1    0    0    0  501 -0.00000000000E+00  0.00000000000E+00  0.85034817565E+03  0.85034817565E+03  0.00000000000E+00 0.  1.
          2   -1    0    0  503    0  0.00000000000E+00 -0.00000000000E+00 -0.64862885828E+02  0.64862885828E+02  0.00000000000E+00 0. -1.
         25    2    1    2    0    0  0.48721283872E+02  0.44975721394E+02  0.18150064002E+03  0.23013953620E+03  0.12500057911E+03 0.  0.
          4    1    3    3  502    0 -0.23115441476E+02  0.53048198701E+02  0.37380910874E+02  0.68901236693E+02  0.12700000000E+01 0. -1.
         -4    1    3    3    0  502  0.71836725348E+02 -0.80724773070E+01  0.14411972914E+03  0.16123829951E+03  0.12700000000E+01 0. -1.
          1    1    1    2  503    0 -0.20616951167E+02 -0.62415779412E+02 -0.13163394451E+02  0.67037774042E+02  0.00000000000E+00 0. -1.
         -1    1    1    2    0  501 -0.28104332705E+02  0.17440058018E+02  0.61714804426E+03  0.61803375124E+03  0.00000000000E+00 0.  1.
<mgrwt>
<rscale>  0 0.46347000E+02</rscale>
<asrwt>0</asrwt>
<pdfrwt beam="2">  1        2 0.99789061E-02 0.64943065E+02</pdfrwt>
<pdfrwt beam="1">  1       -2 0.13082279E+00 0.33075809E+02</pdfrwt>
<totfact> 0.28844125E+02</totfact>
</mgrwt>
</event>
<event>
 7    1  0.6493044E-004  0.1415298E+03  0.7546771E-02  0.1262473E+00
          2   -1    0    0  503    0  0.00000000000E+00  0.00000000000E+00  0.11426478058E+03  0.11426478058E+03  0.00000000000E+00 0. -1.
          1   -1    0    0  502    0 -0.00000000000E+00 -0.00000000000E+00 -0.16322128467E+04  0.16322128467E+04  0.00000000000E+00 0. -1.
         25    2    1    2    0    0  0.16838629280E+03 -0.13150341232E+03 -0.90546935210E+03  0.93869413951E+03  0.12499939561E+03 0.  0.
          4    1    3    3  501    0  0.17446768091E+03 -0.91865160295E+02 -0.83133366090E+03  0.85439771067E+03  0.12700000000E+01 0. -1.
         -4    1    3    3    0  501 -0.60813881109E+01 -0.39638252022E+02 -0.74135691202E+02  0.84296428838E+02  0.12700000000E+01 0. -1.
          2    1    1    2  502    0 -0.79831811895E+02  0.25855101678E+02 -0.65744758439E+03  0.66278120877E+03  0.00000000000E+00 0. -1.
          1    1    1    2  503    0 -0.88554480902E+02  0.10564831064E+03  0.44968870332E+02  0.14500227904E+03  0.00000000000E+00 0. -1.
<mgrwt>
<rscale>  0 0.10897874E+03</rscale>
<asrwt>0</asrwt>
<pdfrwt beam="1">  1        2 0.17579199E-01 0.14152976E+03</pdfrwt>
<pdfrwt beam="2">  1        1 0.25110964E+00 0.83914269E+02</pdfrwt>
<totfact> 0.28238562E+02</totfact>
</mgrwt>
</event>
<event>
 7    1  0.6493044E-004  0.7332176E+02  0.7546771E-02  0.1361283E+00
          1   -1    0    0  502    0 -0.00000000000E+00  0.00000000000E+00  0.12170933786E+04  0.12170933786E+04  0.00000000000E+00 0. -1.
          2   -1    0    0  503    0  0.00000000000E+00 -0.00000000000E+00 -0.52572733190E+03  0.52572733190E+03  0.00000000000E+00 0. -1.
         25    2    1    2    0    0 -0.62594158037E+02  0.10823315668E+03  0.18267416038E+03  0.25421899632E+03  0.12500001758E+03 0.  0.
          4    1    3    3  501    0 -0.57403281595E+02  0.13252386378E+03  0.17746435648E+03  0.22880760898E+03  0.12700000000E+01 0.  1.
         -4    1    3    3    0  501 -0.51908764419E+01 -0.24290707102E+02  0.52098039060E+01  0.25411387339E+02  0.12700000000E+01 0.  1.
          2    1    1    2  502    0  0.58096456889E+02 -0.42221843567E+02  0.99511302692E+03  0.99770126727E+03  0.00000000000E+00 0. -1.
          1    1    1    2  503    0  0.44977011474E+01 -0.66011313110E+02 -0.48642114059E+03  0.49090044692E+03  0.00000000000E+00 0. -1.
<mgrwt>
<rscale>  0 0.69651183E+02</rscale>
<asrwt>0</asrwt>
<pdfrwt beam="2">  1        2 0.80881128E-01 0.66164362E+02</pdfrwt>
<pdfrwt beam="1">  1        1 0.18724513E+00 0.73321758E+02</pdfrwt>
<totfact> 0.10168191E+02</totfact>
</mgrwt>
</event>
<event>
 7    1  0.6493044E-004  0.6388332E+02  0.7546771E-02  0.1452597E+00
          2   -1    0    0  503    0  0.00000000000E+00  0.00000000000E+00  0.51114966172E+03  0.51114966172E+03  0.00000000000E+00 0. -1.
         -2   -1    0    0    0  501 -0.00000000000E+00 -0.00000000000E+00 -0.97789298248E+02  0.97789298248E+02  0.00000000000E+00 0.  1.
         25    2    1    2    0    0 -0.45396654725E+02  0.64056369289E+02  0.25759714681E+03  0.29689104999E+03  0.12499572317E+03 0.  0.
          4    1    3    3  502    0  0.25953882539E+02  0.12599755104E+02  0.48676140095E+01  0.29285908107E+02  0.12700000000E+01 0. -1.
         -4    1    3    3    0  502 -0.71350537264E+02  0.51456614185E+02  0.25272953280E+03  0.26760514188E+03  0.12700000000E+01 0. -1.
          1    1    1    2  503    0  0.83776615065E+01 -0.61695565346E+02  0.22502426522E+03  0.23347900962E+03  0.00000000000E+00 0. -1.
         -1    1    1    2    0  501  0.37018993219E+02 -0.23608039431E+01 -0.69261048565E+02  0.78568900352E+02  0.00000000000E+00 0.  1.
<mgrwt>
<rscale>  0 0.48679566E+02</rscale>
<asrwt>0</asrwt>
<pdfrwt beam="1">  1        2 0.78638408E-01 0.63883317E+02</pdfrwt>
<pdfrwt beam="2">  1       -2 0.15044508E-01 0.37094194E+02</pdfrwt>
<totfact> 0.19083546E+03</totfact>
</mgrwt>
</event>
<event>
 7    1  0.6493044E-004  0.5584917E+02  0.7546771E-02  0.1446296E+00
          1   -1    0    0  503    0  0.00000000000E+00  0.00000000000E+00  0.81464915046E+03  0.81464915046E+03  0.00000000000E+00 0. -1.
         -1   -1    0    0    0  501 -0.00000000000E+00 -0.00000000000E+00 -0.89667845312E+03  0.89667845312E+03  0.00000000000E+00 0.  1.
         25    2    1    2    0    0 -0.43786649445E+02 -0.28633309774E+01  0.19042177527E+03  0.23197112127E+03  0.12499871709E+03 0.  0.
          4    1    3    3  502    0 -0.10823272477E+02  0.30480206301E+02 -0.34065051549E+01  0.32548477393E+02  0.12700000000E+01 0. -1.
         -4    1    3    3    0  502 -0.32963376967E+02 -0.33343537278E+02  0.19382828042E+03  0.19942264388E+03  0.12700000000E+01 0. -1.
          2    1    1    2  503    0  0.11582522247E+02 -0.42912406034E+02  0.60173809674E+03  0.60337746601E+03  0.00000000000E+00 0. -1.
         -2    1    1    2    0  501  0.32204127198E+02  0.45775737011E+02 -0.87418917466E+03  0.87597901630E+03  0.00000000000E+00 0.  1.
<mgrwt>
<rscale>  0 0.49823557E+02</rscale>
<asrwt>0</asrwt>
<pdfrwt beam="1">  1        1 0.12533064E+00 0.44448053E+02</pdfrwt>
<pdfrwt beam="2">  1       -1 0.13795053E+00 0.55849169E+02</pdfrwt>
<totfact> 0.12894157E+01</totfact>
</mgrwt>
</event>
<event>
 7    1  0.6493044E-004  0.1135665E+03  0.7546771E-02  0.1349901E+00
          1   -1    0    0  502    0 -0.00000000000E+00  0.00000000000E+00  0.12894108589E+04  0.12894108589E+04  0.00000000000E+00 0. -1.
          2   -1    0    0  503    0  0.00000000000E+00 -0.00000000000E+00 -0.22799884458E+03  0.22799884458E+03  0.00000000000E+00 0. -1.
         25    2    1    2    0    0 -0.40270275676E+02  0.15392751997E+03  0.44437674491E+03  0.48827278541E+03  0.12499698014E+03 0.  0.
          4    1    3    3  501    0 -0.22724423676E+02 -0.18298814952E+02  0.62516959232E+02  0.69001660499E+02  0.12700000000E+01 0.  1.
         -4    1    3    3    0  501 -0.17545852000E+02  0.17222633492E+03  0.38185978568E+03  0.41927112491E+03  0.12700000000E+01 0.  1.
          2    1    1    2  502    0  0.11707563569E+02 -0.45555096383E+02  0.80711114680E+03  0.80848051129E+03  0.00000000000E+00 0. -1.
          1    1    1    2  503    0  0.28562712107E+02 -0.10837242359E+03 -0.19007587735E+03  0.22065640682E+03  0.00000000000E+00 0. -1.
<mgrwt>
<rscale>  0 0.73086601E+02</rscale>
<asrwt>0</asrwt>
<pdfrwt beam="2">  1        2 0.35076746E-01 0.11356649E+03</pdfrwt>
<pdfrwt beam="1">  1        1 0.19837090E+00 0.47035453E+02</pdfrwt>
<totfact> 0.22844813E+02</totfact>
</mgrwt>
</event>
<event>
 7    1  0.6493044E-004  0.1447838E+03  0.7546771E-02  0.1424530E+00
          1   -1    0    0  502    0 -0.00000000000E+00  0.00000000000E+00  0.97167566862E+03  0.97167566862E+03  0.00000000000E+00 0. -1.
          2   -1    0    0  503    0  0.00000000000E+00 -0.00000000000E+00 -0.13893314387E+04  0.13893314387E+04  0.00000000000E+00 0. -1.
         25    2    1    2    0    0 -0.10843373537E+03 -0.12168020616E+03 -0.51899161099E+03  0.55815915773E+03  0.12500162212E+03 0.  0.
          4    1    3    3  501    0 -0.50391963781E+02 -0.12701167914E+03 -0.43468687747E+03  0.45565953407E+03  0.12700000000E+01 0. -1.
         -4    1    3    3    0  501 -0.58041771592E+02  0.53314729746E+01 -0.84304733526E+02  0.10249962365E+03  0.12700000000E+01 0. -1.
          2    1    1    2  502    0  0.10193730706E+03  0.10255802227E+03  0.94648019423E+03  0.95746233377E+03  0.00000000000E+00 0. -1.
          1    1    1    2  503    0  0.64964283136E+01  0.19122183891E+02 -0.84514435334E+03  0.84538561584E+03  0.00000000000E+00 0. -1.
<mgrwt>
<rscale>  0 0.54073964E+02</rscale>
<asrwt>0</asrwt>
<pdfrwt beam="2">  1        2 0.21374330E+00 0.20195581E+02</pdfrwt>
<pdfrwt beam="1">  1        1 0.14948856E+00 0.14478383E+03</pdfrwt>
<totfact> 0.46049027E+01</totfact>
</mgrwt>
</event>
<event>
 7    1  0.6493044E-004  0.1429402E+03  0.7546771E-02  0.1359312E+00
          2   -1    0    0  503    0  0.00000000000E+00  0.00000000000E+00  0.16952747335E+03  0.16952747335E+03  0.00000000000E+00 0. -1.
          1   -1    0    0  502    0 -0.00000000000E+00 -0.00000000000E+00 -0.20266640405E+04  0.20266640405E+04  0.00000000000E+00 0. -1.
         25    2    1    2    0    0  0.10661646125E+03  0.42173585340E+02 -0.15583379956E+03  0.23033315419E+03  0.12499403074E+03 0.  0.
          4    1    3    3  501    0  0.11306596690E+03 -0.78225131098E+01 -0.13365809958E+03  0.17524612710E+03  0.12700000000E+01 0. -1.
         -4    1    3    3    0  501 -0.64495056434E+01  0.49996098450E+02 -0.22175699982E+02  0.55087027084E+02  0.12700000000E+01 0. -1.
          2    1    1    2  502    0  0.32836616972E+02  0.10602957321E+02 -0.17913429385E+04  0.17916752466E+04  0.00000000000E+00 0. -1.
          1    1    1    2  503    0 -0.13945307823E+03 -0.52776542661E+02  0.90040170919E+02  0.17418311302E+03  0.00000000000E+00 0. -1.
<mgrwt>
<rscale>  0 0.70230319E+02</rscale>
<asrwt>0</asrwt>
<pdfrwt beam="1">  1        2 0.26081150E-01 0.14294017E+03</pdfrwt>
<pdfrwt beam="2">  1        1 0.31179447E+00 0.34506030E+02</pdfrwt>
<totfact> 0.11585517E+02</totfact>
</mgrwt>
</event>
<event>
 7    1  0.6493044E-004  0.7926656E+02  0.7546771E-02  0.1419689E+00
          2   -1    0    0  503    0  0.00000000000E+00  0.00000000000E+00  0.50449756556E+04  0.50449756556E+04  0.00000000000E+00 0. -1.
          1   -1    0    0  502    0 -0.00000000000E+00 -0.00000000000E+00 -0.61752044348E+03  0.61752044348E+03  0.00000000000E+00 0. -1.
         25    2    1    2    0    0  0.91737800539E+01  0.67020495392E+02 -0.18341702044E+03  0.23204523757E+03  0.12500913507E+03 0.  0.
          4    1    3    3  501    0  0.28923489821E+02 -0.14210568017E+02 -0.12737157245E+03  0.13139116742E+03  0.12700000000E+01 0.  1.
         -4    1    3    3    0  501 -0.19749709767E+02  0.81231063409E+02 -0.56045447982E+02  0.10065407015E+03  0.12700000000E+01 0.  1.
          2    1    1    2  502    0  0.38133351238E+02 -0.33808590765E+01 -0.40858136288E+03  0.41037094534E+03  0.00000000000E+00 0. -1.
          1    1    1    2  503    0 -0.47307131292E+02 -0.63639636316E+02  0.50194535954E+04  0.50200799162E+04  0.00000000000E+00 0. -1.
<mgrwt>
<rscale>  0 0.55086807E+02</rscale>
<asrwt>0</asrwt>
<pdfrwt beam="1">  1        2 0.77615007E+00 0.79266564E+02</pdfrwt>
<pdfrwt beam="2">  1        1 0.95003149E-01 0.38282929E+02</pdfrwt>
<totfact> 0.31252515E-01</totfact>
</mgrwt>
</event>
<event>
 7    1  0.6493044E-004  0.6238810E+02  0.7546771E-02  0.1527680E+00
          1   -1    0    0  503    0  0.00000000000E+00  0.00000000000E+00  0.10971777177E+04  0.10971777177E+04  0.00000000000E+00 0. -1.
         -1   -1    0    0    0  501 -0.00000000000E+00 -0.00000000000E+00 -0.14840523678E+02  0.14840523678E+02  0.00000000000E+00 0.  1.
         25    2    1    2    0    0 -0.70197131544E+02  0.19571515269E+01  0.58604605331E+03  0.60332980065E+03  0.12500161613E+03 0.  0.
          4    1    3    3  502    0  0.88911950366E+01  0.43762252948E+02  0.10618893694E+03  0.11520369508E+03  0.12700000000E+01 0. -1.
         -4    1    3    3    0  502 -0.79088326580E+02 -0.41805101421E+02  0.47985711637E+03  0.48812610557E+03  0.12700000000E+01 0. -1.
          2    1    1    2  503    0  0.12750049334E+02  0.18547564419E+02  0.34255667353E+03  0.34329528177E+03  0.00000000000E+00 0. -1.
         -2    1    1    2    0  501  0.57447082210E+02 -0.20504715946E+02  0.15373446717E+03  0.16539315895E+03  0.00000000000E+00 0.  1.
<mgrwt>
<rscale>  0 0.37472442E+02</rscale>
<asrwt>0</asrwt>
<pdfrwt beam="1">  1        1 0.16879651E+00 0.22507241E+02</pdfrwt>
<pdfrwt beam="2">  1       -1 0.22831584E-02 0.62388096E+02</pdfrwt>
<totfact> 0.76960993E+03</totfact>
</mgrwt>
</event>
<event>
 7    1  0.6493044E-004  0.7920802E+02  0.7546771E-02  0.1469181E+00
          1   -1    0    0  502    0 -0.00000000000E+00  0.00000000000E+00  0.47485533615E+04  0.47485533615E+04  0.00000000000E+00 0. -1.
          2   -1    0    0  503    0  0.00000000000E+00 -0.00000000000E+00 -0.53824927119E+02  0.53824927119E+02  0.00000000000E+00 0. -1.
         25    2    1    2    0    0  0.92760070604E+02 -0.46064434927E+02  0.12566438306E+04  0.12670852463E+04  0.12499976613E+03 0.  0.
          4    1    3    3  501    0  0.63277503797E+02 -0.32774944503E+01  0.21501219879E+03  0.22415762977E+03  0.12700000000E+01 0.  1.
         -4    1    3    3    0  501  0.29482566808E+02 -0.42786940477E+02  0.10416316318E+04  0.10429276165E+04  0.12700000000E+01 0.  1.
          2    1    1    2  502    0 -0.67955491481E+02  0.36664629779E+02  0.34826095776E+04  0.34834654747E+04  0.00000000000E+00 0. -1.
          1    1    1    2  503    0 -0.24804579123E+02  0.93998051478E+01 -0.44524973730E+02  0.51827567645E+02  0.00000000000E+00 0. -1.
<mgrwt>
<rscale>  0 0.45837366E+02</rscale>
<asrwt>0</asrwt>
<pdfrwt beam="2">  1        2 0.82807618E-02 0.26525902E+02</pdfrwt>
<pdfrwt beam="1">  1        1 0.73054634E+00 0.79208019E+02</pdfrwt>
<totfact> 0.31054926E+00</totfact>
</mgrwt>
</event>
<event>
 7    1  0.6493044E-004  0.7388831E+02  0.7546771E-02  0.1385425E+00
          1   -1    0    0  503    0  0.00000000000E+00  0.00000000000E+00  0.14571460531E+04  0.14571460531E+04  0.00000000000E+00 0. -1.
         -1   -1    0    0    0  501 -0.00000000000E+00 -0.00000000000E+00 -0.58450965685E+02  0.58450965685E+02  0.00000000000E+00 0.  1.
         25    2    1    2    0    0 -0.62200537797E+02 -0.52791297523E+02  0.97807436691E+02  0.17845958539E+03  0.12500280377E+03 0.  0.
          4    1    3    3  502    0  0.59891453140E+00 -0.78031151599E+02  0.32963517974E+02  0.84719689186E+02  0.12700000000E+01 0.  1.
         -4    1    3    3    0  502 -0.62799452328E+02  0.25239854076E+02  0.64843918717E+02  0.93739896208E+02  0.12700000000E+01 0.  1.
          2    1    1    2  503    0  0.48939342482E+02 -0.22387293045E+02  0.12353595157E+04  0.12365311898E+04  0.00000000000E+00 0. -1.
         -2    1    1    2    0  501  0.13261195315E+02  0.75178590568E+02  0.65528134967E+02  0.10060624361E+03  0.00000000000E+00 0.  1.
<mgrwt>
<rscale>  0 0.63058972E+02</rscale>
<asrwt>0</asrwt>
<pdfrwt beam="1">  1        1 0.22417629E+00 0.53816820E+02</pdfrwt>
<pdfrwt beam="2">  1       -1 0.89924573E-02 0.73888311E+02</pdfrwt>
<totfact> 0.58751470E+02</totfact>
</mgrwt>
</event>
<event>
 7    1  0.6493044E-004  0.1480391E+03  0.7546771E-02  0.1314311E+00
          2   -1    0    0  503    0  0.00000000000E+00  0.00000000000E+00  0.63912590528E+03  0.63912590528E+03  0.00000000000E+00 0. -1.
          1   -1    0    0  502    0 -0.00000000000E+00 -0.00000000000E+00 -0.78690100737E+02  0.78690100737E+02  0.00000000000E+00 0. -1.
         25    2    1    2    0    0 -0.10262884365E+03 -0.41022302090E+02  0.11023786308E+03  0.19999162945E+03  0.12501502540E+03 0.  0.
          4    1    3    3  501    0 -0.58442948580E+02  0.30522222985E+02  0.93221228948E+02  0.11418841781E+03  0.12700000000E+01 0.  1.
         -4    1    3    3    0  501 -0.44185895067E+02 -0.71544525075E+02  0.17016634134E+02  0.85803211643E+02  0.12700000000E+01 0.  1.
          2    1    1    2  502    0 -0.46115699029E+02 -0.17431047264E+02  0.11083152965E+02  0.50530539135E+02  0.00000000000E+00 0. -1.
          1    1    1    2  503    0  0.14874454268E+03  0.58453349354E+02  0.43911478850E+03  0.46729383744E+03  0.00000000000E+00 0. -1.
<mgrwt>
<rscale>  0 0.85430317E+02</rscale>
<asrwt>0</asrwt>
<pdfrwt beam="1">  1        2 0.98327059E-01 0.14803906E+03</pdfrwt>
<pdfrwt beam="2">  1        1 0.12106170E-01 0.49300092E+02</pdfrwt>
<totfact> 0.29117839E+03</totfact>
</mgrwt>
</event>
<event>
 7    1  0.6493044E-004  0.1180041E+03  0.7546771E-02  0.1250070E+00
          2   -1    0    0  503    0  0.00000000000E+00  0.00000000000E+00  0.10457977841E+04  0.10457977841E+04  0.00000000000E+00 0. -1.
          1   -1    0    0  502    0 -0.00000000000E+00 -0.00000000000E+00 -0.95712250088E+03  0.95712250088E+03  0.00000000000E+00 0. -1.
         25    2    1    2    0    0  0.96778945282E+02  0.32089635840E+02 -0.15707857685E+03  0.22517202669E+03  0.12503140934E+03 0.  0.
          4    1    3    3  501    0  0.41286631040E+02  0.54976371412E+02 -0.14962621195E+03  0.16467119820E+03  0.12700000000E+01 0.  1.
         -4    1    3    3    0  501  0.55492314241E+02 -0.22886735572E+02 -0.74523649037E+01  0.60500828487E+02  0.12700000000E+01 0.  1.
          2    1    1    2  502    0 -0.29575259518E+02 -0.12389564761E+03 -0.75746406494E+03  0.76809936672E+03  0.00000000000E+00 0. -1.
          3    1    1    2  503    0 -0.67203685764E+02  0.91806011769E+02  0.10032179250E+04  0.10096488916E+04  0.00000000000E+00 0. -1.
<mgrwt>
<rscale>  0 0.11587009E+03</rscale>
<asrwt>0</asrwt>
<pdfrwt beam="1">  1        2 0.16089197E+00 0.11377469E+03</pdfrwt>
<pdfrwt beam="2">  1        1 0.14724962E+00 0.11800409E+03</pdfrwt>
<totfact> 0.64174483E+01</totfact>
</mgrwt>
</event>
<event>
 7    1  0.6493044E-004  0.8463799E+02  0.7546771E-02  0.1384403E+00
          2   -1    0    0  503    0  0.00000000000E+00  0.00000000000E+00  0.29008386917E+04  0.29008386917E+04  0.00000000000E+00 0. -1.
         -2   -1    0    0    0  501 -0.00000000000E+00 -0.00000000000E+00 -0.10723487941E+02  0.10723487941E+02  0.00000000000E+00 0.  1.
         25    2    1    2    0    0 -0.99571961742E+02  0.32148087327E+02  0.76171144519E+03  0.77895868420E+03  0.12499692349E+03 0.  0.
          4    1    3    3  502    0 -0.10011761725E+03  0.60732409969E+01  0.73422991533E+03  0.74105033770E+03  0.12700000000E+01 0.  1.
         -4    1    3    3    0  502  0.54565551241E+00  0.26074846330E+02  0.27481529853E+02  0.37908346497E+02  0.12700000000E+01 0.  1.
          1    1    1    2  503    0  0.45936493738E+02  0.11573791265E+02  0.14289784937E+04  0.14297634943E+04  0.00000000000E+00 0. -1.
         -1    1    1    2    0  501  0.53635468004E+02 -0.43721878593E+02  0.69942526482E+03  0.70284000112E+03  0.00000000000E+00 0.  1.
<mgrwt>
<rscale>  0 0.63320436E+02</rscale>
<asrwt>0</asrwt>
<pdfrwt beam="1">  1        2 0.44628225E+00 0.47372081E+02</pdfrwt>
<pdfrwt beam="2">  1       -2 0.16497697E-02 0.84637987E+02</pdfrwt>
<totfact> 0.27633131E+03</totfact>
</mgrwt>
</event>
<event>
 7    1  0.6493044E-004  0.5465476E+02  0.7546771E-02  0.1454494E+00
          2   -1    0    0  503    0  0.00000000000E+00  0.00000000000E+00  0.33174294439E+03  0.33174294439E+03  0.00000000000E+00 0. -1.
          1   -1    0    0  502    0 -0.00000000000E+00 -0.00000000000E+00 -0.79988280859E+03  0.79988280859E+03  0.00000000000E+00 0. -1.
         25    2    1    2    0    0  0.16167716314E+02 -0.15475307533E+02  0.16092439926E+03  0.20499505788E+03  0.12500172512E+03 0.  0.
          4    1    3    3  501    0 -0.46502397117E+02 -0.22034419361E+02  0.29719359187E+02  0.59437713489E+02  0.12700000000E+01 0.  1.
         -4    1    3    3    0  501  0.62670113431E+02  0.65591118284E+01  0.13120504007E+03  0.14555734439E+03  0.12700000000E+01 0.  1.
          2    1    1    2  502    0  0.30951265080E+02 -0.29501514397E+02 -0.77009617546E+03  0.77128233457E+03  0.00000000000E+00 0. -1.
          1    1    1    2  503    0 -0.47118981393E+02  0.44976821930E+02  0.14103191200E+03  0.15534836053E+03  0.00000000000E+00 0. -1.
<mgrwt>
<rscale>  0 0.48342273E+02</rscale>
<asrwt>0</asrwt>
<pdfrwt beam="1">  1        2 0.51037377E-01 0.54654763E+02</pdfrwt>
<pdfrwt beam="2">  1        1 0.12305889E+00 0.42758861E+02</pdfrwt>
<totfact> 0.33674529E+02</totfact>
</mgrwt>
</event>
<event>
 7    1  0.6493044E-004  0.3501901E+02  0.7546771E-02  0.1576406E+00
          1   -1    0    0  503    0  0.00000000000E+00  0.00000000000E+00  0.12358236598E+04  0.12358236598E+04  0.00000000000E+00 0. -1.
         -1   -1    0    0    0  501 -0.00000000000E+00 -0.00000000000E+00 -0.13344888040E+02  0.13344888040E+02  0.00000000000E+00 0.  1.
         25    2    1    2    0    0 -0.29091687992E+01  0.26287073720E+02  0.36575359009E+03  0.38743290136E+03  0.12501636245E+03 0.  0.
          4    1    3    3  502    0 -0.63075399519E+01  0.56861666369E+02  0.34633706969E+03  0.35103278039E+03  0.12700000000E+01 0.  1.
         -4    1    3    3    0  502  0.33983711527E+01 -0.30574592649E+02  0.19416520399E+02  0.36400120969E+02  0.12700000000E+01 0.  1.
          2    1    1    2  503    0  0.33994490311E+02 -0.84086548106E+01  0.70346498993E+03  0.70433608662E+03  0.00000000000E+00 0. -1.
         -2    1    1    2    0  501 -0.31085321512E+02 -0.17878418909E+02  0.15326019169E+03  0.15739955983E+03  0.00000000000E+00 0.  1.
<mgrwt>
<rscale>  0 0.32056855E+02</rscale>
<asrwt>0</asrwt>
<pdfrwt beam="1">  1        1 0.19012663E+00 0.35019007E+02</pdfrwt>
<pdfrwt beam="2">  1       -1 0.20530607E-02 0.29345262E+02</pdfrwt>
<totfact> 0.62097407E+03</totfact>
</mgrwt>
</event>
<event>
 7    1  0.6493044E-004  0.6907351E+02  0.7546771E-02  0.1405753E+00
          2   -1    0    0  503    0  0.00000000000E+00  0.00000000000E+00  0.39213307888E+03  0.39213307888E+03  0.00000000000E+00 0. -1.
          1   -1    0    0  502    0 -0.00000000000E+00 -0.00000000000E+00 -0.18854025551E+04  0.18854025551E+04  0.00000000000E+00 0. -1.
         25    2    1    2    0    0 -0.34428182511E+02  0.11133606053E+03 -0.53457476445E+02  0.17905845776E+03  0.12499284532E+03 0.  0.
          4    1    3    3  501    0 -0.78457096993E+02  0.42717482098E+02 -0.26909618684E+02  0.93306161764E+02  0.12700000000E+01 0.  1.
         -4    1    3    3    0  501  0.44028914482E+02  0.68618578435E+02 -0.26547857760E+02  0.85752295996E+02  0.12700000000E+01 0.  1.
          2    1    1    2  502    0  0.27336020461E+02 -0.62894285965E+02 -0.17666561235E+04  0.17679866538E+04  0.00000000000E+00 0. -1.
          1    1    1    2  503    0  0.70921620496E+01 -0.48441774568E+02  0.32684412367E+03  0.33049052250E+03  0.00000000000E+00 0. -1.
<mgrwt>
<rscale>  0 0.58152506E+02</rscale>
<asrwt>0</asrwt>
<pdfrwt beam="1">  1        2 0.60328166E-01 0.48958189E+02</pdfrwt>
<pdfrwt beam="2">  1        1 0.29006193E+00 0.69073511E+02</pdfrwt>
<totfact> 0.52628816E+01</totfact>
</mgrwt>
</event>
<event>
 7    1  0.6493044E-004  0.1119885E+03  0.7546771E-02  0.1408163E+00
         -2   -1    0    0    0  501 -0.00000000000E+00  0.00000000000E+00  0.34252411575E+03  0.34252411575E+03  0.00000000000E+00 0.  1.
          2   -1    0    0  503    0  0.00000000000E+00 -0.00000000000E+00 -0.75504838845E+03  0.75504838845E+03  0.00000000000E+00 0. -1.
         25    2    1    2    0    0 -0.11549501443E+03  0.45494074607E+02  0.48966824032E+02  0.18285159366E+03  0.12501258442E+03 0.  0.
          4    1    3    3  502    0 -0.83973594906E+02  0.18047305659E+01  0.83824654192E+02  0.11867184689E+03  0.12700000000E+01 0.  1.
         -4    1    3    3    0  502 -0.31521419523E+02  0.43689344041E+02 -0.34857830160E+02  0.64179746766E+02  0.12700000000E+01 0.  1.
          1    1    1    2  503    0  0.24581107155E+02  0.16547194461E+02 -0.67439686950E+03  0.67504753763E+03  0.00000000000E+00 0. -1.
         -1    1    1    2    0  501  0.90913907273E+02 -0.62041269068E+02  0.21290577276E+03  0.23967337291E+03  0.00000000000E+00 0.  1.
<mgrwt>
<rscale>  0 0.57605697E+02</rscale>
<asrwt>0</asrwt>
<pdfrwt beam="2">  1        2 0.11616129E+00 0.29631748E+02</pdfrwt>
<pdfrwt beam="1">  1       -2 0.52696018E-01 0.11198855E+03</pdfrwt>
<totfact> 0.14448770E+02</totfact>
</mgrwt>
</event>
<event>
 7    1  0.6493044E-004  0.7071001E+02  0.7546771E-02  0.1509574E+00
         -1   -1    0    0    0  502 -0.00000000000E+00  0.00000000000E+00  0.14602996198E+03  0.14602996198E+03  0.00000000000E+00 0.  1.
         -2   -1    0    0    0  501  0.00000000000E+00 -0.00000000000E+00 -0.90957489643E+03  0.90957489643E+03  0.00000000000E+00 0.  1.
         25    2    1    2    0    0  0.55563065169E+02 -0.31617018182E+02 -0.42624706856E+03  0.44877505630E+03  0.12500239060E+03 0.  0.
          4    1    3    3  503    0  0.89484885819E+02  0.60457802394E+01 -0.27279012352E+03  0.28715877253E+03  0.12700000000E+01 0.  1.
         -4    1    3    3    0  503 -0.33921820650E+02 -0.37662798421E+02 -0.15345694504E+03  0.16161628377E+03  0.12700000000E+01 0.  1.
         -2    1    1    2    0  502 -0.69513069079E+02  0.14066493953E+02  0.12514469866E+03  0.14384411225E+03  0.00000000000E+00 0.  1.
         -1    1    1    2    0  501  0.13950003910E+02  0.17550524229E+02 -0.46244256455E+03  0.46298568986E+03  0.00000000000E+00 0.  1.
<mgrwt>
<rscale>  0 0.39815406E+02</rscale>
<asrwt>0</asrwt>
<pdfrwt beam="2">  1       -2 0.13993460E+00 0.22419266E+02</pdfrwt>
<pdfrwt beam="1">  1       -1 0.22466148E-01 0.70710008E+02</pdfrwt>
<totfact> 0.50192787E+01</totfact>
</mgrwt>
</event>
<event>
 7    1  0.6493044E-004  0.1083902E+03  0.7546771E-02  0.1346013E+00
          2   -1    0    0  503    0  0.00000000000E+00  0.00000000000E+00  0.79742463932E+03  0.79742463932E+03  0.00000000000E+00 0. -1.
          1   -1    0    0  502    0 -0.00000000000E+00 -0.00000000000E+00 -0.10021036738E+04  0.10021036738E+04  0.00000000000E+00 0. -1.
         25    2    1    2    0    0  0.73732660853E+02  0.62264731619E+02  0.31908842898E+03  0.35602693628E+03  0.12499740705E+03 0.  0.
          4    1    3    3  501    0  0.17122403436E+02 -0.36726645987E+02  0.11905285214E+03  0.12576652069E+03  0.12700000000E+01 0.  1.
         -4    1    3    3    0  501  0.56610257418E+02  0.98991377606E+02  0.20003557684E+03  0.23026041559E+03  0.12700000000E+01 0.  1.
          2    1    1    2  502    0  0.38568001692E+02 -0.33291020759E+02 -0.97564674953E+03  0.97697613210E+03  0.00000000000E+00 0. -1.
          1    1    1    2  503    0 -0.11230066255E+03 -0.28973710860E+02  0.45187928611E+03  0.46652524471E+03  0.00000000000E+00 0. -1.
<mgrwt>
<rscale>  0 0.74312538E+02</rscale>
<asrwt>0</asrwt>
<pdfrwt beam="1">  1        2 0.12268071E+00 0.10839020E+03</pdfrwt>
<pdfrwt beam="2">  1        1 0.15416979E+00 0.50948825E+02</pdfrwt>
<totfact> 0.89754104E+01</totfact>
</mgrwt>
</event>
<event>
 7    1  0.6493044E-004  0.1521872E+03  0.7546771E-02  0.1234286E+00
         -1   -1    0    0    0  501 -0.00000000000E+00  0.00000000000E+00  0.10162863128E+04  0.10162863128E+04  0.00000000000E+00 0.  1.
          1   -1    0    0  503    0  0.00000000000E+00 -0.00000000000E+00 -0.46655283570E+03  0.46655283570E+03  0.00000000000E+00 0. -1.
         25    2    1    2    0    0  0.82373076487E+02  0.21703111674E+03  0.32781095941E+03  0.42068104978E+03  0.12499876469E+03 0.  0.
          4    1    3    3  502    0  0.94858763904E+02  0.18885163729E+03  0.32757364358E+03  0.38983231121E+03  0.12700000000E+01 0.  1.
         -4    1    3    3    0  502 -0.12485687416E+02  0.28179479455E+02  0.23731582492E+00  0.30848738571E+02  0.12700000000E+01 0.  1.
          2    1    1    2  503    0 -0.96515032740E+02 -0.11450473796E+03 -0.40237530654E+03  0.42933946229E+03  0.00000000000E+00 0. -1.
         -2    1    1    2    0  501  0.14141956253E+02 -0.10252637878E+03  0.62429782421E+03  0.63281863641E+03  0.00000000000E+00 0.  1.
<mgrwt>
<rscale>  0 0.12550274E+03</rscale>
<asrwt>0</asrwt>
<pdfrwt beam="2">  1        1 0.71777359E-01 0.15218721E+03</pdfrwt>
<pdfrwt beam="1">  1       -1 0.15635174E+00 0.10349712E+03</pdfrwt>
<totfact> 0.18373446E+01</totfact>
</mgrwt>
</event>
<event>
 7    1  0.6493044E-004  0.4089014E+02  0.7546771E-02  0.1523822E+00
          1   -1    0    0  502    0 -0.00000000000E+00  0.00000000000E+00  0.46075918003E+03  0.46075918003E+03  0.00000000000E+00 0. -1.
          2   -1    0    0  503    0  0.00000000000E+00 -0.00000000000E+00 -0.10398599574E+03  0.10398599574E+03  0.00000000000E+00 0. -1.
         25    2    1    2    0    0  0.62326354105E+02 -0.35147047942E+02  0.25024470630E+03  0.28873450102E+03  0.12500123862E+03 0.  0.
          4    1    3    3  501    0  0.90891374048E+02  0.17270324003E+01  0.12118032007E+03  0.15149424870E+03  0.12700000000E+01 0.  1.
         -4    1    3    3    0  501 -0.28565019943E+02 -0.36874080342E+02  0.12906438623E+03  0.13724025232E+03  0.12700000000E+01 0.  1.
          2    1    1    2  502    0 -0.34782147915E+02  0.56052749582E+01  0.18469514093E+03  0.18802529618E+03  0.00000000000E+00 0. -1.
          1    1    1    2  503    0 -0.27544206190E+02  0.29541772983E+02 -0.78166662936E+02  0.87985378559E+02  0.00000000000E+00 0. -1.
<mgrwt>
<rscale>  0 0.37955195E+02</rscale>
<asrwt>0</asrwt>
<pdfrwt beam="2">  1        2 0.15997846E-01 0.40890141E+02</pdfrwt>
<pdfrwt beam="1">  1        1 0.70886027E-01 0.35230909E+02</pdfrwt>
<totfact> 0.23465580E+03</totfact>
</mgrwt>
</event>
<event>
 7    1  0.6493044E-004  0.7772485E+02  0.7546771E-02  0.1337436E+00
         -1   -1    0    0    0  501 -0.00000000000E+00  0.00000000000E+00  0.79387484880E+02  0.79387484880E+02  0.00000000000E+00 0.  1.
          1   -1    0    0  503    0  0.00000000000E+00 -0.00000000000E+00 -0.24571584668E+04  0.24571584668E+04  0.00000000000E+00 0. -1.
         25    2    1    2    0    0  0.17659039652E+02 -0.19054225708E+01 -0.12799643267E+03  0.17978796425E+03  0.12500061198E+03 0.  0.
          4    1    3    3  502    0 -0.31080020063E+02 -0.38422161662E+02 -0.15414026881E+02  0.51782576979E+02  0.12700000000E+01 0. -1.
         -4    1    3    3    0  502  0.48739059715E+02  0.36516739091E+02 -0.11258240579E+03  0.12800538727E+03  0.12700000000E+01 0. -1.
          2    1    1    2  503    0  0.67085205275E+02  0.39252104600E+02 -0.22620096514E+04  0.22633446082E+04  0.00000000000E+00 0. -1.
         -2    1    1    2    0  501 -0.84744244927E+02 -0.37346682029E+02  0.12235102088E+02  0.93413379287E+02  0.00000000000E+00 0.  1.
<mgrwt>
<rscale>  0 0.77117729E+02</rscale>
<asrwt>0</asrwt>
<pdfrwt beam="2">  1        1 0.37802441E+00 0.77724851E+02</pdfrwt>
<pdfrwt beam="1">  1       -1 0.12213458E-01 0.76515349E+02</pdfrwt>
<totfact> 0.84463282E+01</totfact>
</mgrwt>
</event>
<event>
 7    1  0.6493044E-004  0.7064690E+02  0.7546771E-02  0.1377551E+00
          2   -1    0    0  503    0  0.00000000000E+00  0.00000000000E+00  0.64733636608E+02  0.64733636608E+02  0.00000000000E+00 0. -1.
         -2   -1    0    0    0  501 -0.00000000000E+00 -0.00000000000E+00 -0.41917755769E+03  0.41917755769E+03  0.00000000000E+00 0.  1.
         25    2    1    2    0    0 -0.98369209172E+02 -0.73587850521E+02 -0.24138318440E+03  0.29830121983E+03  0.12500441187E+03 0.  0.
          4    1    3    3  502    0 -0.76363348845E+02 -0.82670286513E+02 -0.24901528780E+03  0.27326903186E+03  0.12700000000E+01 0. -1.
         -4    1    3    3    0  502 -0.22005860327E+02  0.90824359917E+01  0.76321033999E+01  0.25032187970E+02  0.12700000000E+01 0. -1.
          1    1    1    2  503    0  0.46109391834E+02  0.44088677965E+02 -0.75683455259E+01  0.64243033817E+02  0.00000000000E+00 0. -1.
         -1    1    1    2    0  501  0.52259817338E+02  0.29499172556E+02 -0.10549239116E+03  0.12136694065E+03  0.00000000000E+00 0.  1.
<mgrwt>
<rscale>  0 0.65112003E+02</rscale>
<asrwt>0</asrwt>
<pdfrwt beam="1">  1        2 0.99590208E-02 0.70646895E+02</pdfrwt>
<pdfrwt beam="2">  1       -2 0.64488856E-01 0.60010746E+02</pdfrwt>
<totfact> 0.13743255E+03</totfact>
</mgrwt>
</event>
<event>
 7    1  0.6493044E-004  0.4143317E+02  0.7546771E-02  0.1577852E+00
          1   -1    0    0  502    0 -0.00000000000E+00  0.00000000000E+00  0.34129288739E+03  0.34129288739E+03  0.00000000000E+00 0. -1.
          2   -1    0    0  503    0  0.00000000000E+00 -0.00000000000E+00 -0.58887425656E+02  0.58887425656E+02  0.00000000000E+00 0. -1.
         25    2    1    2    0    0  0.54818423215E+02 -0.30256648280E+02  0.78992569059E+02  0.16057804200E+03  0.12499982927E+03 0.  0.
          4    1    3    3  501    0  0.59158965345E+02  0.92587471884E+01 -0.12170270734E+02  0.61116576883E+02  0.12700000000E+01 0.  1.
         -4    1    3    3    0  501 -0.43405421294E+01 -0.39515395469E+02  0.91162839792E+02  0.99461465121E+02  0.12700000000E+01 0.  1.
          2    1    1    2  502    0 -0.30506850031E+02  0.26626755234E+02  0.21022941304E+03  0.21409357323E+03  0.00000000000E+00 0. -1.
          1    1    1    2  503    0 -0.24311573185E+02  0.36298930465E+01 -0.68165203611E+01  0.25508697812E+02  0.00000000000E+00 0. -1.
<mgrwt>
<rscale>  0 0.31913501E+02</rscale>
<asrwt>0</asrwt>
<pdfrwt beam="2">  1        2 0.90596041E-02 0.24581064E+02</pdfrwt>
<pdfrwt beam="1">  1        1 0.52506597E-01 0.41433175E+02</pdfrwt>
<totfact> 0.61791181E+03</totfact>
</mgrwt>
</event>
<event>
 7    1  0.6493044E-004  0.1770099E+03  0.7546771E-02  0.1386717E+00
          2   -1    0    0  503    0  0.00000000000E+00  0.00000000000E+00  0.79851021632E+03  0.79851021632E+03  0.00000000000E+00 0. -1.
          1   -1    0    0  502    0 -0.00000000000E+00 -0.00000000000E+00 -0.16487354176E+04  0.16487354176E+04  0.00000000000E+00 0. -1.
         25    2    1    2    0    0  0.19775880284E+03  0.92946764058E+01 -0.24391280292E+03  0.33810313167E+03  0.12500134843E+03 0.  0.
          4    1    3    3  501    0  0.16627335856E+03  0.20837399007E+02 -0.25288101063E+03  0.30336684955E+03  0.12700000000E+01 0. -1.
         -4    1    3    3    0  501  0.31485444278E+02 -0.11542722601E+02  0.89682077133E+01  0.34736282128E+02  0.12700000000E+01 0. -1.
          2    1    1    2  502    0 -0.21955697801E+02  0.34888173940E+01 -0.13472972753E+04  0.13474806762E+04  0.00000000000E+00 0. -1.
          1    1    1    2  503    0 -0.17580310504E+03 -0.12783493800E+02  0.74098487696E+03  0.76166182610E+03  0.00000000000E+00 0. -1.
<mgrwt>
<rscale>  0 0.62730665E+02</rscale>
<asrwt>0</asrwt>
<pdfrwt beam="1">  1        2 0.12284773E+00 0.17700994E+03</pdfrwt>
<pdfrwt beam="2">  1        1 0.25365160E+00 0.22231161E+02</pdfrwt>
<totfact> 0.37228338E+01</totfact>
</mgrwt>
</event>
<event>
 7    1  0.6493044E-004  0.4491812E+02  0.7546771E-02  0.1506177E+00
          1   -1    0    0  502    0 -0.00000000000E+00  0.00000000000E+00  0.23035903394E+02  0.23035903394E+02  0.00000000000E+00 0. -1.
          2   -1    0    0  503    0  0.00000000000E+00 -0.00000000000E+00 -0.36573050692E+04  0.36573050692E+04  0.00000000000E+00 0. -1.
         25    2    1    2    0    0 -0.22151861249E+02 -0.14292965274E+02 -0.96054383757E+03  0.96900151457E+03  0.12499791009E+03 0.  0.
          4    1    3    3  501    0 -0.99341841873E+01  0.23785991159E+02 -0.86542859637E+03  0.86581333422E+03  0.12700000000E+01 0. -1.
         -4    1    3    3    0  501 -0.12217677062E+02 -0.38078956433E+02 -0.95115241203E+02  0.10318818035E+03  0.12700000000E+01 0. -1.
          2    1    1    2  502    0  0.40827507567E+01  0.45564779759E+02 -0.93171169634E+01  0.46686472095E+02  0.00000000000E+00 0. -1.
          3    1    1    2  503    0  0.18069110493E+02 -0.31271814485E+02 -0.26644082113E+04  0.26646529860E+04  0.00000000000E+00 0. -1.
<mgrwt>
<rscale>  0 0.40277738E+02</rscale>
<asrwt>0</asrwt>
<pdfrwt beam="2">  1        2 0.56266216E+00 0.36116743E+02</pdfrwt>
<pdfrwt beam="1">  1        1 0.35439861E-02 0.44918118E+02</pdfrwt>
<totfact> 0.35902594E+02</totfact>
</mgrwt>
</event>
<event>
 7    1  0.6493044E-004  0.1315890E+03  0.7546771E-02  0.1369235E+00
          2   -1    0    0  503    0  0.00000000000E+00  0.00000000000E+00  0.96089901074E+03  0.96089901074E+03  0.00000000000E+00 0. -1.
          1   -1    0    0  502    0 -0.00000000000E+00 -0.00000000000E+00 -0.16306650812E+04  0.16306650812E+04  0.00000000000E+00 0. -1.
         25    2    1    2    0    0  0.13529101881E+03  0.17842353867E+02 -0.29691416032E+03  0.34986486081E+03  0.12500157146E+03 0.  0.
          4    1    3    3  501    0  0.10113943159E+02  0.21242775551E+02  0.40308708570E+01  0.23904145649E+02  0.12700000000E+01 0.  1.
         -4    1    3    3    0  501  0.12517707565E+03 -0.34004216848E+01 -0.30094503118E+03  0.32596071516E+03  0.12700000000E+01 0.  1.
          2    1    1    2  502    0 -0.47270885926E+01 -0.34176783087E+02 -0.13024137784E+04  0.13028706950E+04  0.00000000000E+00 0. -1.
          1    1    1    2  503    0 -0.13056393021E+03  0.16334429220E+02  0.92956186820E+03  0.93882853613E+03  0.00000000000E+00 0. -1.
<mgrwt>
<rscale>  0 0.67380274E+02</rscale>
<asrwt>0</asrwt>
<pdfrwt beam="1">  1        2 0.14783062E+00 0.13158896E+03</pdfrwt>
<pdfrwt beam="2">  1        1 0.25087155E+00 0.34502143E+02</pdfrwt>
<totfact> 0.28790756E+01</totfact>
</mgrwt>
</event>
<event>
 7    1  0.6493044E-004  0.6278110E+02  0.7546771E-02  0.1427888E+00
         -2   -1    0    0    0  501 -0.00000000000E+00  0.00000000000E+00  0.13284432185E+03  0.13284432185E+03  0.00000000000E+00 0.  1.
          2   -1    0    0  503    0  0.00000000000E+00 -0.00000000000E+00 -0.19537267281E+04  0.19537267281E+04  0.00000000000E+00 0. -1.
         25    2    1    2    0    0 -0.41483138452E+02 -0.41676917311E+02 -0.40369944281E+03  0.42668065178E+03  0.12500128905E+03 0.  0.
          4    1    3    3  502    0 -0.35618958394E+02  0.41298010230E+02 -0.17596921929E+03  0.18423087386E+03  0.12700000000E+01 0. -1.
         -4    1    3    3    0  502 -0.58641800584E+01 -0.82974927541E+02 -0.22773022353E+03  0.24244977792E+03  0.12700000000E+01 0. -1.
          1    1    1    2  503    0 -0.21667616053E+02  0.39892746398E+02 -0.15299548712E+04  0.15306282451E+04  0.00000000000E+00 0. -1.
         -3    1    1    2    0  501  0.63150754505E+02  0.17841709123E+01  0.11277190771E+03  0.12926215312E+03  0.00000000000E+00 0.  1.
<mgrwt>
<rscale>  0 0.53386269E+02</rscale>
<asrwt>0</asrwt>
<pdfrwt beam="2">  1        2 0.30057331E+00 0.45397322E+02</pdfrwt>
<pdfrwt beam="1">  1       -2 0.20437590E-01 0.62781098E+02</pdfrwt>
<totfact> 0.18402561E+02</totfact>
</mgrwt>
</event>
<event>
 7    1  0.6493044E-004  0.1171140E+03  0.7546771E-02  0.1349290E+00
          2   -1    0    0  503    0  0.00000000000E+00  0.00000000000E+00  0.11260086449E+04  0.11260086449E+04  0.00000000000E+00 0. -1.
         -2   -1    0    0    0  501 -0.00000000000E+00 -0.00000000000E+00 -0.12534414965E+03  0.12534414965E+03  0.00000000000E+00 0.  1.
         25    2    1    2    0    0  0.25701221527E+01 -0.88288484121E+02  0.46888797176E+03  0.49323841778E+03  0.12500697883E+03 0.  0.
          4    1    3    3  502    0  0.62957939325E+02 -0.41764042577E+02  0.26498039943E+03  0.27554339469E+03  0.12700000000E+01 0. -1.
         -4    1    3    3    0  502 -0.60387817172E+02 -0.46524441544E+02  0.20390757233E+03  0.21769502309E+03  0.12700000000E+01 0. -1.
          1    1    1    2  503    0 -0.12048417293E+02  0.13314706381E+03  0.63301453296E+03  0.64697813248E+03  0.00000000000E+00 0. -1.
         -1    1    1    2    0  501  0.94782951405E+01 -0.44858579688E+02 -0.10123800943E+03  0.11113624433E+03  0.00000000000E+00 0.  1.
<mgrwt>
<rscale>  0 0.73277291E+02</rscale>
<asrwt>0</asrwt>
<pdfrwt beam="1">  1        2 0.17323209E+00 0.11711405E+03</pdfrwt>
<pdfrwt beam="2">  1       -2 0.19283716E-01 0.45848994E+02</pdfrwt>
<totfact> 0.48551894E+02</totfact>
</mgrwt>
</event>
<event>
 7    1  0.6493044E-004  0.1416357E+03  0.7546771E-02  0.1383028E+00
          2   -1    0    0  503    0  0.00000000000E+00  0.00000000000E+00  0.19634502425E+04  0.19634502425E+04  0.00000000000E+00 0. -1.
          1   -1    0    0  502    0 -0.00000000000E+00 -0.00000000000E+00 -0.18904827995E+03  0.18904827995E+03  0.00000000000E+00 0. -1.
         25    2    1    2    0    0 -0.10991705430E+03  0.36660638988E+02  0.26232182100E+03  0.31282985286E+03  0.12499607109E+03 0.  0.
          4    1    3    3  501    0 -0.70341283256E+02  0.67537195006E+02  0.87783359257E+02  0.13121242282E+03  0.12700000000E+01 0. -1.
         -4    1    3    3    0  501 -0.39575771046E+02 -0.30876556018E+02  0.17453846174E+03  0.18161743004E+03  0.12700000000E+01 0. -1.
          2    1    1    2  502    0  0.13719518756E+03 -0.45340336969E+02 -0.13177879046E+03  0.19556051560E+03  0.00000000000E+00 0. -1.
          1    1    1    2  503    0 -0.27278133255E+02  0.86796979809E+01  0.16438589320E+04  0.16441081540E+04  0.00000000000E+00 0. -1.
<mgrwt>
<rscale>  0 0.63674403E+02</rscale>
<asrwt>0</asrwt>
<pdfrwt beam="1">  1        2 0.30206925E+00 0.28625753E+02</pdfrwt>
<pdfrwt beam="2">  1        1 0.29084352E-01 0.14163574E+03</pdfrwt>
<totfact> 0.21139900E+02</totfact>
</mgrwt>
</event>
<event>
 7    1  0.6493044E-004  0.8151142E+02  0.7546771E-02  0.1391083E+00
          1   -1    0    0  502    0 -0.00000000000E+00  0.00000000000E+00  0.30762706466E+04  0.30762706466E+04  0.00000000000E+00 0. -1.
          2   -1    0    0  503    0  0.00000000000E+00 -0.00000000000E+00 -0.22497101952E+04  0.22497101952E+04  0.00000000000E+00 0. -1.
         25    2    1    2    0    0 -0.21834756749E+02  0.49877330988E+02  0.11281853442E+03  0.17696603056E+03  0.12499779804E+03 0.  0.
          4    1    3    3  501    0 -0.30012917312E+02  0.82263710527E+02  0.11371142454E+03  0.14352698090E+03  0.12700000000E+01 0. -1.
         -4    1    3    3    0  501  0.81781605628E+01 -0.32386379539E+02 -0.89289011678E+00  0.33439049666E+02  0.12700000000E+01 0. -1.
          2    1    1    2  502    0 -0.46353871338E+02 -0.48800346114E+01  0.29304405464E+04  0.29308112003E+04  0.00000000000E+00 0. -1.
          1    1    1    2  503    0  0.68188628086E+02 -0.44997296376E+02 -0.22166986294E+04  0.22182036108E+04  0.00000000000E+00 0. -1.
<mgrwt>
<rscale>  0 0.61638062E+02</rscale>
<asrwt>0</asrwt>
<pdfrwt beam="2">  1        2 0.34610926E+00 0.81511419E+02</pdfrwt>
<pdfrwt beam="1">  1        1 0.47327241E+00 0.46610043E+02</pdfrwt>
<totfact> 0.75634253E-01</totfact>
</mgrwt>
</event>
<event>
 7    1  0.6493044E-004  0.6706962E+02  0.7546771E-02  0.1443378E+00
          1   -1    0    0  502    0 -0.00000000000E+00  0.00000000000E+00  0.10643512345E+03  0.10643512345E+03  0.00000000000E+00 0. -1.
          2   -1    0    0  503    0  0.00000000000E+00 -0.00000000000E+00 -0.13134176465E+04  0.13134176465E+04  0.00000000000E+00 0. -1.
         25    2    1    2    0    0  0.81365693183E+02  0.82169908950E+01 -0.10193025333E+04  0.10301894213E+04  0.12499877813E+03 0.  0.
          4    1    3    3  501    0  0.83642331001E+02  0.18959587578E+02 -0.10145289772E+04  0.10181483997E+04  0.12700000000E+01 0.  1.
         -4    1    3    3    0  501 -0.22766378177E+01 -0.10742596683E+02 -0.47735561181E+01  0.12041021603E+02  0.12700000000E+01 0.  1.
          2    1    1    2  502    0 -0.56214956633E+02 -0.36465088113E+02  0.88444476549E+02  0.11096057603E+03  0.00000000000E+00 0. -1.
          1    1    1    2  503    0 -0.25150736550E+02  0.28248097218E+02 -0.27612446629E+03  0.27870277256E+03  0.00000000000E+00 0. -1.
<mgrwt>
<rscale>  0 0.50365829E+02</rscale>
<asrwt>0</asrwt>
<pdfrwt beam="2">  1        2 0.20206426E+00 0.37822144E+02</pdfrwt>
<pdfrwt beam="1">  1        1 0.16374634E-01 0.67069619E+02</pdfrwt>
<totfact> 0.84621007E+02</totfact>
</mgrwt>
</event>
<event>
 7    1  0.6493044E-004  0.8085982E+02  0.7546771E-02  0.1337329E+00
          1   -1    0    0  502    0 -0.00000000000E+00  0.00000000000E+00  0.73283810018E+03  0.73283810018E+03  0.00000000000E+00 0. -1.
          2   -1    0    0  503    0  0.00000000000E+00 -0.00000000000E+00 -0.10276749752E+04  0.10276749752E+04  0.00000000000E+00 0. -1.
         25    2    1    2    0    0  0.46927918319E+02 -0.36499040979E+01  0.14621902222E+03  0.19804623949E+03  0.12500703660E+03 0.  0.
          4    1    3    3  501    0  0.22487449443E+01  0.48892590176E+02  0.10939251105E+03  0.11984939133E+03  0.12700000000E+01 0.  1.
         -4    1    3    3    0  501  0.44679173374E+02 -0.52542494274E+02  0.36826511174E+02  0.78196848167E+02  0.12700000000E+01 0.  1.
          2    1    1    2  502    0 -0.16274347591E+02 -0.71795887915E+02  0.55662289536E+03  0.56146999167E+03  0.00000000000E+00 0. -1.
          1    1    1    2  503    0 -0.30653570728E+02  0.75445792013E+02 -0.99767879257E+03  0.10009968442E+04  0.00000000000E+00 0. -1.
<mgrwt>
<rscale>  0 0.77153614E+02</rscale>
<asrwt>0</asrwt>
<pdfrwt beam="2">  1        2 0.15810384E+00 0.80859823E+02</pdfrwt>
<pdfrwt beam="1">  1        1 0.11274432E+00 0.73617280E+02</pdfrwt>
<totfact> 0.10293190E+02</totfact>
</mgrwt>
</event>
<event>
 7    1  0.6493044E-004  0.1147807E+03  0.7546771E-02  0.1329726E+00
          1   -1    0    0  502    0 -0.00000000000E+00  0.00000000000E+00  0.13421248284E+03  0.13421248284E+03  0.00000000000E+00 0. -1.
          2   -1    0    0  503    0  0.00000000000E+00 -0.00000000000E+00 -0.29046859015E+04  0.29046859015E+04  0.00000000000E+00 0. -1.
         25    2    1    2    0    0  0.15881133105E+03  0.12436769253E+02 -0.59122663242E+02  0.21092970393E+03  0.12498055285E+03 0.  0.
          4    1    3    3  501    0 -0.10432069595E+02  0.11113123809E+02 -0.37251246792E+02  0.40269068581E+02  0.12700000000E+01 0. -1.
         -4    1    3    3    0  501  0.16924340065E+03  0.13236454440E+01 -0.21871416450E+02  0.17066063535E+03  0.12700000000E+01 0. -1.
          2    1    1    2  502    0 -0.46129968635E+02 -0.30729586409E+02  0.43681953841E+02  0.70571910690E+02  0.00000000000E+00 0. -1.
          1    1    1    2  503    0 -0.11268136242E+03  0.18292817156E+02 -0.27550327092E+04  0.27573967697E+04  0.00000000000E+00 0. -1.
<mgrwt>
<rscale>  0 0.79762674E+02</rscale>
<asrwt>0</asrwt>
<pdfrwt beam="2">  1        2 0.44687471E+00 0.11478071E+03</pdfrwt>
<pdfrwt beam="1">  1        1 0.20648076E-01 0.55428165E+02</pdfrwt>
<totfact> 0.85363454E+01</totfact>
</mgrwt>
</event>
<event>
 7    1  0.6493044E-004  0.7627968E+02  0.7546771E-02  0.1366799E+00
          2   -1    0    0  503    0  0.00000000000E+00  0.00000000000E+00  0.17281391709E+03  0.17281391709E+03  0.00000000000E+00 0. -1.
          1   -1    0    0  502    0 -0.00000000000E+00 -0.00000000000E+00 -0.28185910590E+03  0.28185910590E+03  0.00000000000E+00 0. -1.
         25    2    1    2    0    0  0.62975181555E+02 -0.10417217584E+03  0.55685648112E+02  0.18314709308E+03  0.12499700232E+03 0.  0.
          4    1    3    3  501    0  0.94156720570E+01 -0.99833300250E+02 -0.70533030323E+01  0.10053210782E+03  0.12700000000E+01 0. -1.
         -4    1    3    3    0  501  0.53559509498E+02 -0.43388755881E+01  0.62738951145E+02  0.82614985261E+02  0.12700000000E+01 0. -1.
          2    1    1    2  502    0 -0.23353420120E+02  0.56065676356E+02 -0.19355512820E+03  0.20286037058E+03  0.00000000000E+00 0. -1.
          1    1    1    2  503    0 -0.39621761434E+02  0.48106499482E+02  0.28824291275E+02  0.68665559337E+02  0.00000000000E+00 0. -1.
<mgrwt>
<rscale>  0 0.68065024E+02</rscale>
<asrwt>0</asrwt>
<pdfrwt beam="1">  1        2 0.26586756E-01 0.76279677E+02</pdfrwt>
<pdfrwt beam="2">  1        1 0.43362940E-01 0.60735017E+02</pdfrwt>
<totfact> 0.24902093E+03</totfact>
</mgrwt>
</event>
<event>
 7    1  0.6493044E-004  0.6381946E+02  0.7546771E-02  0.1529399E+00
          2   -1    0    0  503    0  0.00000000000E+00  0.00000000000E+00  0.39893359749E+03  0.39893359749E+03  0.00000000000E+00 0. -1.
         -2   -1    0    0    0  501 -0.00000000000E+00 -0.00000000000E+00 -0.13285746323E+04  0.13285746323E+04  0.00000000000E+00 0.  1.
         25    2    1    2    0    0 -0.41723702949E+02  0.18114623298E+02 -0.36956208447E+02  0.13805921421E+03  0.12500231326E+03 0.  0.
          4    1    3    3  502    0  0.41720525293E+02  0.24833370284E+02 -0.66635493024E+01  0.49023609615E+02  0.12700000000E+01 0. -1.
         -4    1    3    3    0  502 -0.83444228242E+02 -0.67187469858E+01 -0.30292659145E+02  0.89035604597E+02  0.12700000000E+01 0. -1.
          1    1    1    2  503    0 -0.10574639641E+02  0.19010797574E+02  0.34721285945E+03  0.34789366651E+03  0.00000000000E+00 0. -1.
         -1    1    1    2    0  501  0.52298342590E+02 -0.37125420872E+02 -0.12398976858E+04  0.12415553490E+04  0.00000000000E+00 0.  1.
<mgrwt>
<rscale>  0 0.37260221E+02</rscale>
<asrwt>0</asrwt>
<pdfrwt beam="1">  1        2 0.61374398E-01 0.21753929E+02</pdfrwt>
<pdfrwt beam="2">  1       -2 0.20439610E+00 0.63819463E+02</pdfrwt>
<totfact> 0.12189572E+01</totfact>
</mgrwt>
</event>
<event>
 7    1  0.6493044E-004  0.6767426E+02  0.7546771E-02  0.1382104E+00
          1   -1    0    0  502    0 -0.00000000000E+00  0.00000000000E+00  0.13306275360E+03  0.13306275360E+03  0.00000000000E+00 0. -1.
          2   -1    0    0  503    0  0.00000000000E+00 -0.00000000000E+00 -0.12407085244E+04  0.12407085244E+04  0.00000000000E+00 0. -1.
         25    2    1    2    0    0  0.55318524947E+02  0.10982840520E+03 -0.54555297536E+03  0.57304192863E+03  0.12500634084E+03 0.  0.
          4    1    3    3  501    0 -0.28695699423E+02  0.80385704046E+02 -0.23720481345E+03  0.25209728480E+03  0.12700000000E+01 0.  1.
         -4    1    3    3    0  501  0.84014224369E+02  0.29442701151E+02 -0.30834816191E+03  0.32094464383E+03  0.12700000000E+01 0.  1.
          2    1    1    2  502    0 -0.43590766798E+02 -0.50615976929E+02  0.10850599757E+03  0.12741932184E+03  0.00000000000E+00 0. -1.
          1    1    1    2  503    0 -0.11727758149E+02 -0.59212428269E+02 -0.67059879299E+03  0.67331002750E+03  0.00000000000E+00 0. -1.
<mgrwt>
<rscale>  0 0.63913995E+02</rscale>
<asrwt>0</asrwt>
<pdfrwt beam="2">  1        2 0.19087824E+00 0.60362670E+02</pdfrwt>
<pdfrwt beam="1">  1        1 0.20471193E-01 0.67674255E+02</pdfrwt>
<totfact> 0.67454555E+02</totfact>
</mgrwt>
</event>
<event>
 7    1  0.6493044E-004  0.7486383E+02  0.7546771E-02  0.1509265E+00
         -1   -1    0    0    0  501 -0.00000000000E+00  0.00000000000E+00  0.16682286720E+02  0.16682286720E+02  0.00000000000E+00 0.  1.
          1   -1    0    0  503    0  0.00000000000E+00 -0.00000000000E+00 -0.13348247585E+04  0.13348247585E+04  0.00000000000E+00 0. -1.
         25    2    1    2    0    0 -0.59502150593E+02 -0.59104779459E+02 -0.83570709527E+03  0.84915493157E+03  0.12499547134E+03 0.  0.
          4    1    3    3  502    0 -0.37232511418E+02 -0.98361717639E+02 -0.60399383452E+03  0.61308356073E+03  0.12700000000E+01 0. -1.
         -4    1    3    3    0  502 -0.22269639175E+02  0.39256938180E+02 -0.23171326075E+03  0.23607137084E+03  0.12700000000E+01 0. -1.
          2    1    1    2  503    0  0.60988811417E+02  0.37937132992E+02 -0.47417060627E+03  0.47957963367E+03  0.00000000000E+00 0. -1.
         -2    1    1    2    0  501 -0.14866608242E+01  0.21167646467E+02 -0.82647702470E+01  0.22772479984E+02  0.00000000000E+00 0.  1.
<mgrwt>
<rscale>  0 0.39857177E+02</rscale>
<asrwt>0</asrwt>
<pdfrwt beam="2">  1        1 0.20535757E+00 0.74863827E+02</pdfrwt>
<pdfrwt beam="1">  1       -1 0.25665067E-02 0.21219788E+02</pdfrwt>
<totfact> 0.34812002E+03</totfact>
</mgrwt>
</event>
<event>
 7    1  0.6493044E-004  0.1378695E+03  0.7546771E-02  0.1222643E+00
          2   -1    0    0  503    0  0.00000000000E+00  0.00000000000E+00  0.11257236551E+04  0.11257236551E+04  0.00000000000E+00 0. -1.
          1   -1    0    0  502    0 -0.00000000000E+00 -0.00000000000E+00 -0.18549583268E+03  0.18549583268E+03  0.00000000000E+00 0. -1.
         25    2    1    2    0    0  0.59586854928E+02  0.26453372118E+02  0.24871815417E+03  0.28589438578E+03  0.12499802169E+03 0.  0.
          4    1    3    3  501    0  0.83925717355E+02  0.28464443764E+02  0.24576963733E+03  0.26126246980E+03  0.12700000000E+01 0.  1.
         -4    1    3    3    0  501 -0.24338862426E+02 -0.20110716461E+01  0.29485168472E+01  0.24631915982E+02  0.12700000000E+01 0.  1.
          2    1    1    2  502    0 -0.21994825422E+02 -0.14972697292E+03 -0.12649005973E+03  0.19723507289E+03  0.00000000000E+00 0. -1.
          1    1    1    2  503    0 -0.37592029507E+02  0.12327360080E+03  0.81799972799E+03  0.82809002912E+03  0.00000000000E+00 0. -1.
<mgrwt>
<rscale>  0 0.13329796E+03</rscale>
<asrwt>0</asrwt>
<pdfrwt beam="1">  1        2 0.17318825E+00 0.12887801E+03</pdfrwt>
<pdfrwt beam="2">  1        1 0.28537821E-01 0.13786950E+03</pdfrwt>
<totfact> 0.50088332E+02</totfact>
</mgrwt>
</event>
<event>
 7    1  0.6493044E-004  0.1114678E+03  0.7546771E-02  0.1444978E+00
          1   -1    0    0  502    0 -0.00000000000E+00  0.00000000000E+00  0.82844385955E+03  0.82844385955E+03  0.00000000000E+00 0. -1.
          2   -1    0    0  503    0  0.00000000000E+00 -0.00000000000E+00 -0.46130308932E+03  0.46130308932E+03  0.00000000000E+00 0. -1.
         25    2    1    2    0    0  0.10032696411E+03 -0.52055472346E+02  0.38638197461E+03  0.42153393664E+03  0.12499822999E+03 0.  0.
          4    1    3    3  501    0  0.36370714975E+02 -0.71473095279E+02  0.30916468999E+03  0.31939888963E+03  0.12700000000E+01 0. -1.
         -4    1    3    3    0  501  0.63956249130E+02  0.19417622934E+02  0.77217284620E+02  0.10213504701E+03  0.12700000000E+01 0. -1.
          2    1    1    2  502    0 -0.10718738801E+03  0.30638949636E+02  0.41687181588E+03  0.43152055832E+03  0.00000000000E+00 0. -1.
          1    1    1    2  503    0  0.68604239024E+01  0.21416522710E+02 -0.43611302026E+03  0.43669245391E+03  0.00000000000E+00 0. -1.
<mgrwt>
<rscale>  0 0.50067389E+02</rscale>
<asrwt>0</asrwt>
<pdfrwt beam="2">  1        2 0.70969706E-01 0.22488505E+02</pdfrwt>
<pdfrwt beam="1">  1        1 0.12745290E+00 0.11146777E+03</pdfrwt>
<totfact> 0.21767356E+02</totfact>
</mgrwt>
</event>
<event>
 7    1  0.6493044E-004  0.6321883E+02  0.7546771E-02  0.1386533E+00
          2   -1    0    0  503    0  0.00000000000E+00  0.00000000000E+00  0.13833804268E+04  0.13833804268E+04  0.00000000000E+00 0. -1.
         -2   -1    0    0    0  501 -0.00000000000E+00 -0.00000000000E+00 -0.13186148690E+03  0.13186148690E+03  0.00000000000E+00 0.  1.
         25    2    1    2    0    0  0.55909314047E+02  0.11165800667E+03  0.72606058363E+03  0.74725086951E+03  0.12500611594E+03 0.  0.
          4    1    3    3  502    0 -0.38491340022E+02  0.44316233978E+02  0.19352541791E+03  0.20223553626E+03  0.12700000000E+01 0. -1.
         -4    1    3    3    0  502  0.94400654069E+02  0.67341772695E+02  0.53253516573E+03  0.54501533325E+03  0.12700000000E+01 0. -1.
          1    1    1    2  503    0 -0.28139195950E+02 -0.55626679158E+02  0.63703862713E+03  0.64008152156E+03  0.00000000000E+00 0. -1.
         -1    1    1    2    0  501 -0.27770118097E+02 -0.56031327514E+02 -0.11158027089E+03  0.12790952261E+03  0.00000000000E+00 0.  1.
<mgrwt>
<rscale>  0 0.62777338E+02</rscale>
<asrwt>0</asrwt>
<pdfrwt beam="1">  1        2 0.21282775E+00 0.62338927E+02</pdfrwt>
<pdfrwt beam="2">  1       -2 0.20286384E-01 0.63218832E+02</pdfrwt>
<totfact> 0.34490008E+02</totfact>
</mgrwt>
</event>
<event>
 7    1  0.6493044E-004  0.1599857E+03  0.7546771E-02  0.1294929E+00
          1   -1    0    0  503    0  0.00000000000E+00  0.00000000000E+00  0.34940291987E+03  0.34940291987E+03  0.00000000000E+00 0. -1.
         -1   -1    0    0    0  501 -0.00000000000E+00 -0.00000000000E+00 -0.40939568688E+03  0.40939568688E+03  0.00000000000E+00 0.  1.
         25    2    1    2    0    0  0.65142325495E+02 -0.15315451486E+03 -0.17800078002E+03  0.27387774472E+03  0.12499965349E+03 0.  0.
          4    1    3    3  502    0  0.17357350846E+01 -0.97865788088E+01 -0.96819464877E+02  0.97336589113E+02  0.12700000000E+01 0.  1.
         -4    1    3    3    0  502  0.63406590410E+02 -0.14336793605E+03 -0.81181315147E+02  0.17654115561E+03  0.12700000000E+01 0.  1.
          2    1    1    2  503    0 -0.54187992294E+02 -0.55611076413E+01  0.26365740500E+03  0.26922572618E+03  0.00000000000E+00 0. -1.
         -2    1    1    2    0  501 -0.10954333201E+02  0.15871562250E+03 -0.14564939199E+03  0.21569513585E+03  0.00000000000E+00 0.  1.
<mgrwt>
<rscale>  0 0.93353293E+02</rscale>
<asrwt>0</asrwt>
<pdfrwt beam="1">  1        1 0.53754296E-01 0.54472603E+02</pdfrwt>
<pdfrwt beam="2">  1       -1 0.62983951E-01 0.15998570E+03</pdfrwt>
<totfact> 0.19670070E+02</totfact>
</mgrwt>
</event>
<event>
 7    1  0.6493044E-004  0.9934394E+02  0.7546771E-02  0.1411439E+00
          2   -1    0    0  503    0  0.00000000000E+00  0.00000000000E+00  0.55691393843E+03  0.55691393843E+03  0.00000000000E+00 0. -1.
          1   -1    0    0  502    0 -0.00000000000E+00 -0.00000000000E+00 -0.22208518473E+03  0.22208518473E+03  0.00000000000E+00 0. -1.
         25    2    1    2    0    0  0.10258505200E+03  0.19169167922E+02  0.18164709538E+03  0.24394900785E+03  0.12499720508E+03 0.  0.
          4    1    3    3  501    0  0.65927501017E+02  0.70032866577E+02  0.13513083543E+03  0.16587041139E+03  0.12700000000E+01 0. -1.
         -4    1    3    3    0  501  0.36657550981E+02 -0.50863698655E+02  0.46516259957E+02  0.78078596460E+02  0.12700000000E+01 0. -1.
          2    1    1    2  502    0 -0.87080131908E+02 -0.47800474558E+02 -0.17715899606E+03  0.20310870150E+03  0.00000000000E+00 0. -1.
          1    1    1    2  503    0 -0.15504920090E+02  0.28631306636E+02  0.33034065438E+03  0.33194141381E+03  0.00000000000E+00 0. -1.
<mgrwt>
<rscale>  0 0.56873894E+02</rscale>
<asrwt>0</asrwt>
<pdfrwt beam="1">  1        2 0.85679067E-01 0.32560010E+02</pdfrwt>
<pdfrwt beam="2">  1        1 0.34166952E-01 0.99343943E+02</pdfrwt>
<totfact> 0.98848797E+02</totfact>
</mgrwt>
</event>
<event>
 7    1  0.6493044E-004  0.1322600E+03  0.7546771E-02  0.1251745E+00
          2   -1    0    0  503    0  0.00000000000E+00  0.00000000000E+00  0.12296902182E+04  0.12296902182E+04  0.00000000000E+00 0. -1.
         -2   -1    0    0    0  501 -0.00000000000E+00 -0.00000000000E+00 -0.97034123792E+02  0.97034123792E+02  0.00000000000E+00 0.  1.
         25    2    1    2    0    0 -0.98838752159E+02  0.38441509941E+02  0.62290779748E+03  0.64411851168E+03  0.12501073678E+03 0.  0.
          4    1    3    3  502    0 -0.51865980009E+02  0.82302111255E+02  0.31986838867E+03  0.33433683071E+03  0.12700000000E+01 0.  1.
         -4    1    3    3    0  502 -0.46972772150E+02 -0.43860601314E+02  0.30303940881E+03  0.30978168097E+03  0.12700000000E+01 0.  1.
          1    1    1    2  503    0  0.11177952176E+03 -0.13742846094E+03  0.54783018395E+03  0.57575963197E+03  0.00000000000E+00 0. -1.
         -1    1    1    2    0  501 -0.12940769597E+02  0.98986950994E+02 -0.38081887009E+02  0.10684619836E+03  0.00000000000E+00 0.  1.
<mgrwt>
<rscale>  0 0.11490612E+03</rscale>
<asrwt>0</asrwt>
<pdfrwt beam="1">  1        2 0.18918310E+00 0.13225999E+03</pdfrwt>
<pdfrwt beam="2">  1       -2 0.14928328E-01 0.99829254E+02</pdfrwt>
<totfact> 0.66660806E+02</totfact>
</mgrwt>
</event>
<event>
 7    1  0.6493044E-004  0.7438768E+02  0.7546771E-02  0.1446388E+00
          1   -1    0    0  502    0 -0.00000000000E+00  0.00000000000E+00  0.11099225991E+03  0.11099225991E+03  0.00000000000E+00 0. -1.
          2   -1    0    0  503    0  0.00000000000E+00 -0.00000000000E+00 -0.16118880003E+03  0.16118880003E+03  0.00000000000E+00 0. -1.
         25    2    1    2    0    0 -0.52511233180E+02  0.35502822965E+01 -0.28526156136E+02  0.13859538147E+03  0.12499961626E+03 0.  0.
          4    1    3    3  501    0  0.23383148930E+01 -0.31828898257E+02 -0.58584457557E+02  0.66725542696E+02  0.12700000000E+01 0.  1.
         -4    1    3    3    0  501 -0.54849548073E+02  0.35379180554E+02  0.30058301421E+02  0.71869838769E+02  0.12700000000E+01 0.  1.
          2    1    1    2  502    0  0.83490775388E+02  0.87936115792E+01  0.13598800100E+02  0.85046837352E+02  0.00000000000E+00 0. -1.
          1    1    1    2  503    0 -0.30979542208E+02 -0.12343893876E+02 -0.35269184082E+02  0.48538841120E+02  0.00000000000E+00 0. -1.
<mgrwt>
<rscale>  0 0.49806592E+02</rscale>
<asrwt>0</asrwt>
<pdfrwt beam="2">  1        2 0.24798277E-01 0.33348220E+02</pdfrwt>
<pdfrwt beam="1">  1        1 0.17075732E-01 0.74387677E+02</pdfrwt>
<totfact> 0.81906436E+03</totfact>
</mgrwt>
</event>
<event>
 7    1  0.6493044E-004  0.8821275E+02  0.7546771E-02  0.1403218E+00
          2   -1    0    0  503    0  0.00000000000E+00  0.00000000000E+00  0.57907177555E+03  0.57907177555E+03  0.00000000000E+00 0. -1.
         -2   -1    0    0    0  501 -0.00000000000E+00 -0.00000000000E+00 -0.22699033753E+03  0.22699033753E+03  0.00000000000E+00 0.  1.
         25    2    1    2    0    0  0.15583005444E+02 -0.48285276717E+02  0.22735849740E+03  0.26436667911E+03  0.12499422656E+03 0.  0.
          4    1    3    3  502    0 -0.22750417962E+01 -0.89029295143E+02  0.16832682468E+03  0.19043876710E+03  0.12700000000E+01 0. -1.
         -4    1    3    3    0  502  0.17858047240E+02  0.40744018427E+02  0.59031672723E+02  0.73927912004E+02  0.12700000000E+01 0. -1.
          1    1    1    2  503    0  0.16273901503E+02 -0.35560824570E+02  0.32232533109E+03  0.32468913005E+03  0.00000000000E+00 0. -1.
         -1    1    1    2    0  501 -0.31856906947E+02  0.83846101286E+02 -0.19760239047E+03  0.21700630392E+03  0.00000000000E+00 0.  1.
<mgrwt>
<rscale>  0 0.58734980E+02</rscale>
<asrwt>0</asrwt>
<pdfrwt beam="1">  1        2 0.89087965E-01 0.39107699E+02</pdfrwt>
<pdfrwt beam="2">  1       -2 0.34921591E-01 0.88212754E+02</pdfrwt>
<totfact> 0.41955481E+02</totfact>
</mgrwt>
</event>
<event>
 7    1  0.6493044E-004  0.1026042E+03  0.7546771E-02  0.1300570E+00
          1   -1    0    0  502    0 -0.00000000000E+00  0.00000000000E+00  0.30786516941E+03  0.30786516941E+03  0.00000000000E+00 0. -1.
          2   -1    0    0  503    0  0.00000000000E+00 -0.00000000000E+00 -0.16572675529E+04  0.16572675529E+04  0.00000000000E+00 0. -1.
         25    2    1    2    0    0  0.57721773415E+02 -0.13909136748E+03  0.79788339280E+01  0.19587412747E+03  0.12499920154E+03 0.  0.
          4    1    3    3  501    0  0.87391203710E+02 -0.64689657436E+02  0.29989374266E+02  0.11279605372E+03  0.12700000000E+01 0. -1.
         -4    1    3    3    0  501 -0.29669430295E+02 -0.74401710047E+02 -0.22010540338E+02  0.83078073749E+02  0.12700000000E+01 0. -1.
          2    1    1    2  502    0 -0.77513049465E+02  0.60940660995E+02  0.19302898473E+03  0.21675383721E+03  0.00000000000E+00 0. -1.
          1    1    1    2  503    0  0.19791276050E+02  0.78150706488E+02 -0.15504102021E+04  0.15525047576E+04  0.00000000000E+00 0. -1.
<mgrwt>
<rscale>  0 0.90949004E+02</rscale>
<asrwt>0</asrwt>
<pdfrwt beam="2">  1        2 0.25496424E+00 0.80617787E+02</pdfrwt>
<pdfrwt beam="1">  1        1 0.47363873E-01 0.10260417E+03</pdfrwt>
<totfact> 0.14555171E+02</totfact>
</mgrwt>
</event>
<event>
 7    1  0.6493044E-004  0.1528883E+03  0.7546771E-02  0.1281065E+00
          2   -1    0    0  503    0  0.00000000000E+00  0.00000000000E+00  0.36931258083E+03  0.36931258083E+03  0.00000000000E+00 0. -1.
          1   -1    0    0  502    0 -0.00000000000E+00 -0.00000000000E+00 -0.16528535043E+04  0.16528535043E+04  0.00000000000E+00 0. -1.
         25    2    1    2    0    0  0.18478684557E+03 -0.10878590346E+03  0.20874270825E+03  0.32431219378E+03  0.12499731876E+03 0.  0.
          4    1    3    3  501    0  0.59167567097E+02  0.23106788287E+02  0.75263133496E+02  0.98493029320E+02  0.12700000000E+01 0.  1.
         -4    1    3    3    0  501  0.12561927847E+03 -0.13189269174E+03  0.13347957475E+03  0.22581916446E+03  0.12700000000E+01 0.  1.
          2    1    1    2  502    0 -0.12268051895E+03  0.89843307715E+02 -0.15807885899E+04  0.15880852923E+04  0.00000000000E+00 0. -1.
          1    1    1    2  503    0 -0.62106326621E+02  0.18942595741E+02  0.88504958123E+02  0.10976859912E+03  0.00000000000E+00 0. -1.
<mgrwt>
<rscale>  0 0.99635189E+02</rscale>
<asrwt>0</asrwt>
<pdfrwt beam="1">  1        2 0.56817321E-01 0.64930869E+02</pdfrwt>
<pdfrwt beam="2">  1        1 0.25428515E+00 0.15288831E+03</pdfrwt>
<totfact> 0.71869857E+01</totfact>
</mgrwt>
</event>
<event>
 7    1  0.6493044E-004  0.7044467E+02  0.7546771E-02  0.1448661E+00
          2   -1    0    0  503    0  0.00000000000E+00  0.00000000000E+00  0.12720949803E+04  0.12720949803E+04  0.00000000000E+00 0. -1.
          1   -1    0    0  502    0 -0.00000000000E+00 -0.00000000000E+00 -0.80822557497E+02  0.80822557497E+02  0.00000000000E+00 0. -1.
         25    2    1    2    0    0 -0.90860054233E+02  0.42006608166E+02  0.37522023324E+03  0.40796419145E+03  0.12499781392E+03 0.  0.
          4    1    3    3  501    0 -0.44412189912E+02  0.82691698890E+02  0.27125003129E+03  0.28703406078E+03  0.12700000000E+01 0.  1.
         -4    1    3    3    0  501 -0.46447864321E+02 -0.40685090724E+02  0.10397020196E+03  0.12093013066E+03  0.12700000000E+01 0.  1.
          2    1    1    2  502    0  0.34414159249E+02 -0.38401848088E+01 -0.58376379909E+02  0.67874023805E+02  0.00000000000E+00 0. -1.
          1    1    1    2  503    0  0.56445894984E+02 -0.38166423357E+02  0.87442856944E+03  0.87707932252E+03  0.00000000000E+00 0. -1.
<mgrwt>
<rscale>  0 0.49389682E+02</rscale>
<asrwt>0</asrwt>
<pdfrwt beam="1">  1        2 0.19570691E+00 0.70444669E+02</pdfrwt>
<pdfrwt beam="2">  1        1 0.12434241E-01 0.34627754E+02</pdfrwt>
<totfact> 0.11526692E+03</totfact>
</mgrwt>
</event>
<event>
 7    1  0.6493044E-004  0.5086896E+02  0.7546771E-02  0.1450265E+00
          1   -1    0    0  502    0 -0.00000000000E+00  0.00000000000E+00  0.20425579126E+03  0.20425579126E+03  0.00000000000E+00 0. -1.
          2   -1    0    0  503    0  0.00000000000E+00 -0.00000000000E+00 -0.13974332802E+04  0.13974332802E+04  0.00000000000E+00 0. -1.
         25    2    1    2    0    0 -0.48853713385E+01  0.37925903871E+02 -0.21710280232E+03  0.25341358912E+03  0.12499031698E+03 0.  0.
          4    1    3    3  501    0 -0.16451413023E+02  0.60866155692E+02 -0.21873022852E+03  0.22763976733E+03  0.12700000000E+01 0. -1.
         -4    1    3    3    0  501  0.11566041685E+02 -0.22940251821E+02  0.16274262006E+01  0.25773821794E+02  0.12700000000E+01 0. -1.
          2    1    1    2  502    0 -0.43426547609E+02 -0.18972196206E+02  0.18249314369E+03  0.18854590094E+03  0.00000000000E+00 0. -1.
          1    1    1    2  503    0  0.48311918948E+02 -0.18953707665E+02 -0.11585678303E+04  0.11597295814E+04  0.00000000000E+00 0. -1.
<mgrwt>
<rscale>  0 0.49098661E+02</rscale>
<asrwt>0</asrwt>
<pdfrwt beam="2">  1        2 0.21498973E+00 0.50868961E+02</pdfrwt>
<pdfrwt beam="1">  1        1 0.31423968E-01 0.47389970E+02</pdfrwt>
<totfact> 0.33302742E+02</totfact>
</mgrwt>
</event>
<event>
 7    1  0.6493044E-004  0.5218266E+02  0.7546771E-02  0.1482456E+00
          2   -1    0    0  503    0  0.00000000000E+00  0.00000000000E+00  0.34576662199E+03  0.34576662199E+03  0.00000000000E+00 0. -1.
          1   -1    0    0  502    0 -0.00000000000E+00 -0.00000000000E+00 -0.70450454754E+03  0.70450454754E+03  0.00000000000E+00 0. -1.
         25    2    1    2    0    0  0.44598896475E+02 -0.74383249506E+02  0.27727404011E+02  0.15464455922E+03  0.12499680551E+03 0.  0.
          4    1    3    3  501    0  0.67735682783E+02 -0.80006087692E+02  0.55024997190E+02  0.11839957773E+03  0.12700000000E+01 0. -1.
         -4    1    3    3    0  501 -0.23136786307E+02  0.56228381859E+01 -0.27297593179E+02  0.36244981491E+02  0.12700000000E+01 0. -1.
          2    1    1    2  502    0 -0.18967694271E+02  0.48200989426E+02 -0.63867365884E+03  0.64077074786E+03  0.00000000000E+00 0. -1.
          1    1    1    2  503    0 -0.25631202204E+02  0.26182260081E+02  0.25220832928E+03  0.25485586246E+03  0.00000000000E+00 0. -1.
<mgrwt>
<rscale>  0 0.43725943E+02</rscale>
<asrwt>0</asrwt>
<pdfrwt beam="1">  1        2 0.53194866E-01 0.36639723E+02</pdfrwt>
<pdfrwt beam="2">  1        1 0.10838531E+00 0.52182657E+02</pdfrwt>
<totfact> 0.38105749E+02</totfact>
</mgrwt>
</event>
<event>
 7    1  0.6493044E-004  0.1613854E+03  0.7546771E-02  0.1246236E+00
          1   -1    0    0  502    0 -0.00000000000E+00  0.00000000000E+00  0.21941487094E+04  0.21941487094E+04  0.00000000000E+00 0. -1.
          2   -1    0    0  503    0  0.00000000000E+00 -0.00000000000E+00 -0.16335444699E+04  0.16335444699E+04  0.00000000000E+00 0. -1.
         25    2    1    2    0    0 -0.11336795194E+03 -0.51146164521E+01 -0.24577259769E+03  0.29817346988E+03  0.12499918613E+03 0.  0.
          4    1    3    3  501    0  0.14864889100E+02  0.15837913611E+02 -0.10237147012E+03  0.10465818281E+03  0.12700000000E+01 0. -1.
         -4    1    3    3    0  501 -0.12823284104E+03 -0.20952530063E+02 -0.14340112757E+03  0.19351528706E+03  0.12700000000E+01 0. -1.
          2    1    1    2  502    0 -0.39663955838E+02 -0.76812716557E+02  0.21615483787E+04  0.21632764077E+04  0.00000000000E+00 0. -1.
          1    1    1    2  503    0  0.15303190778E+03  0.81927333009E+02 -0.13551715415E+04  0.13662433017E+04  0.00000000000E+00 0. -1.
<mgrwt>
<rscale>  0 0.11811687E+03</rscale>
<asrwt>0</asrwt>
<pdfrwt beam="2">  1        2 0.25131453E+00 0.16138535E+03</pdfrwt>
<pdfrwt beam="1">  1        1 0.33756134E+00 0.86448961E+02</pdfrwt>
<totfact> 0.48656764E+00</totfact>
</mgrwt>
</event>
<event>
 7    1  0.6493044E-004  0.4697590E+02  0.7546771E-02  0.1488707E+00
          2   -1    0    0  503    0  0.00000000000E+00  0.00000000000E+00  0.32671478483E+03  0.32671478483E+03  0.00000000000E+00 0. -1.
          1   -1    0    0  502    0 -0.00000000000E+00 -0.00000000000E+00 -0.81579896340E+03  0.81579896340E+03  0.00000000000E+00 0. -1.
         25    2    1    2    0    0  0.39468608339E+01 -0.52375590433E+02 -0.16058328476E+03  0.21016891315E+03  0.12500080209E+03 0.  0.
          4    1    3    3  501    0 -0.33699408139E+02  0.28060848211E+02 -0.74628199776E+02  0.86568137401E+02  0.12700000000E+01 0. -1.
         -4    1    3    3    0  501  0.37646268972E+02 -0.80436438644E+02 -0.85955084989E+02  0.12360077574E+03  0.12700000000E+01 0. -1.
          2    1    1    2  502    0 -0.35037782284E+02  0.17027062018E+02 -0.62798057624E+03  0.62918770742E+03  0.00000000000E+00 0. -1.
          1    1    1    2  503    0  0.31090921451E+02  0.35348528414E+02  0.29947968244E+03  0.30315712766E+03  0.00000000000E+00 0. -1.
<mgrwt>
<rscale>  0 0.42778397E+02</rscale>
<asrwt>0</asrwt>
<pdfrwt beam="1">  1        2 0.50263813E-01 0.46975896E+02</pdfrwt>
<pdfrwt beam="2">  1        1 0.12550753E+00 0.38955963E+02</pdfrwt>
<totfact> 0.33377303E+02</totfact>
</mgrwt>
</event>
<event>
 7    1  0.6493044E-004  0.6350672E+02  0.7546771E-02  0.1387642E+00
          2   -1    0    0  503    0  0.00000000000E+00  0.00000000000E+00  0.13632447371E+04  0.13632447371E+04  0.00000000000E+00 0. -1.
         -2   -1    0    0    0  501 -0.00000000000E+00 -0.00000000000E+00 -0.52805024456E+02  0.52805024456E+02  0.00000000000E+00 0.  1.
         25    2    1    2    0    0  0.38608983006E+01  0.79070047626E+01  0.38071923175E+03  0.40081071109E+03  0.12499866175E+03 0.  0.
          4    1    3    3  502    0  0.20447981009E+02 -0.17791396800E+02  0.36571188840E+03  0.36671712797E+03  0.12700000000E+01 0. -1.
         -4    1    3    3    0  502 -0.16587082709E+02  0.25698401563E+02  0.15007343352E+02  0.34093583123E+02  0.12700000000E+01 0. -1.
          1    1    1    2  503    0  0.60525900917E+02 -0.19228073472E+02  0.94578900306E+03  0.94791874219E+03  0.00000000000E+00 0. -1.
         -1    1    1    2    0  501 -0.64386799217E+02  0.11321068710E+02 -0.16068522115E+02  0.67320308326E+02  0.00000000000E+00 0.  1.
<mgrwt>
<rscale>  0 0.62496895E+02</rscale>
<asrwt>0</asrwt>
<pdfrwt beam="1">  1        2 0.20972993E+00 0.63506720E+02</pdfrwt>
<pdfrwt beam="2">  1       -2 0.81238509E-02 0.61503128E+02</pdfrwt>
<totfact> 0.14939174E+03</totfact>
</mgrwt>
</event>
<event>
 7    1  0.6493044E-004  0.1102333E+03  0.7546771E-02  0.1311424E+00
          2   -1    0    0  503    0  0.00000000000E+00  0.00000000000E+00  0.31021144870E+03  0.31021144870E+03  0.00000000000E+00 0. -1.
          1   -1    0    0  502    0 -0.00000000000E+00 -0.00000000000E+00 -0.50985230618E+03  0.50985230618E+03  0.00000000000E+00 0. -1.
         25    2    1    2    0    0 -0.13195192337E+03 -0.11346990020E+03  0.12064865353E+03  0.24590141065E+03  0.12499871129E+03 0.  0.
          4    1    3    3  501    0 -0.15296710941E+03 -0.10575610725E+03  0.12358264974E+03  0.22328809865E+03  0.12700000000E+01 0.  1.
         -4    1    3    3    0  501  0.21015186034E+02 -0.77137929506E+01 -0.29339962080E+01  0.22613311997E+02  0.12700000000E+01 0.  1.
          2    1    1    2  502    0  0.73159995492E+02  0.79385711643E+02 -0.43096915061E+03  0.44428468906E+03  0.00000000000E+00 0. -1.
          1    1    1    2  503    0  0.58791927880E+02  0.34084188559E+02  0.11067963959E+03  0.12987765518E+03  0.00000000000E+00 0. -1.
<mgrwt>
<rscale>  0 0.86551619E+02</rscale>
<asrwt>0</asrwt>
<pdfrwt beam="1">  1        2 0.47724839E-01 0.67957507E+02</pdfrwt>
<pdfrwt beam="2">  1        1 0.78438815E-01 0.11023334E+03</pdfrwt>
<totfact> 0.64205561E+02</totfact>
</mgrwt>
</event>
<event>
 7    1  0.6493044E-004  0.1423098E+03  0.7546771E-02  0.1376237E+00
          1   -1    0    0  502    0 -0.00000000000E+00  0.00000000000E+00  0.75026919562E+03  0.75026919562E+03  0.00000000000E+00 0. -1.
          2   -1    0    0  503    0  0.00000000000E+00 -0.00000000000E+00 -0.57538999724E+03  0.57538999724E+03  0.00000000000E+00 0. -1.
         25    2    1    2    0    0  0.55883784158E+02  0.10355447705E+03  0.12781451435E+03  0.21403250005E+03  0.12500733558E+03 0.  0.
          4    1    3    3  501    0 -0.92968477771E+01 -0.21826198975E+02  0.43251433192E+02  0.49346871364E+02  0.12700000000E+01 0.  1.
         -4    1    3    3    0  501  0.65180631935E+02  0.12538067603E+03  0.84563081160E+02  0.16468562869E+03  0.12700000000E+01 0.  1.
          2    1    1    2  502    0 -0.72394441407E+02 -0.12873817025E+03  0.56949164303E+03  0.58833256166E+03  0.00000000000E+00 0. -1.
          1    1    1    2  503    0  0.16510657248E+02  0.25183693193E+02 -0.52242695901E+03  0.52329413116E+03  0.00000000000E+00 0. -1.
<mgrwt>
<rscale>  0 0.65463260E+02</rscale>
<asrwt>0</asrwt>
<pdfrwt beam="2">  1        2 0.88521538E-01 0.30113456E+02</pdfrwt>
<pdfrwt beam="1">  1        1 0.11542603E+00 0.14230975E+03</pdfrwt>
<totfact> 0.19842698E+02</totfact>
</mgrwt>
</event>
<event>
 7    1  0.6493044E-004  0.8136956E+02  0.7546771E-02  0.1360055E+00
          1   -1    0    0  502    0 -0.00000000000E+00  0.00000000000E+00  0.10251217484E+03  0.10251217484E+03  0.00000000000E+00 0. -1.
          2   -1    0    0  503    0  0.00000000000E+00 -0.00000000000E+00 -0.41293141309E+03  0.41293141309E+03  0.00000000000E+00 0. -1.
         25    2    1    2    0    0 -0.40381348639E+02  0.27682972240E+02 -0.68433007885E+02  0.15068060771E+03  0.12499827480E+03 0.  0.
          4    1    3    3  501    0 -0.43880639975E+02  0.70024935324E+02 -0.17747869907E+02  0.84531662222E+02  0.12700000000E+01 0.  1.
         -4    1    3    3    0  501  0.34992913356E+01 -0.42341963085E+02 -0.50685137978E+02  0.66148945491E+02  0.12700000000E+01 0.  1.
          2    1    1    2  502    0  0.37078444463E+02 -0.87830570219E+02  0.18746649055E+02  0.97162013975E+02  0.00000000000E+00 0. -1.
          1    1    1    2  503    0  0.33029041763E+01  0.60147597980E+02 -0.26073287942E+03  0.26760096624E+03  0.00000000000E+00 0. -1.
<mgrwt>
<rscale>  0 0.70011120E+02</rscale>
<asrwt>0</asrwt>
<pdfrwt beam="2">  1        2 0.63527910E-01 0.60238216E+02</pdfrwt>
<pdfrwt beam="1">  1        1 0.15771104E-01 0.81369556E+02</pdfrwt>
<totfact> 0.34943375E+03</totfact>
</mgrwt>
</event>
<event>
 7    1  0.6493044E-004  0.5046383E+02  0.7546771E-02  0.1456827E+00
          2   -1    0    0  503    0  0.00000000000E+00  0.00000000000E+00  0.14117868246E+03  0.14117868246E+03  0.00000000000E+00 0. -1.
          1   -1    0    0  502    0 -0.00000000000E+00 -0.00000000000E+00 -0.49157545457E+03  0.49157545457E+03  0.00000000000E+00 0. -1.
         25    2    1    2    0    0 -0.39130387479E+02  0.14334164738E+02  0.75092868596E+01  0.13198074205E+03  0.12500348548E+03 0.  0.
          4    1    3    3  501    0  0.34370980464E+02  0.32546322176E+02 -0.20002625291E+02  0.51403747954E+02  0.12700000000E+01 0.  1.
         -4    1    3    3    0  501 -0.73501367943E+02 -0.18212157438E+02  0.27511912150E+02  0.80576994100E+02  0.12700000000E+01 0.  1.
          2    1    1    2  502    0  0.40469149644E+02  0.31172981281E+02 -0.42037914507E+03  0.42347152495E+03  0.00000000000E+00 0. -1.
          1    1    1    2  503    0 -0.13387621646E+01 -0.45507146019E+02  0.62473086100E+02  0.77301870028E+02  0.00000000000E+00 0. -1.
<mgrwt>
<rscale>  0 0.47931808E+02</rscale>
<asrwt>0</asrwt>
<pdfrwt beam="1">  1        2 0.21719798E-01 0.45526834E+02</pdfrwt>
<pdfrwt beam="2">  1        1 0.75626992E-01 0.50463826E+02</pdfrwt>
<totfact> 0.15472634E+03</totfact>
</mgrwt>
</event>
<event>
 7    1  0.6493044E-004  0.6478432E+02  0.7546771E-02  0.1387229E+00
          1   -1    0    0  502    0 -0.00000000000E+00  0.00000000000E+00  0.12579966678E+04  0.12579966678E+04  0.00000000000E+00 0. -1.
          2   -1    0    0  503    0  0.00000000000E+00 -0.00000000000E+00 -0.50201072637E+03  0.50201072637E+03  0.00000000000E+00 0. -1.
         25    2    1    2    0    0 -0.77270369927E+01  0.10848219094E+02  0.11411094990E+03  0.16977950438E+03  0.12500552092E+03 0.  0.
          4    1    3    3  501    0  0.42469499916E+02  0.69641162960E+01  0.11130106115E+03  0.11933857906E+03  0.12700000000E+01 0. -1.
         -4    1    3    3    0  501 -0.50196536909E+02  0.38841027984E+01  0.28098887563E+01  0.50440925319E+02  0.12700000000E+01 0. -1.
          2    1    1    2  502    0  0.36489415990E+02  0.48246759062E+02  0.11129487637E+04  0.11145914848E+04  0.00000000000E+00 0. -1.
          1    1    1    2  503    0 -0.28762378997E+02 -0.59094978156E+02 -0.47107377222E+03  0.47563640500E+03  0.00000000000E+00 0. -1.
<mgrwt>
<rscale>  0 0.62601148E+02</rscale>
<asrwt>0</asrwt>
<pdfrwt beam="2">  1        2 0.77232420E-01 0.64784321E+02</pdfrwt>
<pdfrwt beam="1">  1        1 0.19353795E+00 0.60491547E+02</pdfrwt>
<totfact> 0.10206210E+02</totfact>
</mgrwt>
</event>
<event>
 7    1  0.6493044E-004  0.1178417E+03  0.7546771E-02  0.1396205E+00
         -2   -1    0    0    0  501 -0.00000000000E+00  0.00000000000E+00  0.74902385164E+02  0.74902385164E+02  0.00000000000E+00 0.  1.
          2   -1    0    0  503    0  0.00000000000E+00 -0.00000000000E+00 -0.24342708928E+04  0.24342708928E+04  0.00000000000E+00 0. -1.
         25    2    1    2    0    0  0.85953575377E+02 -0.21439557789E+02 -0.12301031547E+04  0.12396073700E+04  0.12499995592E+03 0.  0.
          4    1    3    3  502    0  0.80676802925E+02  0.40952396486E+02 -0.74835757697E+03  0.75380801350E+03  0.12700000000E+01 0.  1.
         -4    1    3    3    0  502  0.52767724524E+01 -0.62391954275E+02 -0.48174557770E+03  0.48579935654E+03  0.12700000000E+01 0.  1.
          1    1    1    2  503    0  0.30924888927E+02 -0.11784456059E+01 -0.11485502997E+04  0.11489671572E+04  0.00000000000E+00 0. -1.
         -1    1    1    2    0  501 -0.11687846430E+03  0.22618003395E+02  0.19284946726E+02  0.12059875068E+03  0.00000000000E+00 0.  1.
<mgrwt>
<rscale>  0 0.60389465E+02</rscale>
<asrwt>0</asrwt>
<pdfrwt beam="2">  1        2 0.37450318E+00 0.30947334E+02</pdfrwt>
<pdfrwt beam="1">  1       -2 0.11523445E-01 0.11784173E+03</pdfrwt>
<totfact> 0.29570852E+02</totfact>
</mgrwt>
</event>
<event>
 7    1  0.6493044E-004  0.4480977E+02  0.7546771E-02  0.1482364E+00
          2   -1    0    0  503    0  0.00000000000E+00  0.00000000000E+00  0.20524834313E+04  0.20524834313E+04  0.00000000000E+00 0. -1.
         -2   -1    0    0    0  501 -0.00000000000E+00 -0.00000000000E+00 -0.17916653556E+02  0.17916653556E+02  0.00000000000E+00 0.  1.
         25    2    1    2    0    0  0.19560543623E+02  0.14323689770E+02  0.84702216599E+03  0.85652796655E+03  0.12492327587E+03 0.  0.
          4    1    3    3  502    0  0.67501301735E+02  0.23606228735E+02  0.35815045594E+03  0.36522190756E+03  0.12700000000E+01 0.  1.
         -4    1    3    3    0  502 -0.47940758112E+02 -0.92825389647E+01  0.48887171005E+03  0.49130605899E+03  0.12700000000E+01 0.  1.
          1    1    1    2  503    0 -0.37420707044E+02  0.26772899433E+02  0.11607514286E+04  0.11616630219E+04  0.00000000000E+00 0. -1.
         -1    1    1    2    0  501  0.17860163420E+02 -0.41096589204E+02  0.26793183120E+02  0.52209096366E+02  0.00000000000E+00 0.  1.
<mgrwt>
<rscale>  0 0.43740072E+02</rscale>
<asrwt>0</asrwt>
<pdfrwt beam="1">  1        2 0.31576650E+00 0.42695915E+02</pdfrwt>
<pdfrwt beam="2">  1       -2 0.27564099E-02 0.44809765E+02</pdfrwt>
<totfact> 0.33293216E+03</totfact>
</mgrwt>
</event>
<event>
 7    1  0.6493044E-004  0.4163985E+02  0.7546771E-02  0.1597064E+00
          2   -1    0    0  503    0  0.00000000000E+00  0.00000000000E+00  0.11794038237E+04  0.11794038237E+04  0.00000000000E+00 0. -1.
          1   -1    0    0  502    0 -0.00000000000E+00 -0.00000000000E+00 -0.63253064391E+03  0.63253064391E+03  0.00000000000E+00 0. -1.
         25    2    1    2    0    0  0.23063507154E+02 -0.26703576087E+02 -0.14477470255E+03  0.19450193847E+03  0.12500513282E+03 0.  0.
          4    1    3    3  501    0  0.65107692963E+02 -0.38878716651E+02 -0.12554542499E+03  0.14667594529E+03  0.12700000000E+01 0. -1.
         -4    1    3    3    0  501 -0.42044185809E+02  0.12175140564E+02 -0.19229277565E+02  0.47825993181E+02  0.12700000000E+01 0. -1.
          2    1    1    2  502    0 -0.70976293243E+01  0.41470714303E+02 -0.46183355788E+03  0.46374608535E+03  0.00000000000E+00 0. -1.
          1    1    1    2  503    0 -0.15965877829E+02 -0.14767138216E+02  0.11534814403E+04  0.11536864438E+04  0.00000000000E+00 0. -1.
<mgrwt>
<rscale>  0 0.30092948E+02</rscale>
<asrwt>0</asrwt>
<pdfrwt beam="1">  1        2 0.18144674E+00 0.21748049E+02</pdfrwt>
<pdfrwt beam="2">  1        1 0.97312407E-01 0.41639851E+02</pdfrwt>
<totfact> 0.11565468E+02</totfact>
</mgrwt>
</event>
<event>
 7    1  0.6493044E-004  0.3988943E+02  0.7546771E-02  0.1598899E+00
          1   -1    0    0  503    0  0.00000000000E+00  0.00000000000E+00  0.50843140539E+02  0.50843140539E+02  0.00000000000E+00 0. -1.
         -1   -1    0    0    0  501 -0.00000000000E+00 -0.00000000000E+00 -0.29107181951E+03  0.29107181951E+03  0.00000000000E+00 0.  1.
         25    2    1    2    0    0 -0.46986161223E+02 -0.10278948692E+02 -0.17533168871E+03  0.22063224304E+03  0.12499611782E+03 0.  0.
          4    1    3    3  502    0 -0.64949344485E+02  0.14560216984E+02 -0.17779810441E+03  0.18985309083E+03  0.12700000000E+01 0. -1.
         -4    1    3    3    0  502  0.17963183263E+02 -0.24839165676E+02  0.24664156916E+01  0.30779152210E+02  0.12700000000E+01 0. -1.
          2    1    1    2  503    0  0.16898233456E+02 -0.14783767554E+02  0.18537298012E+02  0.29116000663E+02  0.00000000000E+00 0. -1.
         -2    1    1    2    0  501  0.30087927766E+02  0.25062716246E+02 -0.83434288271E+02  0.92166716347E+02  0.00000000000E+00 0.  1.
<mgrwt>
<rscale>  0 0.29926798E+02</rscale>
<asrwt>0</asrwt>
<pdfrwt beam="1">  1        1 0.78220217E-02 0.22452396E+02</pdfrwt>
<pdfrwt beam="2">  1       -1 0.44780280E-01 0.39889427E+02</pdfrwt>
<totfact> 0.36911910E+03</totfact>
</mgrwt>
</event>
<event>
 7    1  0.6493044E-004  0.6870630E+02  0.7546771E-02  0.1368751E+00
          1   -1    0    0  502    0 -0.00000000000E+00  0.00000000000E+00  0.61324939497E+02  0.61324939497E+02  0.00000000000E+00 0. -1.
          2   -1    0    0  503    0  0.00000000000E+00 -0.00000000000E+00 -0.10943044544E+04  0.10943044544E+04  0.00000000000E+00 0. -1.
         25    2    1    2    0    0 -0.42638006392E+01  0.26667829503E+02 -0.12504963045E+03  0.17886227903E+03  0.12499980663E+03 0.  0.
          4    1    3    3  501    0 -0.11535786338E+02  0.31122911324E+02  0.16473365583E+02  0.37076874860E+02  0.12700000000E+01 0.  1.
         -4    1    3    3    0  501  0.72719856987E+01 -0.44550818206E+01 -0.14152299603E+03  0.14178540417E+03  0.12700000000E+01 0.  1.
          2    1    1    2  502    0  0.65455082574E+02  0.10835260437E+02 -0.34273819845E+00  0.66346726920E+02  0.00000000000E+00 0. -1.
          1    1    1    2  503    0 -0.61191281935E+02 -0.37503089940E+02 -0.90758714630E+03  0.91042038799E+03  0.00000000000E+00 0. -1.
<mgrwt>
<rscale>  0 0.67515755E+02</rscale>
<asrwt>0</asrwt>
<pdfrwt beam="2">  1        2 0.16835452E+00 0.68706298E+02</pdfrwt>
<pdfrwt beam="1">  1        1 0.94346065E-02 0.66345842E+02</pdfrwt>
<totfact> 0.21463351E+03</totfact>
</mgrwt>
</event>
<event>
 7    1  0.6493044E-004  0.1690737E+03  0.7546771E-02  0.1271392E+00
          1   -1    0    0  502    0 -0.00000000000E+00  0.00000000000E+00  0.24224602741E+03  0.24224602741E+03  0.00000000000E+00 0. -1.
          2   -1    0    0  503    0  0.00000000000E+00 -0.00000000000E+00 -0.65346379945E+03  0.65346379945E+03  0.00000000000E+00 0. -1.
         25    2    1    2    0    0  0.17976380781E+03 -0.67192918928E+02 -0.32898755139E+00  0.22903360403E+03  0.12500547424E+03 0.  0.
          4    1    3    3  501    0  0.73348613663E+00 -0.25374719382E+02 -0.33664537899E+02  0.42182086216E+02  0.12700000000E+01 0.  1.
         -4    1    3    3    0  501  0.17903032167E+03 -0.41818199545E+02  0.33335550347E+02  0.18685151781E+03  0.12700000000E+01 0.  1.
          2    1    1    2  502    0 -0.16160043614E+03  0.53949516956E+01  0.73792718143E+02  0.17773342881E+03  0.00000000000E+00 0. -1.
          1    1    1    2  503    0 -0.18163371667E+02  0.61797967232E+02 -0.48468150263E+03  0.48894279401E+03  0.00000000000E+00 0. -1.
<mgrwt>
<rscale>  0 0.10435691E+03</rscale>
<asrwt>0</asrwt>
<pdfrwt beam="2">  1        2 0.10053289E+00 0.64411931E+02</pdfrwt>
<pdfrwt beam="1">  1        1 0.37268621E-01 0.16907371E+03</pdfrwt>
<totfact> 0.73917514E+02</totfact>
</mgrwt>
</event>
<event>
 7    1  0.6493044E-004  0.8985322E+02  0.7546771E-02  0.1471172E+00
          1   -1    0    0  503    0  0.00000000000E+00  0.00000000000E+00  0.15545270780E+04  0.15545270780E+04  0.00000000000E+00 0. -1.
         -1   -1    0    0    0  501 -0.00000000000E+00 -0.00000000000E+00 -0.73951890208E+03  0.73951890208E+03  0.00000000000E+00 0.  1.
         25    2    1    2    0    0 -0.41654984197E+02 -0.10173762764E+03  0.26452078926E+03  0.31254121991E+03  0.12500033441E+03 0.  0.
          4    1    3    3  502    0 -0.34260830253E+01  0.22259234187E+02  0.10254866930E+03  0.10500025727E+03  0.12700000000E+01 0. -1.
         -4    1    3    3    0  502 -0.38228901172E+02 -0.12399686183E+03  0.16197211996E+03  0.20754096264E+03  0.12700000000E+01 0. -1.
          2    1    1    2  503    0  0.17048888529E+02  0.15515827373E+02  0.12630814179E+04  0.12632917611E+04  0.00000000000E+00 0. -1.
         -2    1    1    2    0  501  0.24606095669E+02  0.86221800269E+02 -0.71259403118E+03  0.71821299909E+03  0.00000000000E+00 0.  1.
<mgrwt>
<rscale>  0 0.45511728E+02</rscale>
<asrwt>0</asrwt>
<pdfrwt beam="1">  1        1 0.23915801E+00 0.23052234E+02</pdfrwt>
<pdfrwt beam="2">  1       -1 0.11377214E+00 0.89853218E+02</pdfrwt>
<totfact> 0.68439560E+00</totfact>
</mgrwt>
</event>
<event>
 7    1  0.6493044E-004  0.7311866E+02  0.7546771E-02  0.1485121E+00
          2   -1    0    0  503    0  0.00000000000E+00  0.00000000000E+00  0.85898005190E+03  0.85898005190E+03  0.00000000000E+00 0. -1.
          1   -1    0    0  502    0 -0.00000000000E+00 -0.00000000000E+00 -0.62207156036E+02  0.62207156036E+02  0.00000000000E+00 0. -1.
         25    2    1    2    0    0 -0.37938571467E+02  0.44375335287E+02  0.14656909161E+03  0.20129327952E+03  0.12501192014E+03 0.  0.
          4    1    3    3  501    0  0.21711901819E+02 -0.30385122285E+01 -0.12242932004E+02  0.25142424728E+02  0.12700000000E+01 0.  1.
         -4    1    3    3    0  501 -0.59650473286E+02  0.47413847516E+02  0.15881202362E+03  0.17615085479E+03  0.12700000000E+01 0.  1.
          2    1    1    2  502    0  0.88266812799E+01  0.24097814160E+02 -0.27791404980E+02  0.37828258491E+02  0.00000000000E+00 0. -1.
          1    1    1    2  503    0  0.29111890188E+02 -0.68473149447E+02  0.67799520924E+03  0.68206566993E+03  0.00000000000E+00 0. -1.
<mgrwt>
<rscale>  0 0.43318360E+02</rscale>
<asrwt>0</asrwt>
<pdfrwt beam="1">  1        2 0.13215077E+00 0.73118661E+02</pdfrwt>
<pdfrwt beam="2">  1        1 0.95703324E-02 0.25663494E+02</pdfrwt>
<totfact> 0.26696460E+03</totfact>
</mgrwt>
</event>
<event>
 7    1  0.6493044E-004  0.1367141E+03  0.7546771E-02  0.1237141E+00
          2   -1    0    0  503    0  0.00000000000E+00  0.00000000000E+00  0.14226181385E+04  0.14226181385E+04  0.00000000000E+00 0. -1.
         -2   -1    0    0    0  501 -0.00000000000E+00 -0.00000000000E+00 -0.65722333371E+03  0.65722333371E+03  0.00000000000E+00 0.  1.
         25    2    1    2    0    0  0.65721511932E+02 -0.65404239320E+01 -0.20578180748E+03  0.24966279856E+03  0.12499306548E+03 0.  0.
          4    1    3    3  502    0  0.67062750596E+02  0.14727855498E+02 -0.34125950464E+02  0.76684520212E+02  0.12700000000E+01 0. -1.
         -4    1    3    3    0  502 -0.13412386643E+01 -0.21268279430E+02 -0.17165585702E+03  0.17297827835E+03  0.12700000000E+01 0. -1.
          1    1    1    2  503    0 -0.71408722095E+02  0.11829051610E+03  0.13899056989E+04  0.13967568520E+04  0.00000000000E+00 0. -1.
         -1    1    1    2    0  501  0.56872101627E+01 -0.11175009217E+03 -0.41872908665E+03  0.43342182163E+03  0.00000000000E+00 0.  1.
<mgrwt>
<rscale>  0 0.12368343E+03</rscale>
<asrwt>0</asrwt>
<pdfrwt beam="1">  1        2 0.21886433E+00 0.13671415E+03</pdfrwt>
<pdfrwt beam="2">  1       -2 0.10111128E+00 0.11189472E+03</pdfrwt>
<totfact> 0.13795522E+01</totfact>
</mgrwt>
</event>
<event>
 7    1  0.6493044E-004  0.4203195E+02  0.7546771E-02  0.1506582E+00
          2   -1    0    0  503    0  0.00000000000E+00  0.00000000000E+00  0.31224049226E+03  0.31224049226E+03  0.00000000000E+00 0. -1.
          3   -1    0    0  502    0 -0.00000000000E+00 -0.00000000000E+00 -0.60921805430E+02  0.60921805430E+02  0.00000000000E+00 0. -1.
         25    2    1    2    0    0  0.38601316833E+01  0.12950167448E+02  0.95055693155E+02  0.15761560728E+03  0.12499794959E+03 0.  0.
          4    1    3    3  501    0 -0.15272626818E+02  0.65846047624E+02  0.38315176416E+02  0.77708562986E+02  0.12700000000E+01 0.  1.
         -4    1    3    3    0  501  0.19132758502E+02 -0.52895880176E+02  0.56740516739E+02  0.79907044291E+02  0.12700000000E+01 0.  1.
          2    1    1    2  502    0  0.38348033441E+02  0.33082131611E+01 -0.12780235681E+02  0.40556754889E+02  0.00000000000E+00 0. -1.
          1    1    1    2  503    0 -0.42208165124E+02 -0.16258380609E+02  0.16904322935E+03  0.17498993552E+03  0.00000000000E+00 0. -1.
<mgrwt>
<rscale>  0 0.40222250E+02</rscale>
<asrwt>0</asrwt>
<pdfrwt beam="1">  1        2 0.48036998E-01 0.42031953E+02</pdfrwt>
<pdfrwt beam="2">  1        3 0.93725856E-02 0.38490466E+02</pdfrwt>
<totfact> 0.42273937E+03</totfact>
</mgrwt>
</event>
<event>
 7    1  0.6493044E-004  0.3970549E+02  0.7546771E-02  0.1587755E+00
          2   -1    0    0  503    0  0.00000000000E+00  0.00000000000E+00  0.67961745155E+03  0.67961745155E+03  0.00000000000E+00 0. -1.
         -2   -1    0    0    0  501 -0.00000000000E+00 -0.00000000000E+00 -0.55976899070E+03  0.55976899070E+03  0.00000000000E+00 0.  1.
         25    2    1    2    0    0  0.36915478159E+00 -0.42901384805E+02 -0.31439510668E+03  0.34104214478E+03  0.12499918528E+03 0.  0.
          4    1    3    3  502    0 -0.39324244706E+02 -0.62081679645E+02 -0.26415903987E+03  0.27419362213E+03  0.12700000000E+01 0. -1.
         -4    1    3    3    0  502  0.39693399487E+02  0.19180294840E+02 -0.50236066803E+02  0.66848522653E+02  0.12700000000E+01 0. -1.
          1    1    1    2  503    0  0.22110100665E+02  0.96759437591E+01  0.66433944491E+03  0.66477769103E+03  0.00000000000E+00 0. -1.
         -1    1    1    2    0  501 -0.22479255447E+02  0.33225441046E+02 -0.23009587738E+03  0.23356660644E+03  0.00000000000E+00 0.  1.
<mgrwt>
<rscale>  0 0.30956057E+02</rscale>
<asrwt>0</asrwt>
<pdfrwt beam="1">  1        2 0.10455653E+00 0.24134632E+02</pdfrwt>
<pdfrwt beam="2">  1       -2 0.86118306E-01 0.39705494E+02</pdfrwt>
<totfact> 0.59299342E+01</totfact>
</mgrwt>
</event>
<event>
 7    1  0.6493044E-004  0.7180260E+02  0.7546771E-02  0.1464194E+00
         -1   -1    0    0    0  501 -0.00000000000E+00  0.00000000000E+00  0.15289186955E+03  0.15289186955E+03  0.00000000000E+00 0.  1.
          1   -1    0    0  503    0  0.00000000000E+00 -0.00000000000E+00 -0.54461140917E+03  0.54461140917E+03  0.00000000000E+00 0. -1.
         25    2    1    2    0    0  0.19524015419E+02 -0.94854806248E+02  0.52138225546E+02  0.16649769851E+03  0.12499787038E+03 0.  0.
          4    1    3    3  502    0  0.37851576282E+02 -0.43817337244E+02 -0.32166789690E+02  0.66249650030E+02  0.12700000000E+01 0. -1.
         -4    1    3    3    0  502 -0.18327560864E+02 -0.51037469004E+02  0.84305015236E+02  0.10024804848E+03  0.12700000000E+01 0. -1.
          2    1    1    2  503    0 -0.48856573763E+00  0.71241000334E+02 -0.47918044101E+03  0.48444753469E+03  0.00000000000E+00 0. -1.
         -2    1    1    2    0  501 -0.19035449681E+02  0.23613805914E+02  0.35322675835E+02  0.46558045518E+02  0.00000000000E+00 0.  1.
<mgrwt>
<rscale>  0 0.46667263E+02</rscale>
<asrwt>0</asrwt>
<pdfrwt beam="2">  1        1 0.83786374E-01 0.71802597E+02</pdfrwt>
<pdfrwt beam="1">  1       -1 0.23521825E-01 0.30330845E+02</pdfrwt>
<totfact> 0.60373232E+02</totfact>
</mgrwt>
</event>
<event>
 7    1  0.6493044E-004  0.1179068E+03  0.7546771E-02  0.1288034E+00
          1   -1    0    0  502    0 -0.00000000000E+00  0.00000000000E+00  0.44697773893E+03  0.44697773893E+03  0.00000000000E+00 0. -1.
          2   -1    0    0  503    0  0.00000000000E+00 -0.00000000000E+00 -0.41394973418E+03  0.41394973418E+03  0.00000000000E+00 0. -1.
         25    2    1    2    0    0 -0.11274653970E+03  0.54276029770E+02  0.27763782916E+03  0.32918924206E+03  0.12500049314E+03 0.  0.
          4    1    3    3  501    0 -0.32343434769E+02  0.29914725696E+02  0.55494212900E+01  0.44422939601E+02  0.12700000000E+01 0. -1.
         -4    1    3    3    0  501 -0.80403104930E+02  0.24361304074E+02  0.27208840787E+03  0.28476630246E+03  0.12700000000E+01 0. -1.
          2    1    1    2  502    0  0.56660638407E+02 -0.10967157459E+03  0.11190239619E+03  0.16661461068E+03  0.00000000000E+00 0. -1.
          1    1    1    2  503    0  0.56085901292E+02  0.55395544822E+02 -0.35651222061E+03  0.36512362037E+03  0.00000000000E+00 0. -1.
<mgrwt>
<rscale>  0 0.96408959E+02</rscale>
<asrwt>0</asrwt>
<pdfrwt beam="2">  1        2 0.63684574E-01 0.78830798E+02</pdfrwt>
<pdfrwt beam="1">  1        1 0.68765806E-01 0.11790680E+03</pdfrwt>
<totfact> 0.56264280E+02</totfact>
</mgrwt>
</event>
<event>
 7    1  0.6493044E-004  0.6014020E+02  0.7546771E-02  0.1517848E+00
          1   -1    0    0  503    0  0.00000000000E+00  0.00000000000E+00  0.24841133276E+03  0.24841133276E+03  0.00000000000E+00 0. -1.
         -1   -1    0    0    0  501 -0.00000000000E+00 -0.00000000000E+00 -0.84325919502E+02  0.84325919502E+02  0.00000000000E+00 0.  1.
         25    2    1    2    0    0  0.75285738532E+02  0.12477397345E+02  0.10129484829E+03  0.17807289253E+03  0.12500272355E+03 0.  0.
          4    1    3    3  502    0  0.93811091527E+01 -0.48732353396E+02  0.11471932646E+02  0.50951600712E+02  0.12700000000E+01 0.  1.
         -4    1    3    3    0  502  0.65904629379E+02  0.61209750742E+02  0.89822915646E+02  0.12712129182E+03  0.12700000000E+01 0.  1.
          2    1    1    2  503    0 -0.17325869109E+02 -0.17924041961E+02  0.87825014266E+02  0.91294524214E+02  0.00000000000E+00 0. -1.
         -2    1    1    2    0  501 -0.57959869423E+02  0.54466446157E+01 -0.25034449301E+02  0.63369835512E+02  0.00000000000E+00 0.  1.
<mgrwt>
<rscale>  0 0.38719988E+02</rscale>
<asrwt>0</asrwt>
<pdfrwt beam="1">  1        1 0.38217128E-01 0.24929040E+02</pdfrwt>
<pdfrwt beam="2">  1       -1 0.12973219E-01 0.60140203E+02</pdfrwt>
<totfact> 0.40491753E+03</totfact>
</mgrwt>
</event>
<event>
 7    1  0.6493044E-004  0.1115825E+03  0.7546771E-02  0.1270909E+00
          1   -1    0    0  502    0 -0.00000000000E+00  0.00000000000E+00  0.73475474063E+02  0.73475474063E+02  0.00000000000E+00 0. -1.
          2   -1    0    0  503    0  0.00000000000E+00 -0.00000000000E+00 -0.17164781400E+04  0.17164781400E+04  0.00000000000E+00 0. -1.
         25    2    1    2    0    0  0.43299438554E+02 -0.53798721416E+02 -0.45830326480E+03  0.48003731899E+03  0.12499920518E+03 0.  0.
          4    1    3    3  501    0 -0.35699130817E+02 -0.45672758001E+02 -0.13141539821E+03  0.14363860397E+03  0.12700000000E+01 0.  1.
         -4    1    3    3    0  501  0.78998569371E+02 -0.81259634156E+01 -0.32688786659E+03  0.33639871502E+03  0.12700000000E+01 0.  1.
          2    1    1    2  502    0 -0.12030308109E+03 -0.69072247492E+01  0.66514622492E+00  0.12050304350E+03  0.00000000000E+00 0. -1.
          1    1    1    2  503    0  0.77003642537E+02  0.60705946166E+02 -0.11853645474E+04  0.11894132516E+04  0.00000000000E+00 0. -1.
<mgrwt>
<rscale>  0 0.10460026E+03</rscale>
<asrwt>0</asrwt>
<pdfrwt beam="2">  1        2 0.26407356E+00 0.98054948E+02</pdfrwt>
<pdfrwt beam="1">  1        1 0.11303919E-01 0.11158248E+03</pdfrwt>
<totfact> 0.80933294E+02</totfact>
</mgrwt>
</event>
<event>
 7    1  0.6493044E-004  0.9073662E+02  0.7546771E-02  0.1302489E+00
          1   -1    0    0  502    0 -0.00000000000E+00  0.00000000000E+00  0.57726999761E+03  0.57726999761E+03  0.00000000000E+00 0. -1.
          2   -1    0    0  503    0  0.00000000000E+00 -0.00000000000E+00 -0.22716955675E+03  0.22716955675E+03  0.00000000000E+00 0. -1.
         25    2    1    2    0    0  0.45902035755E+02  0.10327431110E+03  0.20495834952E+03  0.26534032605E+03  0.12499993349E+03 0.  0.
          4    1    3    3  501    0 -0.14372417544E+02  0.17574279053E+01 -0.11660316847E+02  0.18634130725E+02  0.12700000000E+01 0.  1.
         -4    1    3    3    0  501  0.60274453298E+02  0.10151688319E+03  0.21661866637E+03  0.24670619533E+03  0.12700000000E+01 0.  1.
          2    1    1    2  502    0  0.41439326706E+02 -0.83432760216E+02  0.32504636398E+03  0.33813219606E+03  0.00000000000E+00 0. -1.
          1    1    1    2  503    0 -0.87341362461E+02 -0.19841550883E+02 -0.17990427264E+03  0.20096703225E+03  0.00000000000E+00 0. -1.
<mgrwt>
<rscale>  0 0.90149782E+02</rscale>
<asrwt>0</asrwt>
<pdfrwt beam="2">  1        2 0.34949163E-01 0.89566739E+02</pdfrwt>
<pdfrwt beam="1">  1        1 0.88810768E-01 0.90736619E+02</pdfrwt>
<totfact> 0.76172836E+02</totfact>
</mgrwt>
</event>
<event>
 7    1  0.6493044E-004  0.5251798E+02  0.7546771E-02  0.1532511E+00
          1   -1    0    0  502    0 -0.00000000000E+00  0.00000000000E+00  0.14148143126E+04  0.14148143126E+04  0.00000000000E+00 0. -1.
          2   -1    0    0  503    0  0.00000000000E+00 -0.00000000000E+00 -0.19162679744E+03  0.19162679744E+03  0.00000000000E+00 0. -1.
         25    2    1    2    0    0  0.10915646951E+02 -0.75583452501E+02  0.14611645867E+03  0.20689986529E+03  0.12500210047E+03 0.  0.
          4    1    3    3  501    0 -0.30973411122E+02 -0.93363073537E+02  0.11699833126E+03  0.15286019140E+03  0.12700000000E+01 0. -1.
         -4    1    3    3    0  501  0.41889058073E+02  0.17779621035E+02  0.29118127406E+02  0.54039673889E+02  0.12700000000E+01 0. -1.
          2    1    1    2  502    0 -0.10631581105E+02  0.23615890266E+02  0.12339792123E+04  0.12342509620E+04  0.00000000000E+00 0. -1.
          1    1    1    2  503    0 -0.28406584625E+00  0.51967562235E+02 -0.15690815581E+03  0.16529028277E+03  0.00000000000E+00 0. -1.
<mgrwt>
<rscale>  0 0.36880151E+02</rscale>
<asrwt>0</asrwt>
<pdfrwt beam="2">  1        2 0.29481047E-01 0.52517980E+02</pdfrwt>
<pdfrwt beam="1">  1        1 0.21766373E+00 0.25898664E+02</pdfrwt>
<totfact> 0.23901511E+02</totfact>
</mgrwt>
</event>
<event>
 7    1  0.6493044E-004  0.5030028E+02  0.7546771E-02  0.1495527E+00
          1   -1    0    0  502    0 -0.00000000000E+00  0.00000000000E+00  0.49476431956E+03  0.49476431956E+03  0.00000000000E+00 0. -1.
          2   -1    0    0  503    0  0.00000000000E+00 -0.00000000000E+00 -0.12578586304E+03  0.12578586304E+03  0.00000000000E+00 0. -1.
         25    2    1    2    0    0 -0.24619390093E+02 -0.65472260265E+02  0.15708213208E+03  0.21258946588E+03  0.12500701402E+03 0.  0.
          4    1    3    3  501    0 -0.32573068317E+02 -0.10043313317E+03  0.13087801001E+03  0.16816208080E+03  0.12700000000E+01 0.  1.
         -4    1    3    3    0  501  0.79536782245E+01  0.34960872901E+02  0.26204122069E+02  0.44427385077E+02  0.12700000000E+01 0.  1.
          2    1    1    2  502    0 -0.59465038982E+01  0.49050314749E+02  0.30480526627E+03  0.30878397729E+03  0.00000000000E+00 0. -1.
          1    1    1    2  503    0  0.30565893991E+02  0.16421945516E+02 -0.92908941830E+02  0.99176739420E+02  0.00000000000E+00 0. -1.
<mgrwt>
<rscale>  0 0.41777041E+02</rscale>
<asrwt>0</asrwt>
<pdfrwt beam="2">  1        2 0.19351672E-01 0.34698043E+02</pdfrwt>
<pdfrwt beam="1">  1        1 0.76117587E-01 0.50300277E+02</pdfrwt>
<totfact> 0.17160533E+03</totfact>
</mgrwt>
</event>
<event>
 7    1  0.6493044E-004  0.8943386E+02  0.7546771E-02  0.1370343E+00
          1   -1    0    0  502    0 -0.00000000000E+00  0.00000000000E+00  0.92895210027E+03  0.92895210027E+03  0.00000000000E+00 0. -1.
          2   -1    0    0  503    0  0.00000000000E+00 -0.00000000000E+00 -0.15080706919E+04  0.15080706919E+04  0.00000000000E+00 0. -1.
         25    2    1    2    0    0 -0.68516878130E+02 -0.63944173143E+02  0.49705960736E+03  0.52103339410E+03  0.12499649849E+03 0.  0.
          4    1    3    3  501    0 -0.88830242812E+02 -0.82784168187E+02  0.45281765900E+03  0.46881710265E+03  0.12700000000E+01 0. -1.
         -4    1    3    3    0  501  0.20313364682E+02  0.18839995044E+02  0.44241948364E+02  0.52216291452E+02  0.12700000000E+01 0. -1.
          2    1    1    2  502    0  0.24556777191E+02  0.88393041062E+02  0.41446543211E+03  0.42449730203E+03  0.00000000000E+00 0. -1.
          1    1    1    2  503    0  0.43960100940E+02 -0.24448867920E+02 -0.14906436311E+04  0.14914920961E+04  0.00000000000E+00 0. -1.
<mgrwt>
<rscale>  0 0.67072011E+02</rscale>
<asrwt>0</asrwt>
<pdfrwt beam="2">  1        2 0.23201087E+00 0.50301467E+02</pdfrwt>
<pdfrwt beam="1">  1        1 0.14291571E+00 0.89433864E+02</pdfrwt>
<totfact> 0.41214107E+01</totfact>
</mgrwt>
</event>
<event>
 7    1  0.6493044E-004  0.5726004E+02  0.7546771E-02  0.1435011E+00
         -2   -1    0    0    0  501 -0.00000000000E+00  0.00000000000E+00  0.31733750923E+02  0.31733750923E+02  0.00000000000E+00 0.  1.
          2   -1    0    0  503    0  0.00000000000E+00 -0.00000000000E+00 -0.89007810741E+03  0.89007810741E+03  0.00000000000E+00 0. -1.
         25    2    1    2    0    0 -0.10730927866E+02 -0.37722804465E+02 -0.32707005275E+03  0.35233225894E+03  0.12500015398E+03 0.  0.
          4    1    3    3  502    0 -0.10894253988E+02 -0.43347703820E+02 -0.33748080254E+03  0.34043004153E+03  0.12700000000E+01 0.  1.
         -4    1    3    3    0  502  0.16332612240E+00  0.56248993553E+01  0.10410749787E+02  0.11902217411E+02  0.12700000000E+01 0.  1.
          1    1    1    2  503    0  0.56274003398E+02  0.25466520979E+02 -0.51632079572E+03  0.52000237618E+03  0.00000000000E+00 0. -1.
         -1    1    1    2    0  501 -0.45543075532E+02  0.12256283486E+02 -0.14953508017E+02  0.49477223202E+02  0.00000000000E+00 0.  1.
<mgrwt>
<rscale>  0 0.51967097E+02</rscale>
<asrwt>0</asrwt>
<pdfrwt beam="2">  1        2 0.13693508E+00 0.57260037E+02</pdfrwt>
<pdfrwt beam="1">  1       -2 0.48821159E-02 0.47163420E+02</pdfrwt>
<totfact> 0.56670710E+03</totfact>
</mgrwt>
</event>
<event>
 7    1  0.6493044E-004  0.7161039E+02  0.7546771E-02  0.1505465E+00
          1   -1    0    0  502    0 -0.00000000000E+00  0.00000000000E+00  0.60265243576E+03  0.60265243576E+03  0.00000000000E+00 0. -1.
          2   -1    0    0  503    0  0.00000000000E+00 -0.00000000000E+00 -0.19255501027E+04  0.19255501027E+04  0.00000000000E+00 0. -1.
         25    2    1    2    0    0  0.77013144598E+02  0.14515267675E+02 -0.12802860098E+04  0.12887561469E+04  0.12497368509E+03 0.  0.
          4    1    3    3  501    0  0.97896059651E+02  0.33444670451E+02 -0.68175276888E+03  0.68955828996E+03  0.12700000000E+01 0.  1.
         -4    1    3    3    0  501 -0.20882915053E+02 -0.18929402775E+02 -0.59853324091E+03  0.59919785698E+03  0.12700000000E+01 0.  1.
          2    1    1    2  502    0 -0.63595795581E+02 -0.32905839353E+02  0.59607185989E+03  0.60035729498E+03  0.00000000000E+00 0. -1.
          1    1    1    2  503    0 -0.13417349018E+02  0.18390571677E+02 -0.63868351708E+03  0.63908909658E+03  0.00000000000E+00 0. -1.
<mgrwt>
<rscale>  0 0.40375731E+02</rscale>
<asrwt>0</asrwt>
<pdfrwt beam="2">  1        2 0.29623847E+00 0.22764850E+02</pdfrwt>
<pdfrwt beam="1">  1        1 0.92715762E-01 0.71610386E+02</pdfrwt>
<totfact> 0.53451032E+01</totfact>
</mgrwt>
</event>
<event>
 7    1  0.6493044E-004  0.2582042E+02  0.7546771E-02  0.1669512E+00
         -1   -1    0    0    0  501 -0.00000000000E+00  0.00000000000E+00  0.15806924599E+04  0.15806924599E+04  0.00000000000E+00 0.  1.
          1   -1    0    0  503    0  0.00000000000E+00 -0.00000000000E+00 -0.12938167053E+03  0.12938167053E+03  0.00000000000E+00 0. -1.
         25    2    1    2    0    0 -0.14142271937E+02  0.21711607936E+02  0.88990515866E+03  0.89901537147E+03  0.12500419574E+03 0.  0.
          4    1    3    3  502    0  0.22811622012E+02  0.11247812821E+02  0.80948757691E+03  0.80988803761E+03  0.12700000000E+01 0.  1.
         -4    1    3    3    0  502 -0.36953893949E+02  0.10463795115E+02  0.80417581752E+02  0.89127333861E+02  0.12700000000E+01 0.  1.
          2    1    1    2  503    0 -0.88041928873E+01 -0.24289304172E+02 -0.12329303022E+03  0.12597085144E+03  0.00000000000E+00 0. -1.
         -2    1    1    2    0  501  0.22946464824E+02  0.25776962361E+01  0.68469866094E+03  0.68508790754E+03  0.00000000000E+00 0.  1.
<mgrwt>
<rscale>  0 0.24417495E+02</rscale>
<asrwt>0</asrwt>
<pdfrwt beam="2">  1        1 0.19904873E-01 0.25820423E+02</pdfrwt>
<pdfrwt beam="1">  1       -1 0.24318344E+00 0.23090794E+02</pdfrwt>
<totfact> 0.26902238E+01</totfact>
</mgrwt>
</event>
<event>
 7    1  0.6493044E-004  0.4835702E+02  0.7546771E-02  0.1525364E+00
          1   -1    0    0  502    0 -0.00000000000E+00  0.00000000000E+00  0.10089372817E+04  0.10089372817E+04  0.00000000000E+00 0. -1.
          2   -1    0    0  503    0  0.00000000000E+00 -0.00000000000E+00 -0.16201105359E+03  0.16201105359E+03  0.00000000000E+00 0. -1.
         25    2    1    2    0    0 -0.20734496752E+02 -0.31186910969E+02  0.11931855944E+03  0.17682327492E+03  0.12500803637E+03 0.  0.
          4    1    3    3  501    0 -0.18234061320E+01  0.11461705629E+02  0.12869213595E+03  0.12922064177E+03  0.12700000000E+01 0. -1.
         -4    1    3    3    0  501 -0.18911090620E+02 -0.42648616598E+02 -0.93735765100E+01  0.47602633149E+02  0.12700000000E+01 0. -1.
          2    1    1    2  502    0 -0.25408973163E+02  0.14962487474E+02  0.85611560848E+03  0.85662327019E+03  0.00000000000E+00 0. -1.
          1    1    1    2  503    0  0.46143469915E+02  0.16224423496E+02 -0.12850793976E+03  0.13750179022E+03  0.00000000000E+00 0. -1.
<mgrwt>
<rscale>  0 0.37761232E+02</rscale>
<asrwt>0</asrwt>
<pdfrwt beam="2">  1        2 0.24924778E-01 0.48357020E+02</pdfrwt>
<pdfrwt beam="1">  1        1 0.15522112E+00 0.29487149E+02</pdfrwt>
<totfact> 0.51015628E+02</totfact>
</mgrwt>
</event>
<event>
 7    1  0.6493044E-004  0.1098129E+03  0.7546771E-02  0.1343425E+00
          2   -1    0    0  503    0  0.00000000000E+00  0.00000000000E+00  0.16272094956E+03  0.16272094956E+03  0.00000000000E+00 0. -1.
          1   -1    0    0  502    0 -0.00000000000E+00 -0.00000000000E+00 -0.87388401738E+03  0.87388401738E+03  0.00000000000E+00 0. -1.
         25    2    1    2    0    0 -0.10464478648E+02 -0.70345438327E+02 -0.89520940421E+02  0.16940180292E+03  0.12499994420E+03 0.  0.
          4    1    3    3  501    0 -0.16645196013E+02 -0.66881488252E+02  0.99701616534E+01  0.69650649993E+02  0.12700000000E+01 0.  1.
         -4    1    3    3    0  501  0.61807173656E+01 -0.34639500750E+01 -0.99491102075E+02  0.99751152922E+02  0.12700000000E+01 0.  1.
          2    1    1    2  502    0 -0.31182434732E+02 -0.40886698331E+02 -0.71455686249E+03  0.71640461756E+03  0.00000000000E+00 0. -1.
          1    1    1    2  503    0  0.41646913379E+02  0.11123213666E+03  0.92914735092E+02  0.15079854647E+03  0.00000000000E+00 0. -1.
<mgrwt>
<rscale>  0 0.75144067E+02</rscale>
<asrwt>0</asrwt>
<pdfrwt beam="1">  1        2 0.25033992E-01 0.10981286E+03</pdfrwt>
<pdfrwt beam="2">  1        1 0.13444369E+00 0.51420486E+02</pdfrwt>
<totfact> 0.62745206E+02</totfact>
</mgrwt>
</event>
<event>
 7    1  0.6493044E-004  0.1102201E+03  0.7546771E-02  0.1305843E+00
         -3   -1    0    0    0  501 -0.00000000000E+00  0.00000000000E+00  0.56251957094E+03  0.56251957094E+03  0.00000000000E+00 0.  1.
          1   -1    0    0  503    0  0.00000000000E+00 -0.00000000000E+00 -0.25956676612E+03  0.25956676612E+03  0.00000000000E+00 0. -1.
         25    2    1    2    0    0  0.12722700944E+03  0.12362990897E+02  0.11552131266E+03  0.21286950982E+03  0.12501479535E+03 0.  0.
          4    1    3    3  502    0  0.10684066384E+03 -0.23092751164E+02  0.12964616272E+03  0.16958167063E+03  0.12700000000E+01 0. -1.
         -4    1    3    3    0  502  0.20386345608E+02  0.35455742061E+02 -0.14124850066E+02  0.43287839190E+02  0.12700000000E+01 0. -1.
          2    1    1    2  503    0 -0.42047322002E+02  0.57834538092E+02 -0.19683060441E+03  0.20941608800E+03  0.00000000000E+00 0. -1.
         -2    1    1    2    0  501 -0.85179687442E+02 -0.70197528988E+02  0.38426209657E+03  0.39980073923E+03  0.00000000000E+00 0.  1.
<mgrwt>
<rscale>  0 0.88775970E+02</rscale>
<asrwt>0</asrwt>
<pdfrwt beam="2">  1        1 0.39933349E-01 0.71503924E+02</pdfrwt>
<pdfrwt beam="1">  1       -3 0.86541472E-01 0.11022014E+03</pdfrwt>
<totfact> 0.70092017E+01</totfact>
</mgrwt>
</event>
<event>
 7    1  0.6493044E-004  0.1052721E+03  0.7546771E-02  0.1387926E+00
          2   -1    0    0  503    0  0.00000000000E+00  0.00000000000E+00  0.39054899402E+03  0.39054899402E+03  0.00000000000E+00 0. -1.
          1   -1    0    0  502    0 -0.00000000000E+00 -0.00000000000E+00 -0.32735543992E+03  0.32735543992E+03  0.00000000000E+00 0. -1.
         25    2    1    2    0    0 -0.96404434272E+02 -0.80956374968E+02 -0.78246092837E+02  0.19389373247E+03  0.12499831539E+03 0.  0.
          4    1    3    3  501    0  0.24798877871E+02  0.88990075577E+01 -0.89151211689E+01  0.27843652143E+02  0.12700000000E+01 0.  1.
         -4    1    3    3    0  501 -0.12120331214E+03 -0.89855382525E+02 -0.69330971668E+02  0.16605008032E+03  0.12700000000E+01 0.  1.
          2    1    1    2  502    0  0.90915947327E+02  0.44347602825E+02 -0.17676386841E+03  0.20366120035E+03  0.00000000000E+00 0. -1.
          1    1    1    2  503    0  0.54884869451E+01  0.36608772143E+02  0.31820351535E+03  0.32034950112E+03  0.00000000000E+00 0. -1.
<mgrwt>
<rscale>  0 0.62425582E+02</rscale>
<asrwt>0</asrwt>
<pdfrwt beam="1">  1        2 0.60084461E-01 0.37017910E+02</pdfrwt>
<pdfrwt beam="2">  1        1 0.50362375E-01 0.10527210E+03</pdfrwt>
<totfact> 0.88363694E+02</totfact>
</mgrwt>
</event>
<event>
 7    1  0.6493044E-004  0.1354088E+03  0.7546771E-02  0.1390123E+00
          2   -1    0    0  503    0  0.00000000000E+00  0.00000000000E+00  0.20719039910E+03  0.20719039910E+03  0.00000000000E+00 0. -1.
          1   -1    0    0  502    0 -0.00000000000E+00 -0.00000000000E+00 -0.10427763539E+04  0.10427763539E+04  0.00000000000E+00 0. -1.
         25    2    1    2    0    0  0.15970357554E+03  0.15955033883E+02  0.10536844806E+03  0.22910254569E+03  0.12500268577E+03 0.  0.
          4    1    3    3  501    0  0.15673531828E+02 -0.43846206428E+02  0.15423953067E+02  0.49067918708E+02  0.12700000000E+01 0.  1.
         -4    1    3    3    0  501  0.14403004371E+03  0.59801240311E+02  0.89944494996E+02  0.18003462698E+03  0.12700000000E+01 0.  1.
          2    1    1    2  502    0 -0.13257997916E+03 -0.23941010885E+02 -0.97059487905E+03  0.97990052665E+03  0.00000000000E+00 0. -1.
          1    1    1    2  503    0 -0.27123596375E+02  0.79859770017E+01  0.29640476158E+02  0.40963680692E+02  0.00000000000E+00 0. -1.
<mgrwt>
<rscale>  0 0.61876157E+02</rscale>
<asrwt>0</asrwt>
<pdfrwt beam="1">  1        2 0.31875446E-01 0.28274818E+02</pdfrwt>
<pdfrwt beam="2">  1        1 0.16042713E+00 0.13540879E+03</pdfrwt>
<totfact> 0.33043059E+02</totfact>
</mgrwt>
</event>
<event>
 7    1  0.6493044E-004  0.2893890E+03  0.7546771E-02  0.1176131E+00
          2   -1    0    0  503    0  0.00000000000E+00  0.00000000000E+00  0.20278851163E+04  0.20278851163E+04  0.00000000000E+00 0. -1.
          1   -1    0    0  502    0 -0.00000000000E+00 -0.00000000000E+00 -0.91147552931E+03  0.91147552931E+03  0.00000000000E+00 0. -1.
         25    2    1    2    0    0 -0.12333611419E+03 -0.36617009205E+03 -0.21816986720E+03  0.46099460493E+03  0.12500240573E+03 0.  0.
          4    1    3    3  501    0 -0.80319727003E+02 -0.80071794255E+02 -0.88908729639E+02  0.14411497454E+03  0.12700000000E+01 0. -1.
         -4    1    3    3    0  501 -0.43016387189E+02 -0.28609829780E+03 -0.12926113756E+03  0.31687963039E+03  0.12700000000E+01 0. -1.
          2    1    1    2  502    0  0.47487961016E+02  0.90069028986E+02 -0.55649718492E+03  0.56573549760E+03  0.00000000000E+00 0. -1.
          1    1    1    2  503    0  0.75848153176E+02  0.27610106307E+03  0.18910766391E+04  0.19126305431E+04  0.00000000000E+00 0. -1.
<mgrwt>
<rscale>  0 0.17165637E+03</rscale>
<asrwt>0</asrwt>
<pdfrwt beam="1">  1        2 0.31198232E+00 0.28938903E+03</pdfrwt>
<pdfrwt beam="2">  1        1 0.14022700E+00 0.10182110E+03</pdfrwt>
<totfact> 0.19447573E+01</totfact>
</mgrwt>
</event>
<event>
 7    1  0.6493044E-004  0.5112577E+02  0.7546771E-02  0.1441254E+00
          1   -1    0    0  502    0 -0.00000000000E+00  0.00000000000E+00  0.54750477737E+03  0.54750477737E+03  0.00000000000E+00 0. -1.
          2   -1    0    0  503    0  0.00000000000E+00 -0.00000000000E+00 -0.10647606446E+04  0.10647606446E+04  0.00000000000E+00 0. -1.
         25    2    1    2    0    0 -0.27624133907E+02 -0.16796843183E+02 -0.18442707124E+03  0.22512883197E+03  0.12499767863E+03 0.  0.
          4    1    3    3  501    0  0.28748710059E+01 -0.59177906945E+02 -0.15323197391E+03  0.16429224048E+03  0.12700000000E+01 0.  1.
         -4    1    3    3    0  501 -0.30499004913E+02  0.42381063763E+02 -0.31195097328E+02  0.60836591486E+02  0.12700000000E+01 0.  1.
          2    1    1    2  502    0 -0.99535423667E+01  0.50396702955E+02  0.52516088824E+03  0.52766737555E+03  0.00000000000E+00 0. -1.
          1    1    1    2  503    0  0.37577676274E+02 -0.33599859772E+02 -0.85798968428E+03  0.85946921449E+03  0.00000000000E+00 0. -1.
<mgrwt>
<rscale>  0 0.50765944E+02</rscale>
<asrwt>0</asrwt>
<pdfrwt beam="2">  1        2 0.16380933E+00 0.50408653E+02</pdfrwt>
<pdfrwt beam="1">  1        1 0.84231505E-01 0.51125768E+02</pdfrwt>
<totfact> 0.15085588E+02</totfact>
</mgrwt>
</event>
<event>
 7    1  0.6493044E-004  0.8071298E+02  0.7546771E-02  0.1401252E+00
          2   -1    0    0  503    0  0.00000000000E+00  0.00000000000E+00  0.73006143444E+03  0.73006143444E+03  0.00000000000E+00 0. -1.
         -2   -1    0    0    0  501 -0.00000000000E+00 -0.00000000000E+00 -0.29799681224E+03  0.29799681224E+03  0.00000000000E+00 0.  1.
         25    2    1    2    0    0  0.37810107149E+02  0.57442502109E+02  0.63335061667E+02  0.15609317002E+03  0.12499800974E+03 0.  0.
          4    1    3    3  502    0 -0.37203782101E+02  0.23094334316E+02  0.58974038943E+02  0.73464412129E+02  0.12700000000E+01 0.  1.
         -4    1    3    3    0  502  0.75013889250E+02  0.34348167793E+02  0.43610227235E+01  0.82628757890E+02  0.12700000000E+01 0.  1.
          1    1    1    2  503    0 -0.35778341494E+02  0.24583352121E+02  0.61287003366E+03  0.61440549239E+03  0.00000000000E+00 0. -1.
         -1    1    1    2    0  501 -0.20317656550E+01 -0.82025854229E+02 -0.24414047312E+03  0.25755958427E+03  0.00000000000E+00 0.  1.
<mgrwt>
<rscale>  0 0.59192510E+02</rscale>
<asrwt>0</asrwt>
<pdfrwt beam="1">  1        2 0.11231714E+00 0.43410032E+02</pdfrwt>
<pdfrwt beam="2">  1       -2 0.45845664E-01 0.80712984E+02</pdfrwt>
<totfact> 0.19450562E+02</totfact>
</mgrwt>
</event>
<event>
 7    1  0.6493044E-004  0.1335590E+03  0.7546771E-02  0.1242382E+00
          1   -1    0    0  502    0 -0.00000000000E+00  0.00000000000E+00  0.14256495782E+04  0.14256495782E+04  0.00000000000E+00 0. -1.
          2   -1    0    0  503    0  0.00000000000E+00 -0.00000000000E+00 -0.13041418340E+04  0.13041418340E+04  0.00000000000E+00 0. -1.
         25    2    1    2    0    0 -0.18057132353E+03 -0.76205099207E+02 -0.44140374412E+03  0.49887517894E+03  0.12500383519E+03 0.  0.
          4    1    3    3  501    0 -0.99952224253E+02 -0.16182687357E+01 -0.10494445695E+03  0.14494142911E+03  0.12700000000E+01 0.  1.
         -4    1    3    3    0  501 -0.80619099275E+02 -0.74586830471E+02 -0.33645928717E+03  0.35393374983E+03  0.12700000000E+01 0.  1.
          2    1    1    2  502    0  0.13170467466E+03 -0.20778955009E+02  0.13901752294E+04  0.13965547088E+04  0.00000000000E+00 0. -1.
          1    1    1    2  503    0  0.48866648872E+02  0.96984054216E+02 -0.82726374110E+03  0.83436152445E+03  0.00000000000E+00 0. -1.
<mgrwt>
<rscale>  0 0.12043439E+03</rscale>
<asrwt>0</asrwt>
<pdfrwt beam="2">  1        2 0.20063721E+00 0.10859952E+03</pdfrwt>
<pdfrwt beam="1">  1        1 0.21933070E+00 0.13355899E+03</pdfrwt>
<totfact> 0.21829013E+01</totfact>
</mgrwt>
</event>
<event>
 7    1  0.6493044E-004  0.5142949E+02  0.7546771E-02  0.1439692E+00
          1   -1    0    0  502    0 -0.00000000000E+00  0.00000000000E+00  0.13927407893E+04  0.13927407893E+04  0.00000000000E+00 0. -1.
          2   -1    0    0  503    0  0.00000000000E+00 -0.00000000000E+00 -0.50069252786E+02  0.50069252786E+02  0.00000000000E+00 0. -1.
         25    2    1    2    0    0 -0.11270234800E+02  0.31701490400E+02  0.51198623915E+02  0.13920377949E+03  0.12499756177E+03 0.  0.
          4    1    3    3  501    0  0.18950205797E+02  0.72750114386E+02  0.45533372301E+02  0.87901025796E+02  0.12700000000E+01 0. -1.
         -4    1    3    3    0  501 -0.30220440597E+02 -0.41048623986E+02  0.56652516137E+01  0.51302753697E+02  0.12700000000E+01 0. -1.
          2    1    1    2  502    0  0.51919230421E+02 -0.14025140283E+01  0.11800366701E+04  0.11811791211E+04  0.00000000000E+00 0. -1.
          1    1    1    2  503    0 -0.40648995621E+02 -0.30298976372E+02  0.11143624259E+03  0.12242714150E+03  0.00000000000E+00 0. -1.
<mgrwt>
<rscale>  0 0.51062841E+02</rscale>
<asrwt>0</asrwt>
<pdfrwt beam="2">  1        2 0.77029630E-02 0.50698805E+02</pdfrwt>
<pdfrwt beam="1">  1        1 0.21426778E+00 0.51429490E+02</pdfrwt>
<totfact> 0.10518492E+03</totfact>
</mgrwt>
</event>
<event>
 7    1  0.6493044E-004  0.1233029E+03  0.7546771E-02  0.1287033E+00
          1   -1    0    0  502    0 -0.00000000000E+00  0.00000000000E+00  0.11307199906E+03  0.11307199906E+03  0.00000000000E+00 0. -1.
          2   -1    0    0  503    0  0.00000000000E+00 -0.00000000000E+00 -0.45080658426E+03  0.45080658426E+03  0.00000000000E+00 0. -1.
         25    2    1    2    0    0 -0.81778263008E+02  0.10141914107E+03 -0.53428633071E+02  0.18828138848E+03  0.12498694307E+03 0.  0.
          4    1    3    3  501    0 -0.29161093842E+02 -0.26538889108E+02  0.13483470169E+01  0.39472939703E+02  0.12700000000E+01 0. -1.
         -4    1    3    3    0  501 -0.52617169167E+02  0.12795803018E+03 -0.54776980088E+02  0.14880844877E+03  0.12700000000E+01 0. -1.
          2    1    1    2  502    0  0.10288750612E+02 -0.12748558894E+03 -0.65008503605E+02  0.14347313100E+03  0.00000000000E+00 0. -1.
          1    1    1    2  503    0  0.71489512396E+02  0.26066447871E+02 -0.21929744852E+03  0.23212406385E+03  0.00000000000E+00 0. -1.
<mgrwt>
<rscale>  0 0.96863529E+02</rscale>
<asrwt>0</asrwt>
<pdfrwt beam="2">  1        2 0.69354859E-01 0.76093430E+02</pdfrwt>
<pdfrwt beam="1">  1        1 0.17395692E-01 0.12330294E+03</pdfrwt>
<totfact> 0.28576157E+03</totfact>
</mgrwt>
</event>
<event>
 7    1  0.6493044E-004  0.4731134E+02  0.7546771E-02  0.1504062E+00
          2   -1    0    0  503    0  0.00000000000E+00  0.00000000000E+00  0.13689506037E+04  0.13689506037E+04  0.00000000000E+00 0. -1.
          1   -1    0    0  502    0 -0.00000000000E+00 -0.00000000000E+00 -0.26416174452E+03  0.26416174452E+03  0.00000000000E+00 0. -1.
         25    2    1    2    0    0 -0.75773013667E+02  0.31772438353E+01  0.28202232079E+02  0.14890315766E+03  0.12500055995E+03 0.  0.
          4    1    3    3  501    0 -0.99923837618E+02 -0.60103640423E+01 -0.12277574827E+02  0.10086252795E+03  0.12700000000E+01 0. -1.
         -4    1    3    3    0  501  0.24150823951E+02  0.91876078775E+01  0.40479806906E+02  0.48040629712E+02  0.12700000000E+01 0. -1.
          2    1    1    2  502    0  0.44804842602E+02  0.12672069724E+02 -0.20091200609E+03  0.20623697405E+03  0.00000000000E+00 0. -1.
          1    1    1    2  503    0  0.30968171064E+02 -0.15849313559E+02  0.12774986332E+04  0.12779722165E+04  0.00000000000E+00 0. -1.
<mgrwt>
<rscale>  0 0.40569480E+02</rscale>
<asrwt>0</asrwt>
<pdfrwt beam="1">  1        2 0.21060778E+00 0.34788337E+02</pdfrwt>
<pdfrwt beam="2">  1        1 0.40640269E-01 0.47311336E+02</pdfrwt>
<totfact> 0.26105824E+02</totfact>
</mgrwt>
</event>
<event>
 7    1  0.6493044E-004  0.8765413E+02  0.7546771E-02  0.1440122E+00
          1   -1    0    0  502    0 -0.00000000000E+00  0.00000000000E+00  0.88159418384E+03  0.88159418384E+03  0.00000000000E+00 0. -1.
          2   -1    0    0  503    0  0.00000000000E+00 -0.00000000000E+00 -0.13780061081E+03  0.13780061081E+03  0.00000000000E+00 0. -1.
         25    2    1    2    0    0  0.32520914924E+02 -0.62650916940E+02  0.22928221409E+03  0.27051185894E+03  0.12499433919E+03 0.  0.
          4    1    3    3  501    0  0.20304856630E+02 -0.15208888952E+02  0.21896267479E+03  0.22043108527E+03  0.12700000000E+01 0.  1.
         -4    1    3    3    0  501  0.12216058294E+02 -0.47442027988E+02  0.10319539308E+02  0.50080773670E+02  0.12700000000E+01 0.  1.
          2    1    1    2  502    0 -0.61948308504E+02  0.66287349954E+02  0.62649998611E+03  0.63303541629E+03  0.00000000000E+00 0. -1.
          1    1    1    2  503    0  0.29427393581E+02 -0.36364330140E+01 -0.11198862717E+03  0.11584751941E+03  0.00000000000E+00 0. -1.
<mgrwt>
<rscale>  0 0.50980901E+02</rscale>
<asrwt>0</asrwt>
<pdfrwt beam="2">  1        2 0.21200095E-01 0.29651225E+02</pdfrwt>
<pdfrwt beam="1">  1        1 0.13562987E+00 0.87654129E+02</pdfrwt>
<totfact> 0.68322863E+02</totfact>
</mgrwt>
</event>
<event>
 7    1  0.6493044E-004  0.3711902E+02  0.7546771E-02  0.1573884E+00
          2   -1    0    0  503    0  0.00000000000E+00  0.00000000000E+00  0.44984053152E+03  0.44984053152E+03  0.00000000000E+00 0. -1.
          1   -1    0    0  502    0 -0.00000000000E+00 -0.00000000000E+00 -0.30335677813E+03  0.30335677813E+03  0.00000000000E+00 0. -1.
         25    2    1    2    0    0 -0.44477865164E+02  0.30221879620E+01  0.32012887304E+03  0.34654691160E+03  0.12499940992E+03 0.  0.
          4    1    3    3  501    0  0.85525437355E+01  0.56472310740E+02  0.14926278958E+03  0.15982259270E+03  0.12700000000E+01 0. -1.
         -4    1    3    3    0  501 -0.53030408900E+02 -0.53450122778E+02  0.17086608346E+03  0.18672431891E+03  0.12700000000E+01 0. -1.
          2    1    1    2  502    0  0.17167029523E+02  0.22274429151E+02 -0.28646780112E+03  0.28784485088E+03  0.00000000000E+00 0. -1.
          1    1    1    2  503    0  0.27310835641E+02 -0.25296617113E+02  0.11282268147E+03  0.11880554716E+03  0.00000000000E+00 0. -1.
<mgrwt>
<rscale>  0 0.32308943E+02</rscale>
<asrwt>0</asrwt>
<pdfrwt beam="1">  1        2 0.69206236E-01 0.37119020E+02</pdfrwt>
<pdfrwt beam="2">  1        1 0.46670274E-01 0.28122182E+02</pdfrwt>
<totfact> 0.83641451E+02</totfact>
</mgrwt>
</event>
<event>
 7    1  0.6493044E-004  0.2345733E+03  0.7546771E-02  0.1205452E+00
         -1   -1    0    0    0  501 -0.00000000000E+00  0.00000000000E+00  0.65150414577E+03  0.65150414577E+03  0.00000000000E+00 0.  1.
          1   -1    0    0  503    0  0.00000000000E+00 -0.00000000000E+00 -0.29022508399E+03  0.29022508399E+03  0.00000000000E+00 0. -1.
         25    2    1    2    0    0 -0.14593849336E+03 -0.15361317791E+03 -0.17568478018E+02  0.24663655985E+03  0.12500355580E+03 0.  0.
          4    1    3    3  502    0 -0.10310472416E+03 -0.16556816433E+03  0.82002072126E+01  0.19522360893E+03  0.12700000000E+01 0.  1.
         -4    1    3    3    0  502 -0.42833769197E+02  0.11954986423E+02 -0.25768685230E+02  0.51412950922E+02  0.12700000000E+01 0.  1.
          2    1    1    2  503    0 -0.74127292493E+02  0.52602574699E+02 -0.11410337906E+03  0.14588168998E+03  0.00000000000E+00 0. -1.
         -2    1    1    2    0  501  0.22006578585E+03  0.10101060321E+03  0.49295091886E+03  0.54921097993E+03  0.00000000000E+00 0.  1.
<mgrwt>
<rscale>  0 0.14601892E+03</rscale>
<asrwt>0</asrwt>
<pdfrwt beam="2">  1        1 0.44650013E-01 0.90894919E+02</pdfrwt>
<pdfrwt beam="1">  1       -1 0.10023141E+00 0.23457334E+03</pdfrwt>
<totfact> 0.93213598E+01</totfact>
</mgrwt>
</event>
<event>
 7    1  0.6493044E-004  0.7056391E+02  0.7546771E-02  0.1360030E+00
         -1   -1    0    0    0  501 -0.00000000000E+00  0.00000000000E+00  0.87674802018E+03  0.87674802018E+03  0.00000000000E+00 0.  1.
          1   -1    0    0  503    0  0.00000000000E+00 -0.00000000000E+00 -0.35320443935E+03  0.35320443935E+03  0.00000000000E+00 0. -1.
         25    2    1    2    0    0 -0.10175759014E+02  0.79218223597E+02  0.59370010046E+02  0.15977659841E+03  0.12499876113E+03 0.  0.
          4    1    3    3  502    0  0.34970978564E+02  0.61907731110E+02 -0.13432585663E+02  0.72371152889E+02  0.12700000000E+01 0. -1.
         -4    1    3    3    0  502 -0.45146737577E+02  0.17310492487E+02  0.72802595710E+02  0.87405445517E+02  0.12700000000E+01 0. -1.
          2    1    1    2  503    0 -0.52613883938E+02 -0.45375046515E+02 -0.29732966316E+03  0.30533922811E+03  0.00000000000E+00 0. -1.
         -2    1    1    2    0  501  0.62789642952E+02 -0.33843177082E+02  0.76150323394E+03  0.76483663301E+03  0.00000000000E+00 0.  1.
<mgrwt>
<rscale>  0 0.70018573E+02</rscale>
<asrwt>0</asrwt>
<pdfrwt beam="2">  1        1 0.54339145E-01 0.69477447E+02</pdfrwt>
<pdfrwt beam="1">  1       -1 0.13488431E+00 0.70563914E+02</pdfrwt>
<totfact> 0.39130834E+01</totfact>
</mgrwt>
</event>
<event>
 7    1  0.6493044E-004  0.1002926E+03  0.7546771E-02  0.1288687E+00
          1   -1    0    0  502    0 -0.00000000000E+00  0.00000000000E+00  0.45145124226E+02  0.45145124226E+02  0.00000000000E+00 0. -1.
          2   -1    0    0  503    0  0.00000000000E+00 -0.00000000000E+00 -0.25265297777E+04  0.25265297777E+04  0.00000000000E+00 0. -1.
         25    2    1    2    0    0  0.12906474703E+03 -0.80259216773E+02 -0.72420959164E+03  0.75046858047E+03  0.12499722734E+03 0.  0.
          4    1    3    3  501    0  0.43050630115E+02 -0.18359268955E+02 -0.50308631831E+03  0.50526020631E+03  0.12700000000E+01 0. -1.
         -4    1    3    3    0  501  0.86014116913E+02 -0.61899947818E+02 -0.22112327332E+03  0.24520837415E+03  0.12700000000E+01 0. -1.
          2    1    1    2  502    0 -0.37468324142E+02  0.89965975245E+02 -0.46373671074E+02  0.10792714851E+03  0.00000000000E+00 0. -1.
          1    1    1    2  503    0 -0.91596422886E+02 -0.97067584722E+01 -0.17108013907E+04  0.17132791729E+04  0.00000000000E+00 0. -1.
<mgrwt>
<rscale>  0 0.96113902E+02</rscale>
<asrwt>0</asrwt>
<pdfrwt beam="2">  1        2 0.38869679E+00 0.92109315E+02</pdfrwt>
<pdfrwt beam="1">  1        1 0.69454054E-02 0.10029259E+03</pdfrwt>
<totfact> 0.59608773E+02</totfact>
</mgrwt>
</event>
<event>
 7    1  0.6493044E-004  0.7793333E+02  0.7546771E-02  0.1353542E+00
          2   -1    0    0  503    0  0.00000000000E+00  0.00000000000E+00  0.13612941593E+04  0.13612941593E+04  0.00000000000E+00 0. -1.
          1   -1    0    0  502    0 -0.00000000000E+00 -0.00000000000E+00 -0.89097991952E+03  0.89097991952E+03  0.00000000000E+00 0. -1.
         25    2    1    2    0    0  0.18172341273E+02  0.10945947515E+02 -0.17343560245E+03  0.21483861543E+03  0.12500269888E+03 0.  0.
          4    1    3    3  501    0  0.28678406870E+02  0.62340166417E+02 -0.12882178810E+03  0.14596373988E+03  0.12700000000E+01 0.  1.
         -4    1    3    3    0  501 -0.10506065597E+02 -0.51394218902E+02 -0.44613814350E+02  0.68874875548E+02  0.12700000000E+01 0.  1.
          2    1    1    2  502    0 -0.49168196745E+02 -0.69724178794E+02 -0.69340324851E+03  0.69863226216E+03  0.00000000000E+00 0. -1.
          1    1    1    2  503    0  0.30995855472E+02  0.58778231279E+02  0.13371530908E+04  0.13388032013E+04  0.00000000000E+00 0. -1.
<mgrwt>
<rscale>  0 0.71963060E+02</rscale>
<asrwt>0</asrwt>
<pdfrwt beam="1">  1        2 0.20942987E+00 0.66450158E+02</pdfrwt>
<pdfrwt beam="2">  1        1 0.13707383E+00 0.77933327E+02</pdfrwt>
<totfact> 0.51413491E+01</totfact>
</mgrwt>
</event>
<event>
 7    1  0.6493044E-004  0.7037382E+02  0.7546771E-02  0.1460076E+00
          2   -1    0    0  503    0  0.00000000000E+00  0.00000000000E+00  0.14429096158E+04  0.14429096158E+04  0.00000000000E+00 0. -1.
          1   -1    0    0  502    0 -0.00000000000E+00 -0.00000000000E+00 -0.97241842934E+03  0.97241842934E+03  0.00000000000E+00 0. -1.
         25    2    1    2    0    0 -0.22609366783E+02  0.66770467114E+02  0.57473013012E+03  0.59237512534E+03  0.12499635159E+03 0.  0.
          4    1    3    3  501    0  0.10793110291E+02 -0.28510260350E+02  0.54713295911E+02  0.62645700765E+02  0.12700000000E+01 0.  1.
         -4    1    3    3    0  501 -0.33402477074E+02  0.95280727464E+02  0.52001683420E+03  0.52972942457E+03  0.12700000000E+01 0.  1.
          2    1    1    2  502    0  0.31625916954E+02  0.40433516297E+01 -0.96184885816E+03  0.96237714710E+03  0.00000000000E+00 0. -1.
          1    1    1    2  503    0 -0.90165501710E+01 -0.70813818744E+02  0.85760991446E+03  0.86057577266E+03  0.00000000000E+00 0. -1.
<mgrwt>
<rscale>  0 0.47368263E+02</rscale>
<asrwt>0</asrwt>
<pdfrwt beam="1">  1        2 0.22198609E+00 0.70373818E+02</pdfrwt>
<pdfrwt beam="2">  1        1 0.14960284E+00 0.31883339E+02</pdfrwt>
<totfact> 0.42938014E+01</totfact>
</mgrwt>
</event>
<event>
 7    1  0.6493044E-004  0.3915811E+02  0.7546771E-02  0.1600157E+00
          2   -1    0    0  503    0  0.00000000000E+00  0.00000000000E+00  0.24752381536E+03  0.24752381536E+03  0.00000000000E+00 0. -1.
          1   -1    0    0  502    0 -0.00000000000E+00 -0.00000000000E+00 -0.76002072651E+03  0.76002072651E+03  0.00000000000E+00 0. -1.
         25    2    1    2    0    0  0.42645569755E+02  0.33267232736E+02 -0.40988559702E+03  0.43192378664E+03  0.12500640556E+03 0.  0.
          4    1    3    3  501    0 -0.54363064558E+01  0.38081545019E+02 -0.29537685964E+02  0.48516443512E+02  0.12700000000E+01 0. -1.
         -4    1    3    3    0  501  0.48081876211E+02 -0.48143122824E+01 -0.38034791105E+03  0.38340734313E+03  0.12700000000E+01 0. -1.
          2    1    1    2  502    0 -0.51569780065E+01 -0.22105639031E+02 -0.33711446854E+03  0.33787781608E+03  0.00000000000E+00 0. -1.
          1    1    1    2  503    0 -0.37488591749E+02 -0.11161593706E+02  0.23450315441E+03  0.23774293915E+03  0.00000000000E+00 0. -1.
<mgrwt>
<rscale>  0 0.29813718E+02</rscale>
<asrwt>0</asrwt>
<pdfrwt beam="1">  1        2 0.38080587E-01 0.39158109E+02</pdfrwt>
<pdfrwt beam="2">  1        1 0.11692626E+00 0.22699200E+02</pdfrwt>
<totfact> 0.50092236E+02</totfact>
</mgrwt>
</event>
<event>
 7    1  0.6493044E-004  0.1676617E+03  0.7546771E-02  0.1203458E+00
          1   -1    0    0  502    0 -0.00000000000E+00  0.00000000000E+00  0.23683834342E+04  0.23683834342E+04  0.00000000000E+00 0. -1.
          2   -1    0    0  503    0  0.00000000000E+00 -0.00000000000E+00 -0.33982173556E+03  0.33982173556E+03  0.00000000000E+00 0. -1.
         25    2    1    2    0    0 -0.24304043819E+03 -0.14628094166E+03  0.49559814538E+02  0.31392016419E+03  0.12499170285E+03 0.  0.
          4    1    3    3  501    0 -0.11937920127E+03 -0.53682297818E+02 -0.38045715333E+02  0.13631680803E+03  0.12700000000E+01 0. -1.
         -4    1    3    3    0  501 -0.12366123692E+03 -0.92598643837E+02  0.87605529871E+02  0.17760335617E+03  0.12700000000E+01 0. -1.
          2    1    1    2  502    0  0.11644080446E+03  0.11703987137E+03  0.21628582607E+04  0.21691502134E+04  0.00000000000E+00 0. -1.
          1    1    1    2  503    0  0.12659963373E+03  0.29241070286E+02 -0.18385637657E+03  0.22513479220E+03  0.00000000000E+00 0. -1.
<mgrwt>
<rscale>  0 0.14759652E+03</rscale>
<asrwt>0</asrwt>
<pdfrwt beam="2">  1        2 0.52280269E-01 0.12993270E+03</pdfrwt>
<pdfrwt beam="1">  1        1 0.36436667E+00 0.16766167E+03</pdfrwt>
<totfact> 0.26967796E+01</totfact>
</mgrwt>
</event>
<event>
 7    1  0.6493044E-004  0.1128078E+03  0.7546771E-02  0.1314772E+00
          1   -1    0    0  502    0 -0.00000000000E+00  0.00000000000E+00  0.10393590678E+04  0.10393590678E+04  0.00000000000E+00 0. -1.
          2   -1    0    0  503    0  0.00000000000E+00 -0.00000000000E+00 -0.52606959554E+03  0.52606959554E+03  0.00000000000E+00 0. -1.
         25    2    1    2    0    0 -0.13463141235E+03 -0.29828535865E+02  0.15380672005E+02  0.18675373544E+03  0.12500013554E+03 0.  0.
          4    1    3    3  501    0 -0.12176044357E+03 -0.13400282817E+02 -0.38944721821E+02  0.12854367917E+03  0.12700000000E+01 0. -1.
         -4    1    3    3    0  501 -0.12870968781E+02 -0.16428253048E+02  0.54325393826E+02  0.58210056261E+02  0.12700000000E+01 0. -1.
          2    1    1    2  502    0  0.48743721761E+02 -0.42131987817E+02  0.93003195506E+03  0.93226095716E+03  0.00000000000E+00 0. -1.
          1    1    1    2  503    0  0.85887690589E+02  0.71960523682E+02 -0.43212315481E+03  0.44641397075E+03  0.00000000000E+00 0. -1.
<mgrwt>
<rscale>  0 0.85252899E+02</rscale>
<asrwt>0</asrwt>
<pdfrwt beam="2">  1        2 0.80933785E-01 0.11280779E+03</pdfrwt>
<pdfrwt beam="1">  1        1 0.15990139E+00 0.64428680E+02</pdfrwt>
<totfact> 0.13434420E+02</totfact>
</mgrwt>
</event>
<event>
 7    1  0.6493044E-004  0.9743566E+02  0.7546771E-02  0.1332270E+00
          1   -1    0    0  502    0 -0.00000000000E+00  0.00000000000E+00  0.32860103341E+03  0.32860103341E+03  0.00000000000E+00 0. -1.
          2   -1    0    0  503    0  0.00000000000E+00 -0.00000000000E+00 -0.23265248394E+04  0.23265248394E+04  0.00000000000E+00 0. -1.
         25    2    1    2    0    0  0.60405493821E+02 -0.11422692869E+03 -0.39915462400E+03  0.43777424515E+03  0.12500104372E+03 0.  0.
          4    1    3    3  501    0 -0.29479387365E+02 -0.62096709974E+02 -0.22188352080E+03  0.23229064848E+03  0.12700000000E+01 0. -1.
         -4    1    3    3    0  501  0.89884881186E+02 -0.52130218713E+02 -0.17727110320E+03  0.20548359667E+03  0.12700000000E+01 0. -1.
          2    1    1    2  502    0 -0.80905736998E+02  0.53754705311E+02  0.30111507072E+03  0.31639467827E+03  0.00000000000E+00 0. -1.
          1    1    1    2  503    0  0.20500243177E+02  0.60472223376E+02 -0.18998842527E+04  0.19009569494E+04  0.00000000000E+00 0. -1.
<mgrwt>
<rscale>  0 0.78876590E+02</rscale>
<asrwt>0</asrwt>
<pdfrwt beam="2">  1        2 0.35792690E+00 0.63852563E+02</pdfrwt>
<pdfrwt beam="1">  1        1 0.50554005E-01 0.97435658E+02</pdfrwt>
<totfact> 0.63931475E+01</totfact>
</mgrwt>
</event>
<event>
 7    1  0.6493044E-004  0.2674508E+02  0.7546771E-02  0.1675331E+00
          2   -1    0    0  503    0  0.00000000000E+00  0.00000000000E+00  0.85623210113E+02  0.85623210113E+02  0.00000000000E+00 0. -1.
         -2   -1    0    0    0  501 -0.00000000000E+00 -0.00000000000E+00 -0.26398207727E+03  0.26398207727E+03  0.00000000000E+00 0.  1.
         25    2    1    2    0    0  0.22190409809E+02 -0.80795391260E+01 -0.16339576654E+03  0.20708027906E+03  0.12500548873E+03 0.  0.
          4    1    3    3  502    0  0.40415154890E+02 -0.17926682986E+02 -0.19159692582E+01  0.44272277396E+02  0.12700000000E+01 0. -1.
         -4    1    3    3    0  502 -0.18224745080E+02  0.98471438605E+01 -0.16147979728E+03  0.16280800166E+03  0.12700000000E+01 0. -1.
          1    1    1    2  503    0 -0.91813720200E+01  0.25311943097E+02  0.59332143708E+02  0.65155930908E+02  0.00000000000E+00 0. -1.
         -1    1    1    2    0  501 -0.13009037789E+02 -0.17232403971E+02 -0.74295244331E+02  0.77369077421E+02  0.00000000000E+00 0.  1.
<mgrwt>
<rscale>  0 0.24030506E+02</rscale>
<asrwt>0</asrwt>
<pdfrwt beam="1">  1        2 0.13172802E-01 0.26745084E+02</pdfrwt>
<pdfrwt beam="2">  1       -2 0.40612626E-01 0.21591452E+02</pdfrwt>
<totfact> 0.22337519E+03</totfact>
</mgrwt>
</event>
<event>
 7    1  0.6493044E-004  0.1242623E+03  0.7546771E-02  0.1331429E+00
          2   -1    0    0  503    0  0.00000000000E+00  0.00000000000E+00  0.34964541167E+04  0.34964541167E+04  0.00000000000E+00 0. -1.
          1   -1    0    0  502    0 -0.00000000000E+00 -0.00000000000E+00 -0.52804360014E+02  0.52804360014E+02  0.00000000000E+00 0. -1.
         25    2    1    2    0    0  0.66138745268E+02  0.37474037381E+02  0.18847759113E+04  0.18904456158E+04  0.12500301429E+03 0.  0.
          4    1    3    3  501    0  0.82562833640E+02  0.50490852838E+02  0.85581022261E+03  0.86126575326E+03  0.12700000000E+01 0. -1.
         -4    1    3    3    0  501 -0.16424088371E+02 -0.13016815457E+02  0.10289656887E+04  0.10291798626E+04  0.12700000000E+01 0. -1.
          2    1    1    2  502    0 -0.10749761112E+03 -0.66344198937E+02  0.30952219414E+02  0.13005894439E+03  0.00000000000E+00 0. -1.
          1    1    1    2  503    0  0.41358865851E+02  0.28870161556E+02  0.15279216260E+04  0.15287539165E+04  0.00000000000E+00 0. -1.
<mgrwt>
<rscale>  0 0.79168207E+02</rscale>
<asrwt>0</asrwt>
<pdfrwt beam="1">  1        2 0.53791584E+00 0.50438497E+02</pdfrwt>
<pdfrwt beam="2">  1        1 0.81237504E-02 0.12426233E+03</pdfrwt>
<totfact> 0.15325278E+02</totfact>
</mgrwt>
</event>
<event>
 7    1  0.6493044E-004  0.8347938E+02  0.7546771E-02  0.1367007E+00
          2   -1    0    0  503    0  0.00000000000E+00  0.00000000000E+00  0.39876915909E+03  0.39876915909E+03  0.00000000000E+00 0. -1.
          1   -1    0    0  502    0 -0.00000000000E+00 -0.00000000000E+00 -0.99041262947E+03  0.99041262947E+03  0.00000000000E+00 0. -1.
         25    2    1    2    0    0  0.27893267263E+02  0.13182922087E+03  0.39024339737E+02  0.18789347340E+03  0.12499632164E+03 0.  0.
          4    1    3    3  501    0 -0.32846504528E+02  0.11443783988E+03  0.36947242463E+02  0.12466604863E+03  0.12700000000E+01 0. -1.
         -4    1    3    3    0  501  0.60739771791E+02  0.17391380986E+02  0.20770972735E+01  0.63227424769E+02  0.12700000000E+01 0. -1.
          2    1    1    2  502    0 -0.31260680897E+02 -0.76530296054E+02 -0.91140008132E+03  0.91514164183E+03  0.00000000000E+00 0. -1.
          1    1    1    2  503    0  0.33674136333E+01 -0.55298924812E+02  0.28073227120E+03  0.28614667332E+03  0.00000000000E+00 0. -1.
<mgrwt>
<rscale>  0 0.68006403E+02</rscale>
<asrwt>0</asrwt>
<pdfrwt beam="1">  1        2 0.61349102E-01 0.55401359E+02</pdfrwt>
<pdfrwt beam="2">  1        1 0.15237117E+00 0.83479375E+02</pdfrwt>
<totfact> 0.19326783E+02</totfact>
</mgrwt>
</event>
<event>
 7    1  0.6493044E-004  0.5049343E+02  0.7546771E-02  0.1488113E+00
          1   -1    0    0  502    0 -0.00000000000E+00  0.00000000000E+00  0.11196200639E+04  0.11196200639E+04  0.00000000000E+00 0. -1.
          2   -1    0    0  503    0  0.00000000000E+00 -0.00000000000E+00 -0.52298463367E+02  0.52298463367E+02  0.00000000000E+00 0. -1.
         25    2    1    2    0    0 -0.23165605596E+02  0.62023966763E+02  0.31092116727E+03  0.34158513155E+03  0.12499924841E+03 0.  0.
          4    1    3    3  501    0 -0.46171425164E+02  0.21309838935E+02  0.28207511515E+03  0.28662500453E+03  0.12700000000E+01 0.  1.
         -4    1    3    3    0  501  0.23005819567E+02  0.40714127828E+02  0.28846052125E+02  0.54960127019E+02  0.12700000000E+01 0.  1.
          2    1    1    2  502    0  0.33986617316E+02 -0.13013160011E+02  0.77570465098E+03  0.77655787810E+03  0.00000000000E+00 0. -1.
          1    1    1    2  503    0 -0.10821011719E+02 -0.49010806752E+02 -0.19304217718E+02  0.53775517616E+02  0.00000000000E+00 0. -1.
<mgrwt>
<rscale>  0 0.42867176E+02</rscale>
<asrwt>0</asrwt>
<pdfrwt beam="2">  1        2 0.80459183E-02 0.50493426E+02</pdfrwt>
<pdfrwt beam="1">  1        1 0.17224922E+00 0.36392753E+02</pdfrwt>
<totfact> 0.15406557E+03</totfact>
</mgrwt>
</event>
<event>
 7    1  0.6493044E-004  0.9818961E+02  0.7546771E-02  0.1406786E+00
          2   -1    0    0  503    0  0.00000000000E+00  0.00000000000E+00  0.12734084668E+04  0.12734084668E+04  0.00000000000E+00 0. -1.
         -2   -1    0    0    0  501 -0.00000000000E+00 -0.00000000000E+00 -0.11588929961E+03  0.11588929961E+03  0.00000000000E+00 0.  1.
         25    2    1    2    0    0 -0.62831912200E+02 -0.22376171726E+02  0.29151981410E+03  0.32412876910E+03  0.12500845850E+03 0.  0.
          4    1    3    3  502    0 -0.31736411482E+02 -0.25768122781E+02  0.28991090237E+03  0.29278172787E+03  0.12700000000E+01 0. -1.
         -4    1    3    3    0  502 -0.31095500718E+02  0.33919510545E+01  0.16089117315E+01  0.31347041229E+02  0.12700000000E+01 0. -1.
          1    1    1    2  503    0 -0.31341975304E+02 -0.13592813404E+02  0.93968186696E+03  0.94030266143E+03  0.00000000000E+00 0. -1.
         -1    1    1    2    0  501  0.94173887504E+02  0.35968985131E+02 -0.73682513885E+02  0.12486633586E+03  0.00000000000E+00 0.  1.
<mgrwt>
<rscale>  0 0.57917299E+02</rscale>
<asrwt>0</asrwt>
<pdfrwt beam="1">  1        2 0.19590899E+00 0.34162611E+02</pdfrwt>
<pdfrwt beam="2">  1       -2 0.17829124E-01 0.98189613E+02</pdfrwt>
<totfact> 0.51855576E+02</totfact>
</mgrwt>
</event>
<event>
 7    1  0.6493044E-004  0.5260456E+02  0.7546771E-02  0.1436827E+00
          2   -1    0    0  503    0  0.00000000000E+00  0.00000000000E+00  0.13283121702E+04  0.13283121702E+04  0.00000000000E+00 0. -1.
         -2   -1    0    0    0  501 -0.00000000000E+00 -0.00000000000E+00 -0.68065275786E+02  0.68065275786E+02  0.00000000000E+00 0.  1.
         25    2    1    2    0    0 -0.91833558177E+02 -0.34738651562E+01  0.12855864107E+03  0.20148241890E+03  0.12498948269E+03 0.  0.
          4    1    3    3  502    0 -0.40809291400E+02  0.44372784467E+02  0.63062485400E+01  0.60627748900E+02  0.12700000000E+01 0. -1.
         -4    1    3    3    0  502 -0.51024266777E+02 -0.47846649624E+02  0.12225239253E+03  0.14085467000E+03  0.12700000000E+01 0. -1.
          1    1    1    2  503    0  0.47607902059E+02 -0.21197031225E+02  0.11420215967E+04  0.11432100218E+04  0.00000000000E+00 0. -1.
         -1    1    1    2    0  501  0.44225656119E+02  0.24670896381E+02 -0.10333343406E+02  0.51685005305E+02  0.00000000000E+00 0.  1.
<mgrwt>
<rscale>  0 0.51613698E+02</rscale>
<asrwt>0</asrwt>
<pdfrwt beam="1">  1        2 0.20435570E+00 0.52604558E+02</pdfrwt>
<pdfrwt beam="2">  1       -2 0.10471582E-01 0.50641503E+02</pdfrwt>
<totfact> 0.10553384E+03</totfact>
</mgrwt>
</event>
<event>
 7    1  0.6493044E-004  0.5793269E+02  0.7546771E-02  0.1455799E+00
          1   -1    0    0  502    0 -0.00000000000E+00  0.00000000000E+00  0.42705557344E+02  0.42705557344E+02  0.00000000000E+00 0. -1.
          2   -1    0    0  503    0  0.00000000000E+00 -0.00000000000E+00 -0.62629333639E+03  0.62629333639E+03  0.00000000000E+00 0. -1.
         25    2    1    2    0    0  0.69293682335E+01 -0.90197285945E+02 -0.37218592001E+03  0.40289423384E+03  0.12497134902E+03 0.  0.
          4    1    3    3  501    0  0.57587344988E+02 -0.33102140689E+02 -0.98869645703E+02  0.11911705907E+03  0.12700000000E+01 0. -1.
         -4    1    3    3    0  501 -0.50657976755E+02 -0.57095145256E+02 -0.27331627430E+03  0.28377717477E+03  0.12700000000E+01 0. -1.
          2    1    1    2  502    0  0.42732969086E+01  0.39727092206E+02  0.79528196056E+01  0.40740032662E+02  0.00000000000E+00 0. -1.
          1    1    1    2  503    0 -0.11202665142E+02  0.50470193740E+02 -0.21935467864E+03  0.22536462723E+03  0.00000000000E+00 0. -1.
<mgrwt>
<rscale>  0 0.48112098E+02</rscale>
<asrwt>0</asrwt>
<pdfrwt beam="2">  1        2 0.96352818E-01 0.57932694E+02</pdfrwt>
<pdfrwt beam="1">  1        1 0.65700859E-02 0.39956263E+02</pdfrwt>
<totfact> 0.65715626E+03</totfact>
</mgrwt>
</event>
<event>
 7    1  0.6493044E-004  0.1809929E+03  0.7546771E-02  0.1226916E+00
          2   -1    0    0  503    0  0.00000000000E+00  0.00000000000E+00  0.13693991257E+04  0.13693991257E+04  0.00000000000E+00 0. -1.
          1   -1    0    0  502    0 -0.00000000000E+00 -0.00000000000E+00 -0.56578725875E+03  0.56578725875E+03  0.00000000000E+00 0. -1.
         25    2    1    2    0    0 -0.48151908538E+02  0.98363326783E+02  0.18877389443E+03  0.25150499863E+03  0.12500092305E+03 0.  0.
          4    1    3    3  501    0 -0.86325328420E+02  0.45692986224E+02  0.87541184422E+02  0.13116776733E+03  0.12700000000E+01 0. -1.
         -4    1    3    3    0  501  0.38173419882E+02  0.52670340560E+02  0.10123271001E+03  0.12033723130E+03  0.12700000000E+01 0. -1.
          2    1    1    2  502    0 -0.16139744554E+02  0.92500700856E+02 -0.52137178476E+03  0.52975976532E+03  0.00000000000E+00 0. -1.
          1    1    1    2  503    0  0.64291653091E+02 -0.19086402764E+03  0.11362097572E+04  0.11539216205E+04  0.00000000000E+00 0. -1.
<mgrwt>
<rscale>  0 0.13036452E+03</rscale>
<asrwt>0</asrwt>
<pdfrwt beam="1">  1        2 0.21067679E+00 0.18099292E+03</pdfrwt>
<pdfrwt beam="2">  1        1 0.87044194E-01 0.93898195E+02</pdfrwt>
<totfact> 0.89429387E+01</totfact>
</mgrwt>
</event>
<event>
 7    1  0.6493044E-004  0.5855190E+02  0.7546771E-02  0.1529019E+00
          1   -1    0    0  502    0 -0.00000000000E+00  0.00000000000E+00  0.16439004746E+03  0.16439004746E+03  0.00000000000E+00 0. -1.
          2   -1    0    0  503    0  0.00000000000E+00 -0.00000000000E+00 -0.68522939986E+03  0.68522939986E+03  0.00000000000E+00 0. -1.
         25    2    1    2    0    0 -0.76592202153E+02 -0.24095742229E+02  0.36670464797E+01  0.14861406646E+03  0.12500289315E+03 0.  0.
          4    1    3    3  501    0  0.22011229171E+02  0.15737341521E+02  0.28585030131E+02  0.39381150000E+02  0.12700000000E+01 0.  1.
         -4    1    3    3    0  501 -0.98603431324E+02 -0.39833083750E+02 -0.24917983652E+02  0.10923291646E+03  0.12700000000E+01 0.  1.
          2    1    1    2  502    0  0.23769090688E+02 -0.26113813386E+00  0.85239169437E+02  0.88491546893E+02  0.00000000000E+00 0. -1.
          1    1    1    2  503    0  0.52823111464E+02  0.24356880363E+02 -0.60974556831E+03  0.61251383397E+03  0.00000000000E+00 0. -1.
<mgrwt>
<rscale>  0 0.37306963E+02</rscale>
<asrwt>0</asrwt>
<pdfrwt beam="2">  1        2 0.10541991E+00 0.58551903E+02</pdfrwt>
<pdfrwt beam="1">  1        1 0.25290777E-01 0.23770525E+02</pdfrwt>
<totfact> 0.10750269E+03</totfact>
</mgrwt>
</event>
<event>
 7    1  0.6493044E-004  0.7160601E+02  0.7546771E-02  0.1443516E+00
          2   -1    0    0  503    0  0.00000000000E+00  0.00000000000E+00  0.68215479440E+03  0.68215479440E+03  0.00000000000E+00 0. -1.
         -2   -1    0    0    0  501 -0.00000000000E+00 -0.00000000000E+00 -0.30812146909E+03  0.30812146909E+03  0.00000000000E+00 0.  1.
         25    2    1    2    0    0  0.56167457438E+02 -0.83315849818E+02  0.23345516280E+03  0.28323257466E+03  0.12499225657E+03 0.  0.
          4    1    3    3  502    0  0.87037363901E+01 -0.44331384118E+02  0.21410423444E+03  0.21882244572E+03  0.12700000000E+01 0. -1.
         -4    1    3    3    0  502  0.47463721048E+02 -0.38984465699E+02  0.19350928359E+02  0.64410128939E+02  0.12700000000E+01 0. -1.
          1    1    1    2  503    0 -0.31209744695E+02  0.16684710006E+02  0.41858384838E+03  0.42007721414E+03  0.00000000000E+00 0. -1.
         -1    1    1    2    0  501 -0.24957712743E+02  0.66631139812E+02 -0.27800568587E+03  0.28696647469E+03  0.00000000000E+00 0.  1.
<mgrwt>
<rscale>  0 0.50339963E+02</rscale>
<asrwt>0</asrwt>
<pdfrwt beam="1">  1        2 0.10494689E+00 0.35389655E+02</pdfrwt>
<pdfrwt beam="2">  1       -2 0.47403303E-01 0.71606007E+02</pdfrwt>
<totfact> 0.19787234E+02</totfact>
</mgrwt>
</event>
<event>
 7    1  0.6493044E-004  0.5404432E+02  0.7546771E-02  0.1506181E+00
         -1   -1    0    0    0  501 -0.00000000000E+00  0.00000000000E+00  0.78648501336E+02  0.78648501336E+02  0.00000000000E+00 0.  1.
          1   -1    0    0  503    0  0.00000000000E+00 -0.00000000000E+00 -0.23743748635E+03  0.23743748635E+03  0.00000000000E+00 0. -1.
         25    2    1    2    0    0  0.40674463118E+02 -0.97437861562E+01 -0.16574063097E+03  0.21177164670E+03  0.12501168055E+03 0.  0.
          4    1    3    3  502    0 -0.96923206341E+01 -0.14385091303E+02  0.15686713659E+02  0.23421311160E+02  0.12700000000E+01 0.  1.
         -4    1    3    3    0  502  0.50366783752E+02  0.46413051464E+01 -0.18142734463E+03  0.18835033554E+03  0.12700000000E+01 0.  1.
          2    1    1    2  503    0 -0.69695980395E+02  0.17410791027E+02 -0.49857638551E+01  0.72010576783E+02  0.00000000000E+00 0. -1.
         -2    1    1    2    0  501  0.29021517277E+02 -0.76670048704E+01  0.11937409809E+02  0.32303764203E+02  0.00000000000E+00 0.  1.
<mgrwt>
<rscale>  0 0.40277269E+02</rscale>
<asrwt>0</asrwt>
<pdfrwt beam="2">  1        1 0.36528844E-01 0.54044321E+02</pdfrwt>
<pdfrwt beam="1">  1       -1 0.12099770E-01 0.30017186E+02</pdfrwt>
<totfact> 0.45667851E+03</totfact>
</mgrwt>
</event>
<event>
 7    1  0.6493044E-004  0.1422160E+03  0.7546771E-02  0.1360353E+00
          2   -1    0    0  503    0  0.00000000000E+00  0.00000000000E+00  0.17345109765E+04  0.17345109765E+04  0.00000000000E+00 0. -1.
          1   -1    0    0  502    0 -0.00000000000E+00 -0.00000000000E+00 -0.76626251435E+03  0.76626251435E+03  0.00000000000E+00 0. -1.
         25    2    1    2    0    0  0.53304301763E+02 -0.16366588116E+03 -0.44213822438E+01  0.21277765789E+03  0.12500765511E+03 0.  0.
          4    1    3    3  501    0  0.78125983716E+02 -0.16624200279E+03 -0.17595901346E+02  0.18452994735E+03  0.12700000000E+01 0. -1.
         -4    1    3    3    0  501 -0.24821681953E+02  0.25761216331E+01  0.13174519102E+02  0.28247710549E+02  0.12700000000E+01 0. -1.
          2    1    1    2  502    0 -0.22993635720E+02  0.25558642383E+02 -0.65414505588E+03  0.65504786514E+03  0.00000000000E+00 0. -1.
          1    1    1    2  503    0 -0.30310666043E+02  0.13810723877E+03  0.16268149002E+04  0.16329479678E+04  0.00000000000E+00 0. -1.
<mgrwt>
<rscale>  0 0.69923655E+02</rscale>
<asrwt>0</asrwt>
<pdfrwt beam="1">  1        2 0.26684784E+00 0.14221598E+03</pdfrwt>
<pdfrwt beam="2">  1        1 0.11788654E+00 0.34379521E+02</pdfrwt>
<totfact> 0.40532148E+01</totfact>
</mgrwt>
</event>
<event>
 7    1  0.6493044E-004  0.1828346E+03  0.7546771E-02  0.1256074E+00
          2   -1    0    0  503    0  0.00000000000E+00  0.00000000000E+00  0.36340919136E+03  0.36340919136E+03  0.00000000000E+00 0. -1.
         -2   -1    0    0    0  501 -0.00000000000E+00 -0.00000000000E+00 -0.20063530880E+03  0.20063530880E+03  0.00000000000E+00 0.  1.
         25    2    1    2    0    0  0.16437025636E+03  0.20014766478E+02  0.93872853712E+02  0.22771583986E+03  0.12499687598E+03 0.  0.
          4    1    3    3  502    0  0.41599239463E+02 -0.15245339083E+02 -0.26961426241E+02  0.51879172050E+02  0.12700000000E+01 0. -1.
         -4    1    3    3    0  502  0.12277101689E+03  0.35260105560E+02  0.12083427995E+03  0.17583666781E+03  0.12700000000E+01 0. -1.
          1    1    1    2  503    0  0.24908414479E+02 -0.64537798661E+02  0.11709279254E+03  0.13600102438E+03  0.00000000000E+00 0. -1.
         -1    1    1    2    0  501 -0.18927867084E+03  0.44523032184E+02 -0.48191763690E+02  0.20032763593E+03  0.00000000000E+00 0.  1.
<mgrwt>
<rscale>  0 0.11246369E+03</rscale>
<asrwt>0</asrwt>
<pdfrwt beam="1">  1        2 0.55909106E-01 0.69177717E+02</pdfrwt>
<pdfrwt beam="2">  1       -2 0.30866971E-01 0.18283463E+03</pdfrwt>
<totfact> 0.86081685E+02</totfact>
</mgrwt>
</event>
<event>
 7    1  0.6493044E-004  0.1620674E+03  0.7546771E-02  0.1261535E+00
          2   -1    0    0  503    0  0.00000000000E+00  0.00000000000E+00  0.17160597562E+04  0.17160597562E+04  0.00000000000E+00 0. -1.
         -2   -1    0    0    0  501 -0.00000000000E+00 -0.00000000000E+00 -0.60454158388E+03  0.60454158388E+03  0.00000000000E+00 0.  1.
         25    2    1    2    0    0 -0.59912685032E+02  0.73944569099E+02  0.49022529879E+03  0.51478570011E+03  0.12500457726E+03 0.  0.
          4    1    3    3  502    0  0.22505813186E+02 -0.13052417010E+02  0.18584376241E+03  0.18766031584E+03  0.12700000000E+01 0.  1.
         -4    1    3    3    0  502 -0.82418498218E+02  0.86996986108E+02  0.30438153639E+03  0.32712538427E+03  0.12700000000E+01 0.  1.
          1    1    1    2  503    0 -0.12177340311E+02  0.72947124728E+02  0.12010934742E+04  0.12033682331E+04  0.00000000000E+00 0. -1.
         -1    1    1    2    0  501  0.72090025343E+02 -0.14689169383E+03 -0.57980060070E+03  0.60244740686E+03  0.00000000000E+00 0.  1.
<mgrwt>
<rscale>  0 0.10948033E+03</rscale>
<asrwt>0</asrwt>
<pdfrwt beam="1">  1        2 0.26400919E+00 0.73956546E+02</pdfrwt>
<pdfrwt beam="2">  1       -2 0.93006398E-01 0.16206737E+03</pdfrwt>
<totfact> 0.12335896E+01</totfact>
</mgrwt>
</event>
<event>
 7    1  0.6493044E-004  0.8603077E+02  0.7546771E-02  0.1495560E+00
          2   -1    0    0  503    0  0.00000000000E+00  0.00000000000E+00  0.19635510330E+04  0.19635510330E+04  0.00000000000E+00 0. -1.
         -2   -1    0    0    0  501 -0.00000000000E+00 -0.00000000000E+00 -0.42522962144E+02  0.42522962144E+02  0.00000000000E+00 0.  1.
         25    2    1    2    0    0  0.66196059265E+02 -0.14762271897E+02  0.43430382190E+03  0.45699463681E+03  0.12499778164E+03 0.  0.
          4    1    3    3  502    0 -0.94401768916E+01 -0.42034050391E+02  0.58376248269E+02  0.72562921620E+02  0.12700000000E+01 0. -1.
         -4    1    3    3    0  502  0.75636236156E+02  0.27271778495E+02  0.37592757363E+03  0.38443171519E+03  0.12700000000E+01 0. -1.
          1    1    1    2  503    0 -0.85758626022E+02  0.20118663031E+02  0.15131808810E+04  0.15157426170E+04  0.00000000000E+00 0. -1.
         -1    1    1    2    0  501  0.19562566757E+02 -0.53563911347E+01 -0.26456632012E+02  0.33336741316E+02  0.00000000000E+00 0.  1.
<mgrwt>
<rscale>  0 0.41772359E+02</rscale>
<asrwt>0</asrwt>
<pdfrwt beam="1">  1        2 0.30208470E+00 0.86030768E+02</pdfrwt>
<pdfrwt beam="2">  1       -2 0.65419957E-02 0.20282627E+02</pdfrwt>
<totfact> 0.88669765E+02</totfact>
</mgrwt>
</event>
<event>
 7    1  0.6493044E-004  0.1410386E+03  0.7546771E-02  0.1347267E+00
         -2   -1    0    0    0  501 -0.00000000000E+00  0.00000000000E+00  0.13730510878E+04  0.13730510878E+04  0.00000000000E+00 0.  1.
          2   -1    0    0  503    0  0.00000000000E+00 -0.00000000000E+00 -0.77123926429E+02  0.77123926429E+02  0.00000000000E+00 0. -1.
         25    2    1    2    0    0  0.44199983574E+02  0.99209094952E+02  0.52355255564E+03  0.54911637314E+03  0.12500171866E+03 0.  0.
          4    1    3    3  502    0  0.38458599977E+02  0.12311312319E+03  0.49445771543E+03  0.51100484368E+03  0.12700000000E+01 0. -1.
         -4    1    3    3    0  502  0.57413835973E+01 -0.23904028235E+02  0.29094840206E+02  0.38111529464E+02  0.12700000000E+01 0. -1.
          1    1    1    2  503    0 -0.69458096388E+02 -0.12857763124E+03  0.19784410088E+02  0.14747222549E+03  0.00000000000E+00 0. -1.
         -1    1    1    2    0  501  0.25258112814E+02  0.29368536289E+02  0.75259019561E+03  0.75358641556E+03  0.00000000000E+00 0.  1.
<mgrwt>
<rscale>  0 0.73914012E+02</rscale>
<asrwt>0</asrwt>
<pdfrwt beam="2">  1        2 0.11865220E-01 0.14103860E+03</pdfrwt>
<pdfrwt beam="1">  1       -2 0.21123861E+00 0.38736071E+02</pdfrwt>
<totfact> 0.71072655E+01</totfact>
</mgrwt>
</event>
<event>
 7    1  0.6493044E-004  0.3742694E+02  0.7546771E-02  0.1557146E+00
          2   -1    0    0  503    0  0.00000000000E+00  0.00000000000E+00  0.16205014747E+04  0.16205014747E+04  0.00000000000E+00 0. -1.
         -2   -1    0    0    0  501 -0.00000000000E+00 -0.00000000000E+00 -0.29804841720E+03  0.29804841720E+03  0.00000000000E+00 0.  1.
         25    2    1    2    0    0  0.18744100392E+02  0.58723015610E+02  0.20779620563E+03  0.25021030428E+03  0.12500479764E+03 0.  0.
          4    1    3    3  502    0 -0.35774551764E+02 -0.15122512710E+02  0.10719034314E+03  0.11401706674E+03  0.12700000000E+01 0. -1.
         -4    1    3    3    0  502  0.54518652156E+02  0.73845528319E+02  0.10060586249E+03  0.13619323755E+03  0.12700000000E+01 0. -1.
          1    1    1    2  503    0 -0.22252022966E+02 -0.21567464640E+02  0.13900669506E+04  0.13904123256E+04  0.00000000000E+00 0. -1.
         -1    1    1    2    0  501  0.35079225732E+01 -0.37155550970E+02 -0.27541009872E+03  0.27792726201E+03  0.00000000000E+00 0.  1.
<mgrwt>
<rscale>  0 0.34056093E+02</rscale>
<asrwt>0</asrwt>
<pdfrwt beam="1">  1        2 0.24930791E+00 0.30988838E+02</pdfrwt>
<pdfrwt beam="2">  1       -2 0.45853604E-01 0.37426943E+02</pdfrwt>
<totfact> 0.65445921E+01</totfact>
</mgrwt>
</event>
<event>
 7    1  0.6493044E-004  0.9724720E+02  0.7546771E-02  0.1394097E+00
          1   -1    0    0  502    0 -0.00000000000E+00  0.00000000000E+00  0.33122190910E+03  0.33122190910E+03  0.00000000000E+00 0. -1.
          2   -1    0    0  503    0  0.00000000000E+00 -0.00000000000E+00 -0.11919298099E+04  0.11919298099E+04  0.00000000000E+00 0. -1.
         25    2    1    2    0    0  0.39731806999E+02 -0.59924099008E+02  0.48379086131E+02  0.15210172553E+03  0.12499953922E+03 0.  0.
          4    1    3    3  501    0  0.38797696105E+02 -0.63611554032E+02  0.86269989272E+02  0.11399918850E+03  0.12700000000E+01 0.  1.
         -4    1    3    3    0  501  0.93411089437E+00  0.36874550246E+01 -0.37890903140E+02  0.38102537035E+02  0.12700000000E+01 0.  1.
          2    1    1    2  502    0 -0.15435881427E+02 -0.34873378818E+02  0.22728987532E+03  0.23046714822E+03  0.00000000000E+00 0. -1.
          1    1    1    2  503    0 -0.24295925572E+02  0.94797477826E+02 -0.11363768623E+04  0.11405828453E+04  0.00000000000E+00 0. -1.
<mgrwt>
<rscale>  0 0.60899109E+02</rscale>
<asrwt>0</asrwt>
<pdfrwt beam="2">  1        2 0.18337382E+00 0.97247202E+02</pdfrwt>
<pdfrwt beam="1">  1        1 0.50957217E-01 0.38136846E+02</pdfrwt>
<totfact> 0.22884655E+02</totfact>
</mgrwt>
</event>
<event>
 7    1  0.6493044E-004  0.1908043E+03  0.7546771E-02  0.1276039E+00
          2   -1    0    0  503    0  0.00000000000E+00  0.00000000000E+00  0.93334942841E+02  0.93334942841E+02  0.00000000000E+00 0. -1.
          1   -1    0    0  502    0 -0.00000000000E+00 -0.00000000000E+00 -0.18949911979E+04  0.18949911979E+04  0.00000000000E+00 0. -1.
         25    2    1    2    0    0 -0.15011092831E+03 -0.18427385164E+03 -0.10360937105E+04  0.10703288671E+04  0.12499425476E+03 0.  0.
          4    1    3    3  501    0  0.18596479657E+02 -0.18217317385E+01 -0.10428500260E+03  0.10595339745E+03  0.12700000000E+01 0.  1.
         -4    1    3    3    0  501 -0.16870740797E+03 -0.18245211990E+03 -0.93180870786E+03  0.96437546967E+03  0.12700000000E+01 0.  1.
          2    1    1    2  502    0  0.44726271472E+02  0.31286787868E+02 -0.72601399918E+03  0.72806292960E+03  0.00000000000E+00 0. -1.
          1    1    1    2  503    0  0.10538465684E+03  0.15298706377E+03 -0.39548545362E+02  0.18993434397E+03  0.00000000000E+00 0. -1.
<mgrwt>
<rscale>  0 0.10205230E+03</rscale>
<asrwt>0</asrwt>
<pdfrwt beam="1">  1        2 0.14359223E-01 0.19080435E+03</pdfrwt>
<pdfrwt beam="2">  1        1 0.29153709E+00 0.54582987E+02</pdfrwt>
<totfact> 0.26131225E+02</totfact>
</mgrwt>
</event>
<event>
 7    1  0.6493044E-004  0.1905439E+03  0.7546771E-02  0.1355455E+00
          1   -1    0    0  503    0  0.00000000000E+00  0.00000000000E+00  0.39569677747E+03  0.39569677747E+03  0.00000000000E+00 0. -1.
         -1   -1    0    0    0  501 -0.00000000000E+00 -0.00000000000E+00 -0.37644715414E+03  0.37644715414E+03  0.00000000000E+00 0.  1.
         25    2    1    2    0    0  0.16173415704E+03 -0.13443767261E+03 -0.41182504576E+02  0.24809933674E+03  0.12500342731E+03 0.  0.
          4    1    3    3  502    0  0.11492958417E+03 -0.15014551990E+03 -0.93007538611E+01  0.18931614666E+03  0.12700000000E+01 0.  1.
         -4    1    3    3    0  502  0.46804572869E+02  0.15707847288E+02 -0.31881750715E+02  0.58783190084E+02  0.12700000000E+01 0.  1.
          2    1    1    2  503    0 -0.20199163354E+02  0.17524146234E+02  0.25508349436E+03  0.25648136579E+03  0.00000000000E+00 0. -1.
         -2    1    1    2    0  501 -0.14153499368E+03  0.11691352638E+03 -0.19465136646E+03  0.26756322907E+03  0.00000000000E+00 0.  1.
<mgrwt>
<rscale>  0 0.71382125E+02</rscale>
<asrwt>0</asrwt>
<pdfrwt beam="1">  1        1 0.60876427E-01 0.26741389E+02</pdfrwt>
<pdfrwt beam="2">  1       -1 0.57914947E-01 0.19054387E+03</pdfrwt>
<totfact> 0.19916604E+02</totfact>
</mgrwt>
</event>
<event>
 7    1  0.6493044E-004  0.1299271E+03  0.7546771E-02  0.1287361E+00
          1   -1    0    0  502    0 -0.00000000000E+00  0.00000000000E+00  0.26792334993E+03  0.26792334993E+03  0.00000000000E+00 0. -1.
          2   -1    0    0  503    0  0.00000000000E+00 -0.00000000000E+00 -0.13012992760E+04  0.13012992760E+04  0.00000000000E+00 0. -1.
         25    2    1    2    0    0 -0.11043588624E+03 -0.11857087679E+03 -0.24198211012E+03  0.31691713711E+03  0.12500396947E+03 0.  0.
          4    1    3    3  501    0 -0.12653321170E+03 -0.13152716862E+03 -0.22744090598E+03  0.29161794932E+03  0.12700000000E+01 0. -1.
         -4    1    3    3    0  501  0.16097325460E+02  0.12956291836E+02 -0.14541204136E+02  0.25299187790E+02  0.12700000000E+01 0. -1.
          2    1    1    2  502    0  0.71908524530E+02 -0.34613398881E+01  0.22070436081E+03  0.23214915821E+03  0.00000000000E+00 0. -1.
          1    1    1    2  503    0  0.38527361710E+02  0.12203221667E+03 -0.10120981768E+04  0.10201563306E+04  0.00000000000E+00 0. -1.
<mgrwt>
<rscale>  0 0.96714432E+02</rscale>
<asrwt>0</asrwt>
<pdfrwt beam="2">  1        2 0.20019989E+00 0.12992707E+03</pdfrwt>
<pdfrwt beam="1">  1        1 0.41218978E-01 0.71991783E+02</pdfrwt>
<totfact> 0.25320315E+02</totfact>
</mgrwt>
</event>
<event>
 7    1  0.6493044E-004  0.1392476E+03  0.7546771E-02  0.1416292E+00
          2   -1    0    0  503    0  0.00000000000E+00  0.00000000000E+00  0.15447439438E+04  0.15447439438E+04  0.00000000000E+00 0. -1.
          1   -1    0    0  502    0 -0.00000000000E+00 -0.00000000000E+00 -0.35119963597E+03  0.35119963597E+03  0.00000000000E+00 0. -1.
         25    2    1    2    0    0  0.15930637556E+03 -0.22880445338E+02 -0.23841979196E+03  0.31363622199E+03  0.12498658517E+03 0.  0.
          4    1    3    3  501    0  0.53076816009E+02  0.13980665001E+02 -0.17739060739E+03  0.18569234739E+03  0.12700000000E+01 0.  1.
         -4    1    3    3    0  501  0.10622955955E+03 -0.36861110339E+02 -0.61029184579E+02  0.12794387460E+03  0.12700000000E+01 0.  1.
          2    1    1    2  502    0 -0.22354120034E+02 -0.86867685864E+00 -0.70224581257E+02  0.73701784881E+02  0.00000000000E+00 0. -1.
          1    1    1    2  503    0 -0.13695225552E+03  0.23749122196E+02  0.15021886810E+04  0.15086055729E+04  0.00000000000E+00 0. -1.
<mgrwt>
<rscale>  0 0.55813137E+02</rscale>
<asrwt>0</asrwt>
<pdfrwt beam="1">  1        2 0.23765291E+00 0.13924757E+03</pdfrwt>
<pdfrwt beam="2">  1        1 0.54030714E-01 0.22370992E+02</pdfrwt>
<totfact> 0.13526367E+02</totfact>
</mgrwt>
</event>
<event>
 7    1  0.6493044E-004  0.7136286E+02  0.7546771E-02  0.1366310E+00
          2   -1    0    0  503    0  0.00000000000E+00  0.00000000000E+00  0.32497347422E+03  0.32497347422E+03  0.00000000000E+00 0. -1.
          1   -1    0    0  502    0 -0.00000000000E+00 -0.00000000000E+00 -0.18360111340E+03  0.18360111340E+03  0.00000000000E+00 0. -1.
         25    2    1    2    0    0 -0.29788854028E+02 -0.27714000470E+02  0.86849919807E+02  0.15754953167E+03  0.12499401871E+03 0.  0.
          4    1    3    3  501    0  0.26217494151E+02  0.36170899429E+02  0.17967932403E+02  0.48167940167E+02  0.12700000000E+01 0. -1.
         -4    1    3    3    0  501 -0.56006348179E+02 -0.63884899899E+02  0.68881987405E+02  0.10938159151E+03  0.12700000000E+01 0. -1.
          2    1    1    2  502    0 -0.37915306180E+02  0.60457314520E+02 -0.13192039097E+03  0.14998548889E+03  0.00000000000E+00 0. -1.
          1    1    1    2  503    0  0.67704160208E+02 -0.32743314051E+02  0.18644283198E+03  0.20103956706E+03  0.00000000000E+00 0. -1.
<mgrwt>
<rscale>  0 0.68203691E+02</rscale>
<asrwt>0</asrwt>
<pdfrwt beam="1">  1        2 0.49995919E-01 0.65184378E+02</pdfrwt>
<pdfrwt beam="2">  1        1 0.28246325E-01 0.71362857E+02</pdfrwt>
<totfact> 0.21572819E+03</totfact>
</mgrwt>
</event>
<event>
 7    1  0.6493044E-004  0.7197093E+02  0.7546771E-02  0.1489965E+00
          2   -1    0    0  503    0  0.00000000000E+00  0.00000000000E+00  0.28401943679E+03  0.28401943679E+03  0.00000000000E+00 0. -1.
         -2   -1    0    0    0  501 -0.00000000000E+00 -0.00000000000E+00 -0.18650575362E+03  0.18650575362E+03  0.00000000000E+00 0.  1.
         25    2    1    2    0    0 -0.31886433454E+02  0.76385155258E+02  0.11234545309E+03  0.18734618715E+03  0.12500262567E+03 0.  0.
          4    1    3    3  502    0 -0.22724563962E+02  0.66643250582E+02  0.13993716819E+03  0.15665807542E+03  0.12700000000E+01 0. -1.
         -4    1    3    3    0  502 -0.91618694921E+01  0.97419046756E+01 -0.27591715093E+02  0.30688111722E+02  0.12700000000E+01 0. -1.
          1    1    1    2  503    0  0.76271630927E+01 -0.69546707516E+02  0.12383925676E+03  0.14223599987E+03  0.00000000000E+00 0. -1.
         -1    1    1    2    0  501  0.24259270362E+02 -0.68384477415E+01 -0.13867102668E+03  0.14094300340E+03  0.00000000000E+00 0.  1.
<mgrwt>
<rscale>  0 0.42591139E+02</rscale>
<asrwt>0</asrwt>
<pdfrwt beam="1">  1        2 0.43695298E-01 0.71970926E+02</pdfrwt>
<pdfrwt beam="2">  1       -2 0.28693193E-01 0.25204693E+02</pdfrwt>
<totfact> 0.11964245E+03</totfact>
</mgrwt>
</event>
<event>
 7    1  0.6493044E-004  0.2566581E+03  0.7546771E-02  0.1214893E+00
         -2   -1    0    0    0  501 -0.00000000000E+00  0.00000000000E+00  0.41591727674E+03  0.41591727674E+03  0.00000000000E+00 0.  1.
          2   -1    0    0  503    0  0.00000000000E+00 -0.00000000000E+00 -0.14660902309E+04  0.14660902309E+04  0.00000000000E+00 0. -1.
         25    2    1    2    0    0 -0.12883920064E+03  0.24650404579E+03 -0.18967434769E+03  0.35911701730E+03  0.12499955892E+03 0.  0.
          4    1    3    3  502    0 -0.10191295854E+03  0.12179334432E+03 -0.42631369024E+02  0.16443514334E+03  0.12700000000E+01 0. -1.
         -4    1    3    3    0  502 -0.26926242101E+02  0.12471070147E+03 -0.14704297866E+03  0.19468187396E+03  0.12700000000E+01 0. -1.
          1    1    1    2  503    0  0.17360359164E+03 -0.18619082934E+03 -0.11736070490E+04  0.12008991371E+04  0.00000000000E+00 0. -1.
         -1    1    1    2    0  501 -0.44764390999E+02 -0.60313216450E+02  0.31310844254E+03  0.32199135325E+03  0.00000000000E+00 0.  1.
<mgrwt>
<rscale>  0 0.13884389E+03</rscale>
<asrwt>0</asrwt>
<pdfrwt beam="2">  1        2 0.22555235E+00 0.25665807E+03</pdfrwt>
<pdfrwt beam="1">  1       -2 0.63987272E-01 0.75110151E+02</pdfrwt>
<totfact> 0.34031731E+01</totfact>
</mgrwt>
</event>
<event>
 7    1  0.6493044E-004  0.9512996E+02  0.7546771E-02  0.1307489E+00
          1   -1    0    0  502    0 -0.00000000000E+00  0.00000000000E+00  0.81295946146E+03  0.81295946146E+03  0.00000000000E+00 0. -1.
          2   -1    0    0  503    0  0.00000000000E+00 -0.00000000000E+00 -0.10890104724E+04  0.10890104724E+04  0.00000000000E+00 0. -1.
         25    2    1    2    0    0  0.50853306215E+02  0.10674273034E+03  0.11041674358E+03  0.20444047695E+03  0.12499592841E+03 0.  0.
          4    1    3    3  501    0  0.23221073757E+02  0.64099371404E+02  0.13250404578E+03  0.14901973940E+03  0.12700000000E+01 0. -1.
         -4    1    3    3    0  501  0.27632232458E+02  0.42643358936E+02 -0.22087302205E+02  0.55420737551E+02  0.12700000000E+01 0. -1.
          2    1    1    2  502    0 -0.89122350627E+02 -0.34659623316E+02  0.65043163033E+03  0.65742329485E+03  0.00000000000E+00 0. -1.
          1    1    1    2  503    0  0.38269044412E+02 -0.72083107024E+02 -0.10368993849E+04  0.10401061621E+04  0.00000000000E+00 0. -1.
<mgrwt>
<rscale>  0 0.88112042E+02</rscale>
<asrwt>0</asrwt>
<pdfrwt beam="2">  1        2 0.16754007E+00 0.81611850E+02</pdfrwt>
<pdfrwt beam="1">  1        1 0.12507069E+00 0.95129959E+02</pdfrwt>
<totfact> 0.80651900E+01</totfact>
</mgrwt>
</event>
<event>
 7    1  0.6493044E-004  0.2032086E+03  0.7546771E-02  0.1351596E+00
          2   -1    0    0  503    0  0.00000000000E+00  0.00000000000E+00  0.83704317562E+03  0.83704317562E+03  0.00000000000E+00 0. -1.
          1   -1    0    0  502    0 -0.00000000000E+00 -0.00000000000E+00 -0.12728954645E+04  0.12728954645E+04  0.00000000000E+00 0. -1.
         25    2    1    2    0    0  0.19365192618E+03 -0.79744253271E+02  0.42429453910E+03  0.48939915550E+03  0.12500185220E+03 0.  0.
          4    1    3    3  501    0  0.10540830417E+01  0.22838949421E+02  0.66258606693E+02  0.70103812754E+02  0.12700000000E+01 0.  1.
         -4    1    3    3    0  501  0.19259784314E+03 -0.10258320269E+03  0.35803593240E+03  0.41929534275E+03  0.12700000000E+01 0.  1.
          2    1    1    2  502    0 -0.17702125096E+03  0.99611757549E+02 -0.12315727894E+04  0.12482109442E+04  0.00000000000E+00 0. -1.
          1    1    1    2  503    0 -0.16630675219E+02 -0.19867504278E+02  0.37142596151E+03  0.37232854036E+03  0.00000000000E+00 0. -1.
<mgrwt>
<rscale>  0 0.72560419E+02</rscale>
<asrwt>0</asrwt>
<pdfrwt beam="1">  1        2 0.12877587E+00 0.25909401E+02</pdfrwt>
<pdfrwt beam="2">  1        1 0.19583007E+00 0.20320865E+03</pdfrwt>
<totfact> 0.52713201E+01</totfact>
</mgrwt>
</event>
<event>
 7    1  0.6493044E-004  0.7180774E+02  0.7546771E-02  0.1402943E+00
          2   -1    0    0  503    0  0.00000000000E+00  0.00000000000E+00  0.13855218083E+04  0.13855218083E+04  0.00000000000E+00 0. -1.
          1   -1    0    0  502    0 -0.00000000000E+00 -0.00000000000E+00 -0.87668617993E+02  0.87668617993E+02  0.00000000000E+00 0. -1.
         25    2    1    2    0    0 -0.11182040384E+03  0.40804902344E+02  0.80313923750E+02  0.19037867253E+03  0.12499947935E+03 0.  0.
          4    1    3    3  501    0 -0.54201258795E+01 -0.39104480979E+02  0.16716843026E+02  0.42890604309E+02  0.12700000000E+01 0. -1.
         -4    1    3    3    0  501 -0.10640027796E+03  0.79909383323E+02  0.63597080723E+02  0.14748806823E+03  0.12700000000E+01 0. -1.
          2    1    1    2  502    0  0.45758303114E+02 -0.14975544874E+02 -0.13284611472E+02  0.49945671986E+02  0.00000000000E+00 0. -1.
          1    1    1    2  503    0  0.66062100722E+02 -0.25829357470E+02  0.12308238780E+04  0.12328660818E+04  0.00000000000E+00 0. -1.
<mgrwt>
<rscale>  0 0.58798762E+02</rscale>
<asrwt>0</asrwt>
<pdfrwt beam="1">  1        2 0.21315718E+00 0.71807744E+02</pdfrwt>
<pdfrwt beam="2">  1        1 0.13487481E-01 0.48146539E+02</pdfrwt>
<totfact> 0.92811878E+02</totfact>
</mgrwt>
</event>
<event>
 7    1  0.6493044E-004  0.1612359E+03  0.7546771E-02  0.1217710E+00
          1   -1    0    0  502    0 -0.00000000000E+00  0.00000000000E+00  0.22305679623E+04  0.22305679623E+04  0.00000000000E+00 0. -1.
          2   -1    0    0  503    0  0.00000000000E+00 -0.00000000000E+00 -0.24683618408E+04  0.24683618408E+04  0.00000000000E+00 0. -1.
         25    2    1    2    0    0 -0.78375233709E+02  0.35967157067E+02 -0.28770735715E+03  0.32532388726E+03  0.12499517838E+03 0.  0.
          4    1    3    3  501    0  0.21843962213E+02 -0.24810787801E+02 -0.45615711933E+02  0.56348380204E+02  0.12700000000E+01 0.  1.
         -4    1    3    3    0  501 -0.10021919592E+03  0.60777944868E+02 -0.24209164522E+03  0.26897550706E+03  0.12700000000E+01 0.  1.
          2    1    1    2  502    0 -0.17074160829E+02  0.11479394283E+03  0.22065501276E+04  0.22096001090E+04  0.00000000000E+00 0. -1.
          1    1    1    2  503    0  0.95449394537E+02 -0.15076109990E+03 -0.21566366490E+04  0.21640058068E+04  0.00000000000E+00 0. -1.
<mgrwt>
<rscale>  0 0.13679371E+03</rscale>
<asrwt>0</asrwt>
<pdfrwt beam="2">  1        2 0.37974797E+00 0.16123590E+03</pdfrwt>
<pdfrwt beam="1">  1        1 0.34316430E+00 0.11605678E+03</pdfrwt>
<totfact> 0.16323319E+00</totfact>
</mgrwt>
</event>
<event>
 7    1  0.6493044E-004  0.6986584E+02  0.7546771E-02  0.1363572E+00
          1   -1    0    0  502    0 -0.00000000000E+00  0.00000000000E+00  0.12787041408E+03  0.12787041408E+03  0.00000000000E+00 0. -1.
          2   -1    0    0  503    0  0.00000000000E+00 -0.00000000000E+00 -0.87911403555E+03  0.87911403555E+03  0.00000000000E+00 0. -1.
         25    2    1    2    0    0  0.27779604861E+02  0.81964779518E+01 -0.62958378874E+02  0.14292485827E+03  0.12499947578E+03 0.  0.
          4    1    3    3  501    0  0.76152927615E+02  0.14225617913E+00 -0.22728200799E+02  0.79482530362E+02  0.12700000000E+01 0.  1.
         -4    1    3    3    0  501 -0.48373322754E+02  0.80542217727E+01 -0.40230178075E+02  0.63442327909E+02  0.12700000000E+01 0.  1.
          2    1    1    2  502    0 -0.23096822882E+02  0.64084330111E+02  0.72704581745E+02  0.99630421056E+02  0.00000000000E+00 0. -1.
          1    1    1    2  503    0 -0.46827819789E+01 -0.72280808063E+02 -0.76098982434E+03  0.76442917030E+03  0.00000000000E+00 0. -1.
<mgrwt>
<rscale>  0 0.68987138E+02</rscale>
<asrwt>0</asrwt>
<pdfrwt beam="2">  1        2 0.13524831E+00 0.69865841E+02</pdfrwt>
<pdfrwt beam="1">  1        1 0.19672372E-01 0.68119488E+02</pdfrwt>
<totfact> 0.11252542E+03</totfact>
</mgrwt>
</event>
<event>
 7    1  0.6493044E-004  0.9513566E+02  0.7546771E-02  0.1305181E+00
          2   -1    0    0  503    0  0.00000000000E+00  0.00000000000E+00  0.19215031226E+03  0.19215031226E+03  0.00000000000E+00 0. -1.
          1   -1    0    0  502    0 -0.00000000000E+00 -0.00000000000E+00 -0.10498217492E+04  0.10498217492E+04  0.00000000000E+00 0. -1.
         25    2    1    2    0    0  0.53913709867E+02 -0.19767806875E+02 -0.11625314840E+03  0.18010060295E+03  0.12499591341E+03 0.  0.
          4    1    3    3  501    0 -0.27403891950E+02 -0.32298344267E+02 -0.79266858705E+02  0.89883280566E+02  0.12700000000E+01 0. -1.
         -4    1    3    3    0  501  0.81317601816E+02  0.12530537392E+02 -0.36986289698E+02  0.90217322384E+02  0.12700000000E+01 0. -1.
          2    1    1    2  502    0 -0.27578687030E+02 -0.78649104258E+02 -0.88328755846E+03  0.88721089742E+03  0.00000000000E+00 0. -1.
          1    1    1    2  503    0 -0.26335022836E+02  0.98416911133E+02  0.14186926996E+03  0.17466056104E+03  0.00000000000E+00 0. -1.
<mgrwt>
<rscale>  0 0.89044994E+02</rscale>
<asrwt>0</asrwt>
<pdfrwt beam="1">  1        2 0.29561586E-01 0.95135658E+02</pdfrwt>
<pdfrwt beam="2">  1        1 0.16151104E+00 0.83344259E+02</pdfrwt>
<totfact> 0.37781249E+02</totfact>
</mgrwt>
</event>
<event>
 7    1  0.6493044E-004  0.7759108E+02  0.7546771E-02  0.1396294E+00
          1   -1    0    0  503    0  0.00000000000E+00  0.00000000000E+00  0.68583383510E+03  0.68583383510E+03  0.00000000000E+00 0. -1.
         -1   -1    0    0    0  501 -0.00000000000E+00 -0.00000000000E+00 -0.87751728787E+02  0.87751728787E+02  0.00000000000E+00 0.  1.
         25    2    1    2    0    0 -0.48384548236E+02 -0.11906508240E+02  0.53418203003E+03  0.55087040053E+03  0.12499971008E+03 0.  0.
          4    1    3    3  502    0  0.15493070157E+02 -0.42616477947E+02  0.87115828161E+02  0.98219040066E+02  0.12700000000E+01 0. -1.
         -4    1    3    3    0  502 -0.63877618393E+02  0.30709969707E+02  0.44706620187E+03  0.45265136046E+03  0.12700000000E+01 0. -1.
          2    1    1    2  503    0 -0.45008258171E+01 -0.46751669632E+02  0.11798675241E+03  0.12699153432E+03  0.00000000000E+00 0. -1.
         -2    1    1    2    0  501  0.52885374053E+02  0.58658177872E+02 -0.54086676132E+02  0.95723629031E+02  0.00000000000E+00 0.  1.
<mgrwt>
<rscale>  0 0.60367903E+02</rscale>
<asrwt>0</asrwt>
<pdfrwt beam="1">  1        1 0.10551289E+00 0.46967819E+02</pdfrwt>
<pdfrwt beam="2">  1       -1 0.13500266E-01 0.77591079E+02</pdfrwt>
<totfact> 0.11181043E+03</totfact>
</mgrwt>
</event>
<event>
 7    1  0.6493044E-004  0.3686949E+02  0.7546771E-02  0.1574712E+00
         -2   -1    0    0    0  501 -0.00000000000E+00  0.00000000000E+00  0.21195525875E+03  0.21195525875E+03  0.00000000000E+00 0.  1.
          2   -1    0    0  503    0  0.00000000000E+00 -0.00000000000E+00 -0.63040428563E+03  0.63040428563E+03  0.00000000000E+00 0. -1.
         25    2    1    2    0    0  0.19300117762E+01  0.55518666023E+02 -0.18813069953E+03  0.23260417730E+03  0.12500198387E+03 0.  0.
          4    1    3    3  502    0 -0.41598046564E+00  0.30640333236E+01 -0.17931607201E+03  0.17934722725E+03  0.12700000000E+01 0.  1.
         -4    1    3    3    0  502  0.23459922418E+01  0.52454632700E+02 -0.88146275188E+01  0.53256950059E+02  0.12700000000E+01 0.  1.
          1    1    1    2  503    0 -0.17383223017E+02 -0.22163294917E+02 -0.41777738275E+03  0.41872584064E+03  0.00000000000E+00 0. -1.
         -1    1    1    2    0  501  0.15453211240E+02 -0.33355371107E+02  0.18745905540E+03  0.19102952644E+03  0.00000000000E+00 0.  1.
<mgrwt>
<rscale>  0 0.32225895E+02</rscale>
<asrwt>0</asrwt>
<pdfrwt beam="2">  1        2 0.96985274E-01 0.28167145E+02</pdfrwt>
<pdfrwt beam="1">  1       -2 0.32608502E-01 0.36869492E+02</pdfrwt>
<totfact> 0.42738337E+02</totfact>
</mgrwt>
</event>
<event>
 7    1  0.6493044E-004  0.1173921E+03  0.7546771E-02  0.1415333E+00
          2   -1    0    0  503    0  0.00000000000E+00  0.00000000000E+00  0.13449947374E+04  0.13449947374E+04  0.00000000000E+00 0. -1.
          1   -1    0    0  502    0 -0.00000000000E+00 -0.00000000000E+00 -0.31383791713E+02  0.31383791713E+02  0.00000000000E+00 0. -1.
         25    2    1    2    0    0 -0.40306709918E+01 -0.13135081044E+03  0.33867145993E+03  0.38417589624E+03  0.12499391892E+03 0.  0.
          4    1    3    3  501    0  0.10936868160E+02 -0.15387195379E+03  0.29044760010E+03  0.32887324998E+03  0.12700000000E+01 0. -1.
         -4    1    3    3    0  501 -0.14967539151E+02  0.22521143352E+02  0.48223859826E+02  0.55302646254E+02  0.12700000000E+01 0. -1.
          2    1    1    2  502    0  0.31115926535E+01  0.10463294927E+03  0.31935779380E+03  0.33607608743E+03  0.00000000000E+00 0. -1.
          1    1    1    2  503    0  0.91907833832E+00  0.26717861175E+02  0.65558169192E+03  0.65612654541E+03  0.00000000000E+00 0. -1.
<mgrwt>
<rscale>  0 0.56020726E+02</rscale>
<asrwt>0</asrwt>
<pdfrwt beam="1">  1        2 0.20692222E+00 0.26733664E+02</pdfrwt>
<pdfrwt beam="2">  1        1 0.48282767E-02 0.11739213E+03</pdfrwt>
<totfact> 0.43426296E+03</totfact>
</mgrwt>
</event>
<event>
 7    1  0.6493044E-004  0.1857192E+03  0.7546771E-02  0.1166439E+00
          2   -1    0    0  503    0  0.00000000000E+00  0.00000000000E+00  0.68490601433E+03  0.68490601433E+03  0.00000000000E+00 0. -1.
         -2   -1    0    0    0  501 -0.00000000000E+00 -0.00000000000E+00 -0.43975637368E+03  0.43975637368E+03  0.00000000000E+00 0.  1.
         25    2    1    2    0    0 -0.61857592359E+01  0.39159086787E+02  0.11105101553E+03  0.17183870138E+03  0.12499805417E+03 0.  0.
          4    1    3    3  502    0  0.48908676599E+02  0.38732080983E+02  0.20217634676E+02  0.65594194833E+02  0.12700000000E+01 0. -1.
         -4    1    3    3    0  502 -0.55094435835E+02  0.42700580426E+00  0.90833380856E+02  0.10624450655E+03  0.12700000000E+01 0. -1.
          1    1    1    2  503    0 -0.85014980864E+00  0.17721184105E+03  0.49844722552E+03  0.52901266147E+03  0.00000000000E+00 0. -1.
         -1    1    1    2    0  501  0.70359090445E+01 -0.21637092783E+03 -0.36434860041E+03  0.42381102516E+03  0.00000000000E+00 0.  1.
<mgrwt>
<rscale>  0 0.18141668E+03</rscale>
<asrwt>0</asrwt>
<pdfrwt beam="1">  1        2 0.10537016E+00 0.17721388E+03</pdfrwt>
<pdfrwt beam="2">  1       -2 0.67654827E-01 0.18571916E+03</pdfrwt>
<totfact> 0.91148764E+01</totfact>
</mgrwt>
</event>
<event>
 7    1  0.6493044E-004  0.3774089E+02  0.7546771E-02  0.1626117E+00
          2   -1    0    0  503    0  0.00000000000E+00  0.00000000000E+00  0.14181941096E+04  0.14181941096E+04  0.00000000000E+00 0. -1.
          1   -1    0    0  502    0 -0.00000000000E+00 -0.00000000000E+00 -0.72760745391E+02  0.72760745391E+02  0.00000000000E+00 0. -1.
         25    2    1    2    0    0  0.10378435692E+02  0.14376016623E+02  0.95495996915E+02  0.15830069476E+03  0.12500097101E+03 0.  0.
          4    1    3    3  501    0 -0.43885044786E+02 -0.32379745146E+02  0.38866575175E+02  0.66981852897E+02  0.12700000000E+01 0. -1.
         -4    1    3    3    0  501  0.54263480478E+02  0.46755761768E+02  0.56629421740E+02  0.91318841860E+02  0.12700000000E+01 0. -1.
          2    1    1    2  502    0  0.11033251100E+02  0.16918784192E+02 -0.38596635338E+02  0.43562347822E+02  0.00000000000E+00 0. -1.
          1    1    1    2  503    0 -0.21411686792E+02 -0.31294800815E+02  0.12885340026E+04  0.12890918124E+04  0.00000000000E+00 0. -1.
<mgrwt>
<rscale>  0 0.27609924E+02</rscale>
<asrwt>0</asrwt>
<pdfrwt beam="1">  1        2 0.21818369E+00 0.37740889E+02</pdfrwt>
<pdfrwt beam="2">  1        1 0.11193962E-01 0.20198463E+02</pdfrwt>
<totfact> 0.11096162E+03</totfact>
</mgrwt>
</event>
<event>
 7    1  0.6493044E-004  0.1197936E+03  0.7546771E-02  0.1382918E+00
          1   -1    0    0  502    0 -0.00000000000E+00  0.00000000000E+00  0.64456403947E+02  0.64456403947E+02  0.00000000000E+00 0. -1.
          2   -1    0    0  503    0  0.00000000000E+00 -0.00000000000E+00 -0.16111988142E+04  0.16111988142E+04  0.00000000000E+00 0. -1.
         25    2    1    2    0    0 -0.76503593773E+02 -0.56585770262E+02 -0.54378311591E+03  0.56602062654E+03  0.12499809306E+03 0.  0.
          4    1    3    3  501    0  0.19889874993E+02  0.96453175513E+01 -0.23144259545E+03  0.23249930574E+03  0.12700000000E+01 0. -1.
         -4    1    3    3    0  501 -0.96393468766E+02 -0.66231087814E+02 -0.31234052046E+03  0.33352132081E+03  0.12700000000E+01 0. -1.
          2    1    1    2  502    0  0.11032627816E+03  0.54695137987E+02 -0.18416856268E+02  0.12450954328E+03  0.00000000000E+00 0. -1.
          1    1    1    2  503    0 -0.33822684386E+02  0.18906322749E+01 -0.98454243803E+03  0.98512504828E+03  0.00000000000E+00 0. -1.
<mgrwt>
<rscale>  0 0.63702951E+02</rscale>
<asrwt>0</asrwt>
<pdfrwt beam="2">  1        2 0.24787673E+00 0.33875485E+02</pdfrwt>
<pdfrwt beam="1">  1        1 0.99163704E-02 0.11979359E+03</pdfrwt>
<totfact> 0.12042651E+03</totfact>
</mgrwt>
</event>
<event>
 7    1  0.6493044E-004  0.1552211E+03  0.7546771E-02  0.1280139E+00
          2   -1    0    0  503    0  0.00000000000E+00  0.00000000000E+00  0.94759793085E+03  0.94759793085E+03  0.00000000000E+00 0. -1.
          1   -1    0    0  502    0 -0.00000000000E+00 -0.00000000000E+00 -0.56372390669E+03  0.56372390669E+03  0.00000000000E+00 0. -1.
         25    2    1    2    0    0 -0.96891065275E+02  0.21022990890E+01 -0.58209865294E+02  0.16853754232E+03  0.12499686621E+03 0.  0.
          4    1    3    3  501    0 -0.20694511622E+02  0.34692302446E+02  0.27829399461E+02  0.49070429330E+02  0.12700000000E+01 0.  1.
         -4    1    3    3    0  501 -0.76196553653E+02 -0.32590003357E+02 -0.86039264755E+02  0.11946711299E+03  0.12700000000E+01 0.  1.
          2    1    1    2  502    0 -0.59873419931E+02  0.24043489624E+02 -0.44090782781E+03  0.44560366744E+03  0.00000000000E+00 0. -1.
          1    1    1    2  503    0  0.15676448521E+03 -0.26145788713E+02  0.88299171727E+03  0.89718062777E+03  0.00000000000E+00 0. -1.
<mgrwt>
<rscale>  0 0.10007483E+03</rscale>
<asrwt>0</asrwt>
<pdfrwt beam="1">  1        2 0.14578430E+00 0.15522114E+03</pdfrwt>
<pdfrwt beam="2">  1        1 0.86726755E-01 0.64520662E+02</pdfrwt>
<totfact> 0.15942589E+02</totfact>
</mgrwt>
</event>
<event>
 7    1  0.6493044E-004  0.6848867E+02  0.7546771E-02  0.1388563E+00
          1   -1    0    0  502    0 -0.00000000000E+00  0.00000000000E+00  0.49456288093E+03  0.49456288093E+03  0.00000000000E+00 0. -1.
          2   -1    0    0  503    0  0.00000000000E+00 -0.00000000000E+00 -0.11543197977E+03  0.11543197977E+03  0.00000000000E+00 0. -1.
         25    2    1    2    0    0  0.18757847546E+02  0.26107019134E+02  0.25286993796E+02  0.13152895223E+03  0.12500799945E+03 0.  0.
          4    1    3    3  501    0  0.52782554088E+02  0.13989363804E+02  0.60195442175E+02  0.81282251902E+02  0.12700000000E+01 0. -1.
         -4    1    3    3    0  501 -0.34024706541E+02  0.12117655330E+02 -0.34908448379E+02  0.50246700331E+02  0.12700000000E+01 0. -1.
          2    1    1    2  502    0 -0.77084902379E+01  0.56080544241E+02  0.38555063231E+03  0.38968415203E+03  0.00000000000E+00 0. -1.
          1    1    1    2  503    0 -0.11049357308E+02 -0.82187563375E+02 -0.31706724946E+02  0.88781756444E+02  0.00000000000E+00 0. -1.
<mgrwt>
<rscale>  0 0.62265530E+02</rscale>
<asrwt>0</asrwt>
<pdfrwt beam="2">  1        2 0.17758766E-01 0.68488673E+02</pdfrwt>
<pdfrwt beam="1">  1        1 0.76086596E-01 0.56607846E+02</pdfrwt>
<totfact> 0.19471574E+03</totfact>
</mgrwt>
</event>
<event>
 7    1  0.6493044E-004  0.6253482E+02  0.7546771E-02  0.1388059E+00
          2   -1    0    0  503    0  0.00000000000E+00  0.00000000000E+00  0.11785666869E+04  0.11785666869E+04  0.00000000000E+00 0. -1.
          1   -1    0    0  502    0 -0.00000000000E+00 -0.00000000000E+00 -0.44880222383E+03  0.44880222383E+03  0.00000000000E+00 0. -1.
         25    2    1    2    0    0 -0.16510784861E+02  0.67243849461E+02  0.20949812681E+03  0.25358649621E+03  0.12498921800E+03 0.  0.
          4    1    3    3  501    0 -0.55642287524E+02  0.25826609144E+01  0.41845499408E+02  0.69680650248E+02  0.12700000000E+01 0.  1.
         -4    1    3    3    0  501  0.39131502663E+02  0.64661188547E+02  0.16765262740E+03  0.18390584596E+03  0.12700000000E+01 0.  1.
          2    1    1    2  502    0  0.58911955561E+02 -0.21667797723E+02 -0.42341885871E+03  0.42804630810E+03  0.00000000000E+00 0. -1.
          1    1    1    2  503    0 -0.42401170699E+02 -0.45576051739E+02  0.94368519495E+03  0.94573610639E+03  0.00000000000E+00 0. -1.
<mgrwt>
<rscale>  0 0.62392141E+02</rscale>
<asrwt>0</asrwt>
<pdfrwt beam="1">  1        2 0.18131795E+00 0.62249785E+02</pdfrwt>
<pdfrwt beam="2">  1        1 0.69046496E-01 0.62534823E+02</pdfrwt>
<totfact> 0.16512505E+02</totfact>
</mgrwt>
</event>
<event>
 7    1  0.6493044E-004  0.2620281E+03  0.7546771E-02  0.1290081E+00
          2   -1    0    0  503    0  0.00000000000E+00  0.00000000000E+00  0.39065084400E+03  0.39065084400E+03  0.00000000000E+00 0. -1.
          1   -1    0    0  502    0 -0.00000000000E+00 -0.00000000000E+00 -0.21329601971E+04  0.21329601971E+04  0.00000000000E+00 0. -1.
         25    2    1    2    0    0 -0.12891743460E+03  0.20962570601E+03 -0.96063251776E+03  0.99950107653E+03  0.12499970498E+03 0.  0.
          4    1    3    3  501    0 -0.15387052443E+03  0.18720536624E+03 -0.83372934463E+03  0.86823281465E+03  0.12700000000E+01 0.  1.
         -4    1    3    3    0  501  0.24953089826E+02  0.22420339775E+02 -0.12690317312E+03  0.13126826188E+03  0.12700000000E+01 0.  1.
          2    1    1    2  502    0 -0.34589275306E+02 -0.38007942075E+01 -0.11060503918E+04  0.11065976383E+04  0.00000000000E+00 0. -1.
          1    1    1    2  503    0  0.16350670991E+03 -0.20582491181E+03  0.32437355639E+03  0.41751232628E+03  0.00000000000E+00 0. -1.
<mgrwt>
<rscale>  0 0.95487772E+02</rscale>
<asrwt>0</asrwt>
<pdfrwt beam="1">  1        2 0.60100130E-01 0.26202808E+03</pdfrwt>
<pdfrwt beam="2">  1        1 0.32814772E+00 0.34797471E+02</pdfrwt>
<totfact> 0.40640100E+01</totfact>
</mgrwt>
</event>
<event>
 7    1  0.6493044E-004  0.7969212E+02  0.7546771E-02  0.1410399E+00
          2   -1    0    0  503    0  0.00000000000E+00  0.00000000000E+00  0.96337935139E+03  0.96337935139E+03  0.00000000000E+00 0. -1.
          1   -1    0    0  502    0 -0.00000000000E+00 -0.00000000000E+00 -0.99941876509E+03  0.99941876509E+03  0.00000000000E+00 0. -1.
         25    2    1    2    0    0 -0.70217221465E+02  0.83115098175E+01 -0.18166154195E+03  0.23157282820E+03  0.12500207820E+03 0.  0.
          4    1    3    3  501    0 -0.93258036214E+02  0.41628597079E+02 -0.11752058914E+03  0.15570068460E+03  0.12700000000E+01 0. -1.
         -4    1    3    3    0  501  0.23040814749E+02 -0.33317087262E+02 -0.64140952811E+02  0.75872143606E+02  0.12700000000E+01 0. -1.
          2    1    1    2  502    0  0.64834168610E+02 -0.48875448305E+02 -0.79027455415E+03  0.79443448427E+03  0.00000000000E+00 0. -1.
          1    1    1    2  503    0  0.53830528550E+01  0.40563938487E+02  0.93589668239E+03  0.93679080401E+03  0.00000000000E+00 0. -1.
<mgrwt>
<rscale>  0 0.57104872E+02</rscale>
<asrwt>0</asrwt>
<pdfrwt beam="1">  1        2 0.14821221E+00 0.40919560E+02</pdfrwt>
<pdfrwt beam="2">  1        1 0.15375673E+00 0.79692118E+02</pdfrwt>
<totfact> 0.72098357E+01</totfact>
</mgrwt>
</event>
<event>
 7    1  0.6493044E-004  0.8352580E+02  0.7546771E-02  0.1399647E+00
          1   -1    0    0  502    0 -0.00000000000E+00  0.00000000000E+00  0.35810900529E+03  0.35810900529E+03  0.00000000000E+00 0. -1.
          2   -1    0    0  503    0  0.00000000000E+00 -0.00000000000E+00 -0.52887384589E+03  0.52887384589E+03  0.00000000000E+00 0. -1.
         25    2    1    2    0    0  0.90350375134E+02 -0.66729261064E+02  0.21233625971E+03  0.27078521882E+03  0.12498785131E+03 0.  0.
          4    1    3    3  501    0  0.74112398081E+02 -0.35924782591E+02  0.22016683984E+03  0.23507081448E+03  0.12700000000E+01 0. -1.
         -4    1    3    3    0  501  0.16237977052E+02 -0.30804478473E+02 -0.78305801260E+01  0.35714404347E+02  0.12700000000E+01 0. -1.
          2    1    1    2  502    0 -0.64879764434E+02  0.32726820484E+02  0.10420681879E+03  0.12704129130E+03  0.00000000000E+00 0. -1.
          1    1    1    2  503    0 -0.25470610700E+02  0.34002440581E+02 -0.48730791911E+03  0.48915634106E+03  0.00000000000E+00 0. -1.
<mgrwt>
<rscale>  0 0.59569600E+02</rscale>
<asrwt>0</asrwt>
<pdfrwt beam="2">  1        2 0.81365207E-01 0.42484326E+02</pdfrwt>
<pdfrwt beam="1">  1        1 0.55093693E-01 0.83525799E+02</pdfrwt>
<totfact> 0.57937977E+02</totfact>
</mgrwt>
</event>
<event>
 7    1  0.6493044E-004  0.2097932E+03  0.7546771E-02  0.1194127E+00
         -2   -1    0    0    0  501 -0.00000000000E+00  0.00000000000E+00  0.44878945590E+03  0.44878945590E+03  0.00000000000E+00 0.  1.
          2   -1    0    0  503    0  0.00000000000E+00 -0.00000000000E+00 -0.64383357398E+03  0.64383357398E+03  0.00000000000E+00 0. -1.
         25    2    1    2    0    0  0.22067163610E+03  0.12094217250E+03 -0.21582085077E+03  0.35429828540E+03  0.12500262134E+03 0.  0.
          4    1    3    3  502    0  0.21711181851E+03  0.96110016733E+02 -0.22542848195E+03  0.32740539157E+03  0.12700000000E+01 0.  1.
         -4    1    3    3    0  502  0.35598175900E+01  0.24832155771E+02  0.96076311869E+01  0.26892893830E+02  0.12700000000E+01 0.  1.
          1    1    1    2  503    0 -0.11409633168E+03 -0.16397742908E+03 -0.32080826459E+03  0.37792130501E+03  0.00000000000E+00 0. -1.
         -1    1    1    2    0  501 -0.10657530442E+03  0.43035256579E+02  0.34158499727E+03  0.36040343947E+03  0.00000000000E+00 0.  1.
<mgrwt>
<rscale>  0 0.15528305E+03</rscale>
<asrwt>0</asrwt>
<pdfrwt beam="2">  1        2 0.99051318E-01 0.20979316E+03</pdfrwt>
<pdfrwt beam="1">  1       -2 0.69044532E-01 0.11493619E+03</pdfrwt>
<totfact> 0.94124704E+01</totfact>
</mgrwt>
</event>
<event>
 7    1  0.6493044E-004  0.2861424E+02  0.7546771E-02  0.1648512E+00
          2   -1    0    0  503    0  0.00000000000E+00  0.00000000000E+00  0.20165284121E+04  0.20165284121E+04  0.00000000000E+00 0. -1.
          1   -1    0    0  502    0 -0.00000000000E+00 -0.00000000000E+00 -0.23487284344E+02  0.23487284344E+02  0.00000000000E+00 0. -1.
         25    2    1    2    0    0  0.49571283835E+02  0.56046414541E+01  0.49159169852E+03  0.50968466834E+03  0.12500935524E+03 0.  0.
          4    1    3    3  501    0 -0.13507291848E+02 -0.42808919509E+02  0.28122514440E+03  0.28478807079E+03  0.12700000000E+01 0. -1.
         -4    1    3    3    0  501  0.63078575683E+02  0.48413560963E+02  0.21036655412E+03  0.22489659755E+03  0.12700000000E+01 0. -1.
          2    1    1    2  502    0 -0.21493926603E+02 -0.93223598750E+01 -0.47167351425E+01  0.23898595458E+02  0.00000000000E+00 0. -1.
          1    1    1    2  503    0 -0.28077357232E+02  0.37177184208E+01  0.15061661644E+04  0.15064324327E+04  0.00000000000E+00 0. -1.
<mgrwt>
<rscale>  0 0.25891874E+02</rscale>
<asrwt>0</asrwt>
<pdfrwt beam="1">  1        2 0.31023500E+00 0.28614241E+02</pdfrwt>
<pdfrwt beam="2">  1        1 0.36134299E-02 0.23428514E+02</pdfrwt>
<totfact> 0.25228443E+03</totfact>
</mgrwt>
</event>
<event>
 7    1  0.6493044E-004  0.1505724E+03  0.7546771E-02  0.1296134E+00
         -2   -1    0    0    0  501 -0.00000000000E+00  0.00000000000E+00  0.15128607339E+03  0.15128607339E+03  0.00000000000E+00 0.  1.
          2   -1    0    0  503    0  0.00000000000E+00 -0.00000000000E+00 -0.15259363066E+04  0.15259363066E+04  0.00000000000E+00 0. -1.
         25    2    1    2    0    0  0.35107849644E+02 -0.15273479021E+03 -0.44570517249E+02  0.20535972498E+03  0.12500243354E+03 0.  0.
          4    1    3    3  502    0  0.38052475767E+01 -0.14074721853E+03 -0.75468706240E+02  0.15975417977E+03  0.12700000000E+01 0. -1.
         -4    1    3    3    0  502  0.31302602067E+02 -0.11987571678E+02  0.30898188991E+02  0.45605545209E+02  0.12700000000E+01 0. -1.
          1    1    1    2  503    0  0.49833852086E+02  0.28148415083E+02 -0.13194610306E+04  0.13207017670E+04  0.00000000000E+00 0. -1.
         -1    1    1    2    0  501 -0.84941701730E+02  0.12458637513E+03 -0.10618685270E+02  0.15116088792E+03  0.00000000000E+00 0.  1.
<mgrwt>
<rscale>  0 0.92832541E+02</rscale>
<asrwt>0</asrwt>
<pdfrwt beam="2">  1        2 0.23475942E+00 0.57234134E+02</pdfrwt>
<pdfrwt beam="1">  1       -2 0.23274782E-01 0.15057240E+03</pdfrwt>
<totfact> 0.24042618E+02</totfact>
</mgrwt>
</event>
<event>
 7    1  0.6493044E-004  0.5550098E+02  0.7546771E-02  0.1506703E+00
          2   -1    0    0  503    0  0.00000000000E+00  0.00000000000E+00  0.13315430946E+03  0.13315430946E+03  0.00000000000E+00 0. -1.
          1   -1    0    0  502    0 -0.00000000000E+00 -0.00000000000E+00 -0.59854029533E+03  0.59854029533E+03  0.00000000000E+00 0. -1.
         25    2    1    2    0    0  0.73324685467E+02 -0.34135748623E+02 -0.13934880898E+03  0.20392850602E+03  0.12500794444E+03 0.  0.
          4    1    3    3  501    0  0.60900668822E+02 -0.78322797641E+02 -0.72751368934E+02  0.12303546917E+03  0.12700000000E+01 0. -1.
         -4    1    3    3    0  501  0.12424016645E+02  0.44187049017E+02 -0.66597440043E+02  0.80893036849E+02  0.12700000000E+01 0. -1.
          2    1    1    2  502    0 -0.20562185334E+02  0.20627549783E+02 -0.41900675152E+03  0.42001780569E+03  0.00000000000E+00 0. -1.
          1    1    1    2  503    0 -0.52762500133E+02  0.13508198840E+02  0.92969574619E+02  0.10774829308E+03  0.00000000000E+00 0. -1.
<mgrwt>
<rscale>  0 0.40205698E+02</rscale>
<asrwt>0</asrwt>
<pdfrwt beam="1">  1        2 0.20485278E-01 0.55500982E+02</pdfrwt>
<pdfrwt beam="2">  1        1 0.92083122E-01 0.29125578E+02</pdfrwt>
<totfact> 0.13171293E+03</totfact>
</mgrwt>
</event>
<event>
 7    1  0.6493044E-004  0.1468582E+03  0.7546771E-02  0.1417273E+00
          1   -1    0    0  503    0  0.00000000000E+00  0.00000000000E+00  0.16406684220E+04  0.16406684220E+04  0.00000000000E+00 0. -1.
         -1   -1    0    0    0  501 -0.00000000000E+00 -0.00000000000E+00 -0.15985671417E+03  0.15985671417E+03  0.00000000000E+00 0.  1.
         25    2    1    2    0    0 -0.52421942091E+02  0.14047529980E+03  0.54349150060E+02  0.20263057215E+03  0.12499579510E+03 0.  0.
          4    1    3    3  502    0  0.39503077180E+02  0.53306530594E+02  0.45874541739E+01  0.66518696217E+02  0.12700000000E+01 0. -1.
         -4    1    3    3    0  502 -0.91925019270E+02  0.87168769204E+02  0.49761695886E+02  0.13611187593E+03  0.12700000000E+01 0. -1.
          2    1    1    2  503    0 -0.17104570923E+02 -0.12272058750E+02  0.14500105333E+04  0.14501633413E+04  0.00000000000E+00 0. -1.
         -2    1    1    2    0  501  0.69526513014E+02 -0.12820324105E+03 -0.23547975493E+02  0.14773122276E+03  0.00000000000E+00 0.  1.
<mgrwt>
<rscale>  0 0.55602153E+02</rscale>
<asrwt>0</asrwt>
<pdfrwt beam="1">  1        1 0.25241051E+00 0.21051598E+02</pdfrwt>
<pdfrwt beam="2">  1       -1 0.24593342E-01 0.14685818E+03</pdfrwt>
<totfact> 0.10880848E+02</totfact>
</mgrwt>
</event>
<event>
 7    1  0.6493044E-004  0.1461093E+03  0.7546771E-02  0.1244459E+00
          2   -1    0    0  503    0  0.00000000000E+00  0.00000000000E+00  0.69402808627E+03  0.69402808627E+03  0.00000000000E+00 0. -1.
         -2   -1    0    0    0  501 -0.00000000000E+00 -0.00000000000E+00 -0.50969138995E+03  0.50969138995E+03  0.00000000000E+00 0.  1.
         25    2    1    2    0    0  0.10423044283E+03  0.17967515477E+03  0.32219649612E+03  0.40321247234E+03  0.12499027675E+03 0.  0.
          4    1    3    3  502    0  0.23668179835E+02  0.10050293977E+03  0.24644487916E+03  0.26720350859E+03  0.12700000000E+01 0. -1.
         -4    1    3    3    0  502  0.80562262998E+02  0.79172215005E+02  0.75751616961E+02  0.13600896375E+03  0.12700000000E+01 0. -1.
          1    1    1    2  503    0 -0.22285619397E+02 -0.12737741234E+03  0.31332924834E+03  0.33896441092E+03  0.00000000000E+00 0. -1.
         -1    1    1    2    0  501 -0.81944823436E+02 -0.52297742428E+02 -0.45118904814E+03  0.46154259295E+03  0.00000000000E+00 0.  1.
<mgrwt>
<rscale>  0 0.11917825E+03</rscale>
<asrwt>0</asrwt>
<pdfrwt beam="1">  1        2 0.10677355E+00 0.14610933E+03</pdfrwt>
<pdfrwt beam="2">  1       -2 0.78414060E-01 0.97211151E+02</pdfrwt>
<totfact> 0.66439268E+01</totfact>
</mgrwt>
</event>
<event>
 7    1  0.6493044E-004  0.1985803E+03  0.7546771E-02  0.1216738E+00
         -2   -1    0    0    0  501 -0.00000000000E+00  0.00000000000E+00  0.20777458730E+03  0.20777458730E+03  0.00000000000E+00 0.  1.
          2   -1    0    0  503    0  0.00000000000E+00 -0.00000000000E+00 -0.19913533031E+04  0.19913533031E+04  0.00000000000E+00 0. -1.
         25    2    1    2    0    0  0.18932526421E+03 -0.13053064887E+03 -0.44030474422E+03  0.51221378917E+03  0.12494955812E+03 0.  0.
          4    1    3    3  502    0  0.13557833136E+03 -0.10355118058E+03 -0.19253213841E+03  0.25724418003E+03  0.12700000000E+01 0.  1.
         -4    1    3    3    0  502  0.53746932845E+02 -0.26979468282E+02 -0.24777260581E+03  0.25496960915E+03  0.12700000000E+01 0.  1.
          1    1    1    2  503    0  0.44234652550E+01  0.95099460147E+02 -0.14565793388E+04  0.14596872421E+04  0.00000000000E+00 0. -1.
         -3    1    1    2    0  501 -0.19374872946E+03  0.35431188719E+02  0.11330536721E+03  0.22722685920E+03  0.00000000000E+00 0.  1.
<mgrwt>
<rscale>  0 0.13749655E+03</rscale>
<asrwt>0</asrwt>
<pdfrwt beam="2">  1        2 0.30636205E+00 0.95202281E+02</pdfrwt>
<pdfrwt beam="1">  1       -2 0.31965321E-01 0.19858033E+03</pdfrwt>
<totfact> 0.76652474E+01</totfact>
</mgrwt>
</event>
<event>
 7    1  0.6493044E-004  0.3908984E+02  0.7546771E-02  0.1548903E+00
          1   -1    0    0  502    0 -0.00000000000E+00  0.00000000000E+00  0.64957868433E+03  0.64957868433E+03  0.00000000000E+00 0. -1.
          2   -1    0    0  503    0  0.00000000000E+00 -0.00000000000E+00 -0.33791293773E+02  0.33791293773E+02  0.00000000000E+00 0. -1.
         25    2    1    2    0    0 -0.49987308517E+02  0.32914193248E+02  0.42171920894E+03  0.44390740724E+03  0.12499847952E+03 0.  0.
          4    1    3    3  501    0 -0.16492490627E+02  0.24959692398E+02  0.40411021409E+03  0.40521804812E+03  0.12700000000E+01 0.  1.
         -4    1    3    3    0  501 -0.33494817890E+02  0.79545008499E+01  0.17608994849E+02  0.38689359117E+02  0.12700000000E+01 0.  1.
          2    1    1    2  502    0  0.36434166725E+02 -0.47259371396E+01  0.20350340857E+03  0.20679318240E+03  0.00000000000E+00 0. -1.
          1    1    1    2  503    0  0.13553141793E+02 -0.28188256108E+02 -0.94352269550E+01  0.32669388463E+02  0.00000000000E+00 0. -1.
<mgrwt>
<rscale>  0 0.34966016E+02</rscale>
<asrwt>0</asrwt>
<pdfrwt beam="2">  1        2 0.51986611E-02 0.31277235E+02</pdfrwt>
<pdfrwt beam="1">  1        1 0.99935172E-01 0.39089845E+02</pdfrwt>
<totfact> 0.55885960E+03</totfact>
</mgrwt>
</event>
<event>
 7    1  0.6493044E-004  0.1026823E+03  0.7546771E-02  0.1284148E+00
          1   -1    0    0  502    0 -0.00000000000E+00  0.00000000000E+00  0.19491074251E+04  0.19491074251E+04  0.00000000000E+00 0. -1.
          2   -1    0    0  503    0  0.00000000000E+00 -0.00000000000E+00 -0.25857356820E+04  0.25857356820E+04  0.00000000000E+00 0. -1.
         25    2    1    2    0    0  0.14476388458E+03 -0.12904448050E+03  0.72450852323E+03  0.76035951244E+03  0.12499971081E+03 0.  0.
          4    1    3    3  501    0  0.10704667105E+03 -0.18832307790E+02  0.43301625498E+03  0.44645082101E+03  0.12700000000E+01 0. -1.
         -4    1    3    3    0  501  0.37717213529E+02 -0.11021217271E+03  0.29149226825E+03  0.31390869144E+03  0.12700000000E+01 0. -1.
          2    1    1    2  502    0 -0.79538829529E+02  0.49898209910E+02  0.12038204957E+04  0.12074767255E+04  0.00000000000E+00 0. -1.
          1    1    1    2  503    0 -0.65225055048E+02  0.79146270587E+02 -0.25649572757E+04  0.25670068692E+04  0.00000000000E+00 0. -1.
<mgrwt>
<rscale>  0 0.98190340E+02</rscale>
<asrwt>0</asrwt>
<pdfrwt beam="2">  1        2 0.39780549E+00 0.10268226E+03</pdfrwt>
<pdfrwt beam="1">  1        1 0.29986268E+00 0.93894924E+02</pdfrwt>
<totfact> 0.23199154E+00</totfact>
</mgrwt>
</event>
<event>
 7    1  0.6493044E-004  0.8004635E+02  0.7546771E-02  0.1440968E+00
         -2   -1    0    0    0  501 -0.00000000000E+00  0.00000000000E+00  0.80193989070E+02  0.80193989070E+02  0.00000000000E+00 0.  1.
          2   -1    0    0  503    0  0.00000000000E+00 -0.00000000000E+00 -0.65832927960E+03  0.65832927960E+03  0.00000000000E+00 0. -1.
         25    2    1    2    0    0 -0.57639427617E+02 -0.49473391936E+02 -0.35988429177E+03  0.38847312334E+03  0.12499897587E+03 0.  0.
          4    1    3    3  502    0 -0.60630827905E+02 -0.88146313814E+02 -0.27727570120E+03  0.29720245172E+03  0.12700000000E+01 0. -1.
         -4    1    3    3    0  502  0.29914002884E+01  0.38672921878E+02 -0.82608590566E+02  0.91270671618E+02  0.12700000000E+01 0. -1.
          1    1    1    2  503    0  0.22451185023E+02 -0.23172414316E+02 -0.25804524869E+03  0.26005454594E+03  0.00000000000E+00 0. -1.
         -1    1    1    2    0  501  0.35188242594E+02  0.72645806252E+02  0.39794249925E+02  0.89995599392E+02  0.00000000000E+00 0.  1.
<mgrwt>
<rscale>  0 0.50820058E+02</rscale>
<asrwt>0</asrwt>
<pdfrwt beam="2">  1        2 0.10128143E+00 0.32264787E+02</pdfrwt>
<pdfrwt beam="1">  1       -2 0.12337536E-01 0.80046346E+02</pdfrwt>
<totfact> 0.21187947E+03</totfact>
</mgrwt>
</event>
<event>
 7    1  0.6493044E-004  0.3297849E+02  0.7546771E-02  0.1599321E+00
          1   -1    0    0  503    0  0.00000000000E+00  0.00000000000E+00  0.20801647180E+04  0.20801647180E+04  0.00000000000E+00 0. -1.
         -1   -1    0    0    0  501 -0.00000000000E+00 -0.00000000000E+00 -0.15251455769E+02  0.15251455769E+02  0.00000000000E+00 0.  1.
         25    2    1    2    0    0  0.25780617848E+02 -0.48255507716E+02  0.92224479967E+03  0.93228514574E+03  0.12500755238E+03 0.  0.
          4    1    3    3  502    0 -0.33349941009E+02 -0.53042900310E+02  0.26249001526E+03  0.26986735417E+03  0.12700000000E+01 0.  1.
         -4    1    3    3    0  502  0.59130558857E+02  0.47873925945E+01  0.65975478442E+03  0.66241779156E+03  0.12700000000E+01 0.  1.
          2    1    1    2  503    0 -0.11880417151E+01  0.27062458957E+02  0.11265676079E+04  0.11268932351E+04  0.00000000000E+00 0. -1.
         -2    1    1    2    0  501 -0.24592576133E+02  0.21193048758E+02  0.16100854659E+02  0.36237792942E+02  0.00000000000E+00 0.  1.
<mgrwt>
<rscale>  0 0.29888772E+02</rscale>
<asrwt>0</asrwt>
<pdfrwt beam="1">  1        1 0.32002512E+00 0.27088524E+02</pdfrwt>
<pdfrwt beam="2">  1       -1 0.23463795E-02 0.32978493E+02</pdfrwt>
<totfact> 0.16734815E+03</totfact>
</mgrwt>
</event>
<event>
 7    1  0.6493044E-004  0.4864789E+02  0.7546771E-02  0.1568401E+00
         -2   -1    0    0    0  501 -0.00000000000E+00  0.00000000000E+00  0.99036622969E+02  0.99036622969E+02  0.00000000000E+00 0.  1.
          2   -1    0    0  503    0  0.00000000000E+00 -0.00000000000E+00 -0.40826542219E+03  0.40826542219E+03  0.00000000000E+00 0. -1.
         25    2    1    2    0    0 -0.15338088986E+02  0.68525023756E+02  0.17449963690E+01  0.14338550215E+03  0.12500168543E+03 0.  0.
          4    1    3    3  502    0  0.43893673632E+02  0.46805403331E+01 -0.26886740239E+02  0.51701757643E+02  0.12700000000E+01 0. -1.
         -4    1    3    3    0  502 -0.59231762618E+02  0.63844483423E+02  0.28631736608E+02  0.91683744511E+02  0.12700000000E+01 0. -1.
          1    1    1    2  503    0  0.86751913606E+01 -0.47342981754E+02 -0.33071844951E+03  0.33420249806E+03  0.00000000000E+00 0. -1.
         -1    1    1    2    0  501  0.66628976258E+01 -0.21182042002E+02  0.19744653921E+02  0.29714044939E+02  0.00000000000E+00 0.  1.
<mgrwt>
<rscale>  0 0.32866983E+02</rscale>
<asrwt>0</asrwt>
<pdfrwt beam="2">  1        2 0.62810064E-01 0.48647891E+02</pdfrwt>
<pdfrwt beam="1">  1       -2 0.15236404E-01 0.22205250E+02</pdfrwt>
<totfact> 0.22801974E+03</totfact>
</mgrwt>
</event>
<event>
 7    1  0.6493044E-004  0.4918271E+02  0.7546771E-02  0.1501178E+00
          1   -1    0    0  502    0 -0.00000000000E+00  0.00000000000E+00  0.71869145927E+02  0.71869145927E+02  0.00000000000E+00 0. -1.
          2   -1    0    0  503    0  0.00000000000E+00 -0.00000000000E+00 -0.23005265254E+04  0.23005265254E+04  0.00000000000E+00 0. -1.
         25    2    1    2    0    0 -0.70525210795E+02  0.12119598868E+02 -0.71835803400E+03  0.73265646403E+03  0.12500615679E+03 0.  0.
          4    1    3    3  501    0 -0.45928635137E+02 -0.22909384239E+02 -0.64979479503E+03  0.65181988920E+03  0.12700000000E+01 0.  1.
         -4    1    3    3    0  501 -0.24596575658E+02  0.35028983108E+02 -0.68563238972E+02  0.80836574829E+02  0.12700000000E+01 0.  1.
          2    1    1    2  502    0  0.30600184517E+02  0.15120111884E+02  0.59821948955E+02  0.68874194388E+02  0.00000000000E+00 0. -1.
          1    1    1    2  503    0  0.39925026278E+02 -0.27239710752E+02 -0.15701212944E+04  0.15708650129E+04  0.00000000000E+00 0. -1.
<mgrwt>
<rscale>  0 0.40971954E+02</rscale>
<asrwt>0</asrwt>
<pdfrwt beam="2">  1        2 0.35392719E+00 0.49182707E+02</pdfrwt>
<pdfrwt beam="1">  1        1 0.11056791E-01 0.34131936E+02</pdfrwt>
<totfact> 0.42628147E+02</totfact>
</mgrwt>
</event>
<event>
 7    1  0.6493044E-004  0.9595657E+02  0.7546771E-02  0.1317341E+00
          1   -1    0    0  502    0 -0.00000000000E+00  0.00000000000E+00  0.14335275377E+04  0.14335275377E+04  0.00000000000E+00 0. -1.
          2   -1    0    0  503    0  0.00000000000E+00 -0.00000000000E+00 -0.14774034384E+04  0.14774034384E+04  0.00000000000E+00 0. -1.
         25    2    1    2    0    0 -0.40637200793E+01  0.11387044641E+03 -0.10149938223E+02  0.16944446761E+03  0.12500165587E+03 0.  0.
          4    1    3    3  501    0  0.48997744229E+02  0.42135553677E+02  0.30399435236E+02  0.71427742411E+02  0.12700000000E+01 0.  1.
         -4    1    3    3    0  501 -0.53061464308E+02  0.71734892732E+02 -0.40549373459E+02  0.98016725194E+02  0.12700000000E+01 0.  1.
          2    1    1    2  502    0  0.64549738737E+02 -0.71213926275E+02  0.13511849805E+04  0.13545991819E+04  0.00000000000E+00 0. -1.
          1    1    1    2  503    0 -0.60486018657E+02 -0.42656520134E+02 -0.13849109429E+04  0.13868873267E+04  0.00000000000E+00 0. -1.
<mgrwt>
<rscale>  0 0.84274384E+02</rscale>
<asrwt>0</asrwt>
<pdfrwt beam="2">  1        2 0.22729284E+00 0.74014439E+02</pdfrwt>
<pdfrwt beam="1">  1        1 0.22054270E+00 0.95956571E+02</pdfrwt>
<totfact> 0.18597644E+01</totfact>
</mgrwt>
</event>
<event>
 7    1  0.6493044E-004  0.6523982E+02  0.7546771E-02  0.1487423E+00
          2   -1    0    0  503    0  0.00000000000E+00  0.00000000000E+00  0.59133208933E+03  0.59133208933E+03  0.00000000000E+00 0. -1.
         -2   -1    0    0    0  501 -0.00000000000E+00 -0.00000000000E+00 -0.99916912115E+03  0.99916912115E+03  0.00000000000E+00 0.  1.
         25    2    1    2    0    0 -0.87406430469E+02 -0.17617600269E+02 -0.11680157110E+03  0.19292473211E+03  0.12500832500E+03 0.  0.
          4    1    3    3  502    0 -0.94766701455E+02  0.34250300304E+02 -0.83123605191E+02  0.13063291092E+03  0.12700000000E+01 0.  1.
         -4    1    3    3    0  502  0.73602709863E+01 -0.51867900573E+02 -0.33677965910E+02  0.62291821185E+02  0.12700000000E+01 0.  1.
          1    1    1    2  503    0  0.22902638530E+02  0.16628987531E+02  0.55167491846E+03  0.55240046138E+03  0.00000000000E+00 0. -1.
         -1    1    1    2    0  501  0.64503791939E+02  0.98861273748E+00 -0.84271037917E+03  0.84517601699E+03  0.00000000000E+00 0.  1.
<mgrwt>
<rscale>  0 0.42970642E+02</rscale>
<asrwt>0</asrwt>
<pdfrwt beam="1">  1        2 0.90974168E-01 0.28302899E+02</pdfrwt>
<pdfrwt beam="2">  1       -2 0.15371833E+00 0.65239822E+02</pdfrwt>
<totfact> 0.17428296E+01</totfact>
</mgrwt>
</event>
<event>
 7    1  0.6493044E-004  0.7017691E+02  0.7546771E-02  0.1457920E+00
          2   -1    0    0  503    0  0.00000000000E+00  0.00000000000E+00  0.10986476004E+04  0.10986476004E+04  0.00000000000E+00 0. -1.
          1   -1    0    0  502    0 -0.00000000000E+00 -0.00000000000E+00 -0.28806573638E+03  0.28806573638E+03  0.00000000000E+00 0. -1.
         25    2    1    2    0    0 -0.50683674837E+02 -0.13114143924E+01 -0.56796495239E+02  0.14636042472E+03  0.12499990940E+03 0.  0.
          4    1    3    3  501    0 -0.30601552849E+01 -0.38407717871E+01 -0.88779428921E+02  0.88924214800E+02  0.12700000000E+01 0.  1.
         -4    1    3    3    0  501 -0.47623519552E+02  0.25293573948E+01  0.31982933682E+02  0.57436209923E+02  0.12700000000E+01 0.  1.
          2    1    1    2  502    0  0.68055711821E+02  0.28753086817E+02 -0.17890811254E+03  0.19356247737E+03  0.00000000000E+00 0. -1.
          1    1    1    2  503    0 -0.17372036984E+02 -0.27441672425E+02  0.10462864718E+04  0.10467904347E+04  0.00000000000E+00 0. -1.
<mgrwt>
<rscale>  0 0.47741169E+02</rscale>
<asrwt>0</asrwt>
<pdfrwt beam="1">  1        2 0.16902271E+00 0.32478194E+02</pdfrwt>
<pdfrwt beam="2">  1        1 0.44317806E-01 0.70176908E+02</pdfrwt>
<totfact> 0.32581100E+02</totfact>
</mgrwt>
</event>
<event>
 7    1  0.6493044E-004  0.6395290E+02  0.7546771E-02  0.1398534E+00
          2   -1    0    0  503    0  0.00000000000E+00  0.00000000000E+00  0.52039915039E+03  0.52039915039E+03  0.00000000000E+00 0. -1.
          1   -1    0    0  502    0 -0.00000000000E+00 -0.00000000000E+00 -0.83709849765E+03  0.83709849765E+03  0.00000000000E+00 0. -1.
         25    2    1    2    0    0  0.20910110298E+01  0.71332688076E+02  0.12196229537E+03  0.18868082987E+03  0.12503171338E+03 0.  0.
          4    1    3    3  501    0  0.40839089540E+02  0.40480481903E+02  0.12646498180E+03  0.13892985702E+03  0.12700000000E+01 0. -1.
         -4    1    3    3    0  501 -0.38748078511E+02  0.30852206173E+02 -0.45026864313E+01  0.49750972846E+02  0.12700000000E+01 0. -1.
          2    1    1    2  502    0  0.46699920097E+02 -0.43891378882E+02 -0.80030483961E+03  0.80286684573E+03  0.00000000000E+00 0. -1.
          1    1    1    2  503    0 -0.48790931127E+02 -0.27441309194E+02  0.36164319697E+03  0.36594997244E+03  0.00000000000E+00 0. -1.
<mgrwt>
<rscale>  0 0.59832938E+02</rscale>
<asrwt>0</asrwt>
<pdfrwt beam="1">  1        2 0.80061408E-01 0.55978392E+02</pdfrwt>
<pdfrwt beam="2">  1        1 0.12878438E+00 0.63952898E+02</pdfrwt>
<totfact> 0.19326555E+02</totfact>
</mgrwt>
</event>
<event>
 7    1  0.6493044E-004  0.5738551E+02  0.7546771E-02  0.1409521E+00
          2   -1    0    0  503    0  0.00000000000E+00  0.00000000000E+00  0.76882976135E+03  0.76882976135E+03  0.00000000000E+00 0. -1.
          1   -1    0    0  502    0 -0.00000000000E+00 -0.00000000000E+00 -0.27245632966E+04  0.27245632966E+04  0.00000000000E+00 0. -1.
         25    2    1    2    0    0  0.13141774487E+01 -0.59575767135E+02  0.34068093086E+03  0.36774804605E+03  0.12499651848E+03 0.  0.
          4    1    3    3  501    0  0.23356456534E+02 -0.74704459655E+02  0.10720694745E+03  0.13274495408E+03  0.12700000000E+01 0. -1.
         -4    1    3    3    0  501 -0.22042279085E+02  0.15128692520E+02  0.23347398341E+03  0.23500309197E+03  0.12700000000E+01 0. -1.
          2    1    1    2  502    0 -0.51486166140E+02  0.24957750809E+02 -0.27084855552E+04  0.27090898319E+04  0.00000000000E+00 0. -1.
          1    1    1    2  503    0  0.50171988691E+02  0.34618016326E+02  0.41207108910E+03  0.41655517999E+03  0.00000000000E+00 0. -1.
<mgrwt>
<rscale>  0 0.57300887E+02</rscale>
<asrwt>0</asrwt>
<pdfrwt beam="1">  1        2 0.11828150E+00 0.57385514E+02</pdfrwt>
<pdfrwt beam="2">  1        1 0.41916359E+00 0.57216384E+02</pdfrwt>
<totfact> 0.77326179E+00</totfact>
</mgrwt>
</event>
<event>
 7    1  0.6493044E-004  0.9250492E+02  0.7546771E-02  0.1389449E+00
          1   -1    0    0  502    0 -0.00000000000E+00  0.00000000000E+00  0.91045995650E+03  0.91045995650E+03  0.00000000000E+00 0. -1.
          2   -1    0    0  503    0  0.00000000000E+00 -0.00000000000E+00 -0.29802812495E+03  0.29802812495E+03  0.00000000000E+00 0. -1.
         25    2    1    2    0    0  0.88583009875E+02  0.80267909048E+02 -0.19305107022E+02  0.17403883500E+03  0.12500776803E+03 0.  0.
          4    1    3    3  501    0  0.72733647897E+02  0.87785508439E+02 -0.60629118719E+02  0.12912777379E+03  0.12700000000E+01 0.  1.
         -4    1    3    3    0  501  0.15849361978E+02 -0.75175993911E+01  0.41324011697E+02  0.44911061204E+02  0.12700000000E+01 0.  1.
          2    1    1    2  502    0 -0.41403335469E+02 -0.41777991115E+01  0.82258902206E+03  0.82364093476E+03  0.00000000000E+00 0. -1.
          1    1    1    2  503    0 -0.47179674405E+02 -0.76090109937E+02 -0.19085208349E+03  0.21080831170E+03  0.00000000000E+00 0. -1.
<mgrwt>
<rscale>  0 0.62044024E+02</rscale>
<asrwt>0</asrwt>
<pdfrwt beam="2">  1        2 0.45850481E-01 0.92504917E+02</pdfrwt>
<pdfrwt beam="1">  1        1 0.14007076E+00 0.41613582E+02</pdfrwt>
<totfact> 0.31250575E+02</totfact>
</mgrwt>
</event>
<event>
 7    1  0.6493044E-004  0.1046080E+03  0.7546771E-02  0.1315666E+00
          1   -1    0    0  503    0  0.00000000000E+00  0.00000000000E+00  0.21812937260E+04  0.21812937260E+04  0.00000000000E+00 0. -1.
         -1   -1    0    0    0  501 -0.00000000000E+00 -0.00000000000E+00 -0.11699339778E+03  0.11699339778E+03  0.00000000000E+00 0.  1.
         25    2    1    2    0    0  0.55341161886E+02  0.34879995605E+02  0.32024550861E+03  0.34994319615E+03  0.12499518573E+03 0.  0.
          4    1    3    3  502    0  0.60334550345E+02  0.38240491139E+02  0.33041897054E+03  0.33805458453E+03  0.12700000000E+01 0.  1.
         -4    1    3    3    0  502 -0.49933884588E+01 -0.33604955337E+01 -0.10173461934E+02  0.11888611620E+02  0.12700000000E+01 0.  1.
          2    1    1    2  503    0  0.53442166741E+02 -0.43523138809E+02  0.18162117818E+04  0.18175190688E+04  0.00000000000E+00 0. -1.
         -2    1    1    2    0  501 -0.10878332863E+03  0.86431432042E+01 -0.72156962200E+02  0.13082485890E+03  0.00000000000E+00 0.  1.
<mgrwt>
<rscale>  0 0.84910866E+02</rscale>
<asrwt>0</asrwt>
<pdfrwt beam="1">  1        1 0.33558362E+00 0.68922629E+02</pdfrwt>
<pdfrwt beam="2">  1       -1 0.17998986E-01 0.10460795E+03</pdfrwt>
<totfact> 0.71498234E+01</totfact>
</mgrwt>
</event>
<event>
 7    1  0.6493044E-004  0.8223107E+02  0.7546771E-02  0.1442681E+00
          1   -1    0    0  502    0 -0.00000000000E+00  0.00000000000E+00  0.93425601021E+03  0.93425601021E+03  0.00000000000E+00 0. -1.
          2   -1    0    0  503    0  0.00000000000E+00 -0.00000000000E+00 -0.80664042997E+03  0.80664042997E+03  0.00000000000E+00 0. -1.
         25    2    1    2    0    0  0.69196774799E+02  0.29884851485E+02 -0.12397131891E+03  0.19151052103E+03  0.12500437497E+03 0.  0.
          4    1    3    3  501    0  0.81803089563E+02  0.53284135457E+02 -0.43745733640E+02  0.10698713318E+03  0.12700000000E+01 0. -1.
         -4    1    3    3    0  501 -0.12606314764E+02 -0.23399283972E+02 -0.80225585272E+02  0.84523387855E+02  0.12700000000E+01 0. -1.
          2    1    1    2  502    0 -0.57780821983E+02 -0.58716194119E+02  0.89823004890E+03  0.90199968713E+03  0.00000000000E+00 0. -1.
          3    1    1    2  503    0 -0.11415952816E+02  0.28831342634E+02 -0.64664314975E+03  0.64738623202E+03  0.00000000000E+00 0. -1.
<mgrwt>
<rscale>  0 0.50496726E+02</rscale>
<asrwt>0</asrwt>
<pdfrwt beam="2">  1        2 0.12409853E+00 0.31009197E+02</pdfrwt>
<pdfrwt beam="1">  1        1 0.14373169E+00 0.82231067E+02</pdfrwt>
<totfact> 0.10075251E+02</totfact>
</mgrwt>
</event>
<event>
 7    1  0.6493044E-004  0.1421031E+03  0.7546771E-02  0.1210841E+00
          2   -1    0    0  503    0  0.00000000000E+00  0.00000000000E+00  0.25968053849E+04  0.25968053849E+04  0.00000000000E+00 0. -1.
          1   -1    0    0  502    0 -0.00000000000E+00 -0.00000000000E+00 -0.36038244175E+03  0.36038244175E+03  0.00000000000E+00 0. -1.
         25    2    1    2    0    0 -0.21181800364E+03 -0.72590839839E+02  0.16909510489E+04  0.17102858589E+04  0.12500389135E+03 0.  0.
          4    1    3    3  501    0 -0.53857530432E+02  0.33152889307E+02  0.54744400296E+03  0.55108646956E+03  0.12700000000E+01 0.  1.
         -4    1    3    3    0  501 -0.15796047321E+03 -0.10574372915E+03  0.11435070459E+04  0.11591993894E+04  0.12700000000E+01 0.  1.
          2    1    1    2  502    0  0.77844868599E+02  0.11852143302E+03 -0.33045782013E+03  0.35959633555E+03  0.00000000000E+00 0. -1.
          1    1    1    2  503    0  0.13397313504E+03 -0.45930593181E+02  0.87592971445E+03  0.88730563221E+03  0.00000000000E+00 0. -1.
<mgrwt>
<rscale>  0 0.14186523E+03</rscale>
<asrwt>0</asrwt>
<pdfrwt beam="1">  1        2 0.39950851E+00 0.14162775E+03</pdfrwt>
<pdfrwt beam="2">  1        1 0.55443454E-01 0.14210311E+03</pdfrwt>
<totfact> 0.36907648E+01</totfact>
</mgrwt>
</event>
<event>
 7    1  0.6493044E-004  0.5980908E+02  0.7546771E-02  0.1504899E+00
          2   -1    0    0  503    0  0.00000000000E+00  0.00000000000E+00  0.11951544912E+04  0.11951544912E+04  0.00000000000E+00 0. -1.
          1   -1    0    0  502    0 -0.00000000000E+00 -0.00000000000E+00 -0.93911289084E+02  0.93911289084E+02  0.00000000000E+00 0. -1.
         25    2    1    2    0    0 -0.61457294738E+02 -0.38794962170E+02  0.35127531483E+03  0.37987015173E+03  0.12499974880E+03 0.  0.
          4    1    3    3  501    0  0.25534387107E+02 -0.48382309321E+02  0.10326690028E+03  0.11686966405E+03  0.12700000000E+01 0. -1.
         -4    1    3    3    0  501 -0.86991681845E+02  0.95873471502E+01  0.24800841454E+03  0.26300048768E+03  0.12700000000E+01 0. -1.
          2    1    1    2  502    0  0.58417602413E+02  0.11602198344E+02 -0.68214231266E+02  0.90556107610E+02  0.00000000000E+00 0. -1.
          1    1    1    2  503    0  0.30396923243E+01  0.27192763827E+02  0.81818211857E+03  0.81863952096E+03  0.00000000000E+00 0. -1.
<mgrwt>
<rscale>  0 0.40453723E+02</rscale>
<asrwt>0</asrwt>
<pdfrwt beam="1">  1        2 0.18386991E+00 0.27362130E+02</pdfrwt>
<pdfrwt beam="2">  1        1 0.14447891E-01 0.59809077E+02</pdfrwt>
<totfact> 0.11576932E+03</totfact>
</mgrwt>
</event>
<event>
 7    1  0.6493044E-004  0.5430540E+02  0.7546771E-02  0.1490713E+00
         -1   -1    0    0    0  501 -0.00000000000E+00  0.00000000000E+00  0.59276668389E+02  0.59276668389E+02  0.00000000000E+00 0.  1.
          1   -1    0    0  503    0  0.00000000000E+00 -0.00000000000E+00 -0.45456416431E+03  0.45456416431E+03  0.00000000000E+00 0. -1.
         25    2    1    2    0    0 -0.24605547042E+02  0.16145286820E+02 -0.88077260781E+02  0.15572166985E+03  0.12500212543E+03 0.  0.
          4    1    3    3  502    0 -0.13411797596E+02  0.63472589334E+02 -0.12869425921E+02  0.66150441685E+02  0.12700000000E+01 0. -1.
         -4    1    3    3    0  502 -0.11193749446E+02 -0.47327302514E+02 -0.75207834860E+02  0.89571228161E+02  0.12700000000E+01 0. -1.
          2    1    1    2  503    0 -0.24472299291E+02  0.22480300057E+02 -0.29193967677E+03  0.29382483251E+03  0.00000000000E+00 0. -1.
         -2    1    1    2    0  501  0.49077846334E+02 -0.38625586878E+02 -0.15270558372E+02  0.64294330352E+02  0.00000000000E+00 0.  1.
<mgrwt>
<rscale>  0 0.42480447E+02</rscale>
<asrwt>0</asrwt>
<pdfrwt beam="2">  1        1 0.69932950E-01 0.33230367E+02</pdfrwt>
<pdfrwt beam="1">  1       -1 0.91194872E-02 0.54305400E+02</pdfrwt>
<totfact> 0.33541601E+03</totfact>
</mgrwt>
</event>
<event>
 7    1  0.7280904E-004  0.7764436E+02  0.7546771E-02  0.1343533E+00
          1   -1    0    0  502    0 -0.00000000000E+00  0.00000000000E+00  0.19415423498E+04  0.19415423498E+04  0.00000000000E+00 0. -1.
          2   -1    0    0  503    0  0.00000000000E+00 -0.00000000000E+00 -0.17563340603E+04  0.17563340603E+04  0.00000000000E+00 0. -1.
         25    2    1    2    0    0  0.89328844975E+02 -0.38302062565E+02  0.31659843492E+03  0.35398492792E+03  0.12499627858E+03 0.  0.
          4    1    3    3  501    0  0.84210403827E+01  0.24633057175E+02  0.18669516899E+03  0.18850570403E+03  0.12700000000E+01 0.  1.
         -4    1    3    3    0  501  0.80907804592E+02 -0.62935119740E+02  0.12990326593E+03  0.16547922389E+03  0.12700000000E+01 0.  1.
          2    1    1    2  502    0 -0.25906169869E+02  0.73751125763E+02  0.16045392569E+04  0.16064422134E+04  0.00000000000E+00 0. -1.
          1    1    1    2  503    0 -0.63422675105E+02 -0.35449063197E+02 -0.17359294023E+04  0.17374492688E+04  0.00000000000E+00 0. -1.
<mgrwt>
<rscale>  0 0.75109411E+02</rscale>
<asrwt>0</asrwt>
<pdfrwt beam="2">  1        2 0.27020524E+00 0.72657221E+02</pdfrwt>
<pdfrwt beam="1">  1        1 0.29869882E+00 0.77644363E+02</pdfrwt>
<totfact> 0.66160117E+00</totfact>
</mgrwt>
</event>
<event>
 7    1  0.6493044E-004  0.3849777E+03  0.7546771E-02  0.1179209E+00
          2   -1    0    0  503    0  0.00000000000E+00  0.00000000000E+00  0.38277853873E+04  0.38277853873E+04  0.00000000000E+00 0. -1.
          1   -1    0    0  502    0 -0.00000000000E+00 -0.00000000000E+00 -0.92492921557E+03  0.92492921557E+03  0.00000000000E+00 0. -1.
         25    2    1    2    0    0  0.34967813706E+03 -0.15442083219E+03  0.22982123760E+03  0.46320936565E+03  0.12499808885E+03 0.  0.
          4    1    3    3  501    0  0.19873069818E+03 -0.55806771549E+02  0.58652264832E+02  0.21459260756E+03  0.12700000000E+01 0.  1.
         -4    1    3    3    0  501  0.15094743888E+03 -0.98614060644E+02  0.17116897277E+03  0.24861675808E+03  0.12700000000E+01 0.  1.
          2    1    1    2  502    0 -0.33093449250E+02 -0.66106120704E+02 -0.79582682635E+03  0.79925310954E+03  0.00000000000E+00 0. -1.
          1    1    1    2  503    0 -0.31658468781E+03  0.22052695290E+03  0.34688617605E+04  0.34902521277E+04  0.00000000000E+00 0. -1.
<mgrwt>
<rscale>  0 0.16870161E+03</rscale>
<asrwt>0</asrwt>
<pdfrwt beam="1">  1        2 0.58889005E+00 0.38497774E+03</pdfrwt>
<pdfrwt beam="2">  1        1 0.14229680E+00 0.73926961E+02</pdfrwt>
<totfact> 0.15331474E+00</totfact>
</mgrwt>
</event>
<event>
 7    1  0.6493044E-004  0.1801552E+03  0.7546771E-02  0.1214641E+00
          1   -1    0    0  502    0 -0.00000000000E+00  0.00000000000E+00  0.24976569946E+04  0.24976569946E+04  0.00000000000E+00 0. -1.
          2   -1    0    0  503    0  0.00000000000E+00 -0.00000000000E+00 -0.23832212037E+03  0.23832212037E+03  0.00000000000E+00 0. -1.
         25    2    1    2    0    0 -0.37574574787E+02  0.99907810819E+02  0.48200599862E+03  0.50926189656E+03  0.12499790895E+03 0.  0.
          4    1    3    3  501    0 -0.39693216000E+02  0.12686983503E+03  0.34756474942E+03  0.37212145111E+03  0.12700000000E+01 0.  1.
         -4    1    3    3    0  501  0.21186412135E+01 -0.26962024208E+02  0.13444124920E+03  0.13714044544E+03  0.12700000000E+01 0.  1.
          2    1    1    2  502    0  0.10734394159E+03 -0.18141650402E+03  0.19833033048E+04  0.19944740331E+04  0.00000000000E+00 0. -1.
          1    1    1    2  503    0 -0.69769366800E+02  0.81508693202E+02 -0.20597442925E+03  0.23224318529E+03  0.00000000000E+00 0. -1.
<mgrwt>
<rscale>  0 0.13902910E+03</rscale>
<asrwt>0</asrwt>
<pdfrwt beam="2">  1        2 0.36664943E-01 0.10729134E+03</pdfrwt>
<pdfrwt beam="1">  1        1 0.38425490E+00 0.18015518E+03</pdfrwt>
<totfact> 0.31940208E+01</totfact>
</mgrwt>
</event>
<event>
 7    1  0.6493044E-004  0.1119972E+03  0.7546771E-02  0.1409805E+00
          2   -1    0    0  503    0  0.00000000000E+00  0.00000000000E+00  0.17669302495E+03  0.17669302495E+03  0.00000000000E+00 0. -1.
         -2   -1    0    0    0  501 -0.00000000000E+00 -0.00000000000E+00 -0.34189825547E+03  0.34189825547E+03  0.00000000000E+00 0.  1.
         25    2    1    2    0    0 -0.11659819484E+03 -0.15248862403E+02 -0.13034154407E+03  0.21550195824E+03  0.12499803619E+03 0.  0.
          4    1    3    3  502    0 -0.66111930908E+02 -0.19541930263E+02  0.68080675393E+01  0.69286630243E+02  0.12700000000E+01 0.  1.
         -4    1    3    3    0  502 -0.50486263929E+02  0.42930678596E+01 -0.13714961161E+03  0.14621532800E+03  0.12700000000E+01 0.  1.
          1    1    1    2  503    0  0.13814632503E+02 -0.25784130836E+02  0.11394397012E+03  0.11763882777E+03  0.00000000000E+00 0. -1.
         -1    1    1    2    0  501  0.10278356233E+03  0.41032993239E+02 -0.14880765657E+03  0.18545049440E+03  0.00000000000E+00 0.  1.
<mgrwt>
<rscale>  0 0.57237347E+02</rscale>
<asrwt>0</asrwt>
<pdfrwt beam="1">  1        2 0.27183542E-01 0.29251760E+02</pdfrwt>
<pdfrwt beam="2">  1       -2 0.52599732E-01 0.11199715E+03</pdfrwt>
<totfact> 0.64238120E+02</totfact>
</mgrwt>
</event>
<event>
 7    1  0.6493044E-004  0.6121521E+02  0.7546771E-02  0.1506631E+00
          2   -1    0    0  503    0  0.00000000000E+00  0.00000000000E+00  0.27026277696E+03  0.27026277696E+03  0.00000000000E+00 0. -1.
          1   -1    0    0  502    0 -0.00000000000E+00 -0.00000000000E+00 -0.36741334628E+03  0.36741334628E+03  0.00000000000E+00 0. -1.
         25    2    1    2    0    0 -0.43165340177E+02  0.57070804883E+02  0.36390380919E+01  0.14407814087E+03  0.12499977886E+03 0.  0.
          4    1    3    3  501    0 -0.40160590040E+02  0.27290513631E+02 -0.57935255703E+02  0.75602591754E+02  0.12700000000E+01 0. -1.
         -4    1    3    3    0  501 -0.30047501371E+01  0.29780291252E+02  0.61574293795E+02  0.68475549116E+02  0.12700000000E+01 0. -1.
          2    1    1    2  502    0  0.51829044220E+02 -0.32111965008E+02 -0.29315425986E+03  0.29942753413E+03  0.00000000000E+00 0. -1.
          1    1    1    2  503    0 -0.86637040434E+01 -0.24958839874E+02  0.19236465245E+03  0.19417044823E+03  0.00000000000E+00 0. -1.
<mgrwt>
<rscale>  0 0.40215556E+02</rscale>
<asrwt>0</asrwt>
<pdfrwt beam="1">  1        2 0.41578889E-01 0.26419755E+02</pdfrwt>
<pdfrwt beam="2">  1        1 0.56525130E-01 0.61215214E+02</pdfrwt>
<totfact> 0.11073704E+03</totfact>
</mgrwt>
</event>
<event>
 7    1  0.6493044E-004  0.4839668E+02  0.7546771E-02  0.1509164E+00
          1   -1    0    0  502    0 -0.00000000000E+00  0.00000000000E+00  0.37708122895E+02  0.37708122895E+02  0.00000000000E+00 0. -1.
          2   -1    0    0  503    0  0.00000000000E+00 -0.00000000000E+00 -0.94788837706E+03  0.94788837706E+03  0.00000000000E+00 0. -1.
         25    2    1    2    0    0 -0.63946082846E+02 -0.45608021487E+02 -0.28688188056E+03  0.32263951101E+03  0.12500339010E+03 0.  0.
          4    1    3    3  501    0 -0.16858466081E+02 -0.67150911084E+02 -0.65633204740E+02  0.95408506971E+02  0.12700000000E+01 0. -1.
         -4    1    3    3    0  501 -0.47087616765E+02  0.21542889598E+02 -0.22124867582E+03  0.22723100404E+03  0.12700000000E+01 0. -1.
          2    1    1    2  502    0  0.36555380522E+02  0.27478453676E+02 -0.75707326612E+01  0.46353826752E+02  0.00000000000E+00 0. -1.
          1    1    1    2  503    0  0.27390702324E+02  0.18129567810E+02 -0.61572764094E+03  0.61660316219E+03  0.00000000000E+00 0. -1.
<mgrwt>
<rscale>  0 0.39870921E+02</rscale>
<asrwt>0</asrwt>
<pdfrwt beam="2">  1        2 0.14582898E+00 0.32847097E+02</pdfrwt>
<pdfrwt beam="1">  1        1 0.58012497E-02 0.48396675E+02</pdfrwt>
<totfact> 0.49646130E+03</totfact>
</mgrwt>
</event>
<event>
 7    1  0.6493044E-004  0.5732773E+02  0.7546771E-02  0.1506009E+00
          2   -1    0    0  503    0  0.00000000000E+00  0.00000000000E+00  0.67405138111E+03  0.67405138111E+03  0.00000000000E+00 0. -1.
          1   -1    0    0  502    0 -0.00000000000E+00 -0.00000000000E+00 -0.63797621440E+03  0.63797621440E+03  0.00000000000E+00 0. -1.
         25    2    1    2    0    0  0.50365614270E+02  0.53651633871E+02 -0.21422104240E+01  0.14506648329E+03  0.12499801035E+03 0.  0.
          4    1    3    3  501    0  0.67681929710E+02  0.93160930292E+01 -0.44329420936E+02  0.81451480398E+02  0.12700000000E+01 0.  1.
         -4    1    3    3    0  501 -0.17316315439E+02  0.44335540842E+02  0.42187210512E+02  0.63615002892E+02  0.12700000000E+01 0.  1.
          2    1    1    2  502    0 -0.22051926791E+02 -0.52659780791E+02 -0.56259342198E+03  0.56548271277E+03  0.00000000000E+00 0. -1.
          1    1    1    2  503    0 -0.28313687479E+02 -0.99185308035E+00  0.60081079911E+03  0.60147839945E+03  0.00000000000E+00 0. -1.
<mgrwt>
<rscale>  0 0.40300808E+02</rscale>
<asrwt>0</asrwt>
<pdfrwt beam="1">  1        2 0.10370021E+00 0.28331055E+02</pdfrwt>
<pdfrwt beam="2">  1        1 0.98150188E-01 0.57327732E+02</pdfrwt>
<totfact> 0.21855821E+02</totfact>
</mgrwt>
</event>
<event>
 7    1  0.6493044E-004  0.1393394E+03  0.7546771E-02  0.1321638E+00
         -2   -1    0    0    0  501 -0.00000000000E+00  0.00000000000E+00  0.10939168388E+04  0.10939168388E+04  0.00000000000E+00 0.  1.
          2   -1    0    0  503    0  0.00000000000E+00 -0.00000000000E+00 -0.17375792673E+03  0.17375792673E+03  0.00000000000E+00 0. -1.
         25    2    1    2    0    0  0.24097304154E+01  0.10678486836E+03 -0.11887063844E+03  0.20289133847E+03  0.12500340649E+03 0.  0.
          4    1    3    3  502    0 -0.41088690820E+02 -0.78078197181E+01 -0.29857927027E+02  0.51403805972E+02  0.12700000000E+01 0. -1.
         -4    1    3    3    0  502  0.43498421235E+02  0.11459268807E+03 -0.89012711414E+02  0.15148753250E+03  0.12700000000E+01 0. -1.
          1    1    1    2  503    0  0.41066061242E+02  0.26821431807E+02  0.69147304056E+02  0.84777121019E+02  0.00000000000E+00 0. -1.
         -1    1    1    2    0  501 -0.43475791657E+02 -0.13360630016E+03  0.96988224647E+03  0.98000630606E+03  0.00000000000E+00 0.  1.
<mgrwt>
<rscale>  0 0.82670842E+02</rscale>
<asrwt>0</asrwt>
<pdfrwt beam="2">  1        2 0.26731989E-01 0.49049063E+02</pdfrwt>
<pdfrwt beam="1">  1       -2 0.16829489E+00 0.13933942E+03</pdfrwt>
<totfact> 0.46644116E+01</totfact>
</mgrwt>
</event>
<event>
 7    1  0.6493044E-004  0.1358206E+03  0.7546771E-02  0.1375827E+00
          2   -1    0    0  503    0  0.00000000000E+00  0.00000000000E+00  0.92895645670E+03  0.92895645670E+03  0.00000000000E+00 0. -1.
         -2   -1    0    0    0  501 -0.00000000000E+00 -0.00000000000E+00 -0.76660291618E+03  0.76660291618E+03  0.00000000000E+00 0.  1.
         25    2    1    2    0    0 -0.15681510521E+03 -0.21574339810E+02  0.38204291847E+03  0.43201667548E+03  0.12500074794E+03 0.  0.
          4    1    3    3  502    0 -0.15032331184E+03 -0.57318446500E+02  0.34189280909E+03  0.37785553880E+03  0.12700000000E+01 0.  1.
         -4    1    3    3    0  502 -0.64917933653E+01  0.35744106689E+02  0.40150109378E+02  0.54161136687E+02  0.12700000000E+01 0.  1.
          1    1    1    2  503    0  0.12576381741E+03  0.27745209826E+02  0.51363516933E+03  0.52953509951E+03  0.00000000000E+00 0. -1.
         -1    1    1    2    0  501  0.31051287795E+02 -0.61708700162E+01 -0.73332454728E+03  0.73400759788E+03  0.00000000000E+00 0.  1.
<mgrwt>
<rscale>  0 0.65573468E+02</rscale>
<asrwt>0</asrwt>
<pdfrwt beam="1">  1        2 0.14291638E+00 0.13582060E+03</pdfrwt>
<pdfrwt beam="2">  1       -2 0.11793891E+00 0.31658524E+02</pdfrwt>
<totfact> 0.18994555E+01</totfact>
</mgrwt>
</event>
<event>
 7    1  0.6493044E-004  0.6115950E+02  0.7546771E-02  0.1527589E+00
         -1   -1    0    0    0  501 -0.00000000000E+00  0.00000000000E+00  0.43410158406E+02  0.43410158406E+02  0.00000000000E+00 0.  1.
          1   -1    0    0  503    0  0.00000000000E+00 -0.00000000000E+00 -0.14272113923E+04  0.14272113923E+04  0.00000000000E+00 0. -1.
         25    2    1    2    0    0  0.84894855724E+01  0.79894957741E+02 -0.49998526038E+03  0.52159844077E+03  0.12499758871E+03 0.  0.
          4    1    3    3  502    0  0.45787403686E+02 -0.48780367854E+01 -0.87974526375E+02  0.99304641231E+02  0.12700000000E+01 0.  1.
         -4    1    3    3    0  502 -0.37297918114E+02  0.84772994526E+02 -0.41201073400E+03  0.42229379954E+03  0.12700000000E+01 0.  1.
          2    1    1    2  503    0 -0.14469525448E+02 -0.57713670481E+02 -0.91127835350E+03  0.91321874295E+03  0.00000000000E+00 0. -1.
         -2    1    1    2    0  501  0.59800398751E+01 -0.22181287260E+02  0.27462379976E+02  0.35804366987E+02  0.00000000000E+00 0.  1.
<mgrwt>
<rscale>  0 0.37483767E+02</rscale>
<asrwt>0</asrwt>
<pdfrwt beam="2">  1        1 0.21957099E+00 0.61159503E+02</pdfrwt>
<pdfrwt beam="1">  1       -1 0.66784857E-02 0.22973254E+02</pdfrwt>
<totfact> 0.83160580E+02</totfact>
</mgrwt>
</event>
<event>
 7    1  0.6493044E-004  0.3355026E+03  0.7546771E-02  0.1181356E+00
          1   -1    0    0  502    0 -0.00000000000E+00  0.00000000000E+00  0.83066675646E+03  0.83066675646E+03  0.00000000000E+00 0. -1.
          2   -1    0    0  503    0  0.00000000000E+00 -0.00000000000E+00 -0.22790117605E+04  0.22790117605E+04  0.00000000000E+00 0. -1.
         25    2    1    2    0    0  0.27395718553E+03  0.98610839520E+02  0.23944166195E+03  0.39715785387E+03  0.12500165692E+03 0.  0.
          4    1    3    3  501    0  0.52244518991E+02  0.67429627784E+02  0.10763693855E+03  0.13734470469E+03  0.12700000000E+01 0.  1.
         -4    1    3    3    0  501  0.22171266654E+03  0.31181211735E+02  0.13180472341E+03  0.25981314917E+03  0.12700000000E+01 0.  1.
          2    1    1    2  502    0 -0.35077404907E+03 -0.12953311420E+03  0.44323243431E+03  0.57989331087E+03  0.00000000000E+00 0. -1.
          1    1    1    2  503    0  0.76816863535E+02  0.30922274681E+02 -0.21310191003E+04  0.21326273523E+04  0.00000000000E+00 0. -1.
<mgrwt>
<rscale>  0 0.16667934E+03</rscale>
<asrwt>0</asrwt>
<pdfrwt beam="2">  1        2 0.35061719E+00 0.82807111E+02</pdfrwt>
<pdfrwt beam="1">  1        1 0.12779489E+00 0.33550260E+03</pdfrwt>
<totfact> 0.18025817E+01</totfact>
</mgrwt>
</event>
<event>
 7    1  0.6493044E-004  0.1199419E+03  0.7546771E-02  0.1407536E+00
         -2   -1    0    0    0  501  0.00000000000E+00  0.00000000000E+00  0.59416411652E+03  0.59416411652E+03  0.00000000000E+00 0.  1.
         -1   -1    0    0    0  502 -0.00000000000E+00 -0.00000000000E+00 -0.50990205455E+03  0.50990205455E+03  0.00000000000E+00 0.  1.
         25    2    1    2    0    0 -0.11399127038E+03 -0.25803623036E+02 -0.29091703479E+03  0.33751718502E+03  0.12500116945E+03 0.  0.
          4    1    3    3  503    0 -0.70033870919E+02 -0.60912801591E+02 -0.25344762601E+03  0.26991188285E+03  0.12700000000E+01 0.  1.
         -4    1    3    3    0  503 -0.43957399462E+02  0.35109178555E+02 -0.37469408780E+02  0.67605302164E+02  0.12700000000E+01 0.  1.
         -2    1    1    2    0  502  0.62088947622E+01 -0.27100942197E+02 -0.18833987449E+03  0.19038098583E+03  0.00000000000E+00 0.  1.
         -1    1    1    2    0  501  0.10778237562E+03  0.52904565233E+02  0.56351897126E+03  0.57616800023E+03  0.00000000000E+00 0.  1.
<mgrwt>
<rscale>  0 0.57747339E+02</rscale>
<asrwt>0</asrwt>
<pdfrwt beam="1">  1       -2 0.91409864E-01 0.11994192E+03</pdfrwt>
<pdfrwt beam="2">  1       -1 0.78446470E-01 0.27803083E+02</pdfrwt>
<totfact> 0.14649017E+01</totfact>
</mgrwt>
</event>
<event>
 7    1  0.6493044E-004  0.1158140E+03  0.7546771E-02  0.1387303E+00
          1   -1    0    0  503    0  0.00000000000E+00  0.00000000000E+00  0.93228530591E+02  0.93228530591E+02  0.00000000000E+00 0. -1.
         -1   -1    0    0    0  501 -0.00000000000E+00 -0.00000000000E+00 -0.26279154589E+04  0.26279154589E+04  0.00000000000E+00 0.  1.
         25    2    1    2    0    0  0.52781367739E+02  0.69688996586E+02 -0.12765859837E+04  0.12856662394E+04  0.12499390546E+03 0.  0.
          4    1    3    3  502    0 -0.22119289362E+01 -0.34366038408E+02 -0.25326599052E+03  0.25559967152E+03  0.12700000000E+01 0. -1.
         -4    1    3    3    0  502  0.54993296675E+02  0.10405503499E+03 -0.10233199932E+04  0.10300665679E+04  0.12700000000E+01 0. -1.
          2    1    1    2  503    0 -0.84999411264E+02 -0.79966774249E+02  0.49983361577E+02  0.12695637571E+03  0.00000000000E+00 0. -1.
         -2    1    1    2    0  501  0.32218043525E+02  0.10277777663E+02 -0.13080843062E+04  0.13085213744E+04  0.00000000000E+00 0.  1.
<mgrwt>
<rscale>  0 0.62582423E+02</rscale>
<asrwt>0</asrwt>
<pdfrwt beam="1">  1        1 0.14342853E-01 0.11581399E+03</pdfrwt>
<pdfrwt beam="2">  1       -1 0.40429463E+00 0.33817674E+02</pdfrwt>
<totfact> 0.44637097E+00</totfact>
</mgrwt>
</event>
<event>
 7    1  0.6493044E-004  0.6219153E+02  0.7546771E-02  0.1480077E+00
          2   -1    0    0  503    0  0.00000000000E+00  0.00000000000E+00  0.13769651344E+04  0.13769651344E+04  0.00000000000E+00 0. -1.
         -2   -1    0    0    0  501 -0.00000000000E+00 -0.00000000000E+00 -0.15623060536E+04  0.15623060536E+04  0.00000000000E+00 0.  1.
         25    2    1    2    0    0 -0.62324145103E+02  0.17342112014E+02 -0.68741756191E+02  0.15662793363E+03  0.12498732991E+03 0.  0.
          4    1    3    3  502    0 -0.89225497266E+02 -0.11922815341E+02 -0.17415888560E+02  0.91696613690E+02  0.12700000000E+01 0. -1.
         -4    1    3    3    0  502  0.26901352162E+02  0.29264927355E+02 -0.51325867631E+02  0.64931319942E+02  0.12700000000E+01 0. -1.
          1    1    1    2  503    0  0.17513577738E+02  0.25897033617E+02  0.13321698389E+04  0.13325366267E+04  0.00000000000E+00 0. -1.
         -1    1    1    2    0  501  0.44810567366E+02 -0.43239145631E+02 -0.14487690019E+04  0.14501066276E+04  0.00000000000E+00 0.  1.
<mgrwt>
<rscale>  0 0.44094222E+02</rscale>
<asrwt>0</asrwt>
<pdfrwt beam="1">  1        2 0.21184079E+00 0.31263105E+02</pdfrwt>
<pdfrwt beam="2">  1       -2 0.24035478E+00 0.62191532E+02</pdfrwt>
<totfact> 0.17654237E+00</totfact>
</mgrwt>
</event>
<event>
 7    1  0.6493044E-004  0.6888244E+02  0.7546771E-02  0.1422704E+00
          1   -1    0    0  502    0 -0.00000000000E+00  0.00000000000E+00  0.41266475266E+03  0.41266475266E+03  0.00000000000E+00 0. -1.
          2   -1    0    0  503    0  0.00000000000E+00 -0.00000000000E+00 -0.17816638405E+03  0.17816638405E+03  0.00000000000E+00 0. -1.
         25    2    1    2    0    0  0.48752455784E+02 -0.62631722818E+02  0.24929780837E+03  0.28995637416E+03  0.12500306801E+03 0.  0.
          4    1    3    3  501    0  0.43668985928E+02  0.27075682818E+02  0.51777899690E+02  0.72956402929E+02  0.12700000000E+01 0. -1.
         -4    1    3    3    0  501  0.50834698556E+01 -0.89707405635E+02  0.19751990868E+03  0.21699997123E+03  0.12700000000E+01 0. -1.
          2    1    1    2  502    0 -0.64346528234E+02  0.22509590558E+02  0.13163772537E+03  0.14824185678E+03  0.00000000000E+00 0. -1.
          1    1    1    2  503    0  0.15594072451E+02  0.40122132260E+02 -0.14643716512E+03  0.15263290576E+03  0.00000000000E+00 0. -1.
<mgrwt>
<rscale>  0 0.54452875E+02</rscale>
<asrwt>0</asrwt>
<pdfrwt beam="2">  1        2 0.27410213E-01 0.43046029E+02</pdfrwt>
<pdfrwt beam="1">  1        1 0.63486885E-01 0.68882443E+02</pdfrwt>
<totfact> 0.14894615E+03</totfact>
</mgrwt>
</event>
<event>
 7    1  0.6493044E-004  0.7890335E+02  0.7546771E-02  0.1384301E+00
          1   -1    0    0  502    0 -0.00000000000E+00  0.00000000000E+00  0.15023026353E+03  0.15023026353E+03  0.00000000000E+00 0. -1.
          2   -1    0    0  503    0  0.00000000000E+00 -0.00000000000E+00 -0.31518115545E+03  0.31518115545E+03  0.00000000000E+00 0. -1.
         25    2    1    2    0    0  0.33415601962E+02 -0.11881824250E+03 -0.32962263414E+02  0.17873809027E+03  0.12500566747E+03 0.  0.
          4    1    3    3  501    0  0.17293256525E+02 -0.39494589825E+02 -0.75750804363E+02  0.87170388368E+02  0.12700000000E+01 0. -1.
         -4    1    3    3    0  501  0.16122345438E+02 -0.79323652673E+02  0.42788540949E+02  0.91567701906E+02  0.12700000000E+01 0. -1.
          2    1    1    2  502    0 -0.24440057270E+02  0.44599640212E+02  0.61171175168E+02  0.79550970942E+02  0.00000000000E+00 0. -1.
          1    1    1    2  503    0 -0.89755446925E+01  0.74218602286E+02 -0.19315980368E+03  0.20712235776E+03  0.00000000000E+00 0. -1.
<mgrwt>
<rscale>  0 0.63346630E+02</rscale>
<asrwt>0</asrwt>
<pdfrwt beam="2">  1        2 0.48489408E-01 0.78903355E+02</pdfrwt>
<pdfrwt beam="1">  1        1 0.23112349E-01 0.50857097E+02</pdfrwt>
<totfact> 0.28192922E+03</totfact>
</mgrwt>
</event>
<event>
 7    1  0.6493044E-004  0.4437360E+02  0.7546771E-02  0.1557390E+00
          1   -1    0    0  503    0  0.00000000000E+00  0.00000000000E+00  0.10292933115E+04  0.10292933115E+04  0.00000000000E+00 0. -1.
         -3   -1    0    0    0  501 -0.00000000000E+00 -0.00000000000E+00 -0.43642701391E+02  0.43642701391E+02  0.00000000000E+00 0.  1.
         25    2    1    2    0    0 -0.13933098770E+02 -0.64996134999E+02  0.15510434071E+03  0.20999353562E+03  0.12498519787E+03 0.  0.
          4    1    3    3  502    0 -0.35512342751E+02 -0.41193618027E+02  0.16705576240E+03  0.17569086859E+03  0.12700000000E+01 0.  1.
         -4    1    3    3    0  502  0.21579243981E+02 -0.23802516972E+02 -0.11951421687E+02  0.34302667030E+02  0.12700000000E+01 0.  1.
          2    1    1    2  503    0  0.30249148688E+00  0.26095234156E+02  0.81997300399E+03  0.82038818862E+03  0.00000000000E+00 0. -1.
         -2    1    1    2    0  501  0.13630607283E+02  0.38900900843E+02  0.10573265396E+02  0.42554288649E+02  0.00000000000E+00 0.  1.
<mgrwt>
<rscale>  0 0.34029653E+02</rscale>
<asrwt>0</asrwt>
<pdfrwt beam="1">  1        1 0.15835280E+00 0.26096987E+02</pdfrwt>
<pdfrwt beam="2">  1       -3 0.67142625E-02 0.44373600E+02</pdfrwt>
<totfact> 0.11162288E+03</totfact>
</mgrwt>
</event>
<event>
 7    1  0.6493044E-004  0.6590088E+02  0.7546771E-02  0.1479559E+00
          1   -1    0    0  502    0 -0.00000000000E+00  0.00000000000E+00  0.55007292338E+02  0.55007292338E+02  0.00000000000E+00 0. -1.
          2   -1    0    0  503    0  0.00000000000E+00 -0.00000000000E+00 -0.11887631150E+04  0.11887631150E+04  0.00000000000E+00 0. -1.
         25    2    1    2    0    0 -0.26993812090E+02 -0.33960426291E+02 -0.39022106852E+03  0.41204330479E+03  0.12500090505E+03 0.  0.
          4    1    3    3  501    0 -0.19301676203E+02  0.16483424443E+02 -0.33823303014E+03  0.33918645840E+03  0.12700000000E+01 0.  1.
         -4    1    3    3    0  501 -0.76921358866E+01 -0.50443850734E+02 -0.51988038381E+02  0.72856846392E+02  0.12700000000E+01 0.  1.
          2    1    1    2  502    0  0.56448457504E+02  0.37004997158E+02  0.17809902312E+02  0.69806810481E+02  0.00000000000E+00 0. -1.
          1    1    1    2  503    0 -0.29454645414E+02 -0.30445708665E+01 -0.76134465649E+03  0.76192029210E+03  0.00000000000E+00 0. -1.
<mgrwt>
<rscale>  0 0.44174982E+02</rscale>
<asrwt>0</asrwt>
<pdfrwt beam="2">  1        2 0.18288663E+00 0.29611578E+02</pdfrwt>
<pdfrwt beam="1">  1        1 0.84626605E-02 0.65900879E+02</pdfrwt>
<totfact> 0.23226642E+03</totfact>
</mgrwt>
</event>
<event>
 7    1  0.6493044E-004  0.5410784E+02  0.7546771E-02  0.1463881E+00
          1   -1    0    0  502    0 -0.00000000000E+00  0.00000000000E+00  0.86922431278E+02  0.86922431278E+02  0.00000000000E+00 0. -1.
          2   -1    0    0  503    0  0.00000000000E+00 -0.00000000000E+00 -0.50103332505E+03  0.50103332505E+03  0.00000000000E+00 0. -1.
         25    2    1    2    0    0 -0.63967702922E+02  0.55859698319E+02 -0.12056426375E+03  0.19332463034E+03  0.12500599221E+03 0.  0.
          4    1    3    3  501    0 -0.54725045284E+02  0.28416305437E+01  0.66247377030E+01  0.55212367230E+02  0.12700000000E+01 0.  1.
         -4    1    3    3    0  501 -0.92426576378E+01  0.53018067775E+02 -0.12718900145E+03  0.13811226311E+03  0.12700000000E+01 0.  1.
          2    1    1    2  502    0  0.14581512397E+02 -0.37613288504E+02  0.40085563224E+02  0.56870311718E+02  0.00000000000E+00 0. -1.
          1    1    1    2  503    0  0.49386190525E+02 -0.18246409816E+02 -0.33363219324E+03  0.33776081427E+03  0.00000000000E+00 0. -1.
<mgrwt>
<rscale>  0 0.46719948E+02</rscale>
<asrwt>0</asrwt>
<pdfrwt beam="2">  1        2 0.77082049E-01 0.54107843E+02</pdfrwt>
<pdfrwt beam="1">  1        1 0.13372682E-01 0.40340798E+02</pdfrwt>
<totfact> 0.33820907E+03</totfact>
</mgrwt>
</event>
<event>
 7    1  0.6493044E-004  0.7629277E+02  0.7546771E-02  0.1404753E+00
          2   -1    0    0  503    0  0.00000000000E+00  0.00000000000E+00  0.48778203702E+04  0.48778203702E+04  0.00000000000E+00 0. -1.
         -2   -1    0    0    0  501 -0.00000000000E+00 -0.00000000000E+00 -0.43404187953E+01  0.43404187953E+01  0.00000000000E+00 0.  1.
         25    2    1    2    0    0  0.58471244003E+02 -0.71987052640E+01  0.20401101100E+04  0.20447850525E+04  0.12500376894E+03 0.  0.
          4    1    3    3  502    0  0.93941746287E+02  0.13227236308E+02  0.15846274923E+04  0.15874652480E+04  0.12700000000E+01 0. -1.
         -4    1    3    3    0  502 -0.35470502285E+02 -0.20425941572E+02  0.45548261772E+03  0.45731980448E+03  0.12700000000E+01 0. -1.
          1    1    1    2  503    0 -0.76675569495E+02 -0.33599150144E+02  0.24470138163E+04  0.24484453564E+04  0.00000000000E+00 0. -1.
         -1    1    1    2    0  501  0.18204325492E+02  0.40797855408E+02  0.38635602507E+03  0.38893038012E+03  0.00000000000E+00 0.  1.
<mgrwt>
<rscale>  0 0.58381379E+02</rscale>
<asrwt>0</asrwt>
<pdfrwt beam="1">  1        2 0.75042952E+00 0.76292772E+02</pdfrwt>
<pdfrwt beam="2">  1       -2 0.66776064E-03 0.44675077E+02</pdfrwt>
<totfact> 0.27588351E+02</totfact>
</mgrwt>
</event>
<event>
 7    1  0.6493044E-004  0.1342377E+03  0.7546771E-02  0.1296767E+00
          2   -1    0    0  503    0  0.00000000000E+00  0.00000000000E+00  0.16426437323E+04  0.16426437323E+04  0.00000000000E+00 0. -1.
         -2   -1    0    0    0  501 -0.00000000000E+00 -0.00000000000E+00 -0.31534338968E+03  0.31534338968E+03  0.00000000000E+00 0.  1.
         25    2    1    2    0    0 -0.22564282514E+02 -0.16079844347E+03  0.12195054971E+03  0.23845902208E+03  0.12500192946E+03 0.  0.
          4    1    3    3  502    0 -0.19446669267E+02 -0.84096480900E+01 -0.20733322308E+02  0.29671175921E+02  0.12700000000E+01 0.  1.
         -4    1    3    3    0  502 -0.31176132472E+01 -0.15238879538E+03  0.14268387202E+03  0.20878784616E+03  0.12700000000E+01 0.  1.
          1    1    1    2  503    0 -0.44066360262E+02  0.46168275479E+02  0.14445924163E+04  0.14460015916E+04  0.00000000000E+00 0. -1.
         -1    1    1    2    0  501  0.66630642776E+02  0.11463016799E+03 -0.23924262330E+03  0.27352650836E+03  0.00000000000E+00 0.  1.
<mgrwt>
<rscale>  0 0.92560418E+02</rscale>
<asrwt>0</asrwt>
<pdfrwt beam="1">  1        2 0.25271442E+00 0.63822831E+02</pdfrwt>
<pdfrwt beam="2">  1       -2 0.48514368E-01 0.13423772E+03</pdfrwt>
<totfact> 0.53871959E+01</totfact>
</mgrwt>
</event>
<event>
 7    1  0.6493044E-004  0.1190746E+03  0.7546771E-02  0.1380193E+00
          2   -1    0    0  503    0  0.00000000000E+00  0.00000000000E+00  0.21464738073E+04  0.21464738073E+04  0.00000000000E+00 0. -1.
         -2   -1    0    0    0  501 -0.00000000000E+00 -0.00000000000E+00 -0.38086214264E+02  0.38086214264E+02  0.00000000000E+00 0.  1.
         25    2    1    2    0    0 -0.11723933428E+03 -0.52510575285E+02  0.98068399442E+03  0.99693218954E+03  0.12502108467E+03 0.  0.
          4    1    3    3  502    0 -0.72990095495E+02  0.33443544482E+02  0.36725272491E+03  0.37592845272E+03  0.12700000000E+01 0.  1.
         -4    1    3    3    0  502 -0.44249238783E+02 -0.85954119767E+02  0.61343126951E+03  0.62100373683E+03  0.12700000000E+01 0.  1.
          1    1    1    2  503    0  0.11549528720E+03  0.17710060093E+02  0.11434402943E+04  0.11493948469E+04  0.00000000000E+00 0. -1.
         -1    1    1    2    0  501  0.17440470768E+01  0.34800515193E+02 -0.15736695663E+02  0.38232985082E+02  0.00000000000E+00 0.  1.
<mgrwt>
<rscale>  0 0.64413179E+02</rscale>
<asrwt>0</asrwt>
<pdfrwt beam="1">  1        2 0.33022665E+00 0.11907459E+03</pdfrwt>
<pdfrwt beam="2">  1       -2 0.58594193E-02 0.34844190E+02</pdfrwt>
<totfact> 0.86744844E+02</totfact>
</mgrwt>
</event>
<event>
 7    1  0.6493044E-004  0.3414771E+02  0.7546771E-02  0.1609371E+00
          2   -1    0    0  503    0  0.00000000000E+00  0.00000000000E+00  0.32402883441E+03  0.32402883441E+03  0.00000000000E+00 0. -1.
          1   -1    0    0  502    0 -0.00000000000E+00 -0.00000000000E+00 -0.90865323491E+02  0.90865323491E+02  0.00000000000E+00 0. -1.
         25    2    1    2    0    0 -0.16867467836E+02 -0.55219530084E+01  0.16783242817E+03  0.21001066790E+03  0.12498701232E+03 0.  0.
          4    1    3    3  501    0 -0.26324750365E+02 -0.42618153445E+02  0.14787747430E+02  0.52245476923E+02  0.12700000000E+01 0.  1.
         -4    1    3    3    0  501  0.94572825293E+01  0.37096200437E+02  0.15304468074E+03  0.15776519098E+03  0.12700000000E+01 0.  1.
          2    1    1    2  502    0 -0.42005938961E+01 -0.24273669733E+02 -0.65015039289E+02  0.69525616611E+02  0.00000000000E+00 0. -1.
          1    1    1    2  503    0  0.21068061732E+02  0.29795622742E+02  0.13034612204E+03  0.13535787339E+03  0.00000000000E+00 0. -1.
<mgrwt>
<rscale>  0 0.29003620E+02</rscale>
<asrwt>0</asrwt>
<pdfrwt beam="1">  1        2 0.49850590E-01 0.34147710E+02</pdfrwt>
<pdfrwt beam="2">  1        1 0.13979281E-01 0.24634448E+02</pdfrwt>
<totfact> 0.48307431E+03</totfact>
</mgrwt>
</event>
<event>
 7    1  0.6493044E-004  0.1294667E+03  0.7546771E-02  0.1299592E+00
          2   -1    0    0  503    0  0.00000000000E+00  0.00000000000E+00  0.12740766626E+04  0.12740766626E+04  0.00000000000E+00 0. -1.
          1   -1    0    0  502    0 -0.00000000000E+00 -0.00000000000E+00 -0.12215543236E+03  0.12215543236E+03  0.00000000000E+00 0. -1.
         25    2    1    2    0    0 -0.93923644357E+02  0.12668545809E+02  0.11464967480E+03  0.19429860880E+03  0.12500103370E+03 0.  0.
          4    1    3    3  501    0 -0.59756307843E+02 -0.54274520767E+02  0.70089313629E+02  0.10691428677E+03  0.12700000000E+01 0. -1.
         -4    1    3    3    0  501 -0.34167336514E+02  0.66943066577E+02  0.44560361174E+02  0.87384322021E+02  0.12700000000E+01 0. -1.
          2    1    1    2  502    0 -0.33016221180E+02 -0.55372804199E+02 -0.65003637708E+02  0.91551576836E+02  0.00000000000E+00 0. -1.
          1    1    1    2  503    0  0.12693986554E+03  0.42704258390E+02  0.11022751931E+04  0.11103819093E+04  0.00000000000E+00 0. -1.
<mgrwt>
<rscale>  0 0.91359496E+02</rscale>
<asrwt>0</asrwt>
<pdfrwt beam="1">  1        2 0.19601178E+00 0.12946674E+03</pdfrwt>
<pdfrwt beam="2">  1        1 0.18793144E-01 0.64468739E+02</pdfrwt>
<totfact> 0.68264997E+02</totfact>
</mgrwt>
</event>
<event>
 7    1  0.6493044E-004  0.5459496E+02  0.7546771E-02  0.1462797E+00
         -2   -1    0    0    0  501 -0.00000000000E+00  0.00000000000E+00  0.36447065944E+03  0.36447065944E+03  0.00000000000E+00 0.  1.
          2   -1    0    0  503    0  0.00000000000E+00 -0.00000000000E+00 -0.15488082687E+03  0.15488082687E+03  0.00000000000E+00 0. -1.
         25    2    1    2    0    0  0.18815236021E+02  0.81901611414E+02  0.77347690916E+01  0.15083041574E+03  0.12501240179E+03 0.  0.
          4    1    3    3  502    0  0.73271408822E+01  0.87489045034E+02 -0.43515957355E+02  0.97996282782E+02  0.12700000000E+01 0.  1.
         -4    1    3    3    0  502  0.11488095139E+02 -0.55874336204E+01  0.51250726447E+02  0.52834132961E+02  0.12700000000E+01 0.  1.
          1    1    1    2  503    0 -0.29315485886E+02 -0.42998321372E+02 -0.73596843901E+02  0.90137388390E+02  0.00000000000E+00 0. -1.
         -1    1    1    2    0  501  0.10500249865E+02 -0.38903290041E+02  0.27545190738E+03  0.27838368218E+03  0.00000000000E+00 0.  1.
<mgrwt>
<rscale>  0 0.46903381E+02</rscale>
<asrwt>0</asrwt>
<pdfrwt beam="2">  1        2 0.23827820E-01 0.54594962E+02</pdfrwt>
<pdfrwt beam="1">  1       -2 0.56072409E-01 0.40295424E+02</pdfrwt>
<totfact> 0.66557740E+02</totfact>
</mgrwt>
</event>
<event>
 7    1  0.6493044E-004  0.1182688E+03  0.7546771E-02  0.1445882E+00
          2   -1    0    0  503    0  0.00000000000E+00  0.00000000000E+00  0.39214531581E+03  0.39214531581E+03  0.00000000000E+00 0. -1.
          1   -1    0    0  502    0 -0.00000000000E+00 -0.00000000000E+00 -0.16875617937E+04  0.16875617937E+04  0.00000000000E+00 0. -1.
         25    2    1    2    0    0  0.97961467521E+02  0.61130059529E+02 -0.11420671029E+04  0.11546755217E+04  0.12499983858E+03 0.  0.
          4    1    3    3  501    0  0.10236101752E+03  0.65109111284E+01 -0.92999851755E+03  0.93563829839E+03  0.12700000000E+01 0. -1.
         -4    1    3    3    0  501 -0.43995500030E+01  0.54619148401E+02 -0.21206858530E+03  0.21903722328E+03  0.12700000000E+01 0. -1.
          2    1    1    2  502    0  0.11941097463E+02 -0.17339779923E+02 -0.52990792291E+03  0.53032599836E+03  0.00000000000E+00 0. -1.
          1    1    1    2  503    0 -0.10990256498E+03 -0.43790279606E+02  0.37655854788E+03  0.39470558947E+03  0.00000000000E+00 0. -1.
<mgrwt>
<rscale>  0 0.49899852E+02</rscale>
<asrwt>0</asrwt>
<pdfrwt beam="1">  1        2 0.60330049E-01 0.11826884E+03</pdfrwt>
<pdfrwt beam="2">  1        1 0.25962489E+00 0.21053688E+02</pdfrwt>
<totfact> 0.80374466E+01</totfact>
</mgrwt>
</event>
<event>
 7    1  0.6493044E-004  0.1094501E+03  0.7546771E-02  0.1450985E+00
          2   -1    0    0  503    0  0.00000000000E+00  0.00000000000E+00  0.13936399662E+04  0.13936399662E+04  0.00000000000E+00 0. -1.
         -2   -1    0    0    0  501 -0.00000000000E+00 -0.00000000000E+00 -0.15638247246E+03  0.15638247246E+03  0.00000000000E+00 0.  1.
         25    2    1    2    0    0 -0.72344264786E+02  0.10651807583E+03  0.17398444427E+03  0.24994775157E+03  0.12499399402E+03 0.  0.
          4    1    3    3  502    0 -0.86314853105E+02  0.22598101715E+02  0.59270401572E+02  0.10712386041E+03  0.12700000000E+01 0.  1.
         -4    1    3    3    0  502  0.13970588318E+02  0.83919974110E+02  0.11471404269E+03  0.14282389115E+03  0.12700000000E+01 0.  1.
          1    1    1    2  503    0  0.90206776792E+01 -0.19965712687E+02  0.11572644641E+04  0.11574718321E+04  0.00000000000E+00 0. -1.
         -1    1    1    2    0  501  0.63323587107E+02 -0.86552363138E+02 -0.93991414559E+02  0.14260285502E+03  0.00000000000E+00 0.  1.
<mgrwt>
<rscale>  0 0.48968749E+02</rscale>
<asrwt>0</asrwt>
<pdfrwt beam="1">  1        2 0.21440614E+00 0.21908955E+02</pdfrwt>
<pdfrwt beam="2">  1       -2 0.24058843E-01 0.10945015E+03</pdfrwt>
<totfact> 0.28396400E+02</totfact>
</mgrwt>
</event>
<event>
 7    1  0.6493044E-004  0.3574789E+02  0.7546771E-02  0.1582502E+00
         -2   -1    0    0    0  501 -0.00000000000E+00  0.00000000000E+00  0.12608169602E+02  0.12608169602E+02  0.00000000000E+00 0.  1.
          2   -1    0    0  503    0  0.00000000000E+00 -0.00000000000E+00 -0.25134786895E+04  0.25134786895E+04  0.00000000000E+00 0. -1.
         25    2    1    2    0    0 -0.37737803464E+02  0.63947518540E+01 -0.12076401705E+04  0.12146948445E+04  0.12499499674E+03 0.  0.
          4    1    3    3  502    0 -0.58709794770E+02  0.53120251205E+02 -0.69196279469E+03  0.69647880314E+03  0.12700000000E+01 0.  1.
         -4    1    3    3    0  502  0.20971991306E+02 -0.46725499351E+02 -0.51567737580E+03  0.51821604136E+03  0.12700000000E+01 0.  1.
          1    1    1    2  503    0  0.16215208208E+02  0.22438541108E+02 -0.12659153214E+04  0.12662179995E+04  0.00000000000E+00 0. -1.
         -1    1    1    2    0  501  0.21522595255E+02 -0.28833292962E+02 -0.27315027927E+02  0.45174015099E+02  0.00000000000E+00 0.  1.
<mgrwt>
<rscale>  0 0.31458794E+02</rscale>
<asrwt>0</asrwt>
<pdfrwt beam="2">  1        2 0.38668910E+00 0.27684312E+02</pdfrwt>
<pdfrwt beam="1">  1       -2 0.19397181E-02 0.35747890E+02</pdfrwt>
<totfact> 0.33346453E+03</totfact>
</mgrwt>
</event>
<event>
 7    1  0.6493044E-004  0.8345027E+02  0.7546771E-02  0.1369954E+00
          2   -1    0    0  503    0  0.00000000000E+00  0.00000000000E+00  0.95552837728E+03  0.95552837728E+03  0.00000000000E+00 0. -1.
          1   -1    0    0  502    0 -0.00000000000E+00 -0.00000000000E+00 -0.53236085719E+03  0.53236085719E+03  0.00000000000E+00 0. -1.
         25    2    1    2    0    0 -0.13531237145E+03  0.30590191996E+01  0.79129825093E+02  0.20051092422E+03  0.12499722416E+03 0.  0.
          4    1    3    3  501    0 -0.30036511272E+00 -0.12122449895E+02  0.62441891556E+02  0.63621118599E+02  0.12700000000E+01 0. -1.
         -4    1    3    3    0  501 -0.13501200633E+03  0.15181469094E+02  0.16687933537E+02  0.13688980562E+03  0.12700000000E+01 0. -1.
          2    1    1    2  502    0  0.53681224519E+02 -0.65704472472E+01 -0.46806330098E+03  0.47117735341E+03  0.00000000000E+00 0. -1.
          1    1    1    2  503    0  0.81631146927E+02  0.35114280476E+01  0.81210099597E+03  0.81620095683E+03  0.00000000000E+00 0. -1.
<mgrwt>
<rscale>  0 0.67179934E+02</rscale>
<asrwt>0</asrwt>
<pdfrwt beam="1">  1        2 0.14700437E+00 0.83450269E+02</pdfrwt>
<pdfrwt beam="2">  1        1 0.81901670E-01 0.54081833E+02</pdfrwt>
<totfact> 0.17561354E+02</totfact>
</mgrwt>
</event>
<event>
 7    1  0.6493044E-004  0.4472945E+02  0.7546771E-02  0.1493697E+00
          2   -1    0    0  503    0  0.00000000000E+00  0.00000000000E+00  0.74470421222E+03  0.74470421222E+03  0.00000000000E+00 0. -1.
         -2   -1    0    0    0  501 -0.00000000000E+00 -0.00000000000E+00 -0.77935047355E+02  0.77935047355E+02  0.00000000000E+00 0.  1.
         25    2    1    2    0    0 -0.10855224425E+02  0.40910454024E+02  0.35716173246E+02  0.13672052420E+03  0.12500142223E+03 0.  0.
          4    1    3    3  502    0 -0.36455202489E+02  0.32034023727E+02  0.74783944492E+02  0.89159473520E+02  0.12700000000E+01 0.  1.
         -4    1    3    3    0  502  0.25599978064E+02  0.88764302971E+01 -0.39067771246E+02  0.47561050680E+02  0.12700000000E+01 0.  1.
          1    1    1    2  503    0  0.41911297531E+02 -0.16474368623E+02  0.64304671484E+03  0.64462162479E+03  0.00000000000E+00 0. -1.
         -1    1    1    2    0  501 -0.31056073106E+02 -0.24436085401E+02 -0.11993723215E+02  0.41297110590E+02  0.00000000000E+00 0.  1.
<mgrwt>
<rscale>  0 0.42042582E+02</rscale>
<asrwt>0</asrwt>
<pdfrwt beam="1">  1        2 0.11456987E+00 0.44729453E+02</pdfrwt>
<pdfrwt beam="2">  1       -2 0.11990008E-01 0.39517110E+02</pdfrwt>
<totfact> 0.18191739E+03</totfact>
</mgrwt>
</event>
<event>
 7    1  0.6493044E-004  0.1100084E+03  0.7546771E-02  0.1416515E+00
          2   -1    0    0  503    0  0.00000000000E+00  0.00000000000E+00  0.17119982324E+03  0.17119982324E+03  0.00000000000E+00 0. -1.
          1   -1    0    0  502    0 -0.00000000000E+00 -0.00000000000E+00 -0.74273992003E+03  0.74273992003E+03  0.00000000000E+00 0. -1.
         25    2    1    2    0    0 -0.12397489933E+03  0.39811287843E+02  0.54216602117E+02  0.18851750171E+03  0.12507875200E+03 0.  0.
          4    1    3    3  501    0 -0.58876488656E+02  0.83374792636E+02  0.34312583849E+02  0.10768826897E+03  0.12700000000E+01 0. -1.
         -4    1    3    3    0  501 -0.65098410675E+02 -0.43563504793E+02  0.19904018269E+02  0.80829232741E+02  0.12700000000E+01 0. -1.
          2    1    1    2  502    0  0.97443364625E+02 -0.49567179338E+02 -0.66673543552E+03  0.67563914596E+03  0.00000000000E+00 0. -1.
          1    1    1    2  503    0  0.26531534706E+02  0.97558914953E+01  0.40978736617E+02  0.49783095599E+02  0.00000000000E+00 0. -1.
<mgrwt>
<rscale>  0 0.55765188E+02</rscale>
<asrwt>0</asrwt>
<pdfrwt beam="1">  1        2 0.26338435E-01 0.28268352E+02</pdfrwt>
<pdfrwt beam="2">  1        1 0.11426768E+00 0.11000840E+03</pdfrwt>
<totfact> 0.69343161E+02</totfact>
</mgrwt>
</event>
<event>
 7    1  0.6493044E-004  0.6809670E+02  0.7546771E-02  0.1466887E+00
          1   -1    0    0  503    0  0.00000000000E+00  0.00000000000E+00  0.12384292580E+03  0.12384292580E+03  0.00000000000E+00 0. -1.
         -1   -1    0    0    0  501 -0.00000000000E+00 -0.00000000000E+00 -0.12124322670E+03  0.12124322670E+03  0.00000000000E+00 0.  1.
         25    2    1    2    0    0 -0.53383334064E+02 -0.61274941505E+01 -0.16269375678E+02  0.13702932870E+03  0.12500007120E+03 0.  0.
          4    1    3    3  502    0  0.22844602597E+02 -0.20647953991E+02 -0.44770205073E+02  0.54352534753E+02  0.12700000000E+01 0. -1.
         -4    1    3    3    0  502 -0.76227936662E+02  0.14520459841E+02  0.28500829395E+02  0.82676793950E+02  0.12700000000E+01 0. -1.
          2    1    1    2  503    0  0.66473181563E+02  0.34632292854E+02  0.15160322805E+02  0.76471661176E+02  0.00000000000E+00 0. -1.
         -2    1    1    2    0  501 -0.13089847498E+02 -0.28504798704E+02  0.37087519716E+01  0.31585162622E+02  0.00000000000E+00 0.  1.
<mgrwt>
<rscale>  0 0.46216516E+02</rscale>
<asrwt>0</asrwt>
<pdfrwt beam="1">  1        1 0.19052758E-01 0.68096700E+02</pdfrwt>
<pdfrwt beam="2">  1       -1 0.18652804E-01 0.31366665E+02</pdfrwt>
<totfact> 0.53327596E+03</totfact>
</mgrwt>
</event>
<event>
 7    1  0.6493044E-004  0.1162330E+03  0.7546771E-02  0.1303792E+00
          1   -1    0    0  502    0 -0.00000000000E+00  0.00000000000E+00  0.74675634116E+03  0.74675634116E+03  0.00000000000E+00 0. -1.
          2   -1    0    0  503    0  0.00000000000E+00 -0.00000000000E+00 -0.16817411571E+03  0.16817411571E+03  0.00000000000E+00 0. -1.
         25    2    1    2    0    0 -0.67158207773E+02  0.10273220931E+03  0.28255322646E+01  0.17520655781E+03  0.12500089026E+03 0.  0.
          4    1    3    3  501    0  0.11021198573E+02 -0.18663588075E+02 -0.19390653573E+02  0.29110250494E+02  0.12700000000E+01 0. -1.
         -4    1    3    3    0  501 -0.78179406346E+02  0.12139579738E+03  0.22216185838E+02  0.14609630732E+03  0.12700000000E+01 0. -1.
          2    1    1    2  502    0 -0.42403800618E+02 -0.54546091574E+02  0.61104624711E+03  0.61493973243E+03  0.00000000000E+00 0. -1.
          1    1    1    2  503    0  0.10956200839E+03 -0.48186117734E+02 -0.35289553922E+02  0.12478416663E+03  0.00000000000E+00 0. -1.
<mgrwt>
<rscale>  0 0.89612943E+02</rscale>
<asrwt>0</asrwt>
<pdfrwt beam="2">  1        2 0.25872941E-01 0.11623300E+03</pdfrwt>
<pdfrwt beam="1">  1        1 0.11488559E+00 0.69089496E+02</pdfrwt>
<totfact> 0.75119078E+02</totfact>
</mgrwt>
</event>
<event>
 7    1  0.6493044E-004  0.3746928E+02  0.7546771E-02  0.1616735E+00
          2   -1    0    0  503    0  0.00000000000E+00  0.00000000000E+00  0.20720300421E+04  0.20720300421E+04  0.00000000000E+00 0. -1.
         -2   -1    0    0    0  501 -0.00000000000E+00 -0.00000000000E+00 -0.11734695692E+03  0.11734695692E+03  0.00000000000E+00 0.  1.
         25    2    1    2    0    0 -0.38657928545E+02  0.36207167460E+01  0.51779749078E+03  0.53408489058E+03  0.12499953544E+03 0.  0.
          4    1    3    3  502    0  0.31418775497E+02 -0.30660250035E+02  0.28975208321E+03  0.29306155158E+03  0.12700000000E+01 0. -1.
         -4    1    3    3    0  502 -0.70076704042E+02  0.34280966781E+02  0.22804540756E+03  0.24102333900E+03  0.12700000000E+01 0. -1.
          1    1    1    2  503    0  0.91101694406E+01  0.19467256480E+02  0.15427927340E+04  0.15429424453E+04  0.00000000000E+00 0. -1.
         -1    1    1    2    0  501  0.29547759105E+02 -0.23087973226E+02 -0.10590713966E+03  0.11234966314E+03  0.00000000000E+00 0.  1.
<mgrwt>
<rscale>  0 0.28378598E+02</rscale>
<asrwt>0</asrwt>
<pdfrwt beam="1">  1        2 0.31877383E+00 0.21493470E+02</pdfrwt>
<pdfrwt beam="2">  1       -2 0.18053380E-01 0.37469279E+02</pdfrwt>
<totfact> 0.21206367E+02</totfact>
</mgrwt>
</event>
<event>
 7    1  0.6493044E-004  0.1614138E+03  0.7546771E-02  0.1192036E+00
          1   -1    0    0  502    0 -0.00000000000E+00  0.00000000000E+00  0.22215400280E+03  0.22215400280E+03  0.00000000000E+00 0. -1.
          2   -1    0    0  503    0  0.00000000000E+00 -0.00000000000E+00 -0.60386299782E+03  0.60386299782E+03  0.00000000000E+00 0. -1.
         25    2    1    2    0    0  0.61101706750E+02  0.57902462858E+02 -0.22242625516E+03  0.26867354288E+03  0.12500367951E+03 0.  0.
          4    1    3    3  501    0  0.57046558104E+02 -0.11517703744E+01 -0.19544707984E+03  0.20360945529E+03  0.12700000000E+01 0.  1.
         -4    1    3    3    0  501  0.40551486466E+01  0.59054233232E+02 -0.26979175315E+02  0.65064087590E+02  0.12700000000E+01 0.  1.
          2    1    1    2  502    0 -0.17797014961E+03  0.40623728065E+02  0.13411241917E+03  0.22651667137E+03  0.00000000000E+00 0. -1.
          1    1    1    2  503    0  0.11686844286E+03 -0.98526190923E+02 -0.29339515902E+03  0.33082678636E+03  0.00000000000E+00 0. -1.
<mgrwt>
<rscale>  0 0.15707779E+03</rscale>
<asrwt>0</asrwt>
<pdfrwt beam="2">  1        2 0.92901999E-01 0.15285825E+03</pdfrwt>
<pdfrwt beam="1">  1        1 0.34177539E-01 0.16141382E+03</pdfrwt>
<totfact> 0.88129002E+02</totfact>
</mgrwt>
</event>
<event>
 7    1  0.6493044E-004  0.6466456E+02  0.7546771E-02  0.1410591E+00
          1   -1    0    0  502    0 -0.00000000000E+00  0.00000000000E+00  0.98619245648E+03  0.98619245648E+03  0.00000000000E+00 0. -1.
          2   -1    0    0  503    0  0.00000000000E+00 -0.00000000000E+00 -0.31296248823E+03  0.31296248823E+03  0.00000000000E+00 0. -1.
         25    2    1    2    0    0  0.39626476812E+02  0.65659917598E+02  0.17321332272E+03  0.22695454070E+03  0.12499610368E+03 0.  0.
          4    1    3    3  501    0  0.57378630524E+02  0.29919442799E+02  0.18706495524E+02  0.67372295292E+02  0.12700000000E+01 0. -1.
         -4    1    3    3    0  501 -0.17752153712E+02  0.35740474800E+02  0.15450682719E+03  0.15958224541E+03  0.12700000000E+01 0. -1.
          2    1    1    2  502    0  0.21883769599E+02 -0.45349614457E+02  0.78162131094E+03  0.78324157233E+03  0.00000000000E+00 0. -1.
          1    1    1    2  503    0 -0.61510246411E+02 -0.20310303141E+02 -0.28160466540E+03  0.28895883168E+03  0.00000000000E+00 0. -1.
<mgrwt>
<rscale>  0 0.57062198E+02</rscale>
<asrwt>0</asrwt>
<pdfrwt beam="2">  1        2 0.48148076E-01 0.64664557E+02</pdfrwt>
<pdfrwt beam="1">  1        1 0.15172191E+00 0.50353619E+02</pdfrwt>
<totfact> 0.25834574E+02</totfact>
</mgrwt>
</event>
<event>
 7    1  0.6493044E-004  0.3864538E+02  0.7546771E-02  0.1543433E+00
         -2   -1    0    0    0  501 -0.00000000000E+00  0.00000000000E+00  0.64829580176E+02  0.64829580176E+02  0.00000000000E+00 0.  1.
          2   -1    0    0  503    0  0.00000000000E+00 -0.00000000000E+00 -0.10624164791E+04  0.10624164791E+04  0.00000000000E+00 0. -1.
         25    2    1    2    0    0 -0.32198145768E+02 -0.48570101264E+02 -0.16599056279E+03  0.21581140246E+03  0.12500367662E+03 0.  0.
          4    1    3    3  502    0 -0.35221519901E+02 -0.76063678485E+02 -0.16830363432E+03  0.18802650045E+03  0.12700000000E+01 0. -1.
         -4    1    3    3    0  502  0.30233741328E+01  0.27493577220E+02  0.23130715291E+01  0.27784902005E+02  0.12700000000E+01 0. -1.
          1    1    1    2  503    0  0.10279016765E+01  0.38443237091E+02 -0.86428812903E+03  0.86514328815E+03  0.00000000000E+00 0. -1.
         -1    1    1    2    0  501  0.31170244091E+02  0.10126864173E+02  0.32691792863E+02  0.46291368691E+02  0.00000000000E+00 0.  1.
<mgrwt>
<rscale>  0 0.35588835E+02</rscale>
<asrwt>0</asrwt>
<pdfrwt beam="2">  1        2 0.16344869E+00 0.38645381E+02</pdfrwt>
<pdfrwt beam="1">  1       -2 0.99737815E-02 0.32774037E+02</pdfrwt>
<totfact> 0.15410820E+03</totfact>
</mgrwt>
</event>
<event>
 7    1  0.7127024E-004  0.7476729E+02  0.7546771E-02  0.1424957E+00
          2   -1    0    0  503    0  0.00000000000E+00  0.00000000000E+00  0.17110586908E+04  0.17110586908E+04  0.00000000000E+00 0. -1.
          1   -1    0    0  502    0 -0.00000000000E+00 -0.00000000000E+00 -0.75685806909E+03  0.75685806909E+03  0.00000000000E+00 0. -1.
         25    2    1    2    0    0 -0.11220067032E+03 -0.61884723623E+01 -0.17661660744E+03  0.24381395210E+03  0.12499811841E+03 0.  0.
          4    1    3    3  501    0 -0.37148441800E+02 -0.60470207355E+02 -0.49544467623E+02  0.86561653622E+02  0.12700000000E+01 0.  1.
         -4    1    3    3    0  501 -0.75052228522E+02  0.54281734992E+02 -0.12707213982E+03  0.15725229848E+03  0.12700000000E+01 0.  1.
          2    1    1    2  502    0  0.37676672336E+02  0.99971441614E+01 -0.54511660030E+03  0.54650853831E+03  0.00000000000E+00 0. -1.
          1    1    1    2  503    0  0.74523997985E+02 -0.38086717991E+01  0.16759338294E+04  0.16775942694E+04  0.00000000000E+00 0. -1.
<mgrwt>
<rscale>  0 0.53985754E+02</rscale>
<asrwt>0</asrwt>
<pdfrwt beam="1">  1        2 0.26323980E+00 0.74767287E+02</pdfrwt>
<pdfrwt beam="2">  1        1 0.11643970E+00 0.38980438E+02</pdfrwt>
<totfact> 0.44714342E+01</totfact>
</mgrwt>
</event>
<event>
 7    1  0.6493044E-004  0.7038462E+02  0.7546771E-02  0.1477696E+00
         -2   -1    0    0    0  501 -0.00000000000E+00  0.00000000000E+00  0.17665698443E+02  0.17665698443E+02  0.00000000000E+00 0.  1.
          2   -1    0    0  503    0  0.00000000000E+00 -0.00000000000E+00 -0.88211992000E+03  0.88211992000E+03  0.00000000000E+00 0. -1.
         25    2    1    2    0    0 -0.58677222055E+02  0.59823103859E+01 -0.55159913803E+03  0.56865197671E+03  0.12499862847E+03 0.  0.
          4    1    3    3  502    0 -0.14773746735E+02 -0.12770463135E+02 -0.49149360479E+03  0.49188303973E+03  0.12700000000E+01 0. -1.
         -4    1    3    3    0  502 -0.43903475320E+02  0.18752773521E+02 -0.60105533234E+02  0.76768936982E+02  0.12700000000E+01 0. -1.
          1    1    1    2  503    0  0.74481223750E+02 -0.29208491990E+02 -0.24344366013E+03  0.25625261824E+03  0.00000000000E+00 0. -1.
         -1    1    1    2    0  501 -0.15804001695E+02  0.23226181604E+02 -0.69411423403E+02  0.74881023499E+02  0.00000000000E+00 0.  1.
<mgrwt>
<rscale>  0 0.44467086E+02</rscale>
<asrwt>0</asrwt>
<pdfrwt beam="2">  1        2 0.13571077E+00 0.70384617E+02</pdfrwt>
<pdfrwt beam="1">  1       -2 0.27177995E-02 0.28093095E+02</pdfrwt>
<totfact> 0.12155197E+04</totfact>
</mgrwt>
</event>
<event>
 7    1  0.6493044E-004  0.1367537E+03  0.7546771E-02  0.1224484E+00
          2   -1    0    0  503    0  0.00000000000E+00  0.00000000000E+00  0.18160818591E+03  0.18160818591E+03  0.00000000000E+00 0. -1.
          1   -1    0    0  502    0 -0.00000000000E+00 -0.00000000000E+00 -0.97169137310E+03  0.97169137310E+03  0.00000000000E+00 0. -1.
         25    2    1    2    0    0 -0.51638230823E+02  0.53013764938E+02 -0.31551655449E+03  0.34734990239E+03  0.12499716948E+03 0.  0.
          4    1    3    3  501    0  0.11554314265E+00  0.78647554015E+02 -0.23809519060E+03  0.25075163766E+03  0.12700000000E+01 0.  1.
         -4    1    3    3    0  501 -0.51753773966E+02 -0.25633789077E+02 -0.77421363892E+02  0.96598264731E+02  0.12700000000E+01 0.  1.
          2    1    1    2  502    0  0.18494180686E+03 -0.22489374454E+02 -0.59514829886E+03  0.62362708530E+03  0.00000000000E+00 0. -1.
          1    1    1    2  503    0 -0.13330357603E+03 -0.30524390484E+02  0.12058166616E+03  0.18232257132E+03  0.00000000000E+00 0. -1.
<mgrwt>
<rscale>  0 0.13202322E+03</rscale>
<asrwt>0</asrwt>
<pdfrwt beam="1">  1        2 0.27939722E-01 0.13675373E+03</pdfrwt>
<pdfrwt beam="2">  1        1 0.14949098E+00 0.12745636E+03</pdfrwt>
<totfact> 0.44842963E+02</totfact>
</mgrwt>
</event>
<event>
 7    1  0.6493044E-004  0.8916075E+02  0.7546771E-02  0.1369657E+00
          2   -1    0    0  503    0  0.00000000000E+00  0.00000000000E+00  0.14638722002E+04  0.14638722002E+04  0.00000000000E+00 0. -1.
          1   -1    0    0  502    0 -0.00000000000E+00 -0.00000000000E+00 -0.41249285795E+02  0.41249285795E+02  0.00000000000E+00 0. -1.
         25    2    1    2    0    0  0.11741293146E+03  0.23045591619E+02  0.90014537803E+03  0.91662599118E+03  0.12499844138E+03 0.  0.
          4    1    3    3  501    0  0.12528946311E+03 -0.15884933391E+02  0.55439597379E+03  0.56860028960E+03  0.12700000000E+01 0.  1.
         -4    1    3    3    0  501 -0.78765316552E+01  0.38930525010E+02  0.34574940424E+03  0.34802570158E+03  0.12700000000E+01 0.  1.
          2    1    1    2  502    0 -0.38438353994E+02 -0.33125943131E+02 -0.86146974563E+01  0.51468904966E+02  0.00000000000E+00 0. -1.
          1    1    1    2  503    0 -0.78974577462E+02  0.10080351512E+02  0.53109223388E+03  0.53702658990E+03  0.00000000000E+00 0. -1.
<mgrwt>
<rscale>  0 0.67262686E+02</rscale>
<asrwt>0</asrwt>
<pdfrwt beam="1">  1        2 0.22521107E+00 0.89160748E+02</pdfrwt>
<pdfrwt beam="2">  1        1 0.63460451E-02 0.50742834E+02</pdfrwt>
<totfact> 0.22049103E+03</totfact>
</mgrwt>
</event>
<event>
 7    1  0.6493044E-004  0.3893394E+02  0.7546771E-02  0.1622397E+00
          1   -1    0    0  502    0 -0.00000000000E+00  0.00000000000E+00  0.14099191241E+04  0.14099191241E+04  0.00000000000E+00 0. -1.
          2   -1    0    0  503    0  0.00000000000E+00 -0.00000000000E+00 -0.27837747621E+02  0.27837747621E+02  0.00000000000E+00 0. -1.
         25    2    1    2    0    0 -0.17929125395E+02  0.46915376997E+02  0.47203996062E+03  0.49088724564E+03  0.12500422942E+03 0.  0.
          4    1    3    3  501    0  0.16255697077E+02 -0.27008753465E+02  0.28678777235E+03  0.28851786725E+03  0.12700000000E+01 0. -1.
         -4    1    3    3    0  501 -0.34184822472E+02  0.73924130463E+02  0.18525218826E+03  0.20236937839E+03  0.12700000000E+01 0. -1.
          2    1    1    2  502    0  0.25933402203E+02 -0.28577142686E+02  0.92249487834E+03  0.92330168146E+03  0.00000000000E+00 0. -1.
          1    1    1    2  503    0 -0.80042768084E+01 -0.18338234311E+02 -0.12453462492E+02  0.23567944605E+02  0.00000000000E+00 0. -1.
<mgrwt>
<rscale>  0 0.27911082E+02</rscale>
<asrwt>0</asrwt>
<pdfrwt beam="2">  1        2 0.42827315E-02 0.20008980E+02</pdfrwt>
<pdfrwt beam="1">  1        1 0.21691058E+00 0.38933942E+02</pdfrwt>
<totfact> 0.19472719E+03</totfact>
</mgrwt>
</event>
<event>
 7    1  0.6493044E-004  0.1443471E+03  0.7546771E-02  0.1330066E+00
         -2   -1    0    0    0  501 -0.00000000000E+00  0.00000000000E+00  0.64535647672E+03  0.64535647672E+03  0.00000000000E+00 0.  1.
          2   -1    0    0  503    0  0.00000000000E+00 -0.00000000000E+00 -0.68498160164E+03  0.68498160164E+03  0.00000000000E+00 0. -1.
         25    2    1    2    0    0 -0.90499929495E+02  0.14134612180E+03  0.39646728399E+02  0.21299438279E+03  0.12500312253E+03 0.  0.
          4    1    3    3  502    0 -0.10926110649E+03  0.60320036618E+02  0.35269519606E+02  0.12969983856E+03  0.12700000000E+01 0.  1.
         -4    1    3    3    0  502  0.18761176998E+02  0.81026085181E+02  0.43772087924E+01  0.83294544233E+02  0.12700000000E+01 0.  1.
          1    1    1    2  503    0 -0.11556701693E+02 -0.42396467964E+02 -0.58773938790E+03  0.58937984860E+03  0.00000000000E+00 0. -1.
         -1    1    1    2    0  501  0.10205663119E+03 -0.98949653835E+02  0.50846753459E+03  0.52796384696E+03  0.00000000000E+00 0.  1.
<mgrwt>
<rscale>  0 0.79643554E+02</rscale>
<asrwt>0</asrwt>
<pdfrwt beam="2">  1        2 0.10538178E+00 0.43943348E+02</pdfrwt>
<pdfrwt beam="1">  1       -2 0.99285612E-01 0.14434712E+03</pdfrwt>
<totfact> 0.40908314E+01</totfact>
</mgrwt>
</event>
<event>
 7    1  0.6493044E-004  0.1897274E+03  0.7546771E-02  0.1234959E+00
          1   -1    0    0  502    0 -0.00000000000E+00  0.00000000000E+00  0.46777631058E+03  0.46777631058E+03  0.00000000000E+00 0. -1.
          2   -1    0    0  503    0  0.00000000000E+00 -0.00000000000E+00 -0.47866964254E+03  0.47866964254E+03  0.00000000000E+00 0. -1.
         25    2    1    2    0    0  0.22691987444E+03 -0.54665911102E+02  0.86560390968E+02  0.27857399909E+03  0.12501912027E+03 0.  0.
          4    1    3    3  501    0  0.17915342174E+03 -0.71890011510E+02  0.11048943585E+03  0.22242673088E+03  0.12700000000E+01 0.  1.
         -4    1    3    3    0  501  0.47766452697E+02  0.17224100408E+02 -0.23929044882E+02  0.56147268207E+02  0.12700000000E+01 0.  1.
          2    1    1    2  502    0 -0.42061440136E+02  0.70912478537E+02  0.25584527791E+03  0.26880206581E+03  0.00000000000E+00 0. -1.
          1    1    1    2  503    0 -0.18485843430E+03 -0.16246567434E+02 -0.35329900084E+03  0.39906988822E+03  0.00000000000E+00 0. -1.
<mgrwt>
<rscale>  0 0.12507089E+03</rscale>
<asrwt>0</asrwt>
<pdfrwt beam="2">  1        2 0.73641483E-01 0.18972740E+03</pdfrwt>
<pdfrwt beam="1">  1        1 0.71965587E-01 0.82448435E+02</pdfrwt>
<totfact> 0.45346345E+02</totfact>
</mgrwt>
</event>
<event>
 7    1  0.6493044E-004  0.5778342E+02  0.7546771E-02  0.1504146E+00
          2   -1    0    0  503    0  0.00000000000E+00  0.00000000000E+00  0.55458368157E+03  0.55458368157E+03  0.00000000000E+00 0. -1.
          1   -1    0    0  502    0 -0.00000000000E+00 -0.00000000000E+00 -0.16171373955E+03  0.16171373955E+03  0.00000000000E+00 0. -1.
         25    2    1    2    0    0  0.56422320659E+01  0.52644947580E+02 -0.28430261815E+02  0.13869080182E+03  0.12499413360E+03 0.  0.
          4    1    3    3  501    0  0.28785779136E+02 -0.32481790226E+02  0.63010439523E+01  0.43874865602E+02  0.12700000000E+01 0.  1.
         -4    1    3    3    0  501 -0.23143547070E+02  0.85126737806E+02 -0.34731305767E+02  0.94815936217E+02  0.12700000000E+01 0.  1.
          2    1    1    2  502    0 -0.33924270279E+02 -0.49402921164E+02 -0.66187935666E+02  0.89288003457E+02  0.00000000000E+00 0. -1.
          3    1    1    2  503    0  0.28282038214E+02 -0.32420264159E+01  0.48748813950E+03  0.48831861584E+03  0.00000000000E+00 0. -1.
<mgrwt>
<rscale>  0 0.40557801E+02</rscale>
<asrwt>0</asrwt>
<pdfrwt beam="1">  1        2 0.85320566E-01 0.28467252E+02</pdfrwt>
<pdfrwt beam="2">  1        1 0.24879037E-01 0.57783421E+02</pdfrwt>
<totfact> 0.14491456E+03</totfact>
</mgrwt>
</event>
<event>
 7    1  0.6493044E-004  0.9079733E+02  0.7546771E-02  0.1347150E+00
          1   -1    0    0  502    0 -0.00000000000E+00  0.00000000000E+00  0.56289569744E+03  0.56289569744E+03  0.00000000000E+00 0. -1.
          2   -1    0    0  503    0  0.00000000000E+00 -0.00000000000E+00 -0.18760165754E+04  0.18760165754E+04  0.00000000000E+00 0. -1.
         25    2    1    2    0    0  0.13981297571E+03  0.54104540711E+01  0.63874756672E+01  0.18773049453E+03  0.12499999017E+03 0.  0.
          4    1    3    3  501    0 -0.22815332429E+02  0.74087096001E+01 -0.55264024660E+01  0.24649186518E+02  0.12700000000E+01 0.  1.
         -4    1    3    3    0  501  0.16262830814E+03 -0.19982555290E+01  0.11913878133E+02  0.16308130802E+03  0.12700000000E+01 0.  1.
          2    1    1    2  502    0 -0.52699524444E+02 -0.29162825845E+02  0.46274214996E+03  0.46664548389E+03  0.00000000000E+00 0. -1.
          1    1    1    2  503    0 -0.87113451264E+02  0.23752371774E+02 -0.17822505036E+04  0.17845362944E+04  0.00000000000E+00 0. -1.
<mgrwt>
<rscale>  0 0.73951108E+02</rscale>
<asrwt>0</asrwt>
<pdfrwt beam="2">  1        2 0.28861794E+00 0.90797329E+02</pdfrwt>
<pdfrwt beam="1">  1        1 0.86599337E-01 0.60230476E+02</pdfrwt>
<totfact> 0.53041872E+01</totfact>
</mgrwt>
</event>
<event>
 7    1  0.7481316E-004  0.4123502E+02  0.7546771E-02  0.1525572E+00
          2   -1    0    0  503    0  0.00000000000E+00  0.00000000000E+00  0.23895012787E+03  0.23895012787E+03  0.00000000000E+00 0.  1.
         -2   -1    0    0    0  501 -0.00000000000E+00 -0.00000000000E+00 -0.56579086583E+02  0.56579086583E+02  0.00000000000E+00 0. -1.
         25    2    1    2    0    0 -0.39422909501E+02 -0.16470653230E+02  0.10410581959E+03  0.16819340029E+03  0.12500220006E+03 0.  0.
          4    1    3    3  502    0  0.17036026983E+02 -0.52910591536E+02  0.16936150193E+02  0.58122310651E+02  0.12700000000E+01 0. -1.
         -4    1    3    3    0  502 -0.56458936484E+02  0.36439938306E+02  0.87169669392E+02  0.11007108964E+03  0.12700000000E+01 0. -1.
          1    1    1    2  503    0  0.42008328184E+02 -0.17964766602E+02  0.45269695757E+01  0.45912154485E+02  0.00000000000E+00 0. -1.
         -1    1    1    2    0  501 -0.25854186836E+01  0.34435419832E+02  0.73738252129E+02  0.81423659680E+02  0.00000000000E+00 0.  1.
<mgrwt>
<rscale>  0 0.37735153E+02</rscale>
<asrwt>0</asrwt>
<pdfrwt beam="1">  1        2 0.36761558E-01 0.41235021E+02</pdfrwt>
<pdfrwt beam="2">  1       -2 0.87044750E-02 0.34532340E+02</pdfrwt>
<totfact> 0.95830025E+03</totfact>
</mgrwt>
</event>
<event>
 7    1  0.6493044E-004  0.4778633E+02  0.7546771E-02  0.1458767E+00
         -1   -1    0    0    0  501 -0.00000000000E+00  0.00000000000E+00  0.27603593481E+03  0.27603593481E+03  0.00000000000E+00 0.  1.
          1   -1    0    0  503    0  0.00000000000E+00 -0.00000000000E+00 -0.18745287352E+03  0.18745287352E+03  0.00000000000E+00 0. -1.
         25    2    1    2    0    0  0.25845043242E+01 -0.29792062204E+01  0.11768110425E+03  0.17172440647E+03  0.12499949660E+03 0.  0.
          4    1    3    3  502    0 -0.43142435765E+02  0.23325785165E+02  0.75959207578E+01  0.49645472396E+02  0.12700000000E+01 0.  1.
         -4    1    3    3    0  502  0.45726940089E+02 -0.26304991385E+02  0.11008518349E+03  0.12207893408E+03  0.12700000000E+01 0.  1.
          2    1    1    2  503    0  0.19050967555E+02  0.45156815796E+02 -0.15217583730E+03  0.15987358392E+03  0.00000000000E+00 0. -1.
         -2    1    1    2    0  501 -0.21635471879E+02 -0.42177609575E+02  0.12307779435E+03  0.13189081793E+03  0.00000000000E+00 0.  1.
<mgrwt>
<rscale>  0 0.47594278E+02</rscale>
<asrwt>0</asrwt>
<pdfrwt beam="2">  1        1 0.28838903E-01 0.47786329E+02</pdfrwt>
<pdfrwt beam="1">  1       -1 0.42467067E-01 0.47403000E+02</pdfrwt>
<totfact> 0.85437684E+02</totfact>
</mgrwt>
</event>
<event>
 7    1  0.6493044E-004  0.1131618E+03  0.7546771E-02  0.1321772E+00
          1   -1    0    0  502    0 -0.00000000000E+00  0.00000000000E+00  0.53760515163E+03  0.53760515163E+03  0.00000000000E+00 0. -1.
          2   -1    0    0  503    0  0.00000000000E+00 -0.00000000000E+00 -0.12431719691E+03  0.12431719691E+03  0.00000000000E+00 0. -1.
         25    2    1    2    0    0  0.11590022057E+03 -0.53274457125E+02  0.55964940286E+02  0.18716074172E+03  0.12500415909E+03 0.  0.
          4    1    3    3  501    0 -0.17348273282E+01 -0.44651673687E+02 -0.17711870984E+02  0.48084351536E+02  0.12700000000E+01 0. -1.
         -4    1    3    3    0  501  0.11763504790E+03 -0.86227834377E+01  0.73676811270E+02  0.13907639019E+03  0.12700000000E+01 0. -1.
          2    1    1    2  502    0 -0.68174866247E+02  0.90169131498E+02  0.39007240254E+03  0.40612161219E+03  0.00000000000E+00 0. -1.
          1    1    1    2  503    0 -0.47725354322E+02 -0.36894674373E+02 -0.32749388099E+02  0.68639994633E+02  0.00000000000E+00 0. -1.
<mgrwt>
<rscale>  0 0.82621515E+02</rscale>
<asrwt>0</asrwt>
<pdfrwt beam="2">  1        2 0.19125723E-01 0.60323515E+02</pdfrwt>
<pdfrwt beam="1">  1        1 0.82708484E-01 0.11316175E+03</pdfrwt>
<totfact> 0.15741044E+03</totfact>
</mgrwt>
</event>
<event>
 7    1  0.6493044E-004  0.4661316E+02  0.7546771E-02  0.1515987E+00
         -2   -1    0    0    0  501 -0.00000000000E+00  0.00000000000E+00  0.77502860851E+02  0.77502860851E+02  0.00000000000E+00 0.  1.
          2   -1    0    0  503    0  0.00000000000E+00 -0.00000000000E+00 -0.65731845306E+03  0.65731845306E+03  0.00000000000E+00 0. -1.
         25    2    1    2    0    0 -0.62112355488E+02 -0.38971484652E+02 -0.40072521167E+02  0.15036086576E+03  0.12500344667E+03 0.  0.
          4    1    3    3  502    0 -0.67137394018E+02 -0.44448487075E+02 -0.77749847686E+02  0.11193636314E+03  0.12700000000E+01 0. -1.
         -4    1    3    3    0  502  0.50250385301E+01  0.54770024227E+01  0.37677326519E+02  0.38424502617E+02  0.12700000000E+01 0. -1.
          1    1    1    2  503    0  0.25197813185E+02  0.20633246737E+02 -0.54219190889E+03  0.54316915112E+03  0.00000000000E+00 0. -1.
         -1    1    1    2    0  501  0.36914542303E+02  0.18338237915E+02  0.24488378536E+01  0.41291297026E+02  0.00000000000E+00 0.  1.
<mgrwt>
<rscale>  0 0.38962641E+02</rscale>
<asrwt>0</asrwt>
<pdfrwt beam="2">  1        2 0.10112592E+00 0.32567786E+02</pdfrwt>
<pdfrwt beam="1">  1       -2 0.11923517E-01 0.46613159E+02</pdfrwt>
<totfact> 0.21568142E+03</totfact>
</mgrwt>
</event>
<event>
 7    1  0.6493044E-004  0.1337727E+03  0.7546771E-02  0.1287593E+00
          1   -1    0    0  502    0 -0.00000000000E+00  0.00000000000E+00  0.90714109304E+02  0.90714109304E+02  0.00000000000E+00 0. -1.
          2   -1    0    0  503    0  0.00000000000E+00 -0.00000000000E+00 -0.92020495510E+03  0.92020495510E+03  0.00000000000E+00 0. -1.
         25    2    1    2    0    0  0.94250280676E+02  0.30509803117E+01 -0.12154087710E+03  0.19821270119E+03  0.12499466475E+03 0.  0.
          4    1    3    3  501    0  0.38558583231E+01 -0.43365621489E+02 -0.54003617605E+01  0.43888740899E+02  0.12700000000E+01 0.  1.
         -4    1    3    3    0  501  0.90394422352E+02  0.46416601801E+02 -0.11614051534E+03  0.15432396029E+03  0.12700000000E+01 0.  1.
          2    1    1    2  502    0  0.36405318440E+02 -0.59518416281E+02  0.18712233975E+02  0.72235287690E+02  0.00000000000E+00 0. -1.
          1    1    1    2  503    0 -0.13065559912E+03  0.56467435969E+02 -0.72666220266E+03  0.74047107552E+03  0.00000000000E+00 0. -1.
<mgrwt>
<rscale>  0 0.96608793E+02</rscale>
<asrwt>0</asrwt>
<pdfrwt beam="2">  1        2 0.14156998E+00 0.13377268E+03</pdfrwt>
<pdfrwt beam="1">  1        1 0.13956018E-01 0.69769543E+02</pdfrwt>
<totfact> 0.15902461E+03</totfact>
</mgrwt>
</event>
<event>
 7    1  0.6493044E-004  0.5486743E+02  0.7546771E-02  0.1455850E+00
         -2   -1    0    0    0  501 -0.00000000000E+00  0.00000000000E+00  0.26335823026E+03  0.26335823026E+03  0.00000000000E+00 0.  1.
          2   -1    0    0  503    0  0.00000000000E+00 -0.00000000000E+00 -0.61012825949E+03  0.61012825949E+03  0.00000000000E+00 0. -1.
         25    2    1    2    0    0 -0.49455336029E+02  0.48784051895E+02 -0.23166729748E+03  0.27224192884E+03  0.12498086700E+03 0.  0.
          4    1    3    3  502    0  0.57299194967E+01 -0.36075662429E+02 -0.32883447147E+02  0.49165225449E+02  0.12700000000E+01 0. -1.
         -4    1    3    3    0  502 -0.55185255526E+02  0.84859714324E+02 -0.19878385033E+03  0.22307670339E+03  0.12700000000E+01 0. -1.
          1    1    1    2  503    0 -0.49692031283E+01 -0.41878802228E+02 -0.35380984227E+03  0.35631437179E+03  0.00000000000E+00 0. -1.
         -1    1    1    2    0  501  0.54424539157E+02 -0.69052496667E+01  0.23870711051E+03  0.24493018912E+03  0.00000000000E+00 0.  1.
<mgrwt>
<rscale>  0 0.48103029E+02</rscale>
<asrwt>0</asrwt>
<pdfrwt beam="2">  1        2 0.93865885E-01 0.42172587E+02</pdfrwt>
<pdfrwt beam="1">  1       -2 0.40516651E-01 0.54867429E+02</pdfrwt>
<totfact> 0.29880341E+02</totfact>
</mgrwt>
</event>
<event>
 7    1  0.6493044E-004  0.9666212E+02  0.7546771E-02  0.1431931E+00
         -1   -1    0    0    0  501 -0.00000000000E+00  0.00000000000E+00  0.54022093422E+02  0.54022093422E+02  0.00000000000E+00 0.  1.
          1   -1    0    0  503    0  0.00000000000E+00 -0.00000000000E+00 -0.77692514718E+03  0.77692514718E+03  0.00000000000E+00 0. -1.
         25    2    1    2    0    0  0.72663832086E+01  0.88200384824E+02 -0.14256487600E+03  0.20924154221E+03  0.12500068364E+03 0.  0.
          4    1    3    3  502    0  0.50114817579E+02  0.75781208364E+02 -0.13682109436E+03  0.16424345115E+03  0.12700000000E+01 0.  1.
         -4    1    3    3    0  502 -0.42848434371E+02  0.12419176460E+02 -0.57437816387E+01  0.44998091065E+02  0.12700000000E+01 0.  1.
          2    1    1    2  503    0  0.20256739413E+02 -0.95956474403E+02 -0.58462267663E+03  0.59279140893E+03  0.00000000000E+00 0. -1.
         -2    1    1    2    0  501 -0.27523122622E+02  0.77560895788E+01  0.42844988739E+01  0.28914289460E+02  0.00000000000E+00 0.  1.
<mgrwt>
<rscale>  0 0.52574348E+02</rscale>
<asrwt>0</asrwt>
<pdfrwt beam="2">  1        1 0.11952695E+00 0.96662119E+02</pdfrwt>
<pdfrwt beam="1">  1       -1 0.83110911E-02 0.28595091E+02</pdfrwt>
<totfact> 0.17233910E+03</totfact>
</mgrwt>
</event>
<event>
 7    1  0.6493044E-004  0.6715167E+02  0.7546771E-02  0.1462493E+00
          2   -1    0    0  503    0  0.00000000000E+00  0.00000000000E+00  0.16242627264E+03  0.16242627264E+03  0.00000000000E+00 0. -1.
          1   -1    0    0  502    0 -0.00000000000E+00 -0.00000000000E+00 -0.20631597362E+03  0.20631597362E+03  0.00000000000E+00 0. -1.
         25    2    1    2    0    0  0.21540448431E+02 -0.83508721038E+02  0.27656899787E+02  0.15431358309E+03  0.12494030740E+03 0.  0.
          4    1    3    3  501    0 -0.43970821473E+02 -0.72595096114E+02  0.92572277488E+01  0.85386124671E+02  0.12700000000E+01 0.  1.
         -4    1    3    3    0  501  0.65511269904E+02 -0.10913624925E+02  0.18399672038E+02  0.68927458422E+02  0.12700000000E+01 0.  1.
          2    1    1    2  502    0  0.59957887388E+01  0.65627132418E+02 -0.13092638373E+03  0.14657621890E+03  0.00000000000E+00 0. -1.
          1    1    1    2  503    0 -0.27536237169E+02  0.17881588621E+02  0.59379782961E+02  0.67852444271E+02  0.00000000000E+00 0. -1.
<mgrwt>
<rscale>  0 0.46955086E+02</rscale>
<asrwt>0</asrwt>
<pdfrwt beam="1">  1        2 0.24988658E-01 0.32832843E+02</pdfrwt>
<pdfrwt beam="2">  1        1 0.31740919E-01 0.67151666E+02</pdfrwt>
<totfact> 0.37645074E+03</totfact>
</mgrwt>
</event>
<event>
 7    1  0.6493044E-004  0.9387721E+02  0.7546771E-02  0.1391664E+00
         -2   -1    0    0    0  501 -0.00000000000E+00  0.00000000000E+00  0.61302994199E+02  0.61302994199E+02  0.00000000000E+00 0.  1.
          2   -1    0    0  503    0  0.00000000000E+00 -0.00000000000E+00 -0.11237476881E+04  0.11237476881E+04  0.00000000000E+00 0. -1.
         25    2    1    2    0    0  0.12649208606E+03  0.77815398300E+01 -0.23489048485E+03  0.29471380285E+03  0.12498754146E+03 0.  0.
          4    1    3    3  502    0  0.13946700309E+03 -0.92655039787E+01 -0.23479483835E+03  0.27325285640E+03  0.12700000000E+01 0.  1.
         -4    1    3    3    0  502 -0.12974917031E+02  0.17047043809E+02 -0.95646506402E-01  0.21460946457E+02  0.12700000000E+01 0.  1.
          1    1    1    2  503    0 -0.90689785902E+02  0.10681289968E+02 -0.84245285963E+03  0.84738748393E+03  0.00000000000E+00 0. -1.
         -1    1    1    2    0  501 -0.35802300160E+02 -0.18462829798E+02  0.14898650624E+02  0.42949395471E+02  0.00000000000E+00 0.  1.
<mgrwt>
<rscale>  0 0.61494794E+02</rscale>
<asrwt>0</asrwt>
<pdfrwt beam="2">  1        2 0.17288425E+00 0.93877205E+02</pdfrwt>
<pdfrwt beam="1">  1       -2 0.94312304E-02 0.40282512E+02</pdfrwt>
<totfact> 0.15006230E+03</totfact>
</mgrwt>
</event>
<event>
 7    1  0.6493044E-004  0.1548556E+03  0.7546771E-02  0.1303991E+00
          2   -1    0    0  503    0  0.00000000000E+00  0.00000000000E+00  0.77494437344E+03  0.77494437344E+03  0.00000000000E+00 0. -1.
          1   -1    0    0  502    0 -0.00000000000E+00 -0.00000000000E+00 -0.12877627029E+04  0.12877627029E+04  0.00000000000E+00 0. -1.
         25    2    1    2    0    0 -0.28233313521E+02  0.11930720598E+03  0.16671234555E+02  0.17587940897E+03  0.12499722816E+03 0.  0.
          4    1    3    3  501    0 -0.19285234136E+02  0.89937626863E+02  0.69138558955E+02  0.11507584549E+03  0.12700000000E+01 0.  1.
         -4    1    3    3    0  501 -0.89480793848E+01  0.29369579114E+02 -0.52467324400E+02  0.60803563478E+02  0.12700000000E+01 0.  1.
          2    1    1    2  502    0 -0.76445313015E+01 -0.15661972227E+03 -0.12020719964E+04  0.12122562686E+04  0.00000000000E+00 0. -1.
          1    1    1    2  503    0  0.35877844823E+02  0.37312516295E+02  0.67258243240E+03  0.67457139874E+03  0.00000000000E+00 0. -1.
<mgrwt>
<rscale>  0 0.89531241E+02</rscale>
<asrwt>0</asrwt>
<pdfrwt beam="1">  1        2 0.11922221E+00 0.51763342E+02</pdfrwt>
<pdfrwt beam="2">  1        1 0.19811734E+00 0.15485559E+03</pdfrwt>
<totfact> 0.56039029E+01</totfact>
</mgrwt>
</event>
<event>
 7    1  0.6493044E-004  0.1162177E+03  0.7546771E-02  0.1290309E+00
         -2   -1    0    0    0  501 -0.00000000000E+00  0.00000000000E+00  0.39368688063E+02  0.39368688063E+02  0.00000000000E+00 0.  1.
          2   -1    0    0  503    0  0.00000000000E+00 -0.00000000000E+00 -0.23992682676E+04  0.23992682676E+04  0.00000000000E+00 0. -1.
         25    2    1    2    0    0 -0.46393924269E+02  0.16296987748E+02 -0.85788515856E+03  0.86833485041E+03  0.12498191529E+03 0.  0.
          4    1    3    3  502    0 -0.28238497990E+00  0.29932363739E+02 -0.45203949816E+02  0.54231320464E+02  0.12700000000E+01 0.  1.
         -4    1    3    3    0  502 -0.46111539289E+02 -0.13635375991E+02 -0.81268120874E+03  0.81410352995E+03  0.12700000000E+01 0.  1.
          1    1    1    2  503    0 -0.60581209466E+02  0.49588063316E+02 -0.14157225798E+04  0.14178855673E+04  0.00000000000E+00 0. -1.
         -1    1    1    2    0  501  0.10697513373E+03 -0.65885051064E+02 -0.86291841183E+02  0.15241653797E+03  0.00000000000E+00 0.  1.
<mgrwt>
<rscale>  0 0.95386005E+02</rscale>
<asrwt>0</asrwt>
<pdfrwt beam="2">  1        2 0.36911822E+00 0.78288307E+02</pdfrwt>
<pdfrwt beam="1">  1       -2 0.60567208E-02 0.11621774E+03</pdfrwt>
<totfact> 0.72739124E+02</totfact>
</mgrwt>
</event>
<event>
 7    1  0.6493044E-004  0.8591430E+02  0.7546771E-02  0.1497134E+00
          2   -1    0    0  503    0  0.00000000000E+00  0.00000000000E+00  0.68220499927E+03  0.68220499927E+03  0.00000000000E+00 0. -1.
         -2   -1    0    0    0  501 -0.00000000000E+00 -0.00000000000E+00 -0.80118001517E+02  0.80118001517E+02  0.00000000000E+00 0.  1.
         25    2    1    2    0    0 -0.70042678807E+02 -0.20208125754E+01  0.14261102595E+03  0.20216773911E+03  0.12499531782E+03 0.  0.
          4    1    3    3  502    0 -0.90809209600E+02  0.32165086303E+02  0.12653643198E+03  0.15904083388E+03  0.12700000000E+01 0. -1.
         -4    1    3    3    0  502  0.20766530794E+02 -0.34185898878E+02  0.16074593978E+02  0.43126905232E+02  0.12700000000E+01 0. -1.
          1    1    1    2  503    0 -0.19234451024E+02 -0.58022136321E+01  0.46954279581E+03  0.46997241077E+03  0.00000000000E+00 0. -1.
         -1    1    1    2    0  501  0.89277129831E+02  0.78230262075E+01 -0.10066824016E+02  0.90182850896E+02  0.00000000000E+00 0.  1.
<mgrwt>
<rscale>  0 0.41545934E+02</rscale>
<asrwt>0</asrwt>
<pdfrwt beam="1">  1        2 0.10495461E+00 0.20090540E+02</pdfrwt>
<pdfrwt beam="2">  1       -2 0.12325847E-01 0.85914298E+02</pdfrwt>
<totfact> 0.20763044E+03</totfact>
</mgrwt>
</event>
<event>
 7    1  0.6493044E-004  0.5372826E+02  0.7546771E-02  0.1480795E+00
          2   -1    0    0  503    0  0.00000000000E+00  0.00000000000E+00  0.17179863550E+04  0.17179863550E+04  0.00000000000E+00 0. -1.
         -2   -1    0    0    0  501 -0.00000000000E+00 -0.00000000000E+00 -0.14254538776E+02  0.14254538776E+02  0.00000000000E+00 0.  1.
         25    2    1    2    0    0  0.23590458028E+02  0.92494190130E+01  0.51145942659E+03  0.52711997096E+03  0.12499062875E+03 0.  0.
          4    1    3    3  502    0  0.72442624732E+02 -0.11257264674E+02  0.26029590578E+03  0.27042601826E+03  0.12700000000E+01 0. -1.
         -4    1    3    3    0  502 -0.48852166704E+02  0.20506683687E+02  0.25116352081E+03  0.25669395270E+03  0.12700000000E+01 0. -1.
          1    1    1    2  503    0 -0.37104548135E+02 -0.42621615466E+02  0.11413916622E+04  0.11427896903E+04  0.00000000000E+00 0. -1.
         -1    1    1    2    0  501  0.13514090107E+02  0.33372196453E+02  0.50880727360E+02  0.62331232494E+02  0.00000000000E+00 0.  1.
<mgrwt>
<rscale>  0 0.43982574E+02</rscale>
<asrwt>0</asrwt>
<pdfrwt beam="1">  1        2 0.26430543E+00 0.53728263E+02</pdfrwt>
<pdfrwt beam="2">  1       -2 0.21930073E-02 0.36004640E+02</pdfrwt>
<totfact> 0.62914811E+03</totfact>
</mgrwt>
</event>
<event>
 7    1  0.6493044E-004  0.7593264E+02  0.7546771E-02  0.1460232E+00
          1   -1    0    0  502    0 -0.00000000000E+00  0.00000000000E+00  0.12976206796E+03  0.12976206796E+03  0.00000000000E+00 0. -1.
          2   -1    0    0  503    0  0.00000000000E+00 -0.00000000000E+00 -0.10412429270E+04  0.10412429270E+04  0.00000000000E+00 0. -1.
         25    2    1    2    0    0 -0.27220131415E+02 -0.43536960900E+02 -0.74339310896E+02  0.15423845831E+03  0.12500706524E+03 0.  0.
          4    1    3    3  501    0  0.29785983825E+02  0.29779730619E+02 -0.26276232649E+02  0.49659747184E+02  0.12700000000E+01 0. -1.
         -4    1    3    3    0  501 -0.57006115240E+02 -0.73316691520E+02 -0.48063078246E+02  0.10457871113E+03  0.12700000000E+01 0. -1.
          2    1    1    2  502    0  0.26200608709E+01 -0.29399308264E+02  0.85741233385E+02  0.90679342453E+02  0.00000000000E+00 0. -1.
          1    1    1    2  503    0  0.24600070544E+02  0.72936269164E+02 -0.92288278154E+03  0.92608719421E+03  0.00000000000E+00 0. -1.
<mgrwt>
<rscale>  0 0.47341468E+02</rscale>
<asrwt>0</asrwt>
<pdfrwt beam="2">  1        2 0.16019121E+00 0.75932636E+02</pdfrwt>
<pdfrwt beam="1">  1        1 0.19963396E-01 0.29515827E+02</pdfrwt>
<totfact> 0.84903529E+02</totfact>
</mgrwt>
</event>
<event>
 7    1  0.6493044E-004  0.1400305E+03  0.7546771E-02  0.1315602E+00
          2   -1    0    0  503    0  0.00000000000E+00  0.00000000000E+00  0.93428482679E+03  0.93428482679E+03  0.00000000000E+00 0. -1.
          1   -1    0    0  502    0 -0.00000000000E+00 -0.00000000000E+00 -0.32488249024E+03  0.32488249024E+03  0.00000000000E+00 0. -1.
         25    2    1    2    0    0  0.48599440136E+01  0.16447632759E+03  0.29650162524E+03  0.36140566670E+03  0.12499904305E+03 0.  0.
          4    1    3    3  501    0 -0.32832779217E+02  0.25435853018E+02  0.13234786751E+02  0.43609018450E+02  0.12700000000E+01 0.  1.
         -4    1    3    3    0  501  0.37692723231E+02  0.13904047457E+03  0.28326683849E+03  0.31779664825E+03  0.12700000000E+01 0.  1.
          2    1    1    2  502    0  0.37180646605E+02 -0.35659701715E+02 -0.28248850907E+03  0.28714764941E+03  0.00000000000E+00 0. -1.
          1    1    1    2  503    0 -0.42040590619E+02 -0.12881662587E+03  0.59538922038E+03  0.61061400091E+03  0.00000000000E+00 0. -1.
<mgrwt>
<rscale>  0 0.84935099E+02</rscale>
<asrwt>0</asrwt>
<pdfrwt beam="1">  1        2 0.14373613E+00 0.14003053E+03</pdfrwt>
<pdfrwt beam="2">  1        1 0.49981922E-01 0.51517131E+02</pdfrwt>
<totfact> 0.32374187E+02</totfact>
</mgrwt>
</event>
<event>
 7    1  0.6493044E-004  0.1183728E+03  0.7546771E-02  0.1376008E+00
          2   -1    0    0  503    0  0.00000000000E+00  0.00000000000E+00  0.28984022506E+04  0.28984022506E+04  0.00000000000E+00 0. -1.
         -2   -1    0    0    0  501 -0.00000000000E+00 -0.00000000000E+00 -0.32610423099E+03  0.32610423099E+03  0.00000000000E+00 0.  1.
         25    2    1    2    0    0 -0.12825044063E+03 -0.79474764076E+02 -0.37356357098E+02  0.19946025711E+03  0.12499793240E+03 0.  0.
          4    1    3    3  502    0 -0.24357806404E+02 -0.66820532992E+02 -0.59190852237E+02  0.92538944509E+02  0.12700000000E+01 0. -1.
         -4    1    3    3    0  502 -0.10389263422E+03 -0.12654231084E+02  0.21834495139E+02  0.10692131260E+03  0.12700000000E+01 0. -1.
          1    1    1    2  503    0  0.10683809988E+03  0.50198659355E+02  0.28145201019E+04  0.28169944425E+04  0.00000000000E+00 0. -1.
         -1    1    1    2    0  501  0.21412340743E+02  0.29276104721E+02 -0.20486572518E+03  0.20805178201E+03  0.00000000000E+00 0.  1.
<mgrwt>
<rscale>  0 0.65524729E+02</rscale>
<asrwt>0</asrwt>
<pdfrwt beam="1">  1        2 0.44590802E+00 0.11837284E+03</pdfrwt>
<pdfrwt beam="2">  1       -2 0.50169884E-01 0.36270906E+02</pdfrwt>
<totfact> 0.10412805E+01</totfact>
</mgrwt>
</event>
<event>
 7    1  0.6493044E-004  0.7258118E+02  0.7546771E-02  0.1385675E+00
          1   -1    0    0  502    0 -0.00000000000E+00  0.00000000000E+00  0.74334141907E+02  0.74334141907E+02  0.00000000000E+00 0. -1.
          2   -1    0    0  503    0  0.00000000000E+00 -0.00000000000E+00 -0.16929789112E+04  0.16929789112E+04  0.00000000000E+00 0. -1.
         25    2    1    2    0    0 -0.32074664874E+02 -0.46821087322E+02 -0.13843342074E+03  0.19496245749E+03  0.12500219802E+03 0.  0.
          4    1    3    3  501    0 -0.40065432714E+02 -0.21500648483E+02 -0.15639854168E+03  0.16287919918E+03  0.12700000000E+01 0.  1.
         -4    1    3    3    0  501  0.79907678404E+01 -0.25320438839E+02  0.17965120943E+02  0.32083258316E+02  0.12700000000E+01 0.  1.
          2    1    1    2  502    0 -0.40834334441E+02  0.36358863267E+02  0.28626390907E+02  0.61716124827E+02  0.00000000000E+00 0. -1.
          1    1    1    2  503    0  0.72908999315E+02  0.10462224055E+02 -0.15088377394E+04  0.15106344708E+04  0.00000000000E+00 0. -1.
<mgrwt>
<rscale>  0 0.62995334E+02</rscale>
<asrwt>0</asrwt>
<pdfrwt beam="2">  1        2 0.26045829E+00 0.72581182E+02</pdfrwt>
<pdfrwt beam="1">  1        1 0.11436022E-01 0.54675495E+02</pdfrwt>
<totfact> 0.80690086E+02</totfact>
</mgrwt>
</event>
<event>
 7    1  0.6493044E-004  0.1580279E+03  0.7546771E-02  0.1295263E+00
          3   -1    0    0  502    0 -0.00000000000E+00  0.00000000000E+00  0.57415066332E+03  0.57415066332E+03  0.00000000000E+00 0. -1.
          2   -1    0    0  503    0  0.00000000000E+00 -0.00000000000E+00 -0.64408298874E+03  0.64408298874E+03  0.00000000000E+00 0. -1.
         25    2    1    2    0    0 -0.12084665462E+03  0.90142535058E+01  0.55175636261E+01  0.17418619896E+03  0.12500087079E+03 0.  0.
          4    1    3    3  501    0 -0.78156572926E+02 -0.47795566016E+02  0.33849149194E+02  0.97674171732E+02  0.12700000000E+01 0. -1.
         -4    1    3    3    0  501 -0.42690081698E+02  0.56809819522E+02 -0.28331585568E+02  0.76512027226E+02  0.12700000000E+01 0. -1.
          2    1    1    2  502    0 -0.40005981910E+02 -0.37708554888E+02  0.47074128364E+03  0.47394068175E+03  0.00000000000E+00 0. -1.
          1    1    1    2  503    0  0.16085263653E+03  0.28694301382E+02 -0.54619117268E+03  0.57010677134E+03  0.00000000000E+00 0. -1.
<mgrwt>
<rscale>  0 0.93208475E+02</rscale>
<asrwt>0</asrwt>
<pdfrwt beam="2">  1        2 0.99089690E-01 0.15802793E+03</pdfrwt>
<pdfrwt beam="1">  1        3 0.88330871E-01 0.54976483E+02</pdfrwt>
<totfact> 0.33815762E+01</totfact>
</mgrwt>
</event>
<event>
 7    1  0.6493044E-004  0.6496132E+02  0.7546771E-02  0.1415965E+00
         -1   -1    0    0    0  501 -0.00000000000E+00  0.00000000000E+00  0.39899887663E+03  0.39899887663E+03  0.00000000000E+00 0.  1.
          1   -1    0    0  503    0  0.00000000000E+00 -0.00000000000E+00 -0.61388710772E+03  0.61388710772E+03  0.00000000000E+00 0. -1.
         25    2    1    2    0    0  0.49628966167E+01  0.62835481376E+02 -0.77366436698E+02  0.15994651826E+03  0.12499758043E+03 0.  0.
          4    1    3    3  502    0  0.24850301393E+02 -0.23123982941E+02 -0.61549648075E+02  0.70300982529E+02  0.12700000000E+01 0. -1.
         -4    1    3    3    0  502 -0.19887404776E+02  0.85959464316E+02 -0.15816788623E+02  0.89645535732E+02  0.12700000000E+01 0. -1.
          2    1    1    2  503    0 -0.46488044248E+02 -0.12249473563E+02 -0.49105337897E+03  0.49340106289E+03  0.00000000000E+00 0. -1.
         -2    1    1    2    0  501  0.41525147631E+02 -0.50586007812E+02  0.35353158459E+03  0.35953840320E+03  0.00000000000E+00 0.  1.
<mgrwt>
<rscale>  0 0.55883838E+02</rscale>
<asrwt>0</asrwt>
<pdfrwt beam="2">  1        1 0.94444169E-01 0.48074815E+02</pdfrwt>
<pdfrwt beam="1">  1       -1 0.61384443E-01 0.64961318E+02</pdfrwt>
<totfact> 0.10422813E+02</totfact>
</mgrwt>
</event>
<event>
 7    1  0.6493044E-004  0.5423770E+02  0.7546771E-02  0.1559636E+00
          1   -1    0    0  502    0 -0.00000000000E+00  0.00000000000E+00  0.27638203630E+04  0.27638203630E+04  0.00000000000E+00 0. -1.
          2   -1    0    0  503    0  0.00000000000E+00 -0.00000000000E+00 -0.51098512601E+02  0.51098512601E+02  0.00000000000E+00 0. -1.
         25    2    1    2    0    0  0.33207095925E+02  0.47052072337E+01  0.14457136634E+03  0.19403722081E+03  0.12499885159E+03 0.  0.
          4    1    3    3  501    0  0.45784474146E+02 -0.51611293776E+02  0.98090397828E+02  0.11993032462E+03  0.12700000000E+01 0. -1.
         -4    1    3    3    0  501 -0.12577378221E+02  0.56316501010E+02  0.46480968516E+02  0.74106896192E+02  0.12700000000E+01 0. -1.
          2    1    1    2  502    0 -0.54254363544E+02 -0.49300993835E+01  0.25899825747E+04  0.25905554576E+04  0.00000000000E+00 0. -1.
          1    1    1    2  503    0  0.21047267620E+02  0.22489214985E+00 -0.21832090654E+02  0.30326197141E+02  0.00000000000E+00 0. -1.
<mgrwt>
<rscale>  0 0.33787874E+02</rscale>
<asrwt>0</asrwt>
<pdfrwt beam="2">  1        2 0.78613118E-02 0.21048469E+02</pdfrwt>
<pdfrwt beam="1">  1        1 0.42520301E+00 0.54237696E+02</pdfrwt>
<totfact> 0.13076356E+02</totfact>
</mgrwt>
</event>
<event>
 7    1  0.6493044E-004  0.1811487E+03  0.7546771E-02  0.1184611E+00
          1   -1    0    0  502    0 -0.00000000000E+00  0.00000000000E+00  0.99749957766E+03  0.99749957766E+03  0.00000000000E+00 0. -1.
          2   -1    0    0  503    0  0.00000000000E+00 -0.00000000000E+00 -0.11386329292E+04  0.11386329292E+04  0.00000000000E+00 0. -1.
         25    2    1    2    0    0 -0.83787407167E+02  0.41754885341E+02  0.99838740432E+02  0.18535615443E+03  0.12500131937E+03 0.  0.
          4    1    3    3  501    0 -0.68955850627E+02  0.68598750769E+02  0.11541093546E+03  0.15093705597E+03  0.12700000000E+01 0. -1.
         -4    1    3    3    0  501 -0.14831556539E+02 -0.26843865428E+02 -0.15572195025E+02  0.34419098454E+02  0.12700000000E+01 0. -1.
          2    1    1    2  502    0  0.42390355561E+02  0.14167706474E+03  0.84033091579E+03  0.85324403365E+03  0.00000000000E+00 0. -1.
          1    1    1    2  503    0  0.41397051606E+02 -0.18343195008E+03 -0.10813030078E+04  0.10975323188E+04  0.00000000000E+00 0. -1.
<mgrwt>
<rscale>  0 0.16367280E+03</rscale>
<asrwt>0</asrwt>
<pdfrwt beam="2">  1        2 0.17517430E+00 0.18114871E+03</pdfrwt>
<pdfrwt beam="1">  1        1 0.15346147E+00 0.14788284E+03</pdfrwt>
<totfact> 0.50936036E+01</totfact>
</mgrwt>
</event>
<event>
 7    1  0.6493044E-004  0.7027247E+02  0.7546771E-02  0.1427719E+00
         -1   -1    0    0    0  501 -0.00000000000E+00  0.00000000000E+00  0.16738790902E+03  0.16738790902E+03  0.00000000000E+00 0.  1.
          1   -1    0    0  503    0  0.00000000000E+00 -0.00000000000E+00 -0.20491737998E+03  0.20491737998E+03  0.00000000000E+00 0. -1.
         25    2    1    2    0    0  0.40150208178E+02 -0.14641031284E+02  0.78616468665E+01  0.13234898194E+03  0.12501219346E+03 0.  0.
          4    1    3    3  502    0  0.69618118151E+02  0.65660690226E+01  0.42759812477E+02  0.81974447850E+02  0.12700000000E+01 0. -1.
         -4    1    3    3    0  502 -0.29467909973E+02 -0.21207100307E+02 -0.34898165611E+02  0.50374534088E+02  0.12700000000E+01 0. -1.
          2    1    1    2  503    0  0.37874456576E+02  0.14652280531E+02 -0.12322702995E+03  0.12974615484E+03  0.00000000000E+00 0. -1.
         -2    1    1    2    0  501 -0.78024664754E+02 -0.11249247107E-01  0.77835912123E+02  0.11021015222E+03  0.00000000000E+00 0.  1.
<mgrwt>
<rscale>  0 0.53420575E+02</rscale>
<asrwt>0</asrwt>
<pdfrwt beam="2">  1        1 0.31525751E-01 0.40609898E+02</pdfrwt>
<pdfrwt beam="1">  1       -1 0.25751986E-01 0.70272471E+02</pdfrwt>
<totfact> 0.17716131E+03</totfact>
</mgrwt>
</event>
<event>
 7    1  0.6493044E-004  0.3144917E+02  0.7546771E-02  0.1637088E+00
          2   -1    0    0  503    0  0.00000000000E+00  0.00000000000E+00  0.19983981806E+04  0.19983981806E+04  0.00000000000E+00 0. -1.
          3   -1    0    0  502    0 -0.00000000000E+00 -0.00000000000E+00 -0.36870712201E+02  0.36870712201E+02  0.00000000000E+00 0. -1.
         25    2    1    2    0    0  0.15126905978E+02 -0.27863693918E+02  0.29737575349E+03  0.32413153750E+03  0.12499482436E+03 0.  0.
          4    1    3    3  501    0  0.67808095677E+02 -0.81483535452E+01  0.12039851387E+03  0.13842596775E+03  0.12700000000E+01 0.  1.
         -4    1    3    3    0  501 -0.52681189700E+02 -0.19715340373E+02  0.17697723962E+03  0.18570556976E+03  0.12700000000E+01 0.  1.
          2    1    1    2  502    0  0.14630456214E+02  0.17422081322E+02 -0.17802292537E+02  0.28887727259E+02  0.00000000000E+00 0. -1.
          1    1    1    2  503    0 -0.29757362191E+02  0.10441612596E+02  0.16819540075E+04  0.16822496281E+04  0.00000000000E+00 0. -1.
<mgrwt>
<rscale>  0 0.26748460E+02</rscale>
<asrwt>0</asrwt>
<pdfrwt beam="1">  1        2 0.30744579E+00 0.31449169E+02</pdfrwt>
<pdfrwt beam="2">  1        3 0.56724188E-02 0.22750366E+02</pdfrwt>
<totfact> 0.76110792E+02</totfact>
</mgrwt>
</event>
<event>
 7    1  0.6493044E-004  0.2012259E+03  0.7546771E-02  0.1281291E+00
         -1   -1    0    0    0  502 -0.00000000000E+00  0.00000000000E+00  0.84813633807E+03  0.84813633807E+03  0.00000000000E+00 0.  1.
         -2   -1    0    0    0  501  0.00000000000E+00 -0.00000000000E+00 -0.38689426727E+03  0.38689426727E+03  0.00000000000E+00 0.  1.
         25    2    1    2    0    0  0.15811958134E+03 -0.35873059052E+02  0.41555123911E+02  0.20890616842E+03  0.12500512194E+03 0.  0.
          4    1    3    3  503    0  0.59735720245E+02 -0.41822192506E+02 -0.37998024446E+02  0.82236943164E+02  0.12700000000E+01 0. -1.
         -4    1    3    3    0  503  0.98383861092E+02  0.59491334533E+01  0.79553148357E+02  0.12666922525E+03  0.12700000000E+01 0. -1.
         -2    1    1    2    0  502 -0.19810674540E+03  0.64585513215E+02  0.70574448696E+03  0.73586197889E+03  0.00000000000E+00 0.  1.
         -1    1    1    2    0  501  0.39987164067E+02 -0.28712454163E+02 -0.28605754007E+03  0.29026245804E+03  0.00000000000E+00 0.  1.
<mgrwt>
<rscale>  0 0.99528456E+02</rscale>
<asrwt>0</asrwt>
<pdfrwt beam="2">  1       -2 0.59522195E-01 0.49227821E+02</pdfrwt>
<pdfrwt beam="1">  1       -1 0.13048251E+00 0.20122592E+03</pdfrwt>
<totfact> 0.11195453E+01</totfact>
</mgrwt>
</event>
<event>
 7    1  0.6493044E-004  0.6859829E+02  0.7546771E-02  0.1527246E+00
         -2   -1    0    0    0  501 -0.00000000000E+00  0.00000000000E+00  0.14343896156E+03  0.14343896156E+03  0.00000000000E+00 0.  1.
          2   -1    0    0  503    0  0.00000000000E+00 -0.00000000000E+00 -0.28515142375E+04  0.28515142375E+04  0.00000000000E+00 0. -1.
         25    2    1    2    0    0 -0.33968916412E+02 -0.34347861986E+02 -0.17883592971E+04  0.17933732027E+04  0.12499922376E+03 0.  0.
          4    1    3    3  502    0  0.39509207457E+02 -0.44755045254E+02 -0.76776114245E+03  0.77007972075E+03  0.12700000000E+01 0. -1.
         -4    1    3    3    0  502 -0.73478123869E+02  0.10407183268E+02 -0.10205981546E+04  0.10232934820E+04  0.12700000000E+01 0. -1.
          3    1    1    2  503    0 -0.16343794892E+02 -0.12421928085E+02 -0.10521712427E+04  0.10523714876E+04  0.00000000000E+00 0. -1.
         -1    1    1    2    0  501  0.50312711304E+02  0.46769790071E+02  0.13245526380E+03  0.14920850878E+03  0.00000000000E+00 0.  1.
<mgrwt>
<rscale>  0 0.37526360E+02</rscale>
<asrwt>0</asrwt>
<pdfrwt beam="2">  1        2 0.43869453E+00 0.20528612E+02</pdfrwt>
<pdfrwt beam="1">  1       -2 0.22067531E-01 0.68598288E+02</pdfrwt>
<totfact> 0.66107824E+01</totfact>
</mgrwt>
</event>
<event>
 7    1  0.6493044E-004  0.5661816E+02  0.7546771E-02  0.1535099E+00
          1   -1    0    0  503    0  0.00000000000E+00  0.00000000000E+00  0.56312911509E+03  0.56312911509E+03  0.00000000000E+00 0. -1.
         -1   -1    0    0    0  501 -0.00000000000E+00 -0.00000000000E+00 -0.60588883282E+03  0.60588883282E+03  0.00000000000E+00 0.  1.
         25    2    1    2    0    0 -0.25700472211E+01  0.35770568113E+02  0.18394878125E+03  0.22526805122E+03  0.12498960792E+03 0.  0.
          4    1    3    3  502    0 -0.45033284499E+02  0.88076430776E+01  0.13946563933E+02  0.47975940167E+02  0.12700000000E+01 0. -1.
         -4    1    3    3    0  502  0.42463237278E+02  0.26962925035E+02  0.17000221732E+03  0.17729211105E+03  0.12700000000E+01 0. -1.
          2    1    1    2  503    0  0.97423167086E+01 -0.58273851294E+02  0.35584564034E+03  0.36071716653E+03  0.00000000000E+00 0. -1.
         -2    1    1    2    0  501 -0.71722694875E+01  0.22503283182E+02 -0.58255413933E+03  0.58303273017E+03  0.00000000000E+00 0.  1.
<mgrwt>
<rscale>  0 0.36568331E+02</rscale>
<asrwt>0</asrwt>
<pdfrwt beam="1">  1        1 0.86635248E-01 0.56618161E+02</pdfrwt>
<pdfrwt beam="2">  1       -1 0.93213667E-01 0.23618620E+02</pdfrwt>
<totfact> 0.52625761E+01</totfact>
</mgrwt>
</event>
<event>
 7    1  0.6493044E-004  0.1115063E+03  0.7546771E-02  0.1329546E+00
          2   -1    0    0  503    0  0.00000000000E+00  0.00000000000E+00  0.53057140056E+03  0.53057140056E+03  0.00000000000E+00 0. -1.
          1   -1    0    0  502    0 -0.00000000000E+00 -0.00000000000E+00 -0.46703913935E+03  0.46703913935E+03  0.00000000000E+00 0. -1.
         25    2    1    2    0    0 -0.66282181482E+02 -0.98687489358E+01  0.50746462312E+02  0.15065167181E+03  0.12502001038E+03 0.  0.
          4    1    3    3  501    0 -0.33381219420E+02 -0.34876999035E+02 -0.32149633917E+02  0.58016572914E+02  0.12700000000E+01 0.  1.
         -4    1    3    3    0  501 -0.32900962062E+02  0.25008250099E+02  0.82896096229E+02  0.92635098897E+02  0.12700000000E+01 0.  1.
          2    1    1    2  502    0 -0.43190518113E+02 -0.37420825986E+02 -0.40678043969E+03  0.41077495686E+03  0.00000000000E+00 0. -1.
          1    1    1    2  503    0  0.10947269960E+03  0.47289574921E+02  0.41956623860E+03  0.43618391124E+03  0.00000000000E+00 0. -1.
<mgrwt>
<rscale>  0 0.79826131E+02</rscale>
<asrwt>0</asrwt>
<pdfrwt beam="1">  1        2 0.81626369E-01 0.11150630E+03</pdfrwt>
<pdfrwt beam="2">  1        1 0.71852176E-01 0.57146645E+02</pdfrwt>
<totfact> 0.41180425E+02</totfact>
</mgrwt>
</event>
<event>
 7    1  0.6493044E-004  0.7507774E+02  0.7546771E-02  0.1440525E+00
          2   -1    0    0  503    0  0.00000000000E+00  0.00000000000E+00  0.36492464787E+02  0.36492464787E+02  0.00000000000E+00 0. -1.
          1   -1    0    0  502    0 -0.00000000000E+00 -0.00000000000E+00 -0.13319062476E+04  0.13319062476E+04  0.00000000000E+00 0. -1.
         25    2    1    2    0    0  0.25139627513E+02 -0.52755706965E+02 -0.18753128903E+03  0.23282715973E+03  0.12500134581E+03 0.  0.
          4    1    3    3  501    0  0.67014874142E+02 -0.59225443268E+02 -0.15662632640E+03  0.18036647557E+03  0.12700000000E+01 0.  1.
         -4    1    3    3    0  501 -0.41875246629E+02  0.64697363022E+01 -0.30904962628E+02  0.52460684166E+02  0.12700000000E+01 0.  1.
          2    1    1    2  502    0 -0.99198409321E+01 -0.33057578648E+02 -0.98119211741E+03  0.98179894990E+03  0.00000000000E+00 0. -1.
          1    1    1    2  503    0 -0.15219786581E+02  0.85813285613E+02 -0.12669037634E+03  0.15377260272E+03  0.00000000000E+00 0. -1.
<mgrwt>
<rscale>  0 0.50904054E+02</rscale>
<asrwt>0</asrwt>
<pdfrwt beam="1">  1        2 0.56142259E-02 0.75077735E+02</pdfrwt>
<pdfrwt beam="2">  1        1 0.20490863E+00 0.34513863E+02</pdfrwt>
<totfact> 0.18329070E+03</totfact>
</mgrwt>
</event>
<event>
 7    1  0.6493044E-004  0.3557684E+02  0.7546771E-02  0.1637531E+00
          2   -1    0    0  503    0  0.00000000000E+00  0.00000000000E+00  0.91083035293E+03  0.91083035293E+03  0.00000000000E+00 0. -1.
         -2   -1    0    0    0  501 -0.00000000000E+00 -0.00000000000E+00 -0.31122865189E+03  0.31122865189E+03  0.00000000000E+00 0.  1.
         25    2    1    2    0    0  0.37790217157E+02 -0.14598028808E+02  0.14820422224E+02  0.13223232133E+03  0.12499815571E+03 0.  0.
          4    1    3    3  502    0  0.59270025782E+02 -0.46807364617E+02  0.40549351833E+02  0.85730555654E+02  0.12700000000E+01 0.  1.
         -4    1    3    3    0  502 -0.21479808625E+02  0.32209335810E+02 -0.25728929609E+02  0.46501765673E+02  0.12700000000E+01 0.  1.
          1    1    1    2  503    0 -0.35183336822E+02 -0.52916144934E+01  0.83652687010E+03  0.83728314970E+03  0.00000000000E+00 0. -1.
         -1    1    1    2    0  501 -0.26068803351E+01  0.19889643301E+02 -0.25174559128E+03  0.25254353380E+03  0.00000000000E+00 0.  1.
<mgrwt>
<rscale>  0 0.26714466E+02</rscale>
<asrwt>0</asrwt>
<pdfrwt beam="1">  1        2 0.14012775E+00 0.35576842E+02</pdfrwt>
<pdfrwt beam="2">  1       -2 0.47881331E-01 0.20059754E+02</pdfrwt>
<totfact> 0.13632990E+02</totfact>
</mgrwt>
</event>
<event>
 7    1  0.6493044E-004  0.6721148E+02  0.7546771E-02  0.1412500E+00
         -2   -1    0    0    0  501 -0.00000000000E+00  0.00000000000E+00  0.20827950168E+02  0.20827950168E+02  0.00000000000E+00 0.  1.
          2   -1    0    0  503    0  0.00000000000E+00 -0.00000000000E+00 -0.95955157181E+03  0.95955157181E+03  0.00000000000E+00 0. -1.
         25    2    1    2    0    0 -0.24981522220E+02  0.85570773533E+02 -0.56382988600E+03  0.58435943465E+03  0.12500149911E+03 0.  0.
          4    1    3    3  502    0 -0.37499992156E+02  0.80475243432E+02 -0.18417205163E+03  0.20445897319E+03  0.12700000000E+01 0.  1.
         -4    1    3    3    0  502  0.12518469936E+02  0.50955301016E+01 -0.37965783437E+03  0.37990046146E+03  0.12700000000E+01 0.  1.
          1    1    1    2  503    0  0.41748252960E+02 -0.23136714675E+02 -0.25858220880E+03  0.26295053318E+03  0.00000000000E+00 0. -1.
         -1    1    1    2    0  501 -0.16766730740E+02 -0.62434058858E+02 -0.11631152684E+03  0.13306955415E+03  0.00000000000E+00 0.  1.
<mgrwt>
<rscale>  0 0.56639689E+02</rscale>
<asrwt>0</asrwt>
<pdfrwt beam="2">  1        2 0.14762327E+00 0.47730747E+02</pdfrwt>
<pdfrwt beam="1">  1       -2 0.32043011E-02 0.67211485E+02</pdfrwt>
<totfact> 0.99899181E+03</totfact>
</mgrwt>
</event>
<event>
 7    1  0.6493044E-004  0.2395237E+03  0.7546771E-02  0.1185567E+00
          1   -1    0    0  502    0 -0.00000000000E+00  0.00000000000E+00  0.94531820549E+03  0.94531820549E+03  0.00000000000E+00 0. -1.
          2   -1    0    0  503    0  0.00000000000E+00 -0.00000000000E+00 -0.19255496811E+04  0.19255496811E+04  0.00000000000E+00 0. -1.
         25    2    1    2    0    0 -0.17822111886E+03 -0.44845999865E+02 -0.18811396022E+03  0.29117670345E+03  0.12499231852E+03 0.  0.
          4    1    3    3  501    0 -0.36481861623E+02  0.39769862396E+02 -0.26425730163E+02  0.60104078872E+02  0.12700000000E+01 0.  1.
         -4    1    3    3    0  501 -0.14173925724E+03 -0.84615862261E+02 -0.16168823006E+03  0.23107262458E+03  0.12700000000E+01 0.  1.
          2    1    1    2  502    0  0.18924326236E+03  0.15495301037E+03  0.87518524715E+03  0.90872034456E+03  0.00000000000E+00 0. -1.
          1    1    1    2  503    0 -0.11022143501E+02 -0.11010701051E+03 -0.16673027625E+04  0.16709708386E+04  0.00000000000E+00 0. -1.
<mgrwt>
<rscale>  0 0.16280373E+03</rscale>
<asrwt>0</asrwt>
<pdfrwt beam="2">  1        2 0.29623841E+00 0.11065732E+03</pdfrwt>
<pdfrwt beam="1">  1        1 0.14543357E+00 0.23952374E+03</pdfrwt>
<totfact> 0.21728219E+01</totfact>
</mgrwt>
</event>
<event>
 7    1  0.6493044E-004  0.8326208E+02  0.7546771E-02  0.1392967E+00
         -1   -1    0    0    0  501 -0.00000000000E+00  0.00000000000E+00  0.44922618717E+03  0.44922618717E+03  0.00000000000E+00 0.  1.
          1   -1    0    0  503    0  0.00000000000E+00 -0.00000000000E+00 -0.11750964341E+04  0.11750964341E+04  0.00000000000E+00 0. -1.
         25    2    1    2    0    0 -0.45904362298E+02 -0.11343064733E+03  0.15464733321E+03  0.23348671716E+03  0.12500610862E+03 0.  0.
          4    1    3    3  502    0 -0.65478370406E+02 -0.58459505446E+02  0.15142533494E+03  0.17503192774E+03  0.12700000000E+01 0.  1.
         -4    1    3    3    0  502  0.19574008108E+02 -0.54971141881E+02  0.32219982657E+01  0.58454789418E+02  0.12700000000E+01 0.  1.
          2    1    1    2  503    0  0.17361433961E+02  0.41458273969E+02 -0.11293458916E+04  0.11302399527E+04  0.00000000000E+00 0. -1.
         -2    1    1    2    0  501  0.28542928337E+02  0.71972373357E+02  0.24882831147E+03  0.26059595137E+03  0.00000000000E+00 0.  1.
<mgrwt>
<rscale>  0 0.61174814E+02</rscale>
<asrwt>0</asrwt>
<pdfrwt beam="2">  1        1 0.18078407E+00 0.44946723E+02</pdfrwt>
<pdfrwt beam="1">  1       -1 0.69111721E-01 0.83262085E+02</pdfrwt>
<totfact> 0.31397457E+01</totfact>
</mgrwt>
</event>
<event>
 7    1  0.6493044E-004  0.1032513E+03  0.7546771E-02  0.1354344E+00
         -2   -1    0    0    0  501 -0.00000000000E+00  0.00000000000E+00  0.18443906470E+03  0.18443906470E+03  0.00000000000E+00 0.  1.
          2   -1    0    0  503    0  0.00000000000E+00 -0.00000000000E+00 -0.14046379342E+04  0.14046379342E+04  0.00000000000E+00 0. -1.
         25    2    1    2    0    0  0.72766487636E+02  0.12555197928E+03 -0.45372436118E+02  0.19682803383E+03  0.12499742284E+03 0.  0.
          4    1    3    3  502    0  0.21763418450E+02  0.13740875579E+03 -0.34265132873E+02  0.14328476814E+03  0.12700000000E+01 0.  1.
         -4    1    3    3    0  502  0.51003069186E+02 -0.11856776503E+02 -0.11107303245E+02  0.53543265691E+02  0.12700000000E+01 0.  1.
          1    1    1    2  503    0 -0.30394580286E+02 -0.39468972694E+02 -0.12617800679E+04  0.12627630697E+04  0.00000000000E+00 0. -1.
         -1    1    1    2    0  501 -0.42371907350E+02 -0.86083006588E+02  0.86953634519E+02  0.12948589542E+03  0.00000000000E+00 0.  1.
<mgrwt>
<rscale>  0 0.71718644E+02</rscale>
<asrwt>0</asrwt>
<pdfrwt beam="2">  1        2 0.21609814E+00 0.49815964E+02</pdfrwt>
<pdfrwt beam="1">  1       -2 0.28375241E-01 0.10325132E+03</pdfrwt>
<totfact> 0.19581166E+02</totfact>
</mgrwt>
</event>
<event>
 7    1  0.6493044E-004  0.7336076E+02  0.7546771E-02  0.1354717E+00
          1   -1    0    0  502    0 -0.00000000000E+00  0.00000000000E+00  0.89147191737E+03  0.89147191737E+03  0.00000000000E+00 0. -1.
          2   -1    0    0  503    0  0.00000000000E+00 -0.00000000000E+00 -0.10084272432E+04  0.10084272432E+04  0.00000000000E+00 0. -1.
         25    2    1    2    0    0  0.29355358524E+02  0.61436167970E+01 -0.73312767636E+02  0.14793446389E+03  0.12494143671E+03 0.  0.
          4    1    3    3  501    0  0.61412740605E+02 -0.28055236637E+02 -0.86829260638E+01  0.68085439827E+02  0.12700000000E+01 0.  1.
         -4    1    3    3    0  501 -0.32057382082E+02  0.34198853434E+02 -0.64629841572E+02  0.79849024063E+02  0.12700000000E+01 0.  1.
          2    1    1    2  502    0 -0.10715630652E+02 -0.73504520420E+02  0.85118083011E+03  0.85441590856E+03  0.00000000000E+00 0. -1.
          1    1    1    2  503    0 -0.18639727872E+02  0.67360903623E+02 -0.89482338827E+03  0.89754878808E+03  0.00000000000E+00 0. -1.
<mgrwt>
<rscale>  0 0.71605520E+02</rscale>
<asrwt>0</asrwt>
<pdfrwt beam="2">  1        2 0.15514265E+00 0.69892280E+02</pdfrwt>
<pdfrwt beam="1">  1        1 0.13714953E+00 0.73360757E+02</pdfrwt>
<totfact> 0.79681136E+01</totfact>
</mgrwt>
</event>
<event>
 7    1  0.6493044E-004  0.7279106E+02  0.7546771E-02  0.1374546E+00
          2   -1    0    0  503    0  0.00000000000E+00  0.00000000000E+00  0.69689944627E+03  0.69689944627E+03  0.00000000000E+00 0. -1.
          1   -1    0    0  502    0 -0.00000000000E+00 -0.00000000000E+00 -0.70908016019E+02  0.70908016019E+02  0.00000000000E+00 0. -1.
         25    2    1    2    0    0  0.48733960042E+02 -0.30916886683E+02  0.83985382037E+02  0.16127950201E+03  0.12500672234E+03 0.  0.
          4    1    3    3  501    0  0.57992747386E+01  0.35817696883E+02 -0.10587723694E+02  0.37818669867E+02  0.12700000000E+01 0. -1.
         -4    1    3    3    0  501  0.42934685303E+02 -0.66734583566E+02  0.94573105731E+02  0.12346083214E+03  0.12700000000E+01 0. -1.
          2    1    1    2  502    0  0.22391799296E+02  0.55337998225E+02  0.37150022252E+00  0.59697778314E+02  0.00000000000E+00 0. -1.
          1    1    1    2  503    0 -0.71125759338E+02 -0.24421111542E+02  0.54163454799E+03  0.54683018196E+03  0.00000000000E+00 0. -1.
<mgrwt>
<rscale>  0 0.65919501E+02</rscale>
<asrwt>0</asrwt>
<pdfrwt beam="1">  1        2 0.10721529E+00 0.72791063E+02</pdfrwt>
<pdfrwt beam="2">  1        1 0.10908926E-01 0.59696622E+02</pdfrwt>
<totfact> 0.31086460E+03</totfact>
</mgrwt>
</event>
<event>
 7    1  0.6493044E-004  0.7220157E+02  0.7546771E-02  0.1391185E+00
         -2   -1    0    0    0  501 -0.00000000000E+00  0.00000000000E+00  0.76124062767E+02  0.76124062767E+02  0.00000000000E+00 0.  1.
          2   -1    0    0  503    0  0.00000000000E+00 -0.00000000000E+00 -0.34978261466E+03  0.34978261466E+03  0.00000000000E+00 0. -1.
         25    2    1    2    0    0 -0.56148851365E+01  0.28965505790E+02 -0.84209936055E+02  0.15358183957E+03  0.12500216260E+03 0.  0.
          4    1    3    3  502    0  0.14583314145E+02  0.60327481818E+02 -0.66880480398E+00  0.62081706757E+02  0.12700000000E+01 0. -1.
         -4    1    3    3    0  502 -0.20198199282E+02 -0.31361976028E+02 -0.83541131251E+02  0.91500132815E+02  0.12700000000E+01 0. -1.
          1    1    1    2  503    0  0.17936754931E+02 -0.80078533319E+02 -0.20220454266E+03  0.21822230809E+03  0.00000000000E+00 0. -1.
         -1    1    1    2    0  501 -0.12321869795E+02  0.51113027529E+02  0.12755926817E+02  0.54102529769E+02  0.00000000000E+00 0.  1.
<mgrwt>
<rscale>  0 0.61613002E+02</rscale>
<asrwt>0</asrwt>
<pdfrwt beam="2">  1        2 0.53812710E-01 0.72201570E+02</pdfrwt>
<pdfrwt beam="1">  1       -2 0.11711394E-01 0.52577277E+02</pdfrwt>
<totfact> 0.43063947E+03</totfact>
</mgrwt>
</event>
<event>
 7    1  0.6493044E-004  0.5067844E+02  0.7546771E-02  0.1526029E+00
         -1   -1    0    0    0  501 -0.00000000000E+00  0.00000000000E+00  0.25299198413E+03  0.25299198413E+03  0.00000000000E+00 0.  1.
          1   -1    0    0  503    0  0.00000000000E+00 -0.00000000000E+00 -0.16998167295E+03  0.16998167295E+03  0.00000000000E+00 0. -1.
         25    2    1    2    0    0  0.59366179787E+02  0.49726644118E+02  0.65161745656E+02  0.16084743627E+03  0.12501504797E+03 0.  0.
          4    1    3    3  502    0  0.54755526216E+02  0.69085207307E+01 -0.25242444520E+02  0.60701640960E+02  0.12700000000E+01 0. -1.
         -4    1    3    3    0  502  0.46106535710E+01  0.42818123387E+02  0.90404190176E+02  0.10014579531E+03  0.12700000000E+01 0. -1.
          2    1    1    2  503    0 -0.37055540095E+02 -0.32787496150E+02 -0.11561343896E+03  0.12575611406E+03  0.00000000000E+00 0. -1.
         -2    1    1    2    0  501 -0.22310639692E+02 -0.16939147968E+02  0.13346200448E+03  0.13637010676E+03  0.00000000000E+00 0.  1.
<mgrwt>
<rscale>  0 0.37677966E+02</rscale>
<asrwt>0</asrwt>
<pdfrwt beam="2">  1        1 0.26151027E-01 0.50678442E+02</pdfrwt>
<pdfrwt beam="1">  1       -1 0.38921844E-01 0.28012486E+02</pdfrwt>
<totfact> 0.11078098E+03</totfact>
</mgrwt>
</event>
<event>
 7    1  0.6493044E-004  0.1372916E+03  0.7546771E-02  0.1281093E+00
          2   -1    0    0  503    0  0.00000000000E+00  0.00000000000E+00  0.35744610985E+03  0.35744610985E+03  0.00000000000E+00 0. -1.
          1   -1    0    0  502    0 -0.00000000000E+00 -0.00000000000E+00 -0.12048268544E+04  0.12048268544E+04  0.00000000000E+00 0. -1.
         25    2    1    2    0    0  0.26993568942E+02 -0.63460178578E+02 -0.41532276119E+03  0.43917159334E+03  0.12499138132E+03 0.  0.
          4    1    3    3  501    0  0.63257468008E+01  0.39628042398E+01 -0.32251759560E+03  0.32260646501E+03  0.12700000000E+01 0.  1.
         -4    1    3    3    0  501  0.20667822141E+02 -0.67422982817E+02 -0.92805165589E+02  0.11656512834E+03  0.12700000000E+01 0.  1.
          2    1    1    2  502    0  0.68343649311E+01 -0.71963953362E+02 -0.76170073078E+03  0.76512320733E+03  0.00000000000E+00 0. -1.
          1    1    1    2  503    0 -0.33827933873E+02  0.13542413194E+03  0.32964274746E+03  0.35797816354E+03  0.00000000000E+00 0. -1.
<mgrwt>
<rscale>  0 0.99621775E+02</rscale>
<asrwt>0</asrwt>
<pdfrwt beam="1">  1        2 0.54991710E-01 0.13729156E+03</pdfrwt>
<pdfrwt beam="2">  1        1 0.18535798E+00 0.72287752E+02</pdfrwt>
<totfact> 0.15551434E+02</totfact>
</mgrwt>
</event>
<event>
 7    1  0.6493044E-004  0.1040666E+03  0.7546771E-02  0.1301971E+00
          1   -1    0    0  502    0 -0.00000000000E+00  0.00000000000E+00  0.88173836772E+03  0.88173836772E+03  0.00000000000E+00 0. -1.
          2   -1    0    0  503    0  0.00000000000E+00 -0.00000000000E+00 -0.36179735051E+03  0.36179735051E+03  0.00000000000E+00 0. -1.
         25    2    1    2    0    0 -0.89605739811E+02 -0.12672328506E+03  0.11838861730E+02  0.19963531314E+03  0.12500448000E+03 0.  0.
          4    1    3    3  501    0 -0.73109812653E+01  0.15259726620E+02 -0.26159034461E+02  0.31180405506E+02  0.12700000000E+01 0.  1.
         -4    1    3    3    0  501 -0.82294758546E+02 -0.14198301168E+03  0.37997896191E+02  0.16845490763E+03  0.12700000000E+01 0.  1.
          2    1    1    2  502    0  0.15257825021E+02  0.10163584564E+03  0.76675254406E+03  0.77360979193E+03  0.00000000000E+00 0. -1.
          1    1    1    2  503    0  0.74347914790E+02  0.25087439425E+02 -0.25865038858E+03  0.27029061316E+03  0.00000000000E+00 0. -1.
<mgrwt>
<rscale>  0 0.90364499E+02</rscale>
<asrwt>0</asrwt>
<pdfrwt beam="2">  1        2 0.55661131E-01 0.78466503E+02</pdfrwt>
<pdfrwt beam="1">  1        1 0.13565206E+00 0.10406661E+03</pdfrwt>
<totfact> 0.25405288E+02</totfact>
</mgrwt>
</event>
<event>
 7    1  0.6493044E-004  0.5733543E+02  0.7546771E-02  0.1430619E+00
          2   -1    0    0  503    0  0.00000000000E+00  0.00000000000E+00  0.11336853996E+04  0.11336853996E+04  0.00000000000E+00 0. -1.
          1   -1    0    0  502    0 -0.00000000000E+00 -0.00000000000E+00 -0.17567579566E+03  0.17567579566E+03  0.00000000000E+00 0. -1.
         25    2    1    2    0    0  0.57206720859E+01  0.85964439332E+01  0.69856047972E+03  0.70973092050E+03  0.12499844300E+03 0.  0.
          4    1    3    3  501    0  0.27559380095E+02 -0.43875426471E+02  0.51417558485E+03  0.51678111172E+03  0.12700000000E+01 0.  1.
         -4    1    3    3    0  501 -0.21838708009E+02  0.52471870404E+02  0.18438489487E+03  0.19294980878E+03  0.12700000000E+01 0.  1.
          2    1    1    2  502    0  0.13138766851E+02  0.55809715806E+02 -0.16253067932E+03  0.17234724626E+03  0.00000000000E+00 0. -1.
          1    1    1    2  503    0 -0.18859438937E+02 -0.64406159739E+02  0.42197980357E+03  0.42728302853E+03  0.00000000000E+00 0. -1.
<mgrwt>
<rscale>  0 0.52836023E+02</rscale>
<asrwt>0</asrwt>
<pdfrwt beam="1">  1        2 0.17441313E+00 0.48689707E+02</pdfrwt>
<pdfrwt beam="2">  1        1 0.27027046E-01 0.57335430E+02</pdfrwt>
<totfact> 0.55136085E+02</totfact>
</mgrwt>
</event>
<event>
 7    1  0.6493044E-004  0.1192447E+03  0.7546771E-02  0.1316340E+00
         -2   -1    0    0    0  501 -0.00000000000E+00  0.00000000000E+00  0.11069753463E+03  0.11069753463E+03  0.00000000000E+00 0.  1.
          2   -1    0    0  503    0  0.00000000000E+00 -0.00000000000E+00 -0.20338632993E+04  0.20338632993E+04  0.00000000000E+00 0. -1.
         25    2    1    2    0    0  0.16578594238E+03  0.38329386988E+02 -0.49760217622E+03  0.54054332128E+03  0.12500014320E+03 0.  0.
          4    1    3    3  502    0  0.10134064299E+03 -0.25561253213E+02 -0.16125577752E+03  0.19216748495E+03  0.12700000000E+01 0.  1.
         -4    1    3    3    0  502  0.64445299394E+02  0.63890640202E+02 -0.33634639870E+03  0.34837583633E+03  0.12700000000E+01 0.  1.
          1    1    1    2  503    0 -0.11401946802E+03 -0.78023222054E+01 -0.15022484301E+04  0.15065894136E+04  0.00000000000E+00 0. -1.
         -1    1    1    2    0  501 -0.51766474367E+02 -0.30527064783E+02  0.76684841652E+02  0.97428099088E+02  0.00000000000E+00 0.  1.
<mgrwt>
<rscale>  0 0.84653808E+02</rscale>
<asrwt>0</asrwt>
<pdfrwt beam="2">  1        2 0.31290202E+00 0.11924467E+03</pdfrwt>
<pdfrwt beam="1">  1       -2 0.17030391E-01 0.60097168E+02</pdfrwt>
<totfact> 0.20284529E+02</totfact>
</mgrwt>
</event>
<event>
 7    1  0.6493044E-004  0.8418820E+02  0.7546771E-02  0.1482798E+00
          1   -1    0    0  503    0  0.00000000000E+00  0.00000000000E+00  0.14328689507E+04  0.14328689507E+04  0.00000000000E+00 0. -1.
         -1   -1    0    0    0  501 -0.00000000000E+00 -0.00000000000E+00 -0.94930319823E+02  0.94930319823E+02  0.00000000000E+00 0.  1.
         25    2    1    2    0    0  0.25077252737E+02 -0.58792429511E+02  0.71700629576E+03  0.73062166644E+03  0.12499829172E+03 0.  0.
          4    1    3    3  502    0  0.13855648767E+02  0.39279654409E+02  0.21157712537E+03  0.21564174720E+03  0.12700000000E+01 0. -1.
         -4    1    3    3    0  502  0.11221603970E+02 -0.98072083920E+02  0.50542917039E+03  0.51497991924E+03  0.12700000000E+01 0. -1.
          2    1    1    2  503    0 -0.14154703560E+01 -0.22611550636E+02  0.68843767444E+03  0.68881036386E+03  0.00000000000E+00 0. -1.
         -2    1    1    2    0  501 -0.23661782381E+02  0.81403980147E+02 -0.67505339287E+02  0.10836724026E+03  0.00000000000E+00 0.  1.
<mgrwt>
<rscale>  0 0.43673242E+02</rscale>
<asrwt>0</asrwt>
<pdfrwt beam="1">  1        1 0.22044136E+00 0.22655811E+02</pdfrwt>
<pdfrwt beam="2">  1       -1 0.14604666E-01 0.84188204E+02</pdfrwt>
<totfact> 0.32176831E+02</totfact>
</mgrwt>
</event>
<event>
 7    1  0.6493044E-004  0.5594034E+02  0.7546771E-02  0.1459164E+00
          2   -1    0    0  503    0  0.00000000000E+00  0.00000000000E+00  0.61453878263E+02  0.61453878263E+02  0.00000000000E+00 0. -1.
          1   -1    0    0  502    0 -0.00000000000E+00 -0.00000000000E+00 -0.78580607643E+03  0.78580607643E+03  0.00000000000E+00 0. -1.
         25    2    1    2    0    0  0.36305157512E+02 -0.43509944144E+02 -0.23107537561E+03  0.26875978492E+03  0.12499925230E+03 0.  0.
          4    1    3    3  501    0 -0.67640553532E+01 -0.73001517943E+02 -0.78137526425E+02  0.10715437463E+03  0.12700000000E+01 0. -1.
         -4    1    3    3    0  501  0.43069212865E+02  0.29491573798E+02 -0.15293784919E+03  0.16160541029E+03  0.12700000000E+01 0. -1.
          2    1    1    2  502    0 -0.56342742635E+02  0.84560851311E+01 -0.52442154316E+03  0.52750731270E+03  0.00000000000E+00 0. -1.
          1    1    1    2  503    0  0.20037585123E+02  0.35053859013E+02  0.31144720611E+02  0.50992857061E+02  0.00000000000E+00 0. -1.
<mgrwt>
<rscale>  0 0.47525640E+02</rscale>
<asrwt>0</asrwt>
<pdfrwt beam="1">  1        2 0.94544441E-02 0.40376699E+02</pdfrwt>
<pdfrwt beam="2">  1        1 0.12089323E+00 0.55940345E+02</pdfrwt>
<totfact> 0.21031839E+03</totfact>
</mgrwt>
</event>
<event>
 7    1  0.6493044E-004  0.8556441E+02  0.7546771E-02  0.1337772E+00
          2   -1    0    0  503    0  0.00000000000E+00  0.00000000000E+00  0.26166424130E+04  0.26166424130E+04  0.00000000000E+00 0. -1.
          1   -1    0    0  502    0 -0.00000000000E+00 -0.00000000000E+00 -0.55950105738E+03  0.55950105738E+03  0.00000000000E+00 0. -1.
         25    2    1    2    0    0 -0.36295469647E+02  0.10632535950E+03 -0.21757711673E+02  0.16947348347E+03  0.12500168155E+03 0.  0.
          4    1    3    3  501    0  0.24988734684E+02  0.10140024813E+03 -0.26638182257E+02  0.10778521622E+03  0.12700000000E+01 0. -1.
         -4    1    3    3    0  501 -0.61284204331E+02  0.49251113712E+01  0.48804705838E+01  0.61688267244E+02  0.12700000000E+01 0. -1.
          2    1    1    2  502    0 -0.28051346195E+02 -0.80591429555E+02 -0.45948414767E+03  0.46734092320E+03  0.00000000000E+00 0. -1.
          1    1    1    2  503    0  0.64346815842E+02 -0.25733929948E+02  0.25383832150E+04  0.25393290638E+04  0.00000000000E+00 0. -1.
<mgrwt>
<rscale>  0 0.77005017E+02</rscale>
<asrwt>0</asrwt>
<pdfrwt beam="1">  1        2 0.40256036E+00 0.69301860E+02</pdfrwt>
<pdfrwt beam="2">  1        1 0.86077087E-01 0.85564408E+02</pdfrwt>
<totfact> 0.22957194E+01</totfact>
</mgrwt>
</event>
<event>
 7    1  0.6493044E-004  0.6054591E+02  0.7546771E-02  0.1406948E+00
          1   -1    0    0  502    0 -0.00000000000E+00  0.00000000000E+00  0.73775160934E+03  0.73775160934E+03  0.00000000000E+00 0. -1.
          2   -1    0    0  503    0  0.00000000000E+00 -0.00000000000E+00 -0.26808626979E+03  0.26808626979E+03  0.00000000000E+00 0. -1.
         25    2    1    2    0    0  0.23793351394E+02  0.30440284847E+02 -0.94276862073E+02  0.16126567152E+03  0.12500302227E+03 0.  0.
          4    1    3    3  501    0  0.72223607840E+02  0.52851771698E+01 -0.72542905589E+02  0.10250984674E+03  0.12700000000E+01 0.  1.
         -4    1    3    3    0  501 -0.48430256447E+02  0.25155107677E+02 -0.21733956484E+02  0.58755824785E+02  0.12700000000E+01 0.  1.
          2    1    1    2  502    0  0.45964425494E+02 -0.30804524263E+02  0.69441789737E+03  0.69661887953E+03  0.00000000000E+00 0. -1.
          1    1    1    2  503    0 -0.69757776887E+02  0.36423941669E+00 -0.13047569575E+03  0.14795332807E+03  0.00000000000E+00 0. -1.
<mgrwt>
<rscale>  0 0.57880355E+02</rscale>
<asrwt>0</asrwt>
<pdfrwt beam="2">  1        2 0.41244042E-01 0.60545910E+02</pdfrwt>
<pdfrwt beam="1">  1        1 0.11350025E+00 0.55332153E+02</pdfrwt>
<totfact> 0.46462983E+02</totfact>
</mgrwt>
</event>
<event>
 7    1  0.6493044E-004  0.4870420E+02  0.7546771E-02  0.1490056E+00
          2   -1    0    0  503    0  0.00000000000E+00  0.00000000000E+00  0.12657183487E+03  0.12657183487E+03  0.00000000000E+00 0. -1.
         -2   -1    0    0    0  501 -0.00000000000E+00 -0.00000000000E+00 -0.21781544146E+03  0.21781544146E+03  0.00000000000E+00 0.  1.
         25    2    1    2    0    0  0.65056379502E+01  0.15726711941E+02 -0.17936165515E+03  0.21929328520E+03  0.12501715404E+03 0.  0.
          4    1    3    3  502    0  0.46895676583E+02  0.41064707609E+02 -0.15203707215E+03  0.16432406671E+03  0.12700000000E+01 0. -1.
         -4    1    3    3    0  502 -0.40390038633E+02 -0.25337995669E+02 -0.27324582997E+02  0.54969218489E+02  0.12700000000E+01 0. -1.
          1    1    1    2  503    0 -0.41541254782E+02 -0.28295276861E+02  0.61007814259E+02  0.79045885042E+02  0.00000000000E+00 0. -1.
         -1    1    1    2    0  501  0.35035616832E+02  0.12568564920E+02  0.27110234297E+02  0.46048106091E+02  0.00000000000E+00 0.  1.
<mgrwt>
<rscale>  0 0.42577675E+02</rscale>
<asrwt>0</asrwt>
<pdfrwt beam="1">  1        2 0.19472590E-01 0.48704195E+02</pdfrwt>
<pdfrwt beam="2">  1       -2 0.33510068E-01 0.37221812E+02</pdfrwt>
<totfact> 0.21575719E+03</totfact>
</mgrwt>
</event>
<event>
 7    1  0.6493044E-004  0.5259032E+02  0.7546771E-02  0.1476750E+00
          1   -1    0    0  503    0  0.00000000000E+00  0.00000000000E+00  0.25247837974E+04  0.25247837974E+04  0.00000000000E+00 0. -1.
         -1   -1    0    0    0  501 -0.00000000000E+00 -0.00000000000E+00 -0.25304914115E+02  0.25304914115E+02  0.00000000000E+00 0.  1.
         25    2    1    2    0    0  0.63838811023E+02 -0.25302631691E+02  0.59976070917E+03  0.61648483346E+03  0.12500009862E+03 0.  0.
          4    1    3    3  502    0  0.49452044428E+02  0.39839503622E+02  0.16813551720E+03  0.17973273433E+03  0.12700000000E+01 0.  1.
         -4    1    3    3    0  502  0.14386766595E+02 -0.65142135313E+02  0.43162519197E+03  0.43675209912E+03  0.12700000000E+01 0.  1.
          2    1    1    2  503    0 -0.33667676124E+02 -0.17298471509E+02  0.18758008537E+04  0.18761827183E+04  0.00000000000E+00 0. -1.
         -2    1    1    2    0  501 -0.30171134899E+02  0.42601103199E+02  0.23917320377E+02  0.57421159766E+02  0.00000000000E+00 0.  1.
<mgrwt>
<rscale>  0 0.44616496E+02</rscale>
<asrwt>0</asrwt>
<pdfrwt beam="1">  1        1 0.38842808E+00 0.37851678E+02</pdfrwt>
<pdfrwt beam="2">  1       -1 0.38930657E-02 0.52590316E+02</pdfrwt>
<totfact> 0.44544438E+02</totfact>
</mgrwt>
</event>
<event>
 7    1  0.6493044E-004  0.1790641E+03  0.7546771E-02  0.1229089E+00
          2   -1    0    0  503    0  0.00000000000E+00  0.00000000000E+00  0.28494399585E+04  0.28494399585E+04  0.00000000000E+00 0. -1.
          1   -1    0    0  502    0 -0.00000000000E+00 -0.00000000000E+00 -0.98391845400E+02  0.98391845400E+02  0.00000000000E+00 0. -1.
         25    2    1    2    0    0 -0.13384355022E+03 -0.10239523036E+03  0.67944400388E+03  0.71110343872E+03  0.12500026802E+03 0.  0.
          4    1    3    3  501    0 -0.14372217012E+03 -0.59904641758E+02  0.41838425241E+03  0.44642090436E+03  0.12700000000E+01 0. -1.
         -4    1    3    3    0  501  0.98786199050E+01 -0.42490588605E+02  0.26105975148E+03  0.26468253435E+03  0.12700000000E+01 0. -1.
          2    1    1    2  502    0  0.18217346532E+03  0.23177175880E+02  0.21920918316E+02  0.18494561257E+03  0.00000000000E+00 0. -1.
          3    1    1    2  503    0 -0.48329915104E+02  0.79218054484E+02  0.20496831909E+04  0.20517827526E+04  0.00000000000E+00 0. -1.
<mgrwt>
<rscale>  0 0.12890542E+03</rscale>
<asrwt>0</asrwt>
<pdfrwt beam="1">  1        2 0.43837532E+00 0.92796987E+02</pdfrwt>
<pdfrwt beam="2">  1        1 0.15137209E-01 0.17906408E+03</pdfrwt>
<totfact> 0.14695122E+02</totfact>
</mgrwt>
</event>
<event>
 7    1  0.6493044E-004  0.6044693E+02  0.7546771E-02  0.1485954E+00
          1   -1    0    0  502    0 -0.00000000000E+00  0.00000000000E+00  0.86232249668E+02  0.86232249668E+02  0.00000000000E+00 0. -1.
          2   -1    0    0  503    0  0.00000000000E+00 -0.00000000000E+00 -0.25728809432E+03  0.25728809432E+03  0.00000000000E+00 0. -1.
         25    2    1    2    0    0 -0.31636447553E+02 -0.41026402444E+02 -0.10295595201E+03  0.17003011148E+03  0.12500512088E+03 0.  0.
          4    1    3    3  501    0 -0.57151104055E+02 -0.58723449566E+01  0.87445580965E+00  0.57472695282E+02  0.12700000000E+01 0.  1.
         -4    1    3    3    0  501  0.25514656502E+02 -0.35154057488E+02 -0.10383040782E+03  0.11255741620E+03  0.12700000000E+01 0.  1.
          2    1    1    2  502    0  0.21370511972E+02 -0.22266958076E+02  0.38346263033E+02  0.49223491267E+02  0.00000000000E+00 0. -1.
          1    1    1    2  503    0  0.10265935581E+02  0.63293360521E+02 -0.10644615568E+03  0.12426674124E+03  0.00000000000E+00 0. -1.
<mgrwt>
<rscale>  0 0.43192189E+02</rscale>
<asrwt>0</asrwt>
<pdfrwt beam="2">  1        2 0.39582784E-01 0.60446929E+02</pdfrwt>
<pdfrwt beam="1">  1        1 0.13266500E-01 0.30862861E+02</pdfrwt>
<totfact> 0.66786461E+03</totfact>
</mgrwt>
</event>
<event>
 7    1  0.6493044E-004  0.1121972E+03  0.7546771E-02  0.1391743E+00
          1   -1    0    0  502    0 -0.00000000000E+00  0.00000000000E+00  0.65397965079E+03  0.65397965079E+03  0.00000000000E+00 0. -1.
          2   -1    0    0  503    0  0.00000000000E+00 -0.00000000000E+00 -0.45137126772E+03  0.45137126772E+03  0.00000000000E+00 0. -1.
         25    2    1    2    0    0  0.76819164682E+02 -0.10638305152E+03 -0.45494959933E+02  0.18685053462E+03  0.12499917278E+03 0.  0.
          4    1    3    3  501    0  0.44379751184E+02 -0.10694193470E+03  0.16408440633E+02  0.11694866197E+03  0.12700000000E+01 0.  1.
         -4    1    3    3    0  501  0.32439413498E+02  0.55888318250E+00 -0.61903400567E+02  0.69901872652E+02  0.12700000000E+01 0.  1.
          2    1    1    2  502    0 -0.33271571019E+02  0.52523598708E+01  0.57375231325E+03  0.57474020364E+03  0.00000000000E+00 0. -1.
          1    1    1    2  503    0 -0.43547593663E+02  0.10113069165E+03 -0.32564897025E+03  0.34376018026E+03  0.00000000000E+00 0. -1.
<mgrwt>
<rscale>  0 0.61475242E+02</rscale>
<asrwt>0</asrwt>
<pdfrwt beam="2">  1        2 0.69441733E-01 0.11219720E+03</pdfrwt>
<pdfrwt beam="1">  1        1 0.10061225E+00 0.33683597E+02</pdfrwt>
<totfact> 0.32441810E+02</totfact>
</mgrwt>
</event>
<event>
 7    1  0.6493044E-004  0.7192273E+02  0.7546771E-02  0.1451658E+00
          1   -1    0    0  502    0 -0.00000000000E+00  0.00000000000E+00  0.86647521158E+03  0.86647521158E+03  0.00000000000E+00 0. -1.
          2   -1    0    0  503    0  0.00000000000E+00 -0.00000000000E+00 -0.83935570469E+03  0.83935570469E+03  0.00000000000E+00 0. -1.
         25    2    1    2    0    0 -0.37005639020E+02 -0.26294251507E+02 -0.82459067239E+02  0.15647489152E+03  0.12499635564E+03 0.  0.
          4    1    3    3  501    0  0.23950959656E+02  0.25197643323E+02 -0.66559265825E+02  0.75102053665E+02  0.12700000000E+01 0. -1.
         -4    1    3    3    0  501 -0.60956598676E+02 -0.51491894830E+02 -0.15899801414E+02  0.81372837853E+02  0.12700000000E+01 0. -1.
          2    1    1    2  502    0  0.41584404746E+02  0.59152507586E+02  0.82750771514E+03  0.83066076137E+03  0.00000000000E+00 0. -1.
          1    1    1    2  503    0 -0.45787657259E+01 -0.32858256079E+02 -0.71792914102E+03  0.71869526338E+03  0.00000000000E+00 0. -1.
<mgrwt>
<rscale>  0 0.48847622E+02</rscale>
<asrwt>0</asrwt>
<pdfrwt beam="2">  1        2 0.12913165E+00 0.33175745E+02</pdfrwt>
<pdfrwt beam="1">  1        1 0.13330388E+00 0.71922729E+02</pdfrwt>
<totfact> 0.10867690E+02</totfact>
</mgrwt>
</event>
<event>
 7    1  0.6493044E-004  0.4849202E+02  0.7546771E-02  0.1564314E+00
         -2   -1    0    0    0  501 -0.00000000000E+00  0.00000000000E+00  0.36899916410E+02  0.36899916410E+02  0.00000000000E+00 0.  1.
          2   -1    0    0  503    0  0.00000000000E+00 -0.00000000000E+00 -0.24641881140E+04  0.24641881140E+04  0.00000000000E+00 0. -1.
         25    2    1    2    0    0 -0.20173333399E+00  0.25955198292E+02 -0.14142089358E+04  0.14199594847E+04  0.12499724474E+03 0.  0.
          4    1    3    3  502    0 -0.44496365393E+02 -0.21453841435E+02 -0.94414580266E+03  0.94543804843E+03  0.12700000000E+01 0.  1.
         -4    1    3    3    0  502  0.44294632059E+02  0.47409039727E+02 -0.47006313310E+03  0.47452143626E+03  0.12700000000E+01 0.  1.
          1    1    1    2  503    0  0.17006988335E+01  0.22793003926E+02 -0.10294343565E+04  0.10296880633E+04  0.00000000000E+00 0. -1.
         -1    1    1    2    0  501 -0.14989654995E+01 -0.48748202218E+02  0.16355094592E+02  0.51440482465E+02  0.00000000000E+00 0.  1.
<mgrwt>
<rscale>  0 0.33291911E+02</rscale>
<asrwt>0</asrwt>
<pdfrwt beam="2">  1        2 0.37910593E+00 0.22856365E+02</pdfrwt>
<pdfrwt beam="1">  1       -2 0.56769092E-02 0.48492023E+02</pdfrwt>
<totfact> 0.82023828E+02</totfact>
</mgrwt>
</event>
<event>
 7    1  0.6493044E-004  0.3825783E+02  0.7546771E-02  0.1597334E+00
         -2   -1    0    0    0  501 -0.00000000000E+00  0.00000000000E+00  0.22287769534E+03  0.22287769534E+03  0.00000000000E+00 0.  1.
          2   -1    0    0  503    0  0.00000000000E+00 -0.00000000000E+00 -0.16607235757E+03  0.16607235757E+03  0.00000000000E+00 0. -1.
         25    2    1    2    0    0  0.21236277631E+02  0.34199217553E+02 -0.39277180646E+02  0.13707010964E+03  0.12499980827E+03 0.  0.
          4    1    3    3  502    0 -0.22773752171E+02  0.33146211081E+02 -0.71811472206E+02  0.82315342054E+02  0.12700000000E+01 0.  1.
         -4    1    3    3    0  502  0.44010029803E+02  0.10530064713E+01  0.32534291560E+02  0.54754767584E+02  0.12700000000E+01 0.  1.
          1    1    1    2  503    0  0.14017712705E+02 -0.19025558488E+02 -0.73916420505E+02  0.77602225261E+02  0.00000000000E+00 0. -1.
         -1    1    1    2    0  501 -0.35253990337E+02 -0.15173659065E+02  0.16999893892E+03  0.17427771802E+03  0.00000000000E+00 0.  1.
<mgrwt>
<rscale>  0 0.30068361E+02</rscale>
<asrwt>0</asrwt>
<pdfrwt beam="2">  1        2 0.25549593E-01 0.23631931E+02</pdfrwt>
<pdfrwt beam="1">  1       -2 0.34288876E-01 0.38257829E+02</pdfrwt>
<totfact> 0.14998572E+03</totfact>
</mgrwt>
</event>
<event>
 7    1  0.6493044E-004  0.7695381E+02  0.7546771E-02  0.1509376E+00
         -2   -1    0    0    0  501 -0.00000000000E+00  0.00000000000E+00  0.98745678641E+01  0.98745678641E+01  0.00000000000E+00 0.  1.
          2   -1    0    0  503    0  0.00000000000E+00 -0.00000000000E+00 -0.38731689919E+04  0.38731689919E+04  0.00000000000E+00 0. -1.
         25    2    1    2    0    0 -0.44410599805E+02  0.81840889983E+02 -0.17474485064E+04  0.17543867830E+04  0.12500587687E+03 0.  0.
          4    1    3    3  502    0 -0.72959978826E+02  0.45370119477E+02 -0.61304765406E+03  0.61904009992E+03  0.12700000000E+01 0. -1.
         -4    1    3    3    0  502  0.28549379021E+02  0.36470770507E+02 -0.11344008523E+04  0.11353466831E+04  0.12700000000E+01 0. -1.
          1    1    1    2  503    0  0.41175417349E+02 -0.61468204203E+02 -0.21031162640E+04  0.21044172055E+04  0.00000000000E+00 0. -1.
         -1    1    1    2    0  501  0.32351824554E+01 -0.20372685780E+02 -0.12729653693E+02  0.24239571254E+02  0.00000000000E+00 0.  1.
<mgrwt>
<rscale>  0 0.39842190E+02</rscale>
<asrwt>0</asrwt>
<pdfrwt beam="2">  1        2 0.59587151E+00 0.76953808E+02</pdfrwt>
<pdfrwt beam="1">  1       -2 0.15191659E-02 0.20627960E+02</pdfrwt>
<totfact> 0.55510625E+02</totfact>
</mgrwt>
</event>
<event>
 7    1  0.6493044E-004  0.3170619E+02  0.7546771E-02  0.1624429E+00
         -2   -1    0    0    0  501  0.00000000000E+00  0.00000000000E+00  0.15002851114E+03  0.15002851114E+03  0.00000000000E+00 0.  1.
         -1   -1    0    0    0  502 -0.00000000000E+00 -0.00000000000E+00 -0.25924464924E+03  0.25924464924E+03  0.00000000000E+00 0.  1.
         25    2    1    2    0    0  0.67905822946E+01  0.49158587888E+01 -0.20615908806E+03  0.24123904484E+03  0.12499771795E+03 0.  0.
          4    1    3    3  503    0  0.41444905996E+02 -0.41781865992E+02 -0.60572890422E+02  0.84463557306E+02  0.12700000000E+01 0. -1.
         -4    1    3    3    0  503 -0.34654323701E+02  0.46697724781E+02 -0.14558619763E+03  0.15677548754E+03  0.12700000000E+01 0. -1.
         -2    1    1    2    0  502  0.10626981486E+02  0.21831393753E+02 -0.29165199589E+02  0.37949326157E+02  0.00000000000E+00 0.  1.
         -1    1    1    2    0  501 -0.17417563781E+02 -0.26747252541E+02  0.12610814954E+03  0.13008478938E+03  0.00000000000E+00 0.  1.
<mgrwt>
<rscale>  0 0.27746027E+02</rscale>
<asrwt>0</asrwt>
<pdfrwt beam="1">  1       -2 0.23081310E-01 0.31706190E+02</pdfrwt>
<pdfrwt beam="2">  1       -1 0.39883792E-01 0.24280496E+02</pdfrwt>
<totfact> 0.68565076E+02</totfact>
</mgrwt>
</event>
<event>
 7    1  0.6493044E-004  0.9457041E+02  0.7546771E-02  0.1294911E+00
          2   -1    0    0  503    0  0.00000000000E+00  0.00000000000E+00  0.10696262664E+04  0.10696262664E+04  0.00000000000E+00 0. -1.
          1   -1    0    0  502    0 -0.00000000000E+00 -0.00000000000E+00 -0.97093153145E+03  0.97093153145E+03  0.00000000000E+00 0. -1.
         25    2    1    2    0    0 -0.76618456485E+02  0.68730270661E+01  0.33170052504E+03  0.36272369226E+03  0.12500244894E+03 0.  0.
          4    1    3    3  501    0 -0.67724145180E+02  0.27713978963E+02  0.33205620030E+03  0.34002581891E+03  0.12700000000E+01 0. -1.
         -4    1    3    3    0  501 -0.88943113048E+01 -0.20840951897E+02 -0.35567525977E+00  0.22697873346E+02  0.12700000000E+01 0. -1.
          2    1    1    2  502    0  0.49337185393E+02  0.81163932399E+02 -0.95010257827E+03  0.95483854710E+03  0.00000000000E+00 0. -1.
          1    1    1    2  503    0  0.27281271091E+02 -0.88036959465E+02  0.71709678813E+03  0.72299555844E+03  0.00000000000E+00 0. -1.
<mgrwt>
<rscale>  0 0.93361023E+02</rscale>
<asrwt>0</asrwt>
<pdfrwt beam="1">  1        2 0.16455789E+00 0.92167098E+02</pdfrwt>
<pdfrwt beam="2">  1        1 0.14937408E+00 0.94570413E+02</pdfrwt>
<totfact> 0.62278378E+01</totfact>
</mgrwt>
</event>
<event>
 7    1  0.6493044E-004  0.1238955E+03  0.7546771E-02  0.1262000E+00
          2   -1    0    0  503    0  0.00000000000E+00  0.00000000000E+00  0.20334003520E+03  0.20334003520E+03  0.00000000000E+00 0. -1.
          1   -1    0    0  502    0 -0.00000000000E+00 -0.00000000000E+00 -0.24825739349E+04  0.24825739349E+04  0.00000000000E+00 0. -1.
         25    2    1    2    0    0  0.16115951914E+03  0.14434717378E+03 -0.85919106233E+03  0.89478580681E+03  0.12499544505E+03 0.  0.
          4    1    3    3  501    0  0.43949960208E+02 -0.16050541422E+02 -0.10675427245E+03  0.11656460213E+03  0.12700000000E+01 0.  1.
         -4    1    3    3    0  501  0.11720955893E+03  0.16039771521E+03 -0.75243678988E+03  0.77822120468E+03  0.12700000000E+01 0.  1.
          2    1    1    2  502    0 -0.80145398003E+02 -0.53394638281E+02 -0.15839747367E+04  0.15868995679E+04  0.00000000000E+00 0. -1.
          1    1    1    2  503    0 -0.81014121133E+02 -0.90952535504E+02  0.16393189934E+03  0.20422859535E+03  0.00000000000E+00 0. -1.
<mgrwt>
<rscale>  0 0.10923148E+03</rscale>
<asrwt>0</asrwt>
<pdfrwt beam="1">  1        2 0.31283080E-01 0.12389554E+03</pdfrwt>
<pdfrwt beam="2">  1        1 0.38193448E+00 0.96303023E+02</pdfrwt>
<totfact> 0.42417676E+01</totfact>
</mgrwt>
</event>
<event>
 7    1  0.6493044E-004  0.3760157E+02  0.7546771E-02  0.1534291E+00
         -1   -1    0    0    0  502 -0.00000000000E+00  0.00000000000E+00  0.13256202884E+03  0.13256202884E+03  0.00000000000E+00 0.  1.
         -2   -1    0    0    0  501  0.00000000000E+00 -0.00000000000E+00 -0.86027762077E+02  0.86027762077E+02  0.00000000000E+00 0.  1.
         25    2    1    2    0    0 -0.13956442184E+02  0.29045144634E+01  0.32955080076E+02  0.13005976418E+03  0.12500514579E+03 0.  0.
          4    1    3    3  503    0  0.29977162403E+02 -0.40922059047E+02  0.43822436164E+02  0.67046729926E+02  0.12700000000E+01 0. -1.
         -4    1    3    3    0  503 -0.43933604586E+02  0.43826573510E+02 -0.10867356088E+02  0.63013034254E+02  0.12700000000E+01 0. -1.
         -2    1    1    2    0  502  0.26427063208E+02 -0.36411286741E+02  0.24393236455E+02  0.51178134557E+02  0.00000000000E+00 0.  1.
         -1    1    1    2    0  501 -0.12470621025E+02  0.33506772278E+02 -0.10814049767E+02  0.37351892182E+02  0.00000000000E+00 0.  1.
<mgrwt>
<rscale>  0 0.36665229E+02</rscale>
<asrwt>0</asrwt>
<pdfrwt beam="2">  1       -2 0.13235040E-01 0.35752205E+02</pdfrwt>
<pdfrwt beam="1">  1       -1 0.20394158E-01 0.37601569E+02</pdfrwt>
<totfact> 0.50048689E+03</totfact>
</mgrwt>
</event>
<event>
 7    1  0.6493044E-004  0.3376301E+02  0.7546771E-02  0.1597283E+00
          2   -1    0    0  503    0  0.00000000000E+00  0.00000000000E+00  0.29839293960E+04  0.29839293960E+04  0.00000000000E+00 0. -1.
          1   -1    0    0  502    0 -0.00000000000E+00 -0.00000000000E+00 -0.49364785946E+03  0.49364785946E+03  0.00000000000E+00 0. -1.
         25    2    1    2    0    0  0.30963194845E+02 -0.26667178024E+02  0.14087589201E+04  0.14148837402E+04  0.12499778269E+03 0.  0.
          4    1    3    3  501    0  0.36058700157E+02 -0.73458311031E+02  0.75235283301E+03  0.75679108845E+03  0.12700000000E+01 0. -1.
         -4    1    3    3    0  501 -0.50955053119E+01  0.46791133006E+02  0.65640608705E+03  0.65809265177E+03  0.12700000000E+01 0. -1.
          2    1    1    2  502    0 -0.25896911947E+02 -0.68448409598E+01 -0.49003696276E+03  0.49076850629E+03  0.00000000000E+00 0. -1.
          1    1    1    2  503    0 -0.50662828981E+01  0.33512018984E+02  0.15715595792E+04  0.15719250090E+04  0.00000000000E+00 0. -1.
<mgrwt>
<rscale>  0 0.30072972E+02</rscale>
<asrwt>0</asrwt>
<pdfrwt beam="1">  1        2 0.45906605E+00 0.33763011E+02</pdfrwt>
<pdfrwt beam="2">  1        1 0.75945826E-01 0.26786226E+02</pdfrwt>
<totfact> 0.19857506E+01</totfact>
</mgrwt>
</event>
<event>
 7    1  0.6493044E-004  0.6804146E+02  0.7546771E-02  0.1394960E+00
         -1   -1    0    0    0  501 -0.00000000000E+00  0.00000000000E+00  0.53014013160E+02  0.53014013160E+02  0.00000000000E+00 0.  1.
          1   -1    0    0  503    0  0.00000000000E+00 -0.00000000000E+00 -0.92144508894E+03  0.92144508894E+03  0.00000000000E+00 0. -1.
         25    2    1    2    0    0  0.22750212304E+02  0.11178808335E+03 -0.29050184046E+03  0.33619806015E+03  0.12499467429E+03 0.  0.
          4    1    3    3  502    0 -0.50898193769E+02  0.48914231152E+02 -0.14698345368E+03  0.16306126669E+03  0.12700000000E+01 0. -1.
         -4    1    3    3    0  502  0.73648406073E+02  0.62873852196E+02 -0.14351838678E+03  0.17313679346E+03  0.12700000000E+01 0. -1.
          2    1    1    2  503    0  0.37328900028E+01 -0.64576159398E+02 -0.58047590297E+03  0.58406873633E+03  0.00000000000E+00 0. -1.
         -2    1    1    2    0  501 -0.26483102307E+02 -0.47211923951E+02  0.25466676595E+01  0.54192305608E+02  0.00000000000E+00 0.  1.
<mgrwt>
<rscale>  0 0.60689785E+02</rscale>
<asrwt>0</asrwt>
<pdfrwt beam="2">  1        1 0.14176078E+00 0.68041462E+02</pdfrwt>
<pdfrwt beam="1">  1       -1 0.81560020E-02 0.54132435E+02</pdfrwt>
<totfact> 0.14828703E+03</totfact>
</mgrwt>
</event>
<event>
 7    1  0.6493044E-004  0.1178536E+03  0.7546771E-02  0.1334055E+00
          1   -1    0    0  502    0 -0.00000000000E+00  0.00000000000E+00  0.98997938108E+02  0.98997938108E+02  0.00000000000E+00 0. -1.
          2   -1    0    0  503    0  0.00000000000E+00 -0.00000000000E+00 -0.19753774682E+04  0.19753774682E+04  0.00000000000E+00 0. -1.
         25    2    1    2    0    0 -0.81897383093E+02 -0.75342760049E+02 -0.35020621858E+03  0.38814032570E+03  0.12499921621E+03 0.  0.
          4    1    3    3  501    0 -0.80071461676E+02 -0.99676113791E+02 -0.33683499635E+03  0.36028626716E+03  0.12700000000E+01 0. -1.
         -4    1    3    3    0  501 -0.18259214167E+01  0.24333353741E+02 -0.13371222226E+02  0.27854058540E+02  0.12700000000E+01 0. -1.
          2    1    1    2  502    0 -0.32699815142E+02  0.40395605930E+02  0.69103334149E+02  0.86465910504E+02  0.00000000000E+00 0. -1.
          1    1    1    2  503    0  0.11459719824E+03  0.34947154119E+02 -0.15952766457E+04  0.15997691701E+04  0.00000000000E+00 0. -1.
<mgrwt>
<rscale>  0 0.78262905E+02</rscale>
<asrwt>0</asrwt>
<pdfrwt beam="2">  1        2 0.30390425E+00 0.11785363E+03</pdfrwt>
<pdfrwt beam="1">  1        1 0.15230451E-01 0.51971943E+02</pdfrwt>
<totfact> 0.38469520E+02</totfact>
</mgrwt>
</event>
<event>
 7    1  0.6493044E-004  0.9901606E+02  0.7546771E-02  0.1405278E+00
          2   -1    0    0  503    0  0.00000000000E+00  0.00000000000E+00  0.29556994194E+04  0.29556994194E+04  0.00000000000E+00 0. -1.
         -2   -1    0    0    0  501 -0.00000000000E+00 -0.00000000000E+00 -0.17493086596E+02  0.17493086596E+02  0.00000000000E+00 0.  1.
         25    2    1    2    0    0  0.42367977650E+02  0.75595381706E+02  0.44113444035E+03  0.46661751934E+03  0.12499043016E+03 0.  0.
          4    1    3    3  502    0  0.41864779083E+02  0.99086863369E+02  0.22706681588E+03  0.25126045848E+03  0.12700000000E+01 0. -1.
         -4    1    3    3    0  502  0.50319856716E+00 -0.23491481662E+02  0.21406762447E+03  0.21535706087E+03  0.12700000000E+01 0. -1.
          1    1    1    2  503    0  0.12690160449E+02  0.31845420436E+02  0.17059637224E+04  0.17063081179E+04  0.00000000000E+00 0. -1.
         -1    1    1    2    0  501 -0.55058138099E+02 -0.10744080214E+03  0.79110817002E+03  0.80026686875E+03  0.00000000000E+00 0.  1.
<mgrwt>
<rscale>  0 0.58261020E+02</rscale>
<asrwt>0</asrwt>
<pdfrwt beam="1">  1        2 0.45472259E+00 0.34280767E+02</pdfrwt>
<pdfrwt beam="2">  1       -2 0.26912464E-02 0.99016060E+02</pdfrwt>
<totfact> 0.13804292E+03</totfact>
</mgrwt>
</event>
<event>
 7    1  0.6493044E-004  0.1599872E+03  0.7546771E-02  0.1284787E+00
          2   -1    0    0  503    0  0.00000000000E+00  0.00000000000E+00  0.32199316607E+04  0.32199316607E+04  0.00000000000E+00 0. -1.
          1   -1    0    0  502    0 -0.00000000000E+00 -0.00000000000E+00 -0.13387006530E+03  0.13387006530E+03  0.00000000000E+00 0. -1.
         25    2    1    2    0    0  0.14561378153E+03 -0.19892905859E+02  0.12269471235E+04  0.12420193913E+04  0.12495528557E+03 0.  0.
          4    1    3    3  501    0  0.15660848052E+03 -0.18159877642E+02  0.12165869209E+04  0.12267605089E+04  0.12700000000E+01 0.  1.
         -4    1    3    3    0  501 -0.10994698986E+02 -0.17330282172E+01  0.10360202652E+02  0.15258882384E+02  0.12700000000E+01 0.  1.
          2    1    1    2  502    0  0.19733308263E+02  0.56556556268E+02 -0.11539873572E+03  0.13001890523E+03  0.00000000000E+00 0. -1.
          1    1    1    2  503    0 -0.16534708980E+03 -0.36663650409E+02  0.19745132076E+04  0.19817634295E+04  0.00000000000E+00 0. -1.
<mgrwt>
<rscale>  0 0.97894257E+02</rscale>
<asrwt>0</asrwt>
<pdfrwt beam="1">  1        2 0.49537404E+00 0.15998723E+03</pdfrwt>
<pdfrwt beam="2">  1        1 0.20595397E-01 0.59900313E+02</pdfrwt>
<totfact> 0.53261358E+01</totfact>
</mgrwt>
</event>
<event>
 7    1  0.6493044E-004  0.1631375E+03  0.7546771E-02  0.1354295E+00
         -2   -1    0    0    0  501  0.00000000000E+00  0.00000000000E+00  0.12929202983E+04  0.12929202983E+04  0.00000000000E+00 0.  1.
         -1   -1    0    0    0  502 -0.00000000000E+00 -0.00000000000E+00 -0.85834732210E+02  0.85834732210E+02  0.00000000000E+00 0.  1.
         25    2    1    2    0    0  0.89016083009E+01 -0.18580866077E+03  0.54347542018E+03  0.58787540728E+03  0.12501145986E+03 0.  0.
          4    1    3    3  503    0 -0.51211042187E+02 -0.13666075411E+03  0.37342274269E+03  0.40093003157E+03  0.12700000000E+01 0.  1.
         -4    1    3    3    0  503  0.60112650488E+02 -0.49147906669E+02  0.17005267749E+03  0.18694537571E+03  0.12700000000E+01 0.  1.
         -2    1    1    2    0  502 -0.42146083139E+01  0.31259341731E+02 -0.50872660756E+02  0.59857639288E+02  0.00000000000E+00 0.  1.
         -1    1    1    2    0  501 -0.46869999870E+01  0.15454931904E+03  0.71448280663E+03  0.73102198390E+03  0.00000000000E+00 0.  1.
<mgrwt>
<rscale>  0 0.71733623E+02</rscale>
<asrwt>0</asrwt>
<pdfrwt beam="1">  1       -2 0.19891080E+00 0.16313749E+03</pdfrwt>
<pdfrwt beam="2">  1       -1 0.13205344E-01 0.31542184E+02</pdfrwt>
<totfact> 0.39173594E+01</totfact>
</mgrwt>
</event>
<event>
 7    1  0.6493044E-004  0.1086214E+03  0.7546771E-02  0.1314258E+00
          2   -1    0    0  503    0  0.00000000000E+00  0.00000000000E+00  0.13478033017E+03  0.13478033017E+03  0.00000000000E+00 0. -1.
          1   -1    0    0  502    0 -0.00000000000E+00 -0.00000000000E+00 -0.14256370842E+04  0.14256370842E+04  0.00000000000E+00 0. -1.
         25    2    1    2    0    0 -0.86124832062E+02 -0.99566503146E+01 -0.17800223772E+03  0.23414842641E+03  0.12499626945E+03 0.  0.
          4    1    3    3  501    0 -0.90689403206E+02  0.38740750432E+02 -0.14411614793E+03  0.17463244427E+03  0.12700000000E+01 0. -1.
         -4    1    3    3    0  501  0.45645711445E+01 -0.48697400747E+02 -0.33886089791E+02  0.59515982144E+02  0.12700000000E+01 0. -1.
          2    1    1    2  502    0  0.96948224333E+02 -0.56389226757E+02 -0.12061082956E+04  0.12113116543E+04  0.00000000000E+00 0. -1.
          1    1    1    2  503    0 -0.10823392271E+02  0.66345877072E+02  0.93253779264E+02  0.11495733370E+03  0.00000000000E+00 0. -1.
<mgrwt>
<rscale>  0 0.85450832E+02</rscale>
<asrwt>0</asrwt>
<pdfrwt beam="1">  1        2 0.20735435E-01 0.67222922E+02</pdfrwt>
<pdfrwt beam="2">  1        1 0.21932879E+00 0.10862135E+03</pdfrwt>
<totfact> 0.30101361E+02</totfact>
</mgrwt>
</event>
<event>
 7    1  0.6493044E-004  0.1143161E+03  0.7546771E-02  0.1391424E+00
          1   -1    0    0  503    0  0.00000000000E+00  0.00000000000E+00  0.92916521112E+03  0.92916521112E+03  0.00000000000E+00 0. -1.
         -1   -1    0    0    0  501 -0.00000000000E+00 -0.00000000000E+00 -0.11083813029E+03  0.11083813029E+03  0.00000000000E+00 0.  1.
         25    2    1    2    0    0  0.12252136273E+03  0.61371153863E+02  0.11495730716E+03  0.21821450963E+03  0.12499794755E+03 0.  0.
          4    1    3    3  502    0  0.11921356597E+03  0.93261729074E+02  0.81717801386E+02  0.17201464003E+03  0.12700000000E+01 0. -1.
         -4    1    3    3    0  502  0.33077967579E+01 -0.31890575212E+02  0.33239505778E+02  0.46199869601E+02  0.12700000000E+01 0. -1.
          2    1    1    2  503    0 -0.89994758746E+02 -0.67738298635E+02  0.75340127077E+03  0.76177490672E+03  0.00000000000E+00 0. -1.
         -2    1    1    2    0  501 -0.32526603985E+02  0.63671447727E+01 -0.50031497101E+02  0.60013925063E+02  0.00000000000E+00 0.  1.
<mgrwt>
<rscale>  0 0.61553914E+02</rscale>
<asrwt>0</asrwt>
<pdfrwt beam="1">  1        1 0.14294849E+00 0.11431606E+03</pdfrwt>
<pdfrwt beam="2">  1       -1 0.17052021E-01 0.33143936E+02</pdfrwt>
<totfact> 0.45514932E+02</totfact>
</mgrwt>
</event>
<event>
 7    1  0.6493044E-004  0.7662001E+02  0.7546771E-02  0.1440411E+00
          2   -1    0    0  503    0  0.00000000000E+00  0.00000000000E+00  0.48816218132E+03  0.48816218132E+03  0.00000000000E+00 0. -1.
          1   -1    0    0  502    0 -0.00000000000E+00 -0.00000000000E+00 -0.19407852770E+03  0.19407852770E+03  0.00000000000E+00 0. -1.
         25    2    1    2    0    0 -0.73195821067E+02  0.66832492162E+02  0.16087450040E+03  0.22656165980E+03  0.12500148231E+03 0.  0.
          4    1    3    3  501    0 -0.93019499138E+02  0.82782860384E+02  0.97173821785E+02  0.15795567015E+03  0.12700000000E+01 0.  1.
         -4    1    3    3    0  501  0.19823678072E+02 -0.15950368222E+02  0.63700678618E+02  0.68605989644E+02  0.12700000000E+01 0.  1.
          2    1    1    2  502    0  0.67999224937E+02 -0.33385824215E+02 -0.15127823562E+03  0.16918514244E+03  0.00000000000E+00 0. -1.
          1    1    1    2  503    0  0.51965961297E+01 -0.33446667947E+02  0.28448738884E+03  0.28649390677E+03  0.00000000000E+00 0. -1.
<mgrwt>
<rscale>  0 0.50925737E+02</rscale>
<asrwt>0</asrwt>
<pdfrwt beam="1">  1        2 0.75101873E-01 0.33847957E+02</pdfrwt>
<pdfrwt beam="2">  1        1 0.29858235E-01 0.76620007E+02</pdfrwt>
<totfact> 0.13303970E+03</totfact>
</mgrwt>
</event>
<event>
 7    1  0.6493044E-004  0.5395636E+02  0.7546771E-02  0.1453278E+00
          1   -1    0    0  503    0  0.00000000000E+00  0.00000000000E+00  0.35781167884E+03  0.35781167884E+03  0.00000000000E+00 0. -1.
         -1   -1    0    0    0  501 -0.00000000000E+00 -0.00000000000E+00 -0.35614947937E+03  0.35614947937E+03  0.00000000000E+00 0.  1.
         25    2    1    2    0    0  0.18563908978E+02  0.54478925540E+02 -0.28105651507E+01  0.13764732636E+03  0.12500526043E+03 0.  0.
          4    1    3    3  502    0 -0.32976615283E+02  0.57344257370E+02  0.33852137849E+02  0.74319587901E+02  0.12700000000E+01 0. -1.
         -4    1    3    3    0  502  0.51540524261E+02 -0.28653318299E+01 -0.36662702999E+02  0.63327738463E+02  0.12700000000E+01 0. -1.
          2    1    1    2  503    0 -0.49197582246E+02 -0.23314172709E+02  0.28614186112E+03  0.29127498594E+03  0.00000000000E+00 0. -1.
         -2    1    1    2    0  501  0.30633673268E+02 -0.31164752830E+02 -0.28166909650E+03  0.28503884591E+03  0.00000000000E+00 0.  1.
<mgrwt>
<rscale>  0 0.48557972E+02</rscale>
<asrwt>0</asrwt>
<pdfrwt beam="1">  1        1 0.55047951E-01 0.53956358E+02</pdfrwt>
<pdfrwt beam="2">  1       -1 0.54792227E-01 0.43699700E+02</pdfrwt>
<totfact> 0.25201777E+02</totfact>
</mgrwt>
</event>
<event>
 7    1  0.6493044E-004  0.7203115E+02  0.7546771E-02  0.1514369E+00
          2   -1    0    0  503    0  0.00000000000E+00  0.00000000000E+00  0.50390143157E+03  0.50390143157E+03  0.00000000000E+00 0. -1.
         -2   -1    0    0    0  501 -0.00000000000E+00 -0.00000000000E+00 -0.81061430787E+03  0.81061430787E+03  0.00000000000E+00 0.  1.
         25    2    1    2    0    0  0.11191106217E+02 -0.92208632736E+02  0.51654447049E+01  0.15581529654E+03  0.12499620797E+03 0.  0.
          4    1    3    3  502    0 -0.34068698040E+02 -0.53703993720E+02  0.50372295868E+02  0.81140472137E+02  0.12700000000E+01 0.  1.
         -4    1    3    3    0  502  0.45259804256E+02 -0.38504639016E+02 -0.45206851163E+02  0.74674824400E+02  0.12700000000E+01 0.  1.
          1    1    1    2  503    0 -0.24350589661E+01  0.21166549350E+02  0.42139923161E+03  0.42193751282E+03  0.00000000000E+00 0. -1.
         -1    1    1    2    0  501 -0.87560472507E+01  0.71042083385E+02 -0.73327755262E+03  0.73676293008E+03  0.00000000000E+00 0.  1.
<mgrwt>
<rscale>  0 0.39175338E+02</rscale>
<asrwt>0</asrwt>
<pdfrwt beam="1">  1        2 0.77523298E-01 0.21306157E+02</pdfrwt>
<pdfrwt beam="2">  1       -2 0.12470989E+00 0.72031155E+02</pdfrwt>
<totfact> 0.34338778E+01</totfact>
</mgrwt>
</event>
<event>
 7    1  0.6493044E-004  0.1845658E+03  0.7546771E-02  0.1217755E+00
          1   -1    0    0  503    0  0.00000000000E+00  0.00000000000E+00  0.16845450308E+04  0.16845450308E+04  0.00000000000E+00 0. -1.
         -1   -1    0    0    0  501 -0.00000000000E+00 -0.00000000000E+00 -0.28987948587E+03  0.28987948587E+03  0.00000000000E+00 0.  1.
         25    2    1    2    0    0 -0.41711573712E+02  0.87193193431E+02  0.40575230637E+03  0.43543870582E+03  0.12501769489E+03 0.  0.
          4    1    3    3  502    0 -0.72563962961E+02  0.49323473812E+02  0.13996599498E+03  0.16519814297E+03  0.12700000000E+01 0.  1.
         -4    1    3    3    0  502  0.30852389250E+02  0.37869719619E+02  0.26578631139E+03  0.27024056285E+03  0.12700000000E+01 0.  1.
          2    1    1    2  503    0  0.54001687698E+01  0.10119393093E+03  0.12281492401E+04  0.12323229810E+04  0.00000000000E+00 0. -1.
         -2    1    1    2    0  501  0.36311404942E+02 -0.18838712436E+03 -0.23923600157E+03  0.30666282984E+03  0.00000000000E+00 0.  1.
<mgrwt>
<rscale>  0 0.13676078E+03</rscale>
<asrwt>0</asrwt>
<pdfrwt beam="1">  1        1 0.25916077E+00 0.10133792E+03</pdfrwt>
<pdfrwt beam="2">  1       -1 0.44596845E-01 0.18456578E+03</pdfrwt>
<totfact> 0.30803088E+01</totfact>
</mgrwt>
</event>
<event>
 7    1  0.6493044E-004  0.8835339E+02  0.7546771E-02  0.1451679E+00
         -1   -1    0    0    0  501 -0.00000000000E+00  0.00000000000E+00  0.17266305942E+04  0.17266305942E+04  0.00000000000E+00 0.  1.
          1   -1    0    0  503    0  0.00000000000E+00 -0.00000000000E+00 -0.72013708661E+03  0.72013708661E+03  0.00000000000E+00 0. -1.
         25    2    1    2    0    0 -0.10913893026E+03  0.11285953959E+02 -0.74867943785E+01  0.16648908624E+03  0.12499553949E+03 0.  0.
          4    1    3    3  502    0  0.16678477208E+02  0.21364930988E+02 -0.27560661553E+02  0.38676024141E+02  0.12700000000E+01 0. -1.
         -4    1    3    3    0  502 -0.12581740747E+03 -0.10078977030E+02  0.20073867175E+02  0.12781306210E+03  0.12700000000E+01 0. -1.
          2    1    1    2  503    0  0.24188902278E+02  0.12000250519E+02 -0.63168289598E+03  0.63225974890E+03  0.00000000000E+00 0. -1.
         -2    1    1    2    0  501  0.84950027983E+02 -0.23286204478E+02  0.16456631979E+04  0.16480188456E+04  0.00000000000E+00 0.  1.
<mgrwt>
<rscale>  0 0.48843830E+02</rscale>
<asrwt>0</asrwt>
<pdfrwt beam="2">  1        1 0.11079032E+00 0.27002019E+02</pdfrwt>
<pdfrwt beam="1">  1       -1 0.26563548E+00 0.88353386E+02</pdfrwt>
<totfact> 0.21751206E+00</totfact>
</mgrwt>
</event>
<event>
 7    1  0.6493044E-004  0.1219441E+03  0.7546771E-02  0.1271142E+00
         -2   -1    0    0    0  501 -0.00000000000E+00  0.00000000000E+00  0.43579867329E+03  0.43579867329E+03  0.00000000000E+00 0.  1.
          2   -1    0    0  503    0  0.00000000000E+00 -0.00000000000E+00 -0.34361104449E+03  0.34361104449E+03  0.00000000000E+00 0. -1.
         25    2    1    2    0    0 -0.47667412100E+02  0.19565407962E+03  0.32558664422E+02  0.23924379595E+03  0.12499930490E+03 0.  0.
          4    1    3    3  502    0 -0.26735140762E+02  0.20992618290E+03  0.27979682939E+02  0.21346720023E+03  0.12700000000E+01 0. -1.
         -4    1    3    3    0  502 -0.20932271338E+02 -0.14272103281E+02  0.45789814834E+01  0.25776595719E+02  0.12700000000E+01 0. -1.
          1    1    1    2  503    0  0.12707708436E+02 -0.11324037953E+03 -0.21934601209E+03  0.24717917071E+03  0.00000000000E+00 0. -1.
         -1    1    1    2    0  501  0.34959703664E+02 -0.82413700084E+02  0.27897497647E+03  0.29298675113E+03  0.00000000000E+00 0.  1.
<mgrwt>
<rscale>  0 0.10448294E+03</rscale>
<asrwt>0</asrwt>
<pdfrwt beam="2">  1        2 0.52863237E-01 0.12194408E+03</pdfrwt>
<pdfrwt beam="1">  1       -2 0.67045950E-01 0.89522058E+02</pdfrwt>
<totfact> 0.20197251E+02</totfact>
</mgrwt>
</event>
<event>
 7    1  0.6493044E-004  0.7559995E+02  0.7546771E-02  0.1413137E+00
         -2   -1    0    0    0  501 -0.00000000000E+00  0.00000000000E+00  0.32954991062E+02  0.32954991062E+02  0.00000000000E+00 0.  1.
          2   -1    0    0  503    0  0.00000000000E+00 -0.00000000000E+00 -0.66264245578E+03  0.66264245578E+03  0.00000000000E+00 0. -1.
         25    2    1    2    0    0  0.80514688765E+02  0.32289442438E+02 -0.20966647858E+03  0.25904836413E+03  0.12498319695E+03 0.  0.
          4    1    3    3  502    0 -0.19997145055E+02  0.46880483160E+01 -0.11938883937E+03  0.12114937669E+03  0.12700000000E+01 0.  1.
         -4    1    3    3    0  502  0.10051183382E+03  0.27601394122E+02 -0.90277639216E+02  0.13789898744E+03  0.12700000000E+01 0.  1.
          1    1    1    2  503    0 -0.47358653205E+02 -0.58436005699E+02 -0.30115011376E+03  0.31040135279E+03  0.00000000000E+00 0. -1.
         -1    1    1    2    0  501 -0.33156035560E+02  0.26146563261E+02 -0.11887087238E+03  0.12614772992E+03  0.00000000000E+00 0.  1.
<mgrwt>
<rscale>  0 0.56499744E+02</rscale>
<asrwt>0</asrwt>
<pdfrwt beam="2">  1        2 0.10194500E+00 0.75599947E+02</pdfrwt>
<pdfrwt beam="1">  1       -2 0.50699984E-02 0.42225176E+02</pdfrwt>
<totfact> 0.74428634E+03</totfact>
</mgrwt>
</event>
<event>
 7    1  0.6493044E-004  0.1120317E+03  0.7546771E-02  0.1333944E+00
          2   -1    0    0  503    0  0.00000000000E+00  0.00000000000E+00  0.19390884310E+04  0.19390884310E+04  0.00000000000E+00 0. -1.
          1   -1    0    0  502    0 -0.00000000000E+00 -0.00000000000E+00 -0.79248367931E+02  0.79248367931E+02  0.00000000000E+00 0. -1.
         25    2    1    2    0    0  0.88759595063E+02  0.50846170451E+01  0.11985428799E+03  0.19466338665E+03  0.12499865881E+03 0.  0.
          4    1    3    3  501    0 -0.24147707125E+02 -0.19793964921E+02  0.49202200850E+01  0.31634384337E+02  0.12700000000E+01 0. -1.
         -4    1    3    3    0  501  0.11290730219E+03  0.24878581966E+02  0.11493406791E+03  0.16302900231E+03  0.12700000000E+01 0. -1.
          2    1    1    2  502    0 -0.12385307019E+03  0.36907715474E+02  0.59461534776E+02  0.14225834448E+03  0.00000000000E+00 0. -1.
          1    1    1    2  503    0  0.35093475130E+02 -0.41992332519E+02  0.16805242403E+04  0.16814150678E+04  0.00000000000E+00 0. -1.
<mgrwt>
<rscale>  0 0.78300823E+02</rscale>
<asrwt>0</asrwt>
<pdfrwt beam="1">  1        2 0.29832126E+00 0.54725753E+02</pdfrwt>
<pdfrwt beam="2">  1        1 0.12192058E-01 0.11203170E+03</pdfrwt>
<totfact> 0.60387027E+02</totfact>
</mgrwt>
</event>
<event>
 7    1  0.6493044E-004  0.1892049E+03  0.7546771E-02  0.1259021E+00
          2   -1    0    0  503    0  0.00000000000E+00  0.00000000000E+00  0.28254440382E+03  0.28254440382E+03  0.00000000000E+00 0. -1.
          1   -1    0    0  502    0 -0.00000000000E+00 -0.00000000000E+00 -0.66933484953E+03  0.66933484953E+03  0.00000000000E+00 0. -1.
         25    2    1    2    0    0  0.19378952709E+01 -0.12978947733E+03 -0.39407773055E+03  0.43332511749E+03  0.12499734344E+03 0.  0.
          4    1    3    3  501    0 -0.10056256252E+01 -0.33951665845E+02 -0.28930627193E+03  0.29129617020E+03  0.12700000000E+01 0. -1.
         -4    1    3    3    0  501  0.29435208961E+01 -0.95837811486E+02 -0.10477145862E+03  0.14202894729E+03  0.12700000000E+01 0. -1.
          2    1    1    2  502    0 -0.62088559632E+01 -0.64635544370E+02 -0.21418898204E+03  0.22381515479E+03  0.00000000000E+00 0. -1.
          1    1    1    2  503    0  0.42709606923E+01  0.19442502170E+03  0.22147626688E+03  0.29473898107E+03  0.00000000000E+00 0. -1.
<mgrwt>
<rscale>  0 0.11084066E+03</rscale>
<asrwt>0</asrwt>
<pdfrwt beam="1">  1        2 0.43468370E-01 0.18920486E+03</pdfrwt>
<pdfrwt beam="2">  1        1 0.10297459E+00 0.64933069E+02</pdfrwt>
<totfact> 0.50498101E+02</totfact>
</mgrwt>
</event>
<event>
 7    1  0.6493044E-004  0.4573597E+03  0.7546771E-02  0.1171629E+00
          2   -1    0    0  503    0  0.00000000000E+00  0.00000000000E+00  0.26764030175E+04  0.26764030175E+04  0.00000000000E+00 0. -1.
          1   -1    0    0  502    0 -0.00000000000E+00 -0.00000000000E+00 -0.39305053712E+03  0.39305053712E+03  0.00000000000E+00 0. -1.
         25    2    1    2    0    0  0.26605635535E+03  0.39167372792E+03  0.29338676947E+03  0.57086455723E+03  0.12496500644E+03 0.  0.
          4    1    3    3  501    0  0.43930606297E+02  0.91908679666E+02  0.12574828269E+03  0.16183740936E+03  0.12700000000E+01 0.  1.
         -4    1    3    3    0  501  0.22212574905E+03  0.29976504825E+03  0.16763848678E+03  0.40902714787E+03  0.12700000000E+01 0.  1.
          2    1    1    2  502    0 -0.30276260173E+03 -0.33466092663E+03 -0.53095212343E+02  0.45440315844E+03  0.00000000000E+00 0. -1.
          1    1    1    2  503    0  0.36706246381E+02 -0.57012801287E+02  0.20430609233E+04  0.20441858390E+04  0.00000000000E+00 0. -1.
<mgrwt>
<rscale>  0 0.17610296E+03</rscale>
<asrwt>0</asrwt>
<pdfrwt beam="1">  1        2 0.41175430E+00 0.67807139E+02</pdfrwt>
<pdfrwt beam="2">  1        1 0.60469315E-01 0.45735971E+03</pdfrwt>
<totfact> 0.32769887E+01</totfact>
</mgrwt>
</event>
<event>
 7    1  0.6493044E-004  0.1577604E+03  0.7546771E-02  0.1253004E+00
          2   -1    0    0  503    0  0.00000000000E+00  0.00000000000E+00  0.14277054147E+04  0.14277054147E+04  0.00000000000E+00 0. -1.
          1   -1    0    0  502    0 -0.00000000000E+00 -0.00000000000E+00 -0.69681199303E+03  0.69681199303E+03  0.00000000000E+00 0. -1.
         25    2    1    2    0    0 -0.85822972242E+02  0.18554322953E+02 -0.43691199480E+03  0.46284647537E+03  0.12499969236E+03 0.  0.
          4    1    3    3  501    0 -0.56282039696E+02  0.26773672551E+02 -0.42559608276E+03  0.43013734562E+03  0.12700000000E+01 0.  1.
         -4    1    3    3    0  501 -0.29540932546E+02 -0.82193495985E+01 -0.11315912043E+02  0.32709129748E+02  0.12700000000E+01 0.  1.
          2    1    1    2  502    0 -0.70863263487E+02 -0.42538897583E+02 -0.23542723851E+03  0.24951381636E+03  0.00000000000E+00 0. -1.
          1    1    1    2  503    0  0.15668623573E+03  0.23984574630E+02  0.14032326550E+04  0.14121571161E+04  0.00000000000E+00 0. -1.
<mgrwt>
<rscale>  0 0.11418858E+03</rscale>
<asrwt>0</asrwt>
<pdfrwt beam="1">  1        2 0.21964699E+00 0.15776044E+03</pdfrwt>
<pdfrwt beam="2">  1        1 0.10720185E+00 0.82650831E+02</pdfrwt>
<totfact> 0.63647871E+01</totfact>
</mgrwt>
</event>
<event>
 7    1  0.6493044E-004  0.9729045E+02  0.7546771E-02  0.1299044E+00
          2   -1    0    0  503    0  0.00000000000E+00  0.00000000000E+00  0.77828328458E+02  0.77828328458E+02  0.00000000000E+00 0. -1.
          1   -1    0    0  502    0 -0.00000000000E+00 -0.00000000000E+00 -0.11567514027E+04  0.11567514027E+04  0.00000000000E+00 0. -1.
         25    2    1    2    0    0  0.58401204174E+02 -0.48217781579E+02 -0.36790789216E+03  0.39587320451E+03  0.12499488719E+03 0.  0.
          4    1    3    3  501    0  0.40915433119E+02  0.53890950354E+01 -0.31767130158E+03  0.32034322806E+03  0.12700000000E+01 0. -1.
         -4    1    3    3    0  501  0.17485771055E+02 -0.53606876615E+02 -0.50236590582E+02  0.75529976453E+02  0.12700000000E+01 0. -1.
          2    1    1    2  502    0 -0.87361338509E+02 -0.44662481255E+02 -0.73252494276E+03  0.73906666307E+03  0.00000000000E+00 0. -1.
          1    1    1    2  503    0  0.28960134335E+02  0.92880262835E+02  0.21509760698E+02  0.99639863560E+02  0.00000000000E+00 0. -1.
<mgrwt>
<rscale>  0 0.91591047E+02</rscale>
<asrwt>0</asrwt>
<pdfrwt beam="1">  1        2 0.11973590E-01 0.97290455E+02</pdfrwt>
<pdfrwt beam="2">  1        1 0.17796173E+00 0.86225518E+02</pdfrwt>
<totfact> 0.88245007E+02</totfact>
</mgrwt>
</event>
<event>
 7    1  0.6493044E-004  0.7096293E+02  0.7546771E-02  0.1421437E+00
          2   -1    0    0  503    0  0.00000000000E+00  0.00000000000E+00  0.12675226695E+02  0.12675226695E+02  0.00000000000E+00 0. -1.
         -2   -1    0    0    0  501 -0.00000000000E+00 -0.00000000000E+00 -0.14411961235E+04  0.14411961235E+04  0.00000000000E+00 0.  1.
         25    2    1    2    0    0  0.26119168824E+02 -0.53039275762E+02 -0.98370163001E+03  0.99337472793E+03  0.12501630870E+03 0.  0.
          4    1    3    3  502    0 -0.14512425681E+02 -0.66806976603E+02 -0.27494875320E+03  0.28332351192E+03  0.12700000000E+01 0.  1.
         -4    1    3    3    0  502  0.40631594505E+02  0.13767700841E+02 -0.70875287681E+03  0.71005121600E+03  0.12700000000E+01 0.  1.
          3    1    1    2  503    0  0.90400840106E+01  0.76363095639E+02 -0.29327864319E+03  0.30319203163E+03  0.00000000000E+00 0. -1.
         -3    1    1    2    0  501 -0.35159252834E+02 -0.23323819877E+02 -0.15154062364E+03  0.15730459067E+03  0.00000000000E+00 0.  1.
<mgrwt>
<rscale>  0 0.54718146E+02</rscale>
<asrwt>0</asrwt>
<pdfrwt beam="1">  1        2 0.19500338E-02 0.70962934E+02</pdfrwt>
<pdfrwt beam="2">  1       -2 0.22172260E+00 0.42192104E+02</pdfrwt>
<totfact> 0.59078591E+02</totfact>
</mgrwt>
</event>
<event>
 7    1  0.6493044E-004  0.6521872E+02  0.7546771E-02  0.1385261E+00
          2   -1    0    0  503    0  0.00000000000E+00  0.00000000000E+00  0.23100076226E+04  0.23100076226E+04  0.00000000000E+00 0. -1.
         -2   -1    0    0    0  501 -0.00000000000E+00 -0.00000000000E+00 -0.97571841279E+01  0.97571841279E+01  0.00000000000E+00 0.  1.
         25    2    1    2    0    0  0.11924268025E+01 -0.18036843398E+02  0.78970002388E+03  0.79973663366E+03  0.12500322355E+03 0.  0.
          4    1    3    3  502    0 -0.15597562349E+02  0.22025415529E+02  0.37167527038E+02  0.45950417262E+02  0.12700000000E+01 0. -1.
         -4    1    3    3    0  502  0.16789989152E+02 -0.40062258927E+02  0.75253249684E+03  0.75378621640E+03  0.12700000000E+01 0. -1.
          1    1    1    2  503    0 -0.38933995390E+02  0.66025561474E+02  0.12529295945E+04  0.12552720022E+04  0.00000000000E+00 0. -1.
         -1    1    1    2    0  501  0.37741568587E+02 -0.47988718076E+02  0.25762082012E+03  0.26475617089E+03  0.00000000000E+00 0.  1.
<mgrwt>
<rscale>  0 0.63100964E+02</rscale>
<asrwt>0</asrwt>
<pdfrwt beam="1">  1        2 0.35538535E+00 0.65218725E+02</pdfrwt>
<pdfrwt beam="2">  1       -2 0.15011071E-02 0.61051970E+02</pdfrwt>
<totfact> 0.58233750E+03</totfact>
</mgrwt>
</event>
<event>
 7    1  0.6493044E-004  0.9158004E+02  0.7546771E-02  0.1477423E+00
         -2   -1    0    0    0  501 -0.00000000000E+00  0.00000000000E+00  0.11503830333E+03  0.11503830333E+03  0.00000000000E+00 0.  1.
          2   -1    0    0  503    0  0.00000000000E+00 -0.00000000000E+00 -0.92389038403E+03  0.92389038403E+03  0.00000000000E+00 0. -1.
         25    2    1    2    0    0  0.17015688470E+02  0.92136187672E+02 -0.57512450671E+02  0.16649742149E+03  0.12504038807E+03 0.  0.
          4    1    3    3  502    0  0.35487174519E+02  0.61003247182E+02  0.26194382177E+02  0.75289403503E+02  0.12700000000E+01 0.  1.
         -4    1    3    3    0  502 -0.18471486050E+02  0.31132940489E+02 -0.83706832848E+02  0.91208017991E+02  0.12700000000E+01 0.  1.
          1    1    1    2  503    0 -0.36977374518E+02 -0.83798531799E+02 -0.80727695503E+03  0.81245652332E+03  0.00000000000E+00 0. -1.
         -1    1    1    2    0  501  0.19961686048E+02 -0.83376558729E+01  0.55937325000E+02  0.59974742546E+02  0.00000000000E+00 0.  1.
<mgrwt>
<rscale>  0 0.44510093E+02</rscale>
<asrwt>0</asrwt>
<pdfrwt beam="2">  1        2 0.14213699E+00 0.91580042E+02</pdfrwt>
<pdfrwt beam="1">  1       -2 0.17698200E-01 0.21632971E+02</pdfrwt>
<totfact> 0.70622545E+02</totfact>
</mgrwt>
</event>
<event>
 7    1  0.6493044E-004  0.3968987E+02  0.7546771E-02  0.1536341E+00
          2   -1    0    0  503    0  0.00000000000E+00  0.00000000000E+00  0.28587632136E+02  0.28587632136E+02  0.00000000000E+00 0. -1.
          1   -1    0    0  502    0 -0.00000000000E+00 -0.00000000000E+00 -0.12761796306E+04  0.12761796306E+04  0.00000000000E+00 0. -1.
         25    2    1    2    0    0 -0.28078933172E+02 -0.25362781969E+02 -0.58821460188E+03  0.60253977476E+03  0.12500426036E+03 0.  0.
          4    1    3    3  501    0 -0.46182670889E+02  0.17529033343E+02 -0.94555564253E+02  0.10668867668E+03  0.12700000000E+01 0.  1.
         -4    1    3    3    0  501  0.18103737717E+02 -0.42891815312E+02 -0.49365903762E+03  0.49585109808E+03  0.12700000000E+01 0.  1.
          2    1    1    2  502    0  0.29974606621E+02 -0.14777694419E+02 -0.66115872952E+03  0.66200281187E+03  0.00000000000E+00 0. -1.
          1    1    1    2  503    0 -0.18956734495E+01  0.40140476387E+02  0.17813329202E+01  0.40224676125E+02  0.00000000000E+00 0. -1.
<mgrwt>
<rscale>  0 0.36419943E+02</rscale>
<asrwt>0</asrwt>
<pdfrwt beam="1">  1        2 0.43980987E-02 0.39689870E+02</pdfrwt>
<pdfrwt beam="2">  1        1 0.19633526E+00 0.33419415E+02</pdfrwt>
<totfact> 0.25399533E+03</totfact>
</mgrwt>
</event>
<event>
 7    1  0.6493044E-004  0.9349838E+02  0.7546771E-02  0.1376926E+00
          2   -1    0    0  503    0  0.00000000000E+00  0.00000000000E+00  0.15628928790E+03  0.15628928790E+03  0.00000000000E+00 0. -1.
          1   -1    0    0  502    0 -0.00000000000E+00 -0.00000000000E+00 -0.30693902658E+03  0.30693902658E+03  0.00000000000E+00 0. -1.
         25    2    1    2    0    0  0.70353849735E+02 -0.10462489164E+03  0.44154866756E+01  0.17759506913E+03  0.12499791972E+03 0.  0.
          4    1    3    3  501    0  0.14240294029E+02 -0.93764879632E+02  0.47434452350E+02  0.10604847380E+03  0.12700000000E+01 0.  1.
         -4    1    3    3    0  501  0.56113555706E+02 -0.10860012005E+02 -0.43018965674E+02  0.71546595324E+02  0.12700000000E+01 0.  1.
          2    1    1    2  502    0 -0.35108725298E+02  0.29061576365E+02 -0.18988342631E+03  0.19527650499E+03  0.00000000000E+00 0. -1.
          1    1    1    2  503    0 -0.35245124437E+02  0.75563315272E+02  0.34818200954E+02  0.90356740364E+02  0.00000000000E+00 0. -1.
<mgrwt>
<rscale>  0 0.65278700E+02</rscale>
<asrwt>0</asrwt>
<pdfrwt beam="1">  1        2 0.24044506E-01 0.93498376E+02</pdfrwt>
<pdfrwt beam="2">  1        1 0.47221388E-01 0.45576286E+02</pdfrwt>
<totfact> 0.25196428E+03</totfact>
</mgrwt>
</event>
<event>
 7    1  0.6493044E-004  0.4250361E+02  0.7546771E-02  0.1506931E+00
          2   -1    0    0  503    0  0.00000000000E+00  0.00000000000E+00  0.20522054196E+04  0.20522054196E+04  0.00000000000E+00 0. -1.
          1   -1    0    0  502    0 -0.00000000000E+00 -0.00000000000E+00 -0.33720054205E+03  0.33720054205E+03  0.00000000000E+00 0. -1.
         25    2    1    2    0    0 -0.36059085294E+02 -0.91504163664E+01  0.57409523684E+03  0.58872214516E+03  0.12499774193E+03 0.  0.
          4    1    3    3  501    0  0.33726517421E+02  0.31265774894E+02  0.28059237999E+03  0.28433909908E+03  0.12700000000E+01 0. -1.
         -4    1    3    3    0  501 -0.69785602715E+02 -0.40416191260E+02  0.29350285685E+03  0.30438304608E+03  0.12700000000E+01 0. -1.
          2    1    1    2  502    0  0.31553221608E+02 -0.28554287478E+02 -0.32826833735E+03  0.33101518761E+03  0.00000000000E+00 0. -1.
          1    1    1    2  503    0  0.45058636860E+01  0.37704703844E+02  0.14691779781E+04  0.14696686289E+04  0.00000000000E+00 0. -1.
<mgrwt>
<rscale>  0 0.40174480E+02</rscale>
<asrwt>0</asrwt>
<pdfrwt beam="1">  1        2 0.31572390E+00 0.37972984E+02</pdfrwt>
<pdfrwt beam="2">  1        1 0.51877008E-01 0.42503608E+02</pdfrwt>
<totfact> 0.90692484E+01</totfact>
</mgrwt>
</event>
<event>
 7    1  0.6493044E-004  0.1353344E+03  0.7546771E-02  0.1257193E+00
          1   -1    0    0  502    0 -0.00000000000E+00  0.00000000000E+00  0.23138118451E+04  0.23138118451E+04  0.00000000000E+00 0. -1.
          2   -1    0    0  503    0  0.00000000000E+00 -0.00000000000E+00 -0.22956880057E+03  0.22956880057E+03  0.00000000000E+00 0. -1.
         25    2    1    2    0    0  0.54604247924E+02  0.13937048441E+03  0.44778916682E+03  0.48841139358E+03  0.12499918255E+03 0.  0.
          4    1    3    3  501    0  0.20108823442E+02  0.23954517466E+02  0.28060802985E+03  0.28234847796E+03  0.12700000000E+01 0.  1.
         -4    1    3    3    0  501  0.34495424481E+02  0.11541596694E+03  0.16718113697E+03  0.20606291562E+03  0.12700000000E+01 0.  1.
          2    1    1    2  502    0 -0.92032440892E+02 -0.85741529922E+01  0.18223036255E+04  0.18246462643E+04  0.00000000000E+00 0. -1.
          1    1    1    2  503    0  0.37428192968E+02 -0.13079633142E+03 -0.18584974781E+03  0.23032298778E+03  0.00000000000E+00 0. -1.
<mgrwt>
<rscale>  0 0.11184407E+03</rscale>
<asrwt>0</asrwt>
<pdfrwt beam="2">  1        2 0.35318279E-01 0.13533445E+03</pdfrwt>
<pdfrwt beam="1">  1        1 0.35597104E+00 0.92430981E+02</pdfrwt>
<totfact> 0.48096540E+01</totfact>
</mgrwt>
</event>
<event>
 7    1  0.6493044E-004  0.5813860E+02  0.7546771E-02  0.1434358E+00
          2   -1    0    0  503    0  0.00000000000E+00  0.00000000000E+00  0.25675806504E+03  0.25675806504E+03  0.00000000000E+00 0. -1.
          1   -1    0    0  502    0 -0.00000000000E+00 -0.00000000000E+00 -0.11274751153E+04  0.11274751153E+04  0.00000000000E+00 0. -1.
         25    2    1    2    0    0 -0.59000902082E+02 -0.85104683450E+02 -0.92046747018E+02  0.18660488702E+03  0.12499946653E+03 0.  0.
          4    1    3    3  501    0 -0.16724028990E+02 -0.77171165818E+01  0.30482311555E+02  0.35637497832E+02  0.12700000000E+01 0. -1.
         -4    1    3    3    0  501 -0.42276873092E+02 -0.77387566868E+02 -0.12252905857E+03  0.15096738919E+03  0.12700000000E+01 0. -1.
          2    1    1    2  502    0  0.26505018084E+02  0.38425119605E+02 -0.98372489226E+03  0.98483179755E+03  0.00000000000E+00 0. -1.
          1    1    1    2  503    0  0.32495883998E+02  0.46679563845E+02  0.20505458899E+03  0.21279649580E+03  0.00000000000E+00 0. -1.
<mgrwt>
<rscale>  0 0.52095101E+02</rscale>
<asrwt>0</asrwt>
<pdfrwt beam="1">  1        2 0.39501240E-01 0.58138602E+02</pdfrwt>
<pdfrwt beam="2">  1        1 0.17345771E+00 0.46679822E+02</pdfrwt>
<totfact> 0.25461970E+02</totfact>
</mgrwt>
</event>
<event>
 7    1  0.6493044E-004  0.6595072E+02  0.7546771E-02  0.1473487E+00
          2   -1    0    0  503    0  0.00000000000E+00  0.00000000000E+00  0.64426627351E+03  0.64426627351E+03  0.00000000000E+00 0. -1.
          1   -1    0    0  502    0 -0.00000000000E+00 -0.00000000000E+00 -0.16903900536E+04  0.16903900536E+04  0.00000000000E+00 0. -1.
         25    2    1    2    0    0 -0.76273926199E+02  0.37477712281E+02 -0.14548892851E+04  0.14627202711E+04  0.12500187544E+03 0.  0.
          4    1    3    3  501    0 -0.10608906597E+03  0.18689656901E+02 -0.84932813851E+03  0.85613322150E+03  0.12700000000E+01 0.  1.
         -4    1    3    3    0  501  0.29815139776E+02  0.18788055380E+02 -0.60556114658E+03  0.60658704959E+03  0.12700000000E+01 0.  1.
          2    1    1    2  502    0  0.29541640092E+02  0.90341631893E+01 -0.22884747480E+03  0.23092312861E+03  0.00000000000E+00 0. -1.
          1    1    1    2  503    0  0.46732286107E+02 -0.46511875470E+02  0.63761297979E+03  0.64101292742E+03  0.00000000000E+00 0. -1.
<mgrwt>
<rscale>  0 0.45137117E+02</rscale>
<asrwt>0</asrwt>
<pdfrwt beam="1">  1        2 0.99117890E-01 0.65950724E+02</pdfrwt>
<pdfrwt beam="2">  1        1 0.26006000E+00 0.30892145E+02</pdfrwt>
<totfact> 0.44888349E+01</totfact>
</mgrwt>
</event>
<event>
 7    1  0.6493044E-004  0.8248683E+02  0.7546771E-02  0.1404671E+00
          1   -1    0    0  502    0 -0.00000000000E+00  0.00000000000E+00  0.28661815301E+03  0.28661815301E+03  0.00000000000E+00 0. -1.
          2   -1    0    0  503    0  0.00000000000E+00 -0.00000000000E+00 -0.57364747110E+03  0.57364747110E+03  0.00000000000E+00 0. -1.
         25    2    1    2    0    0  0.91422621860E+02 -0.17541408799E+02 -0.35443859356E+03  0.38719132814E+03  0.12499844467E+03 0.  0.
          4    1    3    3  501    0  0.98706104335E+02 -0.50207945673E+01 -0.13523439457E+03  0.16750539629E+03  0.12700000000E+01 0. -1.
         -4    1    3    3    0  501 -0.72834824751E+01 -0.12520614232E+02 -0.21920419899E+03  0.21968593185E+03  0.12700000000E+01 0. -1.
          2    1    1    2  502    0 -0.65667629338E+02  0.49887320995E+02  0.26172401573E+03  0.27440926141E+03  0.00000000000E+00 0. -1.
          1    1    1    2  503    0 -0.25754992522E+02 -0.32345912196E+02 -0.19431474026E+03  0.19866503456E+03  0.00000000000E+00 0. -1.
<mgrwt>
<rscale>  0 0.58400223E+02</rscale>
<asrwt>0</asrwt>
<pdfrwt beam="2">  1        2 0.88253457E-01 0.41347040E+02</pdfrwt>
<pdfrwt beam="1">  1        1 0.44095101E-01 0.82486826E+02</pdfrwt>
<totfact> 0.69792708E+02</totfact>
</mgrwt>
</event>
<event>
 7    1  0.6493044E-004  0.7084364E+02  0.7546771E-02  0.1501874E+00
         -1   -1    0    0    0  501 -0.00000000000E+00  0.00000000000E+00  0.91067939199E+03  0.91067939199E+03  0.00000000000E+00 0.  1.
          1   -1    0    0  503    0  0.00000000000E+00 -0.00000000000E+00 -0.15442312549E+03  0.15442312549E+03  0.00000000000E+00 0. -1.
         25    2    1    2    0    0  0.55745381693E+02  0.12099196270E+02  0.88319938033E+02  0.16334211359E+03  0.12500518585E+03 0.  0.
          4    1    3    3  502    0  0.33898191974E+02 -0.43945626193E+02 -0.11462238878E+01  0.55526860256E+02  0.12700000000E+01 0.  1.
         -4    1    3    3    0  502  0.21847189719E+02  0.56044822463E+02  0.89466161921E+02  0.10781525334E+03  0.12700000000E+01 0.  1.
          2    1    1    2  503    0  0.15581021939E+02 -0.17702900852E+02 -0.11407288449E+03  0.11648512317E+03  0.00000000000E+00 0. -1.
         -2    1    1    2    0  501 -0.71326403633E+02  0.56037045824E+01  0.78200921296E+03  0.78527528072E+03  0.00000000000E+00 0.  1.
<mgrwt>
<rscale>  0 0.40874322E+02</rscale>
<asrwt>0</asrwt>
<pdfrwt beam="2">  1        1 0.23757404E-01 0.23583065E+02</pdfrwt>
<pdfrwt beam="1">  1       -1 0.14010452E+00 0.70843641E+02</pdfrwt>
<totfact> 0.93364535E+01</totfact>
</mgrwt>
</event>
<event>
 7    1  0.6493044E-004  0.5268719E+02  0.7546771E-02  0.1472520E+00
         -2   -1    0    0    0  501 -0.00000000000E+00  0.00000000000E+00  0.12316743715E+03  0.12316743715E+03  0.00000000000E+00 0.  1.
          2   -1    0    0  503    0  0.00000000000E+00 -0.00000000000E+00 -0.18361816848E+03  0.18361816848E+03  0.00000000000E+00 0. -1.
         25    2    1    2    0    0 -0.57372192580E+02  0.38107303279E+02  0.47549961032E+02  0.15041126861E+03  0.12497526110E+03 0.  0.
          4    1    3    3  502    0 -0.77344537024E+02 -0.15802681506E+02  0.48938684895E+02  0.92889773008E+02  0.12700000000E+01 0.  1.
         -4    1    3    3    0  502  0.19972344444E+02  0.53909984786E+02 -0.13887238630E+01  0.57521495601E+02  0.12700000000E+01 0.  1.
          1    1    1    2  503    0  0.98925404259E+01 -0.37659054072E+02 -0.10116964238E+03  0.10840370496E+03  0.00000000000E+00 0. -1.
         -1    1    1    2    0  501  0.47479652154E+02 -0.44824920750E+00 -0.68310499876E+01  0.47970632057E+02  0.00000000000E+00 0.  1.
<mgrwt>
<rscale>  0 0.45293104E+02</rscale>
<asrwt>0</asrwt>
<pdfrwt beam="2">  1        2 0.28248949E-01 0.38936701E+02</pdfrwt>
<pdfrwt beam="1">  1       -2 0.18948836E-01 0.52687188E+02</pdfrwt>
<totfact> 0.38478070E+03</totfact>
</mgrwt>
</event>
<event>
 7    1  0.6493044E-004  0.9873200E+02  0.7546771E-02  0.1398587E+00
         -2   -1    0    0    0  501  0.00000000000E+00  0.00000000000E+00  0.29667610797E+03  0.29667610797E+03  0.00000000000E+00 0.  1.
         -1   -1    0    0    0  502 -0.00000000000E+00 -0.00000000000E+00 -0.11491612780E+04  0.11491612780E+04  0.00000000000E+00 0.  1.
         25    2    1    2    0    0  0.11594623138E+03  0.30571378549E+02 -0.35835212802E+03  0.39801991122E+03  0.12500185724E+03 0.  0.
          4    1    3    3  503    0  0.19014162308E+02 -0.10253467558E+01  0.57338141563E+01  0.19926846941E+02  0.12700000000E+01 0. -1.
         -4    1    3    3    0  503  0.96932069076E+02  0.31596725305E+02 -0.36408594218E+03  0.37809306428E+03  0.12700000000E+01 0. -1.
         -2    1    1    2    0  502 -0.83686608122E+02 -0.47093247179E+02 -0.76678122540E+03  0.77277077451E+03  0.00000000000E+00 0.  1.
         -1    1    1    2    0  501 -0.32259623262E+02  0.16521868630E+02  0.27264818337E+03  0.27504670027E+03  0.00000000000E+00 0.  1.
<mgrwt>
<rscale>  0 0.59820402E+02</rscale>
<asrwt>0</asrwt>
<pdfrwt beam="1">  1       -2 0.45642477E-01 0.36244385E+02</pdfrwt>
<pdfrwt beam="2">  1       -1 0.17679405E+00 0.98731996E+02</pdfrwt>
<totfact> 0.88739378E+00</totfact>
</mgrwt>
</event>
<event>
 7    1  0.6493044E-004  0.9890467E+02  0.7546771E-02  0.1346069E+00
          1   -1    0    0  502    0 -0.00000000000E+00  0.00000000000E+00  0.18579574731E+03  0.18579574731E+03  0.00000000000E+00 0. -1.
          2   -1    0    0  503    0  0.00000000000E+00 -0.00000000000E+00 -0.16749285692E+04  0.16749285692E+04  0.00000000000E+00 0. -1.
         25    2    1    2    0    0 -0.41296746957E+02  0.54013907506E+02 -0.51069964983E+03  0.53015472618E+03  0.12500791113E+03 0.  0.
          4    1    3    3  501    0 -0.29032762785E+02  0.52629651577E+01 -0.45156662771E+03  0.45253136055E+03  0.12700000000E+01 0.  1.
         -4    1    3    3    0  501 -0.12263984172E+02  0.48750942348E+02 -0.59133022116E+02  0.77623365633E+02  0.12700000000E+01 0.  1.
          2    1    1    2  502    0  0.91249352919E+01 -0.99616053173E+02  0.16112156143E+03  0.18964909715E+03  0.00000000000E+00 0. -1.
          1    1    1    2  503    0  0.32171811665E+02  0.45602145667E+02 -0.11395547335E+04  0.11409204932E+04  0.00000000000E+00 0. -1.
<mgrwt>
<rscale>  0 0.74294781E+02</rscale>
<asrwt>0</asrwt>
<pdfrwt beam="2">  1        2 0.25768133E+00 0.55808433E+02</pdfrwt>
<pdfrwt beam="1">  1        1 0.28583960E-01 0.98904667E+02</pdfrwt>
<totfact> 0.27432921E+02</totfact>
</mgrwt>
</event>
<event>
 7    1  0.6493044E-004  0.9491880E+02  0.7546771E-02  0.1376663E+00
          2   -1    0    0  503    0  0.00000000000E+00  0.00000000000E+00  0.19818274978E+04  0.19818274978E+04  0.00000000000E+00 0. -1.
          1   -1    0    0  502    0 -0.00000000000E+00 -0.00000000000E+00 -0.14593464793E+03  0.14593464793E+03  0.00000000000E+00 0. -1.
         25    2    1    2    0    0 -0.89509531624E+02 -0.84427089462E+02  0.54201062528E+02  0.18358273185E+03  0.12499989827E+03 0.  0.
          4    1    3    3  501    0  0.92384225510E+01 -0.17909853038E+02  0.61064669365E+02  0.64316545552E+02  0.12700000000E+01 0. -1.
         -4    1    3    3    0  501 -0.98747954175E+02 -0.66517236424E+02 -0.68636068370E+01  0.11926618630E+03  0.12700000000E+01 0. -1.
          2    1    1    2  502    0  0.44978706573E+02  0.10631107589E+01 -0.73718583576E+02  0.86363440262E+02  0.00000000000E+00 0. -1.
          1    1    1    2  503    0  0.44530825051E+02  0.83363978703E+02  0.18554103710E+04  0.18578159737E+04  0.00000000000E+00 0. -1.
<mgrwt>
<rscale>  0 0.65349196E+02</rscale>
<asrwt>0</asrwt>
<pdfrwt beam="1">  1        2 0.30489652E+00 0.94918804E+02</pdfrwt>
<pdfrwt beam="2">  1        1 0.22451486E-01 0.44991269E+02</pdfrwt>
<totfact> 0.24033386E+02</totfact>
</mgrwt>
</event>
<event>
 7    1  0.6493044E-004  0.7430696E+02  0.7546771E-02  0.1459439E+00
          2   -1    0    0  503    0  0.00000000000E+00  0.00000000000E+00  0.14999136003E+03  0.14999136003E+03  0.00000000000E+00 0. -1.
          1   -1    0    0  502    0 -0.00000000000E+00 -0.00000000000E+00 -0.52514564805E+03  0.52514564805E+03  0.00000000000E+00 0. -1.
         25    2    1    2    0    0 -0.48168783900E+02  0.89063481280E+02 -0.19999474290E+03  0.25666399678E+03  0.12500389839E+03 0.  0.
          4    1    3    3  501    0 -0.77690369188E+02  0.35049649699E+02 -0.61528543525E+02  0.10512680903E+03  0.12700000000E+01 0. -1.
         -4    1    3    3    0  501  0.29521585288E+02  0.54013831581E+02 -0.13846619938E+03  0.15153718775E+03  0.12700000000E+01 0. -1.
          2    1    1    2  502    0  0.53992954219E+01 -0.29851631473E+02 -0.28497440481E+03  0.28658451404E+03  0.00000000000E+00 0. -1.
          1    1    1    2  503    0  0.42769488478E+02 -0.59211849807E+02  0.10981485969E+03  0.13188849726E+03  0.00000000000E+00 0. -1.
<mgrwt>
<rscale>  0 0.47478155E+02</rscale>
<asrwt>0</asrwt>
<pdfrwt beam="1">  1        2 0.23075594E-01 0.74306959E+02</pdfrwt>
<pdfrwt beam="2">  1        1 0.80791639E-01 0.30335990E+02</pdfrwt>
<totfact> 0.13760662E+03</totfact>
</mgrwt>
</event>
<event>
 7    1  0.6493044E-004  0.9493330E+02  0.7546771E-02  0.1451626E+00
          2   -1    0    0  503    0  0.00000000000E+00  0.00000000000E+00  0.62788560811E+02  0.62788560811E+02  0.00000000000E+00 0. -1.
          1   -1    0    0  502    0 -0.00000000000E+00 -0.00000000000E+00 -0.13269674127E+04  0.13269674127E+04  0.00000000000E+00 0. -1.
         25    2    1    2    0    0  0.31615158125E+02 -0.69641926675E+02 -0.51773271916E+03  0.53808161453E+03  0.12504055035E+03 0.  0.
          4    1    3    3  501    0  0.60600081227E+02 -0.19849293013E+02 -0.41847290125E+03  0.42330549992E+03  0.12700000000E+01 0. -1.
         -4    1    3    3    0  501 -0.28984923102E+02 -0.49792633662E+02 -0.99259817909E+02  0.11477611461E+03  0.12700000000E+01 0. -1.
          2    1    1    2  502    0  0.23084398970E+02 -0.99573002272E+01 -0.75435064639E+03  0.75476945818E+03  0.00000000000E+00 0. -1.
          1    1    1    2  503    0 -0.54699557095E+02  0.79599226902E+02  0.79045136230E+01  0.96904900833E+02  0.00000000000E+00 0. -1.
<mgrwt>
<rscale>  0 0.48853419E+02</rscale>
<asrwt>0</asrwt>
<pdfrwt beam="1">  1        2 0.96597787E-02 0.94933300E+02</pdfrwt>
<pdfrwt beam="2">  1        1 0.20414883E+00 0.25140352E+02</pdfrwt>
<totfact> 0.98610667E+02</totfact>
</mgrwt>
</event>
<event>
 7    1  0.6493044E-004  0.2009489E+03  0.7546771E-02  0.1246533E+00
          1   -1    0    0  502    0 -0.00000000000E+00  0.00000000000E+00  0.15703169269E+03  0.15703169269E+03  0.00000000000E+00 0. -1.
          2   -1    0    0  503    0  0.00000000000E+00 -0.00000000000E+00 -0.15112963379E+04  0.15112963379E+04  0.00000000000E+00 0. -1.
         25    2    1    2    0    0 -0.65934537278E+02  0.22615617988E+03 -0.30658462945E+03  0.40634359486E+03  0.12500800440E+03 0.  0.
          4    1    3    3  501    0 -0.47147084032E+01 -0.33489320171E+01  0.93552264600E+01  0.11071449006E+02  0.12700000000E+01 0.  1.
         -4    1    3    3    0  501 -0.61219828875E+02  0.22950511190E+03 -0.31593985591E+03  0.39527214585E+03  0.12700000000E+01 0.  1.
          2    1    1    2  502    0 -0.36558811913E+02 -0.58780429214E+02  0.86590956990E+02  0.11085882653E+03  0.00000000000E+00 0. -1.
          1    1    1    2  503    0  0.10249334919E+03 -0.16737575067E+03 -0.11342709727E+04  0.11511256092E+04  0.00000000000E+00 0. -1.
<mgrwt>
<rscale>  0 0.11794102E+03</rscale>
<asrwt>0</asrwt>
<pdfrwt beam="2">  1        2 0.23250713E+00 0.20094888E+03</pdfrwt>
<pdfrwt beam="1">  1        1 0.24158721E-01 0.69222002E+02</pdfrwt>
<totfact> 0.36308289E+02</totfact>
</mgrwt>
</event>
<event>
 7    1  0.6493044E-004  0.9341180E+02  0.7546771E-02  0.1294969E+00
          1   -1    0    0  502    0 -0.00000000000E+00  0.00000000000E+00  0.11432465559E+04  0.11432465559E+04  0.00000000000E+00 0. -1.
          2   -1    0    0  503    0  0.00000000000E+00 -0.00000000000E+00 -0.77855132555E+03  0.77855132555E+03  0.00000000000E+00 0. -1.
         25    2    1    2    0    0 -0.23758127570E+02 -0.26941229442E+02  0.33643929330E+03  0.36070319477E+03  0.12500047268E+03 0.  0.
          4    1    3    3  501    0 -0.59152020642E+02  0.22978717182E+02  0.11969605694E+03  0.13548336406E+03  0.12700000000E+01 0.  1.
         -4    1    3    3    0  501  0.35393893071E+02 -0.49919946625E+02  0.21674323637E+03  0.22521983072E+03  0.12700000000E+01 0.  1.
          2    1    1    2  502    0 -0.11705670285E+01  0.11680774603E+03  0.78751400693E+03  0.79613047352E+03  0.00000000000E+00 0. -1.
          1    1    1    2  503    0  0.24928694599E+02 -0.89866516583E+02 -0.75925806992E+03  0.76496421312E+03  0.00000000000E+00 0. -1.
<mgrwt>
<rscale>  0 0.93335877E+02</rscale>
<asrwt>0</asrwt>
<pdfrwt beam="2">  1        2 0.11977713E+00 0.93260016E+02</pdfrwt>
<pdfrwt beam="1">  1        1 0.17588409E+00 0.93411799E+02</pdfrwt>
<totfact> 0.71079062E+01</totfact>
</mgrwt>
</event>
<event>
 7    1  0.6493044E-004  0.6074382E+02  0.7546771E-02  0.1538472E+00
          1   -1    0    0  503    0  0.00000000000E+00  0.00000000000E+00  0.14322139326E+04  0.14322139326E+04  0.00000000000E+00 0. -1.
         -1   -1    0    0    0  501 -0.00000000000E+00 -0.00000000000E+00 -0.96470085275E+01  0.96470085275E+01  0.00000000000E+00 0.  1.
         25    2    1    2    0    0 -0.43937409679E+02  0.11587563734E+02  0.74874411513E+03  0.76046175023E+03  0.12497822218E+03 0.  0.
          4    1    3    3  502    0  0.27087684558E+02 -0.18693788697E+02  0.70255394772E+02  0.77592743122E+02  0.12700000000E+01 0.  1.
         -4    1    3    3    0  502 -0.71025094237E+02  0.30281352431E+02  0.67848872036E+03  0.68286900711E+03  0.12700000000E+01 0.  1.
          2    1    1    2  503    0  0.59984614716E+02 -0.25947712692E+02  0.61989581940E+03  0.62333158488E+03  0.00000000000E+00 0. -1.
         -2    1    1    2    0  501 -0.16047205038E+02  0.14360148957E+02  0.53926989530E+02  0.58067606007E+02  0.00000000000E+00 0.  1.
<mgrwt>
<rscale>  0 0.36167340E+02</rscale>
<asrwt>0</asrwt>
<pdfrwt beam="1">  1        1 0.22034044E+00 0.60743819E+02</pdfrwt>
<pdfrwt beam="2">  1       -1 0.14841563E-02 0.21534314E+02</pdfrwt>
<totfact> 0.64857797E+03</totfact>
</mgrwt>
</event>
<event>
 7    1  0.6493044E-004  0.4019356E+02  0.7546771E-02  0.1605936E+00
          1   -1    0    0  502    0 -0.00000000000E+00  0.00000000000E+00  0.13157012559E+02  0.13157012559E+02  0.00000000000E+00 0. -1.
          2   -1    0    0  503    0  0.00000000000E+00 -0.00000000000E+00 -0.84635843574E+03  0.84635843574E+03  0.00000000000E+00 0. -1.
         25    2    1    2    0    0 -0.50266670334E+00  0.42450626910E+02 -0.68281750805E+03  0.69545245993E+03  0.12494825460E+03 0.  0.
          4    1    3    3  501    0  0.15449216549E+01  0.85404690223E+02 -0.52368028098E+03  0.53060248537E+03  0.12700000000E+01 0.  1.
         -4    1    3    3    0  501 -0.20475883582E+01 -0.42954063313E+02 -0.15913722707E+03  0.16484997456E+03  0.12700000000E+01 0.  1.
          2    1    1    2  502    0 -0.19767637537E+02 -0.35710259670E+02 -0.71418690835E+02  0.82259416118E+02  0.00000000000E+00 0. -1.
          1    1    1    2  503    0  0.20270304241E+02 -0.67403672392E+01 -0.78965224300E+02  0.81803572253E+02  0.00000000000E+00 0. -1.
<mgrwt>
<rscale>  0 0.29301854E+02</rscale>
<asrwt>0</asrwt>
<pdfrwt beam="2">  1        2 0.13020900E+00 0.40193564E+02</pdfrwt>
<pdfrwt beam="1">  1        1 0.20241556E-02 0.21361596E+02</pdfrwt>
<totfact> 0.20022878E+04</totfact>
</mgrwt>
</event>
<event>
 7    1  0.6493044E-004  0.8828245E+02  0.7546771E-02  0.1368845E+00
          2   -1    0    0  503    0  0.00000000000E+00  0.00000000000E+00  0.36602651741E+03  0.36602651741E+03  0.00000000000E+00 0. -1.
          1   -1    0    0  502    0 -0.00000000000E+00 -0.00000000000E+00 -0.15854802164E+04  0.15854802164E+04  0.00000000000E+00 0. -1.
         25    2    1    2    0    0 -0.56394146300E+02 -0.82671265640E+02 -0.85993730977E+02  0.18175372336E+03  0.12499862515E+03 0.  0.
          4    1    3    3  501    0 -0.42732944368E+02  0.19237421590E+02  0.12563836864E+01  0.46897487393E+02  0.12700000000E+01 0.  1.
         -4    1    3    3    0  501 -0.13661201932E+02 -0.10190868723E+03 -0.87250114663E+02  0.13485623597E+03  0.12700000000E+01 0.  1.
          2    1    1    2  502    0  0.80253456724E+02  0.36925877428E+02 -0.14481598718E+04  0.14508518711E+04  0.00000000000E+00 0. -1.
          1    1    1    2  503    0 -0.23859310424E+02  0.45745388212E+02  0.31469990376E+03  0.31890113932E+03  0.00000000000E+00 0. -1.
<mgrwt>
<rscale>  0 0.67489376E+02</rscale>
<asrwt>0</asrwt>
<pdfrwt beam="1">  1        2 0.56311774E-01 0.51593674E+02</pdfrwt>
<pdfrwt beam="2">  1        1 0.24392003E+00 0.88282447E+02</pdfrwt>
<totfact> 0.84586901E+01</totfact>
</mgrwt>
</event>
<event>
 7    1  0.6493044E-004  0.7556429E+02  0.7546771E-02  0.1350001E+00
          1   -1    0    0  502    0 -0.00000000000E+00  0.00000000000E+00  0.66298257017E+03  0.66298257017E+03  0.00000000000E+00 0. -1.
          2   -1    0    0  503    0  0.00000000000E+00 -0.00000000000E+00 -0.12353569051E+04  0.12353569051E+04  0.00000000000E+00 0. -1.
         25    2    1    2    0    0 -0.53033133251E+02  0.36395055280E+02  0.15579903803E+03  0.20984723512E+03  0.12500163425E+03 0.  0.
          4    1    3    3  501    0  0.37611802843E+02  0.31067441625E+02  0.43045043526E+02  0.65071670598E+02  0.12700000000E+01 0. -1.
         -4    1    3    3    0  501 -0.90644936094E+02  0.53276136547E+01  0.11275399450E+03  0.14477556452E+03  0.12700000000E+01 0. -1.
          2    1    1    2  502    0  0.74148595925E+02  0.31004469138E+02  0.47575406851E+03  0.48249479281E+03  0.00000000000E+00 0. -1.
          1    1    1    2  503    0 -0.21115462674E+02 -0.67399524418E+02 -0.12039274414E+04  0.12059974473E+04  0.00000000000E+00 0. -1.
<mgrwt>
<rscale>  0 0.73055359E+02</rscale>
<asrwt>0</asrwt>
<pdfrwt beam="2">  1        2 0.19005491E+00 0.70629729E+02</pdfrwt>
<pdfrwt beam="1">  1        1 0.10199732E+00 0.75564293E+02</pdfrwt>
<totfact> 0.91576821E+01</totfact>
</mgrwt>
</event>
<event>
 7    1  0.6493044E-004  0.1271355E+03  0.7546771E-02  0.1380374E+00
         -2   -1    0    0    0  501 -0.00000000000E+00  0.00000000000E+00  0.37325084346E+03  0.37325084346E+03  0.00000000000E+00 0.  1.
          2   -1    0    0  503    0  0.00000000000E+00 -0.00000000000E+00 -0.20017791370E+04  0.20017791370E+04  0.00000000000E+00 0. -1.
         25    2    1    2    0    0  0.63198827361E+01  0.14256314211E+03  0.16540800699E+03  0.25169145638E+03  0.12499836013E+03 0.  0.
          4    1    3    3  502    0 -0.34462580383E+02  0.11718384163E+03  0.60525427824E+02  0.13632557537E+03  0.12700000000E+01 0. -1.
         -4    1    3    3    0  502  0.40782463119E+02  0.25379300480E+02  0.10488257916E+03  0.11536588102E+03  0.12700000000E+01 0. -1.
          1    1    1    2  503    0 -0.22387811767E+02 -0.23678588499E+02 -0.19366369468E+04  0.19369110855E+04  0.00000000000E+00 0. -1.
         -1    1    1    2    0  501  0.16067929031E+02 -0.11888455361E+03  0.14270064620E+03  0.18642743858E+03  0.00000000000E+00 0.  1.
<mgrwt>
<rscale>  0 0.64365513E+02</rscale>
<asrwt>0</asrwt>
<pdfrwt beam="2">  1        2 0.30796602E+00 0.32586649E+02</pdfrwt>
<pdfrwt beam="1">  1       -2 0.57423206E-01 0.12713548E+03</pdfrwt>
<totfact> 0.27732920E+01</totfact>
</mgrwt>
</event>
<event>
 7    1  0.6493044E-004  0.5710616E+02  0.7546771E-02  0.1420789E+00
         -1   -1    0    0    0  501 -0.00000000000E+00  0.00000000000E+00  0.18731789683E+03  0.18731789683E+03  0.00000000000E+00 0.  1.
          1   -1    0    0  503    0  0.00000000000E+00 -0.00000000000E+00 -0.43121764490E+03  0.43121764490E+03  0.00000000000E+00 0. -1.
         25    2    1    2    0    0 -0.19815228163E+02 -0.83107466180E+02 -0.65078468681E+02  0.16480568352E+03  0.12500484804E+03 0.  0.
          4    1    3    3  502    0 -0.45347614889E+01  0.33444066160E+02 -0.12277286209E+02  0.35936253001E+02  0.12700000000E+01 0.  1.
         -4    1    3    3    0  502 -0.15280466674E+02 -0.11655153234E+03 -0.52801182472E+02  0.12886943052E+03  0.12700000000E+01 0.  1.
          2    1    1    2  503    0  0.42365114793E+02  0.31329855395E+02 -0.30814249165E+03  0.31261503154E+03  0.00000000000E+00 0. -1.
         -2    1    1    2    0  501 -0.22549886630E+02  0.51777610785E+02  0.12932121226E+03  0.14111482667E+03  0.00000000000E+00 0.  1.
<mgrwt>
<rscale>  0 0.54854282E+02</rscale>
<asrwt>0</asrwt>
<pdfrwt beam="2">  1        1 0.66341175E-01 0.52691202E+02</pdfrwt>
<pdfrwt beam="1">  1       -1 0.28818138E-01 0.57106161E+02</pdfrwt>
<totfact> 0.60346489E+02</totfact>
</mgrwt>
</event>
<event>
 7    1  0.6493044E-004  0.6374276E+02  0.7546771E-02  0.1461254E+00
          1   -1    0    0  502    0 -0.00000000000E+00  0.00000000000E+00  0.58239359801E+03  0.58239359801E+03  0.00000000000E+00 0. -1.
          2   -1    0    0  503    0  0.00000000000E+00 -0.00000000000E+00 -0.73861914691E+03  0.73861914691E+03  0.00000000000E+00 0. -1.
         25    2    1    2    0    0 -0.19970221004E+02  0.88724333485E+02 -0.14157312701E+03  0.20961488140E+03  0.12499852452E+03 0.  0.
          4    1    3    3  501    0 -0.38626506254E+02  0.11470258200E+03 -0.12319385879E+03  0.17270503480E+03  0.12700000000E+01 0.  1.
         -4    1    3    3    0  501  0.18656285250E+02 -0.25978248515E+02 -0.18379268221E+02  0.36909846594E+02  0.12700000000E+01 0.  1.
          2    1    1    2  502    0 -0.40119168977E+01 -0.63368654829E+02  0.54599025414E+03  0.54966993688E+03  0.00000000000E+00 0. -1.
          1    1    1    2  503    0  0.23982137902E+02 -0.25355678657E+02 -0.56064267603E+03  0.56172792664E+03  0.00000000000E+00 0. -1.
<mgrwt>
<rscale>  0 0.47166321E+02</rscale>
<asrwt>0</asrwt>
<pdfrwt beam="2">  1        2 0.11363371E+00 0.34900621E+02</pdfrwt>
<pdfrwt beam="1">  1        1 0.89599015E-01 0.63742756E+02</pdfrwt>
<totfact> 0.22063244E+02</totfact>
</mgrwt>
</event>
<event>
 7    1  0.6493044E-004  0.4561458E+02  0.7546771E-02  0.1479528E+00
          1   -1    0    0  502    0 -0.00000000000E+00  0.00000000000E+00  0.13267836018E+03  0.13267836018E+03  0.00000000000E+00 0. -1.
          2   -1    0    0  503    0  0.00000000000E+00 -0.00000000000E+00 -0.33595724962E+03  0.33595724962E+03  0.00000000000E+00 0. -1.
         25    2    1    2    0    0  0.23129871217E+01  0.48780615370E+02  0.21042176883E+02  0.13585729353E+03  0.12501812929E+03 0.  0.
          4    1    3    3  501    0  0.31984422289E+02 -0.33673476016E+02  0.45801023305E+01  0.46685077846E+02  0.12700000000E+01 0.  1.
         -4    1    3    3    0  501 -0.29671435167E+02  0.82454091386E+02  0.16462074553E+02  0.89172215683E+02  0.12700000000E+01 0.  1.
          2    1    1    2  502    0  0.36685245521E+02 -0.31169822870E+02  0.41486135583E+02  0.63548914564E+02  0.00000000000E+00 0. -1.
          1    1    1    2  503    0 -0.38998232642E+02 -0.17610792501E+02 -0.26580720190E+03  0.26922940171E+03  0.00000000000E+00 0. -1.
<mgrwt>
<rscale>  0 0.44179831E+02</rscale>
<asrwt>0</asrwt>
<pdfrwt beam="2">  1        2 0.51685730E-01 0.42790211E+02</pdfrwt>
<pdfrwt beam="1">  1        1 0.20412056E-01 0.45614580E+02</pdfrwt>
<totfact> 0.30467042E+03</totfact>
</mgrwt>
</event>
<event>
 7    1  0.6493044E-004  0.9487840E+02  0.7546771E-02  0.1299163E+00
          1   -1    0    0  502    0 -0.00000000000E+00  0.00000000000E+00  0.29977716971E+04  0.29977716971E+04  0.00000000000E+00 0. -1.
          2   -1    0    0  503    0  0.00000000000E+00 -0.00000000000E+00 -0.69773565547E+02  0.69773565547E+02  0.00000000000E+00 0. -1.
         25    2    1    2    0    0  0.12099905212E+03  0.23169429771E+02  0.41380806323E+03  0.44948920872E+03  0.12500336983E+03 0.  0.
          4    1    3    3  501    0  0.99576479980E+02  0.43768505525E+02  0.40365877165E+03  0.41805881676E+03  0.12700000000E+01 0.  1.
         -4    1    3    3    0  501  0.21422572136E+02 -0.20599075754E+02  0.10149291577E+02  0.31430391954E+02  0.12700000000E+01 0.  1.
          2    1    1    2  502    0 -0.68133262359E+02  0.56199586420E+02  0.25209092571E+04  0.25224559496E+04  0.00000000000E+00 0. -1.
          1    1    1    2  503    0 -0.52865789757E+02 -0.79369016191E+02 -0.67191887740E+01  0.95600104370E+02  0.00000000000E+00 0. -1.
<mgrwt>
<rscale>  0 0.91540816E+02</rscale>
<asrwt>0</asrwt>
<pdfrwt beam="2">  1        2 0.10734397E-01 0.94878402E+02</pdfrwt>
<pdfrwt beam="1">  1        1 0.46119555E+00 0.88320637E+02</pdfrwt>
<totfact> 0.65648122E+01</totfact>
</mgrwt>
</event>
<event>
 7    1  0.6493044E-004  0.1820283E+03  0.7546771E-02  0.1395365E+00
          2   -1    0    0  503    0  0.00000000000E+00  0.00000000000E+00  0.58749196850E+03  0.58749196850E+03  0.00000000000E+00 0. -1.
         -2   -1    0    0    0  501 -0.00000000000E+00 -0.00000000000E+00 -0.18966367553E+03  0.18966367553E+03  0.00000000000E+00 0.  1.
         25    2    1    2    0    0 -0.18124965991E+03 -0.83436883979E+02  0.31734883457E+03  0.39515599602E+03  0.12499930225E+03 0.  0.
          4    1    3    3  502    0 -0.10543445394E+03 -0.83774067877E+02  0.27984204533E+03  0.31056030294E+03  0.12700000000E+01 0.  1.
         -4    1    3    3    0  502 -0.75815205970E+02  0.33718389841E+00  0.37506789246E+02  0.84595693087E+02  0.12700000000E+01 0.  1.
          1    1    1    2  503    0  0.18754656245E+02  0.74201922793E+01  0.17709556633E+03  0.17824038824E+03  0.00000000000E+00 0. -1.
         -1    1    1    2    0  501  0.16249500366E+03  0.76016691700E+02 -0.96616107930E+02  0.20375925977E+03  0.00000000000E+00 0.  1.
<mgrwt>
<rscale>  0 0.60591790E+02</rscale>
<asrwt>0</asrwt>
<pdfrwt beam="1">  1        2 0.90383379E-01 0.20169194E+02</pdfrwt>
<pdfrwt beam="2">  1       -2 0.29179027E-01 0.18202835E+03</pdfrwt>
<totfact> 0.58621026E+02</totfact>
</mgrwt>
</event>
<event>
 7    1  0.6493044E-004  0.2831326E+02  0.7546771E-02  0.1659004E+00
          1   -1    0    0  502    0 -0.00000000000E+00  0.00000000000E+00  0.79545070033E+02  0.79545070033E+02  0.00000000000E+00 0. -1.
          2   -1    0    0  503    0  0.00000000000E+00 -0.00000000000E+00 -0.21994595310E+03  0.21994595310E+03  0.00000000000E+00 0. -1.
         25    2    1    2    0    0  0.45293812911E+02  0.14364279213E+02 -0.28178548346E+02  0.13666090412E+03  0.12499724046E+03 0.  0.
          4    1    3    3  501    0  0.83402498878E+02  0.23092884150E+02 -0.40628239598E+02  0.95611321873E+02  0.12700000000E+01 0. -1.
         -4    1    3    3    0  501 -0.38108685967E+02 -0.87286049371E+01  0.12449691252E+02  0.41049582246E+02  0.12700000000E+01 0. -1.
          2    1    1    2  502    0 -0.17451216080E+02 -0.13918218111E+02  0.18613298730E+02  0.29064009146E+02  0.00000000000E+00 0. -1.
          1    1    1    2  503    0 -0.27842596831E+02 -0.44606110207E+00 -0.13083563345E+03  0.13376610987E+03  0.00000000000E+00 0. -1.
<mgrwt>
<rscale>  0 0.25139657E+02</rscale>
<asrwt>0</asrwt>
<pdfrwt beam="2">  1        2 0.33837838E-01 0.28313264E+02</pdfrwt>
<pdfrwt beam="1">  1        1 0.12237703E-01 0.22321777E+02</pdfrwt>
<totfact> 0.82901886E+03</totfact>
</mgrwt>
</event>
<event>
 7    1  0.6493044E-004  0.1808295E+03  0.7546771E-02  0.1347943E+00
          1   -1    0    0  502    0 -0.00000000000E+00  0.00000000000E+00  0.13891625997E+04  0.13891625997E+04  0.00000000000E+00 0. -1.
          2   -1    0    0  503    0  0.00000000000E+00 -0.00000000000E+00 -0.42652105172E+03  0.42652105172E+03  0.00000000000E+00 0. -1.
         25    2    1    2    0    0  0.61674164959E+02 -0.14646673833E+03  0.30303236710E+03  0.36429391794E+03  0.12500094031E+03 0.  0.
          4    1    3    3  501    0  0.72728412816E+02 -0.15114521582E+03  0.20209415830E+03  0.26263655498E+03  0.12700000000E+01 0. -1.
         -4    1    3    3    0  501 -0.11054247857E+02  0.46784774885E+01  0.10093820880E+03  0.10165736296E+03  0.12700000000E+01 0. -1.
          2    1    1    2  502    0 -0.83474385814E+02  0.16713169088E+03  0.10466464938E+04  0.10631885337E+04  0.00000000000E+00 0. -1.
          1    1    1    2  503    0  0.21800220854E+02 -0.20664952557E+02 -0.38703731294E+03  0.38820119977E+03  0.00000000000E+00 0. -1.
<mgrwt>
<rscale>  0 0.73700632E+02</rscale>
<asrwt>0</asrwt>
<pdfrwt beam="2">  1        2 0.65618624E-01 0.30038141E+02</pdfrwt>
<pdfrwt beam="1">  1        1 0.21371732E+00 0.18082954E+03</pdfrwt>
<totfact> 0.90785407E+01</totfact>
</mgrwt>
</event>
<event>
 7    1  0.6493044E-004  0.1506590E+03  0.7546771E-02  0.1340487E+00
          2   -1    0    0  503    0  0.00000000000E+00  0.00000000000E+00  0.75596329243E+03  0.75596329243E+03  0.00000000000E+00 0. -1.
          1   -1    0    0  502    0 -0.00000000000E+00 -0.00000000000E+00 -0.56859727369E+02  0.56859727369E+02  0.00000000000E+00 0. -1.
         25    2    1    2    0    0 -0.21485608778E+02  0.13419305529E+03  0.21378734831E+03  0.28248837523E+03  0.12500097749E+03 0.  0.
          4    1    3    3  501    0 -0.48766931567E+02  0.21622468197E+01  0.70304451849E+02  0.85599169246E+02  0.12700000000E+01 0. -1.
         -4    1    3    3    0  501  0.27281322789E+02  0.13203080847E+03  0.14348289646E+03  0.19688920598E+03  0.12700000000E+01 0. -1.
          2    1    1    2  502    0  0.33293951315E+02 -0.17077741763E+03  0.37210109408E+03  0.41077078496E+03  0.00000000000E+00 0. -1.
          1    1    1    2  503    0 -0.11808342536E+02  0.36584362340E+02  0.11321512267E+03  0.11956385960E+03  0.00000000000E+00 0. -1.
<mgrwt>
<rscale>  0 0.76103621E+02</rscale>
<asrwt>0</asrwt>
<pdfrwt beam="1">  1        2 0.11630204E+00 0.38442847E+02</pdfrwt>
<pdfrwt beam="2">  1        1 0.87476509E-02 0.15065901E+03</pdfrwt>
<totfact> 0.40954156E+03</totfact>
</mgrwt>
</event>
<event>
 7    1  0.6493044E-004  0.5238748E+02  0.7546771E-02  0.1461208E+00
          2   -1    0    0  503    0  0.00000000000E+00  0.00000000000E+00  0.13061925261E+04  0.13061925261E+04  0.00000000000E+00 0. -1.
          1   -1    0    0  502    0 -0.00000000000E+00 -0.00000000000E+00 -0.36741666822E+02  0.36741666822E+02  0.00000000000E+00 0. -1.
         25    2    1    2    0    0 -0.72593428631E+01 -0.48590875811E+01  0.82224687112E+03  0.83174023552E+03  0.12500237409E+03 0.  0.
          4    1    3    3  501    0 -0.36096071644E+02 -0.24926443558E+02  0.75110941670E+03  0.75239033934E+03  0.12700000000E+01 0. -1.
         -4    1    3    3    0  501  0.28836728781E+02  0.20067355977E+02  0.71137454421E+02  0.79349896183E+02  0.12700000000E+01 0. -1.
          2    1    1    2  502    0 -0.43628348393E+02  0.29000269482E+02 -0.75821668025E+01  0.52933332287E+02  0.00000000000E+00 0. -1.
          1    1    1    2  503    0  0.50887691256E+02 -0.24141181901E+02  0.45478615495E+03  0.45826062511E+03  0.00000000000E+00 0. -1.
<mgrwt>
<rscale>  0 0.47174196E+02</rscale>
<asrwt>0</asrwt>
<pdfrwt beam="1">  1        2 0.20095266E+00 0.42479704E+02</pdfrwt>
<pdfrwt beam="2">  1        1 0.56525651E-02 0.52387483E+02</pdfrwt>
<totfact> 0.32834990E+03</totfact>
</mgrwt>
</event>
<event>
 7    1  0.6493044E-004  0.5806458E+02  0.7546771E-02  0.1474020E+00
         -2   -1    0    0    0  501 -0.00000000000E+00  0.00000000000E+00  0.25885135191E+02  0.25885135191E+02  0.00000000000E+00 0.  1.
          2   -1    0    0  503    0  0.00000000000E+00 -0.00000000000E+00 -0.10713230839E+04  0.10713230839E+04  0.00000000000E+00 0. -1.
         25    2    1    2    0    0 -0.73802091443E+02 -0.39647076898E+02 -0.24454848652E+03  0.28713390616E+03  0.12499311340E+03 0.  0.
          4    1    3    3  502    0 -0.72648046104E+02 -0.74278140309E+02 -0.12442066169E+03  0.16210211191E+03  0.12700000000E+01 0. -1.
         -4    1    3    3    0  502 -0.11540453386E+01  0.34631063411E+02 -0.12012782483E+03  0.12503179425E+03  0.12700000000E+01 0. -1.
          1    1    1    2  503    0  0.38899060506E+02  0.41550994186E+02 -0.71615303048E+03  0.71841129243E+03  0.00000000000E+00 0. -1.
         -1    1    1    2    0  501  0.34903030937E+02 -0.19039172882E+01 -0.84736431729E+02  0.91663020525E+02  0.00000000000E+00 0.  1.
<mgrwt>
<rscale>  0 0.45051559E+02</rscale>
<asrwt>0</asrwt>
<pdfrwt beam="2">  1        2 0.16481899E+00 0.58064585E+02</pdfrwt>
<pdfrwt beam="1">  1       -2 0.39823271E-02 0.34954921E+02</pdfrwt>
<totfact> 0.57403326E+03</totfact>
</mgrwt>
</event>
<event>
 7    1  0.6493044E-004  0.1068832E+03  0.7546771E-02  0.1270614E+00
          1   -1    0    0  502    0 -0.00000000000E+00  0.00000000000E+00  0.14810274371E+04  0.14810274371E+04  0.00000000000E+00 0. -1.
          2   -1    0    0  503    0  0.00000000000E+00 -0.00000000000E+00 -0.12477161786E+03  0.12477161786E+03  0.00000000000E+00 0. -1.
         25    2    1    2    0    0  0.17811675860E+03 -0.22633549060E+02  0.65814921942E+03  0.69355705363E+03  0.12499253728E+03 0.  0.
          4    1    3    3  501    0  0.11576294143E+03  0.24340759105E+02  0.53361138161E+03  0.54656769997E+03  0.12700000000E+01 0.  1.
         -4    1    3    3    0  501  0.62353817169E+02 -0.46974308165E+02  0.12453783781E+03  0.14698935366E+03  0.12700000000E+01 0.  1.
          2    1    1    2  502    0 -0.81207219958E+02  0.62802012773E+02  0.77525574441E+03  0.78202312921E+03  0.00000000000E+00 0. -1.
          1    1    1    2  503    0 -0.96909538644E+02 -0.40168463713E+02 -0.77149144561E+02  0.13021887215E+03  0.00000000000E+00 0. -1.
<mgrwt>
<rscale>  0 0.10474938E+03</rscale>
<asrwt>0</asrwt>
<pdfrwt beam="2">  1        2 0.19195635E-01 0.10688316E+03</pdfrwt>
<pdfrwt beam="1">  1        1 0.22785036E+00 0.10265820E+03</pdfrwt>
<totfact> 0.30916706E+02</totfact>
</mgrwt>
</event>
<event>
 7    1  0.6493044E-004  0.5741092E+02  0.7546771E-02  0.1419516E+00
          1   -1    0    0  502    0 -0.00000000000E+00  0.00000000000E+00  0.38819815196E+03  0.38819815196E+03  0.00000000000E+00 0. -1.
          2   -1    0    0  503    0  0.00000000000E+00 -0.00000000000E+00 -0.12278832888E+04  0.12278832888E+04  0.00000000000E+00 0. -1.
         25    2    1    2    0    0  0.20707752549E+02  0.27971191359E+02 -0.58047652598E+03  0.59479929510E+03  0.12498802209E+03 0.  0.
          4    1    3    3  501    0 -0.50134218414E+02  0.16189408680E+02 -0.33175127165E+03  0.33591078570E+03  0.12700000000E+01 0. -1.
         -4    1    3    3    0  501  0.70841970963E+02  0.11781782679E+02 -0.24872525434E+03  0.25888850940E+03  0.12700000000E+01 0. -1.
          2    1    1    2  502    0  0.45055432264E+02 -0.27771852990E+02  0.37749701169E+03  0.38118927272E+03  0.00000000000E+00 0. -1.
          1    1    1    2  503    0 -0.65763184813E+02 -0.19933836928E+00 -0.63670562257E+03  0.64009287296E+03  0.00000000000E+00 0. -1.
<mgrwt>
<rscale>  0 0.55123390E+02</rscale>
<asrwt>0</asrwt>
<pdfrwt beam="2">  1        2 0.18890512E+00 0.57410923E+02</pdfrwt>
<pdfrwt beam="1">  1        1 0.59722793E-01 0.52927004E+02</pdfrwt>
<totfact> 0.18714479E+02</totfact>
</mgrwt>
</event>
<event>
 7    1  0.6493044E-004  0.1151627E+03  0.7546771E-02  0.1440829E+00
          1   -1    0    0  502    0 -0.00000000000E+00  0.00000000000E+00  0.13385498691E+04  0.13385498691E+04  0.00000000000E+00 0. -1.
          2   -1    0    0  503    0  0.00000000000E+00 -0.00000000000E+00 -0.18980739318E+04  0.18980739318E+04  0.00000000000E+00 0. -1.
         25    2    1    2    0    0 -0.11799108497E+03 -0.59600151605E+02 -0.70538933283E+03  0.72847308786E+03  0.12499941867E+03 0.  0.
          4    1    3    3  501    0 -0.85863249219E+02 -0.95314420267E+02 -0.42310560561E+03  0.44212815187E+03  0.12700000000E+01 0.  1.
         -4    1    3    3    0  501 -0.32127835747E+02  0.35714268662E+02 -0.28228372722E+03  0.28634493599E+03  0.12700000000E+01 0.  1.
          2    1    1    2  502    0  0.22288219213E+02  0.26867541643E+01  0.13242884544E+04  0.13244787253E+04  0.00000000000E+00 0. -1.
          1    1    1    2  503    0  0.95702865752E+02  0.56913397441E+02 -0.11784231842E+04  0.11836719877E+04  0.00000000000E+00 0. -1.
<mgrwt>
<rscale>  0 0.50846374E+02</rscale>
<asrwt>0</asrwt>
<pdfrwt beam="2">  1        2 0.29201137E+00 0.11516271E+03</pdfrwt>
<pdfrwt beam="1">  1        1 0.20593075E+00 0.22449574E+02</pdfrwt>
<totfact> 0.14468559E+01</totfact>
</mgrwt>
</event>
<event>
 7    1  0.6493044E-004  0.4427658E+02  0.7546771E-02  0.1556329E+00
          1   -1    0    0  502    0 -0.00000000000E+00  0.00000000000E+00  0.62806037081E+02  0.62806037081E+02  0.00000000000E+00 0. -1.
          2   -1    0    0  503    0  0.00000000000E+00 -0.00000000000E+00 -0.33268214851E+03  0.33268214851E+03  0.00000000000E+00 0. -1.
         25    2    1    2    0    0 -0.44307179980E+00 -0.24086693727E+02 -0.13335811359E+03  0.18436176004E+03  0.12499802790E+03 0.  0.
          4    1    3    3  501    0  0.61490243414E+02 -0.38705337253E+01 -0.56580537574E+02  0.83660033461E+02  0.12700000000E+01 0. -1.
         -4    1    3    3    0  501 -0.61933315214E+02 -0.20216160002E+02 -0.76777576012E+02  0.10070172658E+03  0.12700000000E+01 0. -1.
          2    1    1    2  502    0 -0.17957621444E+02 -0.19257856734E+02  0.28923546935E+02  0.39114099520E+02  0.00000000000E+00 0. -1.
          1    1    1    2  503    0  0.18400693244E+02  0.43344550461E+02 -0.16544154477E+03  0.17201232602E+03  0.00000000000E+00 0. -1.
<mgrwt>
<rscale>  0 0.34144738E+02</rscale>
<asrwt>0</asrwt>
<pdfrwt beam="2">  1        2 0.51181868E-01 0.44276579E+02</pdfrwt>
<pdfrwt beam="1">  1        1 0.96624674E-02 0.26331373E+02</pdfrwt>
<totfact> 0.74925727E+03</totfact>
</mgrwt>
</event>
<event>
 7    1  0.6493044E-004  0.2868899E+03  0.7546771E-02  0.1162950E+00
          2   -1    0    0  503    0  0.00000000000E+00  0.00000000000E+00  0.20522833403E+04  0.20522833403E+04  0.00000000000E+00 0. -1.
          1   -1    0    0  502    0 -0.00000000000E+00 -0.00000000000E+00 -0.18607371522E+04  0.18607371522E+04  0.00000000000E+00 0. -1.
         25    2    1    2    0    0 -0.94379118561E+02  0.16287057612E+03 -0.13736923911E+03  0.26443960703E+03  0.12499502121E+03 0.  0.
          4    1    3    3  501    0 -0.89251214790E+02  0.69799403622E+02 -0.12769167728E+03  0.17071764242E+03  0.12700000000E+01 0.  1.
         -4    1    3    3    0  501 -0.51279037714E+01  0.93071172501E+02 -0.96775618346E+01  0.93721964613E+02  0.12700000000E+01 0.  1.
          2    1    1    2  502    0  0.14658199840E+02  0.11853189838E+03 -0.16469051426E+04  0.16512302149E+04  0.00000000000E+00 0. -1.
          1    1    1    2  503    0  0.79720918721E+02 -0.28140247450E+03  0.19758205698E+04  0.19973506706E+04  0.00000000000E+00 0. -1.
<mgrwt>
<rscale>  0 0.18510709E+03</rscale>
<asrwt>0</asrwt>
<pdfrwt beam="1">  1        2 0.31573590E+00 0.28688986E+03</pdfrwt>
<pdfrwt beam="2">  1        1 0.28626726E+00 0.11943481E+03</pdfrwt>
<totfact> 0.43488661E+00</totfact>
</mgrwt>
</event>
<event>
 7    1  0.6493044E-004  0.1412721E+03  0.7546771E-02  0.1243117E+00
          2   -1    0    0  503    0  0.00000000000E+00  0.00000000000E+00  0.10699447127E+03  0.10699447127E+03  0.00000000000E+00 0. -1.
          1   -1    0    0  502    0 -0.00000000000E+00 -0.00000000000E+00 -0.20125488666E+04  0.20125488666E+04  0.00000000000E+00 0. -1.
         25    2    1    2    0    0 -0.22687413914E+03  0.17836776105E+01 -0.65486496578E+03  0.70423528816E+03  0.12499664461E+03 0.  0.
          4    1    3    3  501    0  0.15596897966E+02  0.46160197536E+01 -0.49006379610E+02  0.51650837428E+02  0.12700000000E+01 0.  1.
         -4    1    3    3    0  501 -0.24247103711E+03 -0.28323421430E+01 -0.60585858617E+03  0.65258445073E+03  0.12700000000E+01 0.  1.
          2    1    1    2  502    0  0.96619906443E+02  0.32409093795E+02 -0.12744862616E+04  0.12785542565E+04  0.00000000000E+00 0. -1.
          1    1    1    2  503    0  0.13025423270E+03 -0.34192771406E+02  0.23796832065E+02  0.13675379325E+03  0.00000000000E+00 0. -1.
<mgrwt>
<rscale>  0 0.11998799E+03</rscale>
<asrwt>0</asrwt>
<pdfrwt beam="1">  1        2 0.16460688E-01 0.14127214E+03</pdfrwt>
<pdfrwt beam="2">  1        1 0.30962290E+00 0.10191053E+03</pdfrwt>
<totfact> 0.17194190E+02</totfact>
</mgrwt>
</event>
<event>
 7    1  0.6493044E-004  0.5707800E+02  0.7546771E-02  0.1472387E+00
          2   -1    0    0  503    0  0.00000000000E+00  0.00000000000E+00  0.10207723094E+04  0.10207723094E+04  0.00000000000E+00 0. -1.
         -2   -1    0    0    0  501 -0.00000000000E+00 -0.00000000000E+00 -0.74074284397E+02  0.74074284397E+02  0.00000000000E+00 0.  1.
         25    2    1    2    0    0 -0.20570020744E+02 -0.10278143673E+02  0.43056704950E+03  0.44893453476E+03  0.12500186557E+03 0.  0.
          4    1    3    3  502    0  0.49825081645E+02  0.14560165637E+02  0.19680017823E+03  0.20353491158E+03  0.12700000000E+01 0.  1.
         -4    1    3    3    0  502 -0.70395102389E+02 -0.24838309310E+02  0.23376687128E+03  0.24539962318E+03  0.12700000000E+01 0.  1.
          3    1    1    2  503    0 -0.24701171160E+02 -0.26155101266E+02  0.56732668660E+03  0.56846618766E+03  0.00000000000E+00 0. -1.
         -1    1    1    2    0  501  0.45271191904E+02  0.36433244939E+02 -0.51195711120E+02  0.77445871357E+02  0.00000000000E+00 0.  1.
<mgrwt>
<rscale>  0 0.45314566E+02</rscale>
<asrwt>0</asrwt>
<pdfrwt beam="1">  1        2 0.15704188E+00 0.35975508E+02</pdfrwt>
<pdfrwt beam="2">  1       -2 0.11396044E-01 0.57077996E+02</pdfrwt>
<totfact> 0.13925784E+03</totfact>
</mgrwt>
</event>
<event>
 7    1  0.6493044E-004  0.5427700E+02  0.7546771E-02  0.1525871E+00
         -2   -1    0    0    0  501 -0.00000000000E+00  0.00000000000E+00  0.67630952528E+02  0.67630952528E+02  0.00000000000E+00 0.  1.
          2   -1    0    0  503    0  0.00000000000E+00 -0.00000000000E+00 -0.78189535580E+03  0.78189535580E+03  0.00000000000E+00 0. -1.
         25    2    1    2    0    0 -0.24582195329E+02 -0.22163001196E+02 -0.21726885132E+03  0.25284084550E+03  0.12500902548E+03 0.  0.
          4    1    3    3  502    0 -0.34804950802E+02  0.20842101402E+02 -0.11234451514E+02  0.42114173291E+02  0.12700000000E+01 0. -1.
         -4    1    3    3    0  502  0.10222755473E+02 -0.43005102599E+02 -0.20603439980E+03  0.21072667221E+03  0.12700000000E+01 0. -1.
          1    1    1    2  503    0 -0.37187489398E+01 -0.25917263905E+02 -0.53080441873E+03  0.53144977618E+03  0.00000000000E+00 0. -1.
         -3    1    1    2    0  501  0.28300944269E+02  0.48080265102E+02  0.33808866777E+02  0.65235686641E+02  0.00000000000E+00 0.  1.
<mgrwt>
<rscale>  0 0.37697722E+02</rscale>
<asrwt>0</asrwt>
<pdfrwt beam="2">  1        2 0.12029159E+00 0.26182698E+02</pdfrwt>
<pdfrwt beam="1">  1       -2 0.10404762E-01 0.54276998E+02</pdfrwt>
<totfact> 0.22365872E+03</totfact>
</mgrwt>
</event>
<event>
 7    1  0.6493044E-004  0.9577233E+02  0.7546771E-02  0.1431030E+00
          2   -1    0    0  503    0  0.00000000000E+00  0.00000000000E+00  0.21759847357E+04  0.21759847357E+04  0.00000000000E+00 0. -1.
         -2   -1    0    0    0  501 -0.00000000000E+00 -0.00000000000E+00 -0.91860364240E+02  0.91860364240E+02  0.00000000000E+00 0.  1.
         25    2    1    2    0    0 -0.11608354254E+03  0.13866479266E+02  0.36157808285E+03  0.40003994835E+03  0.12500232869E+03 0.  0.
          4    1    3    3  502    0  0.19677696753E+02 -0.23168313677E+02  0.64882679829E+02  0.71661409070E+02  0.12700000000E+01 0. -1.
         -4    1    3    3    0  502 -0.13576123929E+03  0.37034792943E+02  0.29669540302E+03  0.32837853928E+03  0.12700000000E+01 0. -1.
          1    1    1    2  503    0  0.22019679851E+02 -0.18960737244E+02  0.17644603606E+04  0.17646996175E+04  0.00000000000E+00 0. -1.
         -1    1    1    2    0  501  0.94063862685E+02  0.50942579781E+01 -0.41914072004E+02  0.10310553409E+03  0.00000000000E+00 0.  1.
<mgrwt>
<rscale>  0 0.52753828E+02</rscale>
<asrwt>0</asrwt>
<pdfrwt beam="1">  1        2 0.33476684E+00 0.29058146E+02</pdfrwt>
<pdfrwt beam="2">  1       -2 0.14132365E-01 0.95772330E+02</pdfrwt>
<totfact> 0.28421829E+02</totfact>
</mgrwt>
</event>
<event>
 7    1  0.6493044E-004  0.1497743E+03  0.7546771E-02  0.1265820E+00
          2   -1    0    0  503    0  0.00000000000E+00  0.00000000000E+00  0.36556075556E+03  0.36556075556E+03  0.00000000000E+00 0. -1.
          1   -1    0    0  502    0 -0.00000000000E+00 -0.00000000000E+00 -0.29015264984E+03  0.29015264984E+03  0.00000000000E+00 0. -1.
         25    2    1    2    0    0  0.52644422031E+02  0.12837912596E+03  0.17621880787E+03  0.25676873376E+03  0.12499791693E+03 0.  0.
          4    1    3    3  501    0 -0.33650540876E+01  0.93127486740E+02  0.32779617246E+02  0.98793565490E+02  0.12700000000E+01 0.  1.
         -4    1    3    3    0  501  0.56009476118E+02  0.35251639217E+02  0.14343919062E+03  0.15797516827E+03  0.12700000000E+01 0.  1.
          2    1    1    2  502    0 -0.62600751036E+02  0.44397831431E+02 -0.18952032647E+03  0.20446998707E+03  0.00000000000E+00 0. -1.
          1    1    1    2  503    0  0.99563290055E+01 -0.17277695739E+03  0.88709624331E+02  0.19447468457E+03  0.00000000000E+00 0. -1.
<mgrwt>
<rscale>  0 0.10721311E+03</rscale>
<asrwt>0</asrwt>
<pdfrwt beam="1">  1        2 0.56240116E-01 0.14977432E+03</pdfrwt>
<pdfrwt beam="2">  1        1 0.44638869E-01 0.76746475E+02</pdfrwt>
<totfact> 0.10960226E+03</totfact>
</mgrwt>
</event>
<event>
 7    1  0.6493044E-004  0.9578478E+02  0.7546771E-02  0.1335891E+00
          2   -1    0    0  503    0  0.00000000000E+00  0.00000000000E+00  0.15742595163E+03  0.15742595163E+03  0.00000000000E+00 0. -1.
          1   -1    0    0  502    0 -0.00000000000E+00 -0.00000000000E+00 -0.62814601169E+03  0.62814601169E+03  0.00000000000E+00 0. -1.
         25    2    1    2    0    0 -0.79298303035E+02  0.15650769307E+02 -0.26658276406E+02  0.15122112242E+03  0.12499598682E+03 0.  0.
          4    1    3    3  501    0  0.28944581755E+01 -0.67632467197E+01  0.41465212254E+02  0.42131889604E+02  0.12700000000E+01 0. -1.
         -4    1    3    3    0  501 -0.82192761210E+02  0.22414016027E+02 -0.68123488660E+02  0.10908923282E+03  0.12700000000E+01 0. -1.
          2    1    1    2  502    0  0.86252192786E+02  0.46893214334E+02 -0.52371559729E+03  0.53283810032E+03  0.00000000000E+00 0. -1.
          1    1    1    2  503    0 -0.69538897512E+01 -0.62543983641E+02  0.79653813634E+02  0.10151274057E+03  0.00000000000E+00 0. -1.
<mgrwt>
<rscale>  0 0.77638114E+02</rscale>
<asrwt>0</asrwt>
<pdfrwt beam="1">  1        2 0.24219377E-01 0.62929377E+02</pdfrwt>
<pdfrwt beam="2">  1        1 0.96637848E-01 0.95784783E+02</pdfrwt>
<totfact> 0.99451773E+02</totfact>
</mgrwt>
</event>
<event>
 7    1  0.6493044E-004  0.1978076E+03  0.7546771E-02  0.1308831E+00
          2   -1    0    0  503    0  0.00000000000E+00  0.00000000000E+00  0.21952988410E+04  0.21952988410E+04  0.00000000000E+00 0. -1.
         -2   -1    0    0    0  501 -0.00000000000E+00 -0.00000000000E+00 -0.10563231721E+03  0.10563231721E+03  0.00000000000E+00 0.  1.
         25    2    1    2    0    0  0.13128782021E+02 -0.17516904322E+03  0.36321063819E+03  0.42237785323E+03  0.12499809832E+03 0.  0.
          4    1    3    3  502    0 -0.27558624004E+02  0.64429362313E+01  0.34579477589E+02  0.44702822669E+02  0.12700000000E+01 0. -1.
         -4    1    3    3    0  502  0.40687406025E+02 -0.18161197946E+03  0.32863116060E+03  0.37767503056E+03  0.12700000000E+01 0. -1.
          1    1    1    2  503    0  0.28056721978E+02 -0.26760405100E+02  0.16622420431E+04  0.16626941717E+04  0.00000000000E+00 0. -1.
         -1    1    1    2    0  501 -0.41185503999E+02  0.20192944832E+03  0.64213842540E+02  0.21585913326E+03  0.00000000000E+00 0.  1.
<mgrwt>
<rscale>  0 0.87575533E+02</rscale>
<asrwt>0</asrwt>
<pdfrwt beam="1">  1        2 0.33773825E+00 0.38772399E+02</pdfrwt>
<pdfrwt beam="2">  1       -2 0.16251127E-01 0.19780757E+03</pdfrwt>
<totfact> 0.21982038E+02</totfact>
</mgrwt>
</event>
<event>
 7    1  0.6493044E-004  0.4367500E+02  0.7546771E-02  0.1495669E+00
          1   -1    0    0  503    0  0.00000000000E+00  0.00000000000E+00  0.54966873519E+03  0.54966873519E+03  0.00000000000E+00 0. -1.
         -1   -1    0    0    0  501 -0.00000000000E+00 -0.00000000000E+00 -0.18088868690E+03  0.18088868690E+03  0.00000000000E+00 0.  1.
         25    2    1    2    0    0  0.23624268163E+02 -0.12135287106E+02  0.14027556651E+03  0.18975862850E+03  0.12500292512E+03 0.  0.
          4    1    3    3  502    0  0.10771361242E+02  0.19965841502E+02 -0.17218228950E+02  0.28508548860E+02  0.12700000000E+01 0.  1.
         -4    1    3    3    0  502  0.12852906921E+02 -0.32101128608E+02  0.15749379546E+03  0.16125007964E+03  0.12700000000E+01 0.  1.
          2    1    1    2  503    0 -0.23679094370E+02 -0.32141899658E+02  0.38044722594E+03  0.38253613287E+03  0.00000000000E+00 0. -1.
         -2    1    1    2    0  501  0.54826207107E-01  0.44277186764E+02 -0.15194274416E+03  0.15826266072E+03  0.00000000000E+00 0.  1.
<mgrwt>
<rscale>  0 0.41756587E+02</rscale>
<asrwt>0</asrwt>
<pdfrwt beam="1">  1        1 0.84564420E-01 0.39922440E+02</pdfrwt>
<pdfrwt beam="2">  1       -1 0.27829029E-01 0.43675000E+02</pdfrwt>
<totfact> 0.47127961E+02</totfact>
</mgrwt>
</event>
<event>
 7    1  0.6493044E-004  0.4942168E+02  0.7546771E-02  0.1455841E+00
         -1   -1    0    0    0  501 -0.00000000000E+00  0.00000000000E+00  0.28012952175E+03  0.28012952175E+03  0.00000000000E+00 0.  1.
          1   -1    0    0  503    0  0.00000000000E+00 -0.00000000000E+00 -0.17936500079E+03  0.17936500079E+03  0.00000000000E+00 0. -1.
         25    2    1    2    0    0 -0.22871287545E+02  0.44092707791E+02  0.13511519055E+03  0.19065561830E+03  0.12500474949E+03 0.  0.
          4    1    3    3  502    0 -0.43734949913E+02  0.78713344251E+02  0.11321787444E+03  0.14466663887E+03  0.12700000000E+01 0.  1.
         -4    1    3    3    0  502  0.20863662368E+02 -0.34620636460E+02  0.21897316111E+02  0.45988979432E+02  0.12700000000E+01 0.  1.
          2    1    1    2  503    0  0.49408382938E+02 -0.11462142953E+01 -0.14177573762E+03  0.15014280499E+03  0.00000000000E+00 0. -1.
         -2    1    1    2    0  501 -0.26537095393E+02 -0.42946493496E+02  0.10742506803E+03  0.11869609925E+03  0.00000000000E+00 0.  1.
<mgrwt>
<rscale>  0 0.48104601E+02</rscale>
<asrwt>0</asrwt>
<pdfrwt beam="2">  1        1 0.27594615E-01 0.49421677E+02</pdfrwt>
<pdfrwt beam="1">  1       -1 0.43096850E-01 0.46822626E+02</pdfrwt>
<totfact> 0.87918435E+02</totfact>
</mgrwt>
</event>
<event>
 7    1  0.6493044E-004  0.5405540E+02  0.7546771E-02  0.1471369E+00
          2   -1    0    0  503    0  0.00000000000E+00  0.00000000000E+00  0.15063655316E+03  0.15063655316E+03  0.00000000000E+00 0. -1.
          1   -1    0    0  502    0 -0.00000000000E+00 -0.00000000000E+00 -0.21149194939E+03  0.21149194939E+03  0.00000000000E+00 0. -1.
         25    2    1    2    0    0  0.28828372173E+02  0.27747812690E+00 -0.22945644881E+02  0.13031875305E+03  0.12500129096E+03 0.  0.
          4    1    3    3  501    0  0.82056407000E+01 -0.16911787723E+02  0.49544830479E+02  0.53006077298E+02  0.12700000000E+01 0.  1.
         -4    1    3    3    0  501  0.20622731473E+02  0.17189265850E+02 -0.72490475361E+02  0.77312675751E+02  0.12700000000E+01 0.  1.
          2    1    1    2  502    0 -0.46999416827E+02  0.33397378228E+02 -0.12446648098E+03  0.13717228197E+03  0.00000000000E+00 0. -1.
          1    1    1    2  503    0  0.18171044654E+02 -0.33674856355E+02  0.86556729633E+02  0.94637467523E+02  0.00000000000E+00 0. -1.
<mgrwt>
<rscale>  0 0.45479783E+02</rscale>
<asrwt>0</asrwt>
<pdfrwt beam="1">  1        2 0.23174854E-01 0.38264642E+02</pdfrwt>
<pdfrwt beam="2">  1        1 0.32537223E-01 0.54055404E+02</pdfrwt>
<totfact> 0.39660359E+03</totfact>
</mgrwt>
</event>
<event>
 7    1  0.6493044E-004  0.6557628E+02  0.7546771E-02  0.1444023E+00
         -2   -1    0    0    0  501 -0.00000000000E+00  0.00000000000E+00  0.70634607797E+03  0.70634607797E+03  0.00000000000E+00 0.  1.
          2   -1    0    0  503    0  0.00000000000E+00 -0.00000000000E+00 -0.25343827721E+04  0.25343827721E+04  0.00000000000E+00 0. -1.
         25    2    1    2    0    0 -0.10238079554E+03 -0.86240134615E+01 -0.45294694720E+03  0.48097795018E+03  0.12499060234E+03 0.  0.
          4    1    3    3  502    0 -0.45239187491E+02 -0.36794329816E+02 -0.62982687922E+02  0.85841940037E+02  0.12700000000E+01 0. -1.
         -4    1    3    3    0  502 -0.57141608049E+02  0.28170316355E+02 -0.38996425928E+03  0.39513601014E+03  0.12700000000E+01 0. -1.
          1    1    1    2  503    0  0.64073149492E+02  0.47939121166E+01 -0.20663853911E+04  0.20673840801E+04  0.00000000000E+00 0. -1.
         -1    1    1    2    0  501  0.38307646048E+02  0.38301013448E+01  0.69129564420E+03  0.69236681977E+03  0.00000000000E+00 0.  1.
<mgrwt>
<rscale>  0 0.50245374E+02</rscale>
<asrwt>0</asrwt>
<pdfrwt beam="2">  1        2 0.38990504E+00 0.65576276E+02</pdfrwt>
<pdfrwt beam="1">  1       -2 0.10866863E+00 0.38498642E+02</pdfrwt>
<totfact> 0.35334680E+00</totfact>
</mgrwt>
</event>
<event>
 7    1  0.6493044E-004  0.1278034E+03  0.7546771E-02  0.1309639E+00
          2   -1    0    0  503    0  0.00000000000E+00  0.00000000000E+00  0.14981018377E+03  0.14981018377E+03  0.00000000000E+00 0. -1.
          1   -1    0    0  502    0 -0.00000000000E+00 -0.00000000000E+00 -0.39997632859E+04  0.39997632859E+04  0.00000000000E+00 0. -1.
         25    2    1    2    0    0  0.14346737804E+03  0.76826830236E+02 -0.13027571470E+04  0.13188203887E+04  0.12500313279E+03 0.  0.
          4    1    3    3  501    0  0.10334661986E+03  0.11159578773E+03 -0.96523933309E+03  0.97715030918E+03  0.12700000000E+01 0.  1.
         -4    1    3    3    0  501  0.40120758173E+02 -0.34768957492E+02 -0.33751781390E+03  0.34167007952E+03  0.12700000000E+01 0.  1.
          2    1    1    2  502    0 -0.12089076085E+03 -0.21699233035E+02 -0.26812484504E+04  0.26840601122E+04  0.00000000000E+00 0. -1.
          1    1    1    2  503    0 -0.22576617183E+02 -0.55127597201E+02  0.13405249527E+03  0.14669296883E+03  0.00000000000E+00 0. -1.
<mgrwt>
<rscale>  0 0.87254965E+02</rscale>
<asrwt>0</asrwt>
<pdfrwt beam="1">  1        2 0.23047722E-01 0.59571433E+02</pdfrwt>
<pdfrwt beam="2">  1        1 0.61534816E+00 0.12780335E+03</pdfrwt>
<totfact> 0.44965333E+00</totfact>
</mgrwt>
</event>
<event>
 7    1  0.6493044E-004  0.3036548E+02  0.7546771E-02  0.1657843E+00
          2   -1    0    0  503    0  0.00000000000E+00  0.00000000000E+00  0.79226031604E+03  0.79226031604E+03  0.00000000000E+00 0. -1.
         -2   -1    0    0    0  501 -0.00000000000E+00 -0.00000000000E+00 -0.30974074619E+02  0.30974074619E+02  0.00000000000E+00 0.  1.
         25    2    1    2    0    0  0.28850923384E+02  0.36927692828E+02  0.34371670691E+03  0.36872941751E+03  0.12499671375E+03 0.  0.
          4    1    3    3  502    0  0.12662985364E+02 -0.44257414384E+02  0.17256947270E+03  0.17860824654E+03  0.12700000000E+01 0.  1.
         -4    1    3    3    0  502  0.16187938020E+02  0.81185107212E+02  0.17114723421E+03  0.19012117096E+03  0.12700000000E+01 0.  1.
          1    1    1    2  503    0 -0.98509495455E+01 -0.28104553484E+02  0.42941012530E+03  0.43044159051E+03  0.00000000000E+00 0. -1.
         -1    1    1    2    0  501 -0.18999973838E+02 -0.88231393438E+01 -0.11840590788E+02  0.24063382637E+02  0.00000000000E+00 0.  1.
<mgrwt>
<rscale>  0 0.25221348E+02</rscale>
<asrwt>0</asrwt>
<pdfrwt beam="1">  1        2 0.12188619E+00 0.30365479E+02</pdfrwt>
<pdfrwt beam="2">  1       -2 0.47652428E-02 0.20948670E+02</pdfrwt>
<totfact> 0.62148932E+03</totfact>
</mgrwt>
</event>
<event>
 7    1  0.6493044E-004  0.1137406E+03  0.7546771E-02  0.1356559E+00
         -2   -1    0    0    0  501 -0.00000000000E+00  0.00000000000E+00  0.21214194716E+03  0.21214194716E+03  0.00000000000E+00 0.  1.
          2   -1    0    0  503    0  0.00000000000E+00 -0.00000000000E+00 -0.40251308895E+03  0.40251308895E+03  0.00000000000E+00 0. -1.
         25    2    1    2    0    0 -0.12979609613E+03 -0.35359353923E+02 -0.88322913073E+02  0.20377430577E+03  0.12500288091E+03 0.  0.
          4    1    3    3  502    0 -0.10019106736E+03  0.21866518769E+02 -0.11041776495E+02  0.10315002835E+03  0.12700000000E+01 0. -1.
         -4    1    3    3    0  502 -0.29605028768E+02 -0.57225872692E+02 -0.77281136578E+02  0.10062427741E+03  0.12700000000E+01 0. -1.
          1    1    1    2  503    0  0.18302957849E+02  0.40432546210E+02 -0.23393478848E+03  0.23810769480E+03  0.00000000000E+00 0. -1.
         -3    1    1    2    0  501  0.11149313828E+03 -0.50731922863E+01  0.13188655977E+03  0.17277303554E+03  0.00000000000E+00 0.  1.
<mgrwt>
<rscale>  0 0.71049765E+02</rscale>
<asrwt>0</asrwt>
<pdfrwt beam="2">  1        2 0.61925090E-01 0.44382306E+02</pdfrwt>
<pdfrwt beam="1">  1       -2 0.32637223E-01 0.11374058E+03</pdfrwt>
<totfact> 0.69496882E+02</totfact>
</mgrwt>
</event>
<event>
 7    1  0.6493044E-004  0.1518415E+03  0.7546771E-02  0.1273572E+00
          1   -1    0    0  502    0 -0.00000000000E+00  0.00000000000E+00  0.46271451242E+03  0.46271451242E+03  0.00000000000E+00 0. -1.
          2   -1    0    0  503    0  0.00000000000E+00 -0.00000000000E+00 -0.72627076812E+03  0.72627076812E+03  0.00000000000E+00 0. -1.
         25    2    1    2    0    0  0.12952637178E+02  0.19497931452E+03  0.21681910662E+03  0.31751242198E+03  0.12497563449E+03 0.  0.
          4    1    3    3  501    0 -0.28368371298E+02  0.40402862870E+02  0.17046745141E+01  0.49413304215E+02  0.12700000000E+01 0.  1.
         -4    1    3    3    0  501  0.41321008476E+02  0.15457645165E+03  0.21511443211E+03  0.26809911776E+03  0.12700000000E+01 0.  1.
          2    1    1    2  502    0 -0.50370696778E+02 -0.48941877760E+02  0.18046788982E+03  0.19365219790E+03  0.00000000000E+00 0. -1.
          1    1    1    2  503    0  0.37418059601E+02 -0.14603743676E+03 -0.66084325215E+03  0.67782066067E+03  0.00000000000E+00 0. -1.
<mgrwt>
<rscale>  0 0.10326718E+03</rscale>
<asrwt>0</asrwt>
<pdfrwt beam="2">  1        2 0.11173396E+00 0.15184150E+03</pdfrwt>
<pdfrwt beam="1">  1        1 0.71186848E-01 0.70231862E+02</pdfrwt>
<totfact> 0.28724082E+02</totfact>
</mgrwt>
</event>
<event>
 7    1  0.6493044E-004  0.6912645E+02  0.7546771E-02  0.1373819E+00
          2   -1    0    0  503    0  0.00000000000E+00  0.00000000000E+00  0.15439555977E+03  0.15439555977E+03  0.00000000000E+00 0. -1.
          1   -1    0    0  502    0 -0.00000000000E+00 -0.00000000000E+00 -0.31549156474E+03  0.31549156474E+03  0.00000000000E+00 0. -1.
         25    2    1    2    0    0  0.21358061077E+02 -0.25435583356E+02 -0.18052739563E+03  0.22207621124E+03  0.12499826939E+03 0.  0.
          4    1    3    3  501    0 -0.51947243290E+02 -0.82570831973E+01 -0.58455385694E+02  0.78646935891E+02  0.12700000000E+01 0. -1.
         -4    1    3    3    0  501  0.73305304368E+02 -0.17178500159E+02 -0.12207200993E+03  0.14342927534E+03  0.12700000000E+01 0. -1.
          2    1    1    2  502    0 -0.85907390170E+02  0.50171175865E+02 -0.79343319457E+02  0.12725010380E+03  0.00000000000E+00 0. -1.
          1    1    1    2  503    0  0.64549329093E+02 -0.24735592509E+02  0.98774710115E+02  0.12056080948E+03  0.00000000000E+00 0. -1.
<mgrwt>
<rscale>  0 0.66116862E+02</rscale>
<asrwt>0</asrwt>
<pdfrwt beam="1">  1        2 0.23753163E-01 0.69126445E+02</pdfrwt>
<pdfrwt beam="2">  1        1 0.48537163E-01 0.63238309E+02</pdfrwt>
<totfact> 0.24483483E+03</totfact>
</mgrwt>
</event>
<event>
 7    1  0.6493044E-004  0.3517623E+02  0.7546771E-02  0.1581976E+00
          1   -1    0    0  502    0 -0.00000000000E+00  0.00000000000E+00  0.85857440970E+03  0.85857440970E+03  0.00000000000E+00 0. -1.
          2   -1    0    0  503    0  0.00000000000E+00 -0.00000000000E+00 -0.58425113894E+03  0.58425113894E+03  0.00000000000E+00 0. -1.
         25    2    1    2    0    0 -0.52748832409E+01 -0.59429567362E+01  0.31928113236E+02  0.12925676250E+03  0.12499905243E+03 0.  0.
          4    1    3    3  501    0  0.39373758752E+01 -0.12986342679E+02 -0.47274322434E+02  0.49199822017E+02  0.12700000000E+01 0. -1.
         -4    1    3    3    0  501 -0.92122591160E+01  0.70433859424E+01  0.79202435669E+02  0.80056940483E+02  0.12700000000E+01 0. -1.
          2    1    1    2  502    0 -0.60857497456E+01 -0.27561605255E+02  0.77714126356E+03  0.77765366453E+03  0.00000000000E+00 0. -1.
          1    1    1    2  503    0  0.11360632987E+02  0.33504561991E+02 -0.53474610604E+03  0.53591512162E+03  0.00000000000E+00 0. -1.
<mgrwt>
<rscale>  0 0.31509782E+02</rscale>
<asrwt>0</asrwt>
<pdfrwt beam="2">  1        2 0.89884791E-01 0.35176228E+02</pdfrwt>
<pdfrwt beam="1">  1        1 0.13208837E+00 0.28225493E+02</pdfrwt>
<totfact> 0.17371606E+02</totfact>
</mgrwt>
</event>
<event>
 7    1  0.6493044E-004  0.9775347E+02  0.7546771E-02  0.1401788E+00
         -1   -1    0    0    0  501 -0.00000000000E+00  0.00000000000E+00  0.25741482897E+03  0.25741482897E+03  0.00000000000E+00 0.  1.
          1   -1    0    0  503    0  0.00000000000E+00 -0.00000000000E+00 -0.10528448682E+03  0.10528448682E+03  0.00000000000E+00 0. -1.
         25    2    1    2    0    0  0.27371460905E+02  0.10220732600E+03  0.15430984968E+03  0.22501945730E+03  0.12500676820E+03 0.  0.
          4    1    3    3  502    0  0.11880954709E+02 -0.10961047254E+02 -0.14124199380E+02  0.21503663638E+02  0.12700000000E+01 0.  1.
         -4    1    3    3    0  502  0.15490506196E+02  0.11316837325E+03  0.16843404906E+03  0.20351579366E+03  0.12700000000E+01 0.  1.
          2    1    1    2  503    0 -0.54986793802E+02 -0.79596160315E+02  0.15288793783E+02  0.97943062259E+02  0.00000000000E+00 0. -1.
         -2    1    1    2    0  501  0.27615332897E+02 -0.22611165682E+02 -0.17468301311E+02  0.39736796237E+02  0.00000000000E+00 0.  1.
<mgrwt>
<rscale>  0 0.59067351E+02</rscale>
<asrwt>0</asrwt>
<pdfrwt beam="2">  1        1 0.16197613E-01 0.97753470E+02</pdfrwt>
<pdfrwt beam="1">  1       -1 0.39602281E-01 0.35691335E+02</pdfrwt>
<totfact> 0.20087186E+03</totfact>
</mgrwt>
</event>
<event>
 7    1  0.6493044E-004  0.1897605E+03  0.7546771E-02  0.1198639E+00
          1   -1    0    0  503    0  0.00000000000E+00  0.00000000000E+00  0.11398425915E+04  0.11398425915E+04  0.00000000000E+00 0. -1.
         -1   -1    0    0    0  501 -0.00000000000E+00 -0.00000000000E+00 -0.16701158164E+03  0.16701158164E+03  0.00000000000E+00 0.  1.
         25    2    1    2    0    0 -0.92207289773E+02  0.12976379359E+03  0.16186805066E+03  0.25917899289E+03  0.12502662963E+03 0.  0.
          4    1    3    3  502    0  0.69431500491E+01  0.91093658840E+02  0.10249375402E+03  0.13730566094E+03  0.12700000000E+01 0.  1.
         -4    1    3    3    0  502 -0.99150439822E+02  0.38670134752E+02  0.59374296640E+02  0.12187333195E+03  0.12700000000E+01 0.  1.
          2    1    1    2  503    0  0.86783564590E+02  0.84258377543E+02  0.82433976847E+03  0.83316679911E+03  0.00000000000E+00 0. -1.
         -2    1    1    2    0  501  0.54237251833E+01 -0.21402217113E+03 -0.13376809309E+02  0.21450838109E+03  0.00000000000E+00 0.  1.
<mgrwt>
<rscale>  0 0.15150270E+03</rscale>
<asrwt>0</asrwt>
<pdfrwt beam="1">  1        1 0.17536039E+00 0.12095810E+03</pdfrwt>
<pdfrwt beam="2">  1       -1 0.25694090E-01 0.18976050E+03</pdfrwt>
<totfact> 0.17830713E+02</totfact>
</mgrwt>
</event>
<event>
 7    1  0.6493044E-004  0.7275721E+02  0.7546771E-02  0.1456594E+00
          2   -1    0    0  503    0  0.00000000000E+00  0.00000000000E+00  0.67745662718E+03  0.67745662718E+03  0.00000000000E+00 0. -1.
         -2   -1    0    0    0  501 -0.00000000000E+00 -0.00000000000E+00 -0.20404781149E+03  0.20404781149E+03  0.00000000000E+00 0.  1.
         25    2    1    2    0    0  0.50466868627E+02  0.80724063593E+02  0.91970512252E+01  0.15739292850E+03  0.12499867566E+03 0.  0.
          4    1    3    3  502    0  0.75981999527E+02  0.95903410821E+02 -0.87564074528E+01  0.12267443104E+03  0.12700000000E+01 0.  1.
         -4    1    3    3    0  502 -0.25515130900E+02 -0.15179347228E+02  0.17953458678E+02  0.34718497456E+02  0.12700000000E+01 0.  1.
          1    1    1    2  503    0 -0.28462484579E+02 -0.13798267313E+02  0.58415381896E+03  0.58500956353E+03  0.00000000000E+00 0. -1.
         -1    1    1    2    0  501 -0.22004384048E+02 -0.66925796281E+02 -0.11994205449E+03  0.13910194665E+03  0.00000000000E+00 0.  1.
<mgrwt>
<rscale>  0 0.47972557E+02</rscale>
<asrwt>0</asrwt>
<pdfrwt beam="1">  1        2 0.10422410E+00 0.31630764E+02</pdfrwt>
<pdfrwt beam="2">  1       -2 0.31391971E-01 0.72757213E+02</pdfrwt>
<totfact> 0.42978931E+02</totfact>
</mgrwt>
</event>
<event>
 7    1  0.6493044E-004  0.6696045E+02  0.7546771E-02  0.1398127E+00
          2   -1    0    0  503    0  0.00000000000E+00  0.00000000000E+00  0.11412099481E+04  0.11412099481E+04  0.00000000000E+00 0. -1.
         -2   -1    0    0    0  501 -0.00000000000E+00 -0.00000000000E+00 -0.52919634512E+03  0.52919634512E+03  0.00000000000E+00 0.  1.
         25    2    1    2    0    0 -0.55850010927E+02  0.43539343587E+02  0.11917068989E+03  0.18666199596E+03  0.12500459691E+03 0.  0.
          4    1    3    3  502    0  0.30267461144E+02 -0.12452398881E+02  0.50919828823E+01  0.33146985258E+02  0.12700000000E+01 0. -1.
         -4    1    3    3    0  502 -0.86117472071E+02  0.55991742468E+02  0.11407870700E+03  0.15351501071E+03  0.12700000000E+01 0. -1.
          1    1    1    2  503    0  0.48333207057E+02  0.23255802802E+02  0.98528101656E+03  0.98673989119E+03  0.00000000000E+00 0. -1.
         -1    1    1    2    0  501  0.75168038702E+01 -0.66795146388E+02 -0.49243810346E+03  0.49700440607E+03  0.00000000000E+00 0.  1.
<mgrwt>
<rscale>  0 0.59929626E+02</rscale>
<asrwt>0</asrwt>
<pdfrwt beam="1">  1        2 0.17557076E+00 0.53637033E+02</pdfrwt>
<pdfrwt beam="2">  1       -2 0.81414822E-01 0.66960453E+02</pdfrwt>
<totfact> 0.34034760E+01</totfact>
</mgrwt>
</event>
<event>
 7    1  0.6493044E-004  0.6532797E+02  0.7546771E-02  0.1535768E+00
          1   -1    0    0  502    0 -0.00000000000E+00  0.00000000000E+00  0.97887121353E+02  0.97887121353E+02  0.00000000000E+00 0. -1.
          2   -1    0    0  503    0  0.00000000000E+00 -0.00000000000E+00 -0.14826109953E+04  0.14826109953E+04  0.00000000000E+00 0. -1.
         25    2    1    2    0    0  0.65096644864E+02  0.10848789820E+02  0.27776092640E+02  0.14405438855E+03  0.12499954450E+03 0.  0.
          4    1    3    3  501    0  0.59434920835E+02  0.56504660274E+02 -0.12415541646E+02  0.82952064601E+02  0.12700000000E+01 0.  1.
         -4    1    3    3    0  501  0.56617240290E+01 -0.45655870454E+02  0.40191634286E+02  0.61102323953E+02  0.12700000000E+01 0.  1.
          2    1    1    2  502    0 -0.58889546313E+02 -0.30260772991E+02 -0.80247344186E+02  0.10403523103E+03  0.00000000000E+00 0. -1.
          1    1    1    2  503    0 -0.62070985504E+01  0.19411983171E+02 -0.13322526224E+04  0.13324084971E+04  0.00000000000E+00 0. -1.
<mgrwt>
<rscale>  0 0.36488327E+02</rscale>
<asrwt>0</asrwt>
<pdfrwt beam="2">  1        2 0.22809398E+00 0.20380215E+02</pdfrwt>
<pdfrwt beam="1">  1        1 0.15059558E-01 0.65327966E+02</pdfrwt>
<totfact> 0.81982241E+02</totfact>
</mgrwt>
</event>
<event>
 7    1  0.6493044E-004  0.6750928E+02  0.7546771E-02  0.1395312E+00
         -2   -1    0    0    0  501 -0.00000000000E+00  0.00000000000E+00  0.35045729369E+02  0.35045729369E+02  0.00000000000E+00 0.  1.
          2   -1    0    0  503    0  0.00000000000E+00 -0.00000000000E+00 -0.24033267793E+04  0.24033267793E+04  0.00000000000E+00 0. -1.
         25    2    1    2    0    0  0.15797483557E+02 -0.16174572874E+02 -0.47985239806E+03  0.49638177227E+03  0.12500145048E+03 0.  0.
          4    1    3    3  502    0 -0.10137214316E+02 -0.19574952894E+02 -0.46643456765E+03  0.46695691524E+03  0.12700000000E+01 0. -1.
         -4    1    3    3    0  502  0.25934697872E+02  0.34003800204E+01 -0.13417830408E+02  0.29424857024E+02  0.12700000000E+01 0. -1.
          1    1    1    2  503    0 -0.70154130421E+02  0.13851879159E+02 -0.18861831451E+04  0.18875381674E+04  0.00000000000E+00 0. -1.
         -1    1    1    2    0  501  0.54356646864E+02  0.23226937146E+01 -0.22455067285E+01  0.54452568947E+02  0.00000000000E+00 0.  1.
<mgrwt>
<rscale>  0 0.60604677E+02</rscale>
<asrwt>0</asrwt>
<pdfrwt beam="2">  1        2 0.36974269E+00 0.67509282E+02</pdfrwt>
<pdfrwt beam="1">  1       -2 0.53916490E-02 0.54406249E+02</pdfrwt>
<totfact> 0.81721145E+02</totfact>
</mgrwt>
</event>
<event>
 7    1  0.6493044E-004  0.1325803E+03  0.7546771E-02  0.1261846E+00
          1   -1    0    0  502    0 -0.00000000000E+00  0.00000000000E+00  0.67761413697E+03  0.67761413697E+03  0.00000000000E+00 0. -1.
          2   -1    0    0  503    0  0.00000000000E+00 -0.00000000000E+00 -0.52814475249E+03  0.52814475249E+03  0.00000000000E+00 0. -1.
         25    2    1    2    0    0  0.23938746304E+02  0.84089418473E+01 -0.18283617058E+03  0.22292663944E+03  0.12499378954E+03 0.  0.
          4    1    3    3  501    0 -0.34108558041E+02 -0.16566724627E+02 -0.14361324556E+03  0.14854032212E+03  0.12700000000E+01 0.  1.
         -4    1    3    3    0  501  0.58047304344E+02  0.24975666474E+02 -0.39222925023E+02  0.74386317323E+02  0.12700000000E+01 0.  1.
          2    1    1    2  502    0  0.67516345786E+02  0.11410119178E+03  0.63234187687E+03  0.64609116087E+03  0.00000000000E+00 0. -1.
          3    1    1    2  503    0 -0.91455092090E+02 -0.12251013363E+03 -0.30003632182E+03  0.33674108915E+03  0.00000000000E+00 0. -1.
<mgrwt>
<rscale>  0 0.10931374E+03</rscale>
<asrwt>0</asrwt>
<pdfrwt beam="2">  1        2 0.81253039E-01 0.90130227E+02</pdfrwt>
<pdfrwt beam="1">  1        1 0.10424833E+00 0.13258031E+03</pdfrwt>
<totfact> 0.24798460E+02</totfact>
</mgrwt>
</event>
<event>
 7    1  0.6493044E-004  0.5939594E+02  0.7546771E-02  0.1421701E+00
         -2   -1    0    0    0  501 -0.00000000000E+00  0.00000000000E+00  0.81799652374E+02  0.81799652374E+02  0.00000000000E+00 0.  1.
          2   -1    0    0  503    0  0.00000000000E+00 -0.00000000000E+00 -0.34410397929E+04  0.34410397929E+04  0.00000000000E+00 0. -1.
         25    2    1    2    0    0  0.62693704664E+02 -0.15511106936E+02 -0.13467998340E+04  0.13541296244E+04  0.12500460707E+03 0.  0.
          4    1    3    3  502    0 -0.18567718995E+02  0.36945931576E+02 -0.53253064219E+03  0.53413505766E+03  0.12700000000E+01 0. -1.
         -4    1    3    3    0  502  0.81261423659E+02 -0.52457038512E+02 -0.81426919185E+03  0.81999456678E+03  0.12700000000E+01 0. -1.
          1    1    1    2  503    0 -0.13175874309E+02  0.48550372301E+02 -0.20788883097E+04  0.20794968974E+04  0.00000000000E+00 0. -1.
         -1    1    1    2    0  501 -0.49517830355E+02 -0.33039265365E+02  0.66448003172E+02  0.89212923416E+02  0.00000000000E+00 0.  1.
<mgrwt>
<rscale>  0 0.54662610E+02</rscale>
<asrwt>0</asrwt>
<pdfrwt beam="2">  1        2 0.52939092E+00 0.50306484E+02</pdfrwt>
<pdfrwt beam="1">  1       -2 0.12584558E-01 0.59395941E+02</pdfrwt>
<totfact> 0.63788842E+01</totfact>
</mgrwt>
</event>
<event>
 7    1  0.6493044E-004  0.1680324E+03  0.7546771E-02  0.1209048E+00
          2   -1    0    0  503    0  0.00000000000E+00  0.00000000000E+00  0.58892641567E+03  0.58892641567E+03  0.00000000000E+00 0. -1.
          1   -1    0    0  502    0 -0.00000000000E+00 -0.00000000000E+00 -0.93181536633E+03  0.93181536633E+03  0.00000000000E+00 0. -1.
         25    2    1    2    0    0 -0.18748212446E+03  0.16898370797E+03  0.29859479988E+03  0.41048014033E+03  0.12502020053E+03 0.  0.
          4    1    3    3  501    0 -0.21697962995E+02  0.76869520109E+01 -0.97408865793E+01  0.25027756605E+02  0.12700000000E+01 0.  1.
         -4    1    3    3    0  501 -0.16578416146E+03  0.16129675596E+03  0.30833568646E+03  0.38545238372E+03  0.12700000000E+01 0.  1.
          2    1    1    2  502    0  0.66474266762E+02 -0.15277477147E+03 -0.85133200422E+03  0.86748206918E+03  0.00000000000E+00 0. -1.
          1    1    1    2  503    0  0.12100785770E+03 -0.16208936507E+02  0.20984825368E+03  0.24277957249E+03  0.00000000000E+00 0. -1.
<mgrwt>
<rscale>  0 0.14323006E+03</rscale>
<asrwt>0</asrwt>
<pdfrwt beam="1">  1        2 0.90604065E-01 0.12208862E+03</pdfrwt>
<pdfrwt beam="2">  1        1 0.14335621E+00 0.16803244E+03</pdfrwt>
<totfact> 0.13344036E+02</totfact>
</mgrwt>
</event>
<event>
 7    1  0.6493044E-004  0.3165052E+02  0.7546771E-02  0.1649114E+00
         -1   -1    0    0    0  501 -0.00000000000E+00  0.00000000000E+00  0.14998592215E+03  0.14998592215E+03  0.00000000000E+00 0.  1.
          1   -1    0    0  503    0  0.00000000000E+00 -0.00000000000E+00 -0.30336941646E+03  0.30336941646E+03  0.00000000000E+00 0. -1.
         25    2    1    2    0    0 -0.13945393590E+02 -0.46229550548E+02  0.53672868101E+02  0.14434850218E+03  0.12499627180E+03 0.  0.
          4    1    3    3  502    0  0.13500029665E+02  0.16117800245E+02  0.70990627903E+02  0.74049418876E+02  0.12700000000E+01 0.  1.
         -4    1    3    3    0  502 -0.27445423255E+02 -0.62347350793E+02 -0.17317759802E+02  0.70299083302E+02  0.12700000000E+01 0.  1.
          2    1    1    2  503    0  0.13693220830E+02  0.16065085866E+02 -0.25309066287E+03  0.25396943696E+03  0.00000000000E+00 0. -1.
         -2    1    1    2    0  501  0.25217276017E+00  0.30164464682E+02  0.46034300459E+02  0.55037399461E+02  0.00000000000E+00 0.  1.
<mgrwt>
<rscale>  0 0.25847862E+02</rscale>
<asrwt>0</asrwt>
<pdfrwt beam="2">  1        1 0.46672217E-01 0.21109033E+02</pdfrwt>
<pdfrwt beam="1">  1       -1 0.23074758E-01 0.31650524E+02</pdfrwt>
<totfact> 0.12779279E+03</totfact>
</mgrwt>
</event>
<event>
 7    1  0.6493044E-004  0.1620396E+03  0.7546771E-02  0.1299361E+00
          1   -1    0    0  502    0 -0.00000000000E+00  0.00000000000E+00  0.10477200147E+04  0.10477200147E+04  0.00000000000E+00 0. -1.
          2   -1    0    0  503    0  0.00000000000E+00 -0.00000000000E+00 -0.23433298077E+04  0.23433298077E+04  0.00000000000E+00 0. -1.
         25    2    1    2    0    0 -0.10826577885E+03  0.85360546409E+02 -0.80337726321E+02  0.20270591596E+03  0.12501054492E+03 0.  0.
          4    1    3    3  501    0  0.18985400694E+02  0.39853622098E+02 -0.44918437983E+02  0.62992345604E+02  0.12700000000E+01 0. -1.
         -4    1    3    3    0  501 -0.12725117954E+03  0.45506924311E+02 -0.35419288337E+02  0.13971357036E+03  0.12700000000E+01 0. -1.
          2    1    1    2  502    0 -0.44302943316E+02 -0.26492045151E+02  0.98282121441E+03  0.98417585763E+03  0.00000000000E+00 0. -1.
          1    1    1    2  503    0  0.15256872217E+03 -0.58868501258E+02 -0.21980932811E+04  0.22041680489E+04  0.00000000000E+00 0. -1.
<mgrwt>
<rscale>  0 0.91457166E+02</rscale>
<asrwt>0</asrwt>
<pdfrwt beam="2">  1        2 0.36051228E+00 0.16203960E+03</pdfrwt>
<pdfrwt beam="1">  1        1 0.16118770E+00 0.51619563E+02</pdfrwt>
<totfact> 0.11768173E+01</totfact>
</mgrwt>
</event>
<event>
 7    1  0.6493044E-004  0.8670626E+02  0.7546771E-02  0.1441893E+00
          2   -1    0    0  503    0  0.00000000000E+00  0.00000000000E+00  0.12143144528E+04  0.12143144528E+04  0.00000000000E+00 0. -1.
          1   -1    0    0  502    0 -0.00000000000E+00 -0.00000000000E+00 -0.11907209792E+03  0.11907209792E+03  0.00000000000E+00 0. -1.
         25    2    1    2    0    0 -0.72757571576E+02 -0.79180365799E+02  0.82373165313E+03  0.84006792751E+03  0.12496836362E+03 0.  0.
          4    1    3    3  501    0  0.25995828931E+02 -0.58174069500E+02  0.30074608530E+03  0.30742450489E+03  0.12700000000E+01 0.  1.
         -4    1    3    3    0  501 -0.98753400507E+02 -0.21006296298E+02  0.52298556784E+03  0.53264342262E+03  0.12700000000E+01 0.  1.
          2    1    1    2  502    0  0.70607869674E+02  0.49676737041E+02 -0.93413146338E+02  0.12719774122E+03  0.00000000000E+00 0. -1.
          1    1    1    2  503    0  0.21497019021E+01  0.29503628758E+02  0.36492384808E+03  0.36612088198E+03  0.00000000000E+00 0. -1.
<mgrwt>
<rscale>  0 0.50645145E+02</rscale>
<asrwt>0</asrwt>
<pdfrwt beam="1">  1        2 0.18681760E+00 0.29581841E+02</pdfrwt>
<pdfrwt beam="2">  1        1 0.18318785E-01 0.86706256E+02</pdfrwt>
<totfact> 0.84889551E+02</totfact>
</mgrwt>
</event>
<event>
 7    1  0.2453147E-003  0.3571013E+02  0.7546771E-02  0.1558385E+00
          2   -1    0    0  503    0  0.00000000000E+00  0.00000000000E+00  0.31339833669E+03  0.31339833669E+03  0.00000000000E+00 0. -1.
         -2   -1    0    0    0  501 -0.00000000000E+00 -0.00000000000E+00 -0.45236732701E+02  0.45236732701E+02  0.00000000000E+00 0.  1.
         25    2    1    2    0    0 -0.18422216213E+02 -0.24285209955E+02  0.95921883347E+02  0.16052975775E+03  0.12505857006E+03 0.  0.
          4    1    3    3  502    0 -0.80196778991E+01  0.39121197792E+02  0.86884095742E+02  0.95630760444E+02  0.12700000000E+01 0. -1.
         -4    1    3    3    0  502 -0.10402538314E+02 -0.63406407747E+02  0.90377876052E+01  0.64898997308E+02  0.12700000000E+01 0. -1.
          3    1    1    2  503    0 -0.21544771951E+02  0.23962392684E+02  0.14776707386E+03  0.15123981480E+03  0.00000000000E+00 0. -1.
         -3    1    1    2    0  501  0.39966988164E+02  0.32281727164E+00  0.24472646777E+02  0.46865496841E+02  0.00000000000E+00 0.  1.
<mgrwt>
<rscale>  0 0.33922207E+02</rscale>
<asrwt>0</asrwt>
<pdfrwt beam="1">  1        2 0.48215127E-01 0.32223803E+02</pdfrwt>
<pdfrwt beam="2">  1       -2 0.69594976E-02 0.35710128E+02</pdfrwt>
<totfact> 0.10140928E+04</totfact>
</mgrwt>
</event>
<event>
 7    1  0.6493044E-004  0.6371482E+02  0.7546771E-02  0.1527869E+00
          2   -1    0    0  503    0  0.00000000000E+00  0.00000000000E+00  0.50361929092E+03  0.50361929092E+03  0.00000000000E+00 0. -1.
          1   -1    0    0  502    0 -0.00000000000E+00 -0.00000000000E+00 -0.80452390481E+03  0.80452390481E+03  0.00000000000E+00 0. -1.
         25    2    1    2    0    0  0.15159769229E+02  0.46304519427E+02  0.13761629219E+03  0.19219379922E+03  0.12500514174E+03 0.  0.
          4    1    3    3  501    0  0.30947772073E+02  0.73458242017E+02  0.13953124171E+03  0.16069990115E+03  0.12700000000E+01 0.  1.
         -4    1    3    3    0  501 -0.15788002844E+02 -0.27153722590E+02 -0.19149495201E+01  0.31493898075E+02  0.12700000000E+01 0.  1.
          2    1    1    2  502    0  0.20054749640E+02  0.90716509905E+01 -0.77389857975E+03  0.77421153412E+03  0.00000000000E+00 0. -1.
          1    1    1    2  503    0 -0.35214518869E+02 -0.55376170417E+02  0.33537767367E+03  0.34173786238E+03  0.00000000000E+00 0. -1.
<mgrwt>
<rscale>  0 0.37449062E+02</rscale>
<asrwt>0</asrwt>
<pdfrwt beam="1">  1        2 0.77479891E-01 0.63714820E+02</pdfrwt>
<pdfrwt beam="2">  1        1 0.12377291E+00 0.22011084E+02</pdfrwt>
<totfact> 0.22410274E+02</totfact>
</mgrwt>
</event>
<event>
 7    1  0.6493044E-004  0.6926534E+02  0.7546771E-02  0.1442712E+00
          1   -1    0    0  503    0  0.00000000000E+00  0.00000000000E+00  0.75579403056E+03  0.75579403056E+03  0.00000000000E+00 0. -1.
         -1   -1    0    0    0  501 -0.00000000000E+00 -0.00000000000E+00 -0.25199110668E+03  0.25199110668E+03  0.00000000000E+00 0.  1.
         25    2    1    2    0    0 -0.24383335383E+02 -0.26218913176E+02  0.24358602429E+02  0.13228592973E+03  0.12499698892E+03 0.  0.
          4    1    3    3  502    0 -0.71714369309E+02  0.61647631621E+01  0.68757027862E+01  0.72317655238E+02  0.12700000000E+01 0.  1.
         -4    1    3    3    0  502  0.47331033926E+02 -0.32383676339E+02  0.17482899643E+02  0.59968274493E+02  0.12700000000E+01 0.  1.
          2    1    1    2  503    0  0.59185131129E+02  0.38196414207E+02  0.67390992160E+03  0.67758130747E+03  0.00000000000E+00 0. -1.
         -2    1    1    2    0  501 -0.34801795746E+02 -0.11977501030E+02 -0.19446560015E+03  0.19791790004E+03  0.00000000000E+00 0.  1.
<mgrwt>
<rscale>  0 0.50490862E+02</rscale>
<asrwt>0</asrwt>
<pdfrwt beam="1">  1        1 0.11627600E+00 0.69265335E+02</pdfrwt>
<pdfrwt beam="2">  1       -1 0.38767863E-01 0.36805238E+02</pdfrwt>
<totfact> 0.17412804E+02</totfact>
</mgrwt>
</event>
<event>
 7    1  0.6493044E-004  0.1589940E+03  0.7546771E-02  0.1234022E+00
          2   -1    0    0  503    0  0.00000000000E+00  0.00000000000E+00  0.26802105372E+04  0.26802105372E+04  0.00000000000E+00 0. -1.
         -2   -1    0    0    0  501 -0.00000000000E+00 -0.00000000000E+00 -0.41913017330E+03  0.41913017330E+03  0.00000000000E+00 0.  1.
         25    2    1    2    0    0  0.17434806129E+03  0.51463935600E+02  0.53516502882E+03  0.57885408536E+03  0.12499864369E+03 0.  0.
          4    1    3    3  502    0  0.11657225891E+03  0.88160418850E+02  0.29654111484E+03  0.33060489514E+03  0.12700000000E+01 0. -1.
         -4    1    3    3    0  502  0.57775802385E+02 -0.36696483250E+02  0.23862391398E+03  0.24824919022E+03  0.12700000000E+01 0. -1.
          1    1    1    2  503    0 -0.21815500233E+02 -0.96909363435E+02  0.21060428710E+04  0.21083841953E+04  0.00000000000E+00 0. -1.
         -1    1    1    2    0  501 -0.15253256106E+03  0.45445427835E+02 -0.38012753590E+03  0.41210242980E+03  0.00000000000E+00 0.  1.
<mgrwt>
<rscale>  0 0.12567252E+03</rscale>
<asrwt>0</asrwt>
<pdfrwt beam="1">  1        2 0.41234007E+00 0.99334489E+02</pdfrwt>
<pdfrwt beam="2">  1       -2 0.64481567E-01 0.15899396E+03</pdfrwt>
<totfact> 0.85054565E+00</totfact>
</mgrwt>
</event>
<event>
 7    1  0.6493044E-004  0.8408138E+02  0.7546771E-02  0.1327219E+00
         -1   -1    0    0    0  502 -0.00000000000E+00  0.00000000000E+00  0.97091262700E+03  0.97091262700E+03  0.00000000000E+00 0.  1.
         -2   -1    0    0    0  501  0.00000000000E+00 -0.00000000000E+00 -0.10775648791E+03  0.10775648791E+03  0.00000000000E+00 0.  1.
         25    2    1    2    0    0 -0.84835370305E+02  0.10324026103E+03  0.10385928736E+03  0.21039733498E+03  0.12499878176E+03 0.  0.
          4    1    3    3  503    0 -0.55930790517E+02  0.83053077613E+02 -0.60144980400E+00  0.10014011020E+03  0.12700000000E+01 0.  1.
         -4    1    3    3    0  503 -0.28904579788E+02  0.20187183420E+02  0.10446073716E+03  0.11025722478E+03  0.12700000000E+01 0.  1.
         -2    1    1    2    0  502  0.11988349966E+02 -0.76422516907E+02  0.78322896415E+03  0.78703985408E+03  0.00000000000E+00 0.  1.
         -1    1    1    2    0  501  0.72847020338E+02 -0.26817744126E+02 -0.23932112428E+02  0.81231925851E+02  0.00000000000E+00 0.  1.
<mgrwt>
<rscale>  0 0.80649191E+02</rscale>
<asrwt>0</asrwt>
<pdfrwt beam="2">  1       -2 0.16577922E-01 0.84081379E+02</pdfrwt>
<pdfrwt beam="1">  1       -1 0.14937117E+00 0.77357105E+02</pdfrwt>
<totfact> 0.85039178E+01</totfact>
</mgrwt>
</event>
<event>
 7    1  0.6493044E-004  0.6096132E+02  0.7546771E-02  0.1414095E+00
         -1   -1    0    0    0  501 -0.00000000000E+00  0.00000000000E+00  0.27450823031E+02  0.27450823031E+02  0.00000000000E+00 0.  1.
          1   -1    0    0  503    0  0.00000000000E+00 -0.00000000000E+00 -0.76928731655E+03  0.76928731655E+03  0.00000000000E+00 0. -1.
         25    2    1    2    0    0 -0.79773635641E+02 -0.24767834122E+02 -0.25683295726E+03  0.29759941187E+03  0.12499985384E+03 0.  0.
          4    1    3    3  502    0 -0.83384915970E+02  0.12140816571E+02 -0.77578705433E+02  0.11454480379E+03  0.12700000000E+01 0.  1.
         -4    1    3    3    0  502  0.36112803291E+01 -0.36908650693E+02 -0.17925425182E+03  0.18305460808E+03  0.12700000000E+01 0.  1.
          2    1    1    2  503    0  0.28740034648E+02  0.43307838344E+02 -0.34642806683E+03  0.35030552941E+03  0.00000000000E+00 0. -1.
         -2    1    1    2    0  501  0.51033600994E+02 -0.18540004221E+02 -0.13857546943E+03  0.14883319830E+03  0.00000000000E+00 0.  1.
<mgrwt>
<rscale>  0 0.56289937E+02</rscale>
<asrwt>0</asrwt>
<pdfrwt beam="2">  1        1 0.11835189E+00 0.51976518E+02</pdfrwt>
<pdfrwt beam="1">  1       -1 0.42232036E-02 0.60961316E+02</pdfrwt>
<totfact> 0.51854968E+03</totfact>
</mgrwt>
</event>
<event>
 7    1  0.6493044E-004  0.8637184E+02  0.7546771E-02  0.1385116E+00
         -1   -1    0    0    0  501 -0.00000000000E+00  0.00000000000E+00  0.12709741999E+03  0.12709741999E+03  0.00000000000E+00 0.  1.
          1   -1    0    0  503    0  0.00000000000E+00 -0.00000000000E+00 -0.24392405306E+04  0.24392405306E+04  0.00000000000E+00 0. -1.
         25    2    1    2    0    0 -0.94683200581E+01 -0.96652324956E+02 -0.26090049711E+03  0.30516432207E+03  0.12499949227E+03 0.  0.
          4    1    3    3  502    0 -0.20840317500E+02  0.13512980425E+02 -0.37186741759E+01  0.25146787291E+02  0.12700000000E+01 0.  1.
         -4    1    3    3    0  502  0.11371997442E+02 -0.11016530538E+03 -0.25718182294E+03  0.28001753478E+03  0.12700000000E+01 0.  1.
          2    1    1    2  503    0 -0.38792320846E+02  0.25006875847E+02 -0.21381439264E+04  0.21386420079E+04  0.00000000000E+00 0. -1.
         -2    1    1    2    0  501  0.48260640904E+02  0.71645449108E+02  0.86901312970E+02  0.12253162055E+03  0.00000000000E+00 0.  1.
<mgrwt>
<rscale>  0 0.63137962E+02</rscale>
<asrwt>0</asrwt>
<pdfrwt beam="2">  1        1 0.37526776E+00 0.46153960E+02</pdfrwt>
<pdfrwt beam="1">  1       -1 0.19553450E-01 0.86371836E+02</pdfrwt>
<totfact> 0.45634506E+01</totfact>
</mgrwt>
</event>
<event>
 7    1  0.6493044E-004  0.7280861E+02  0.7546771E-02  0.1404611E+00
          2   -1    0    0  503    0  0.00000000000E+00  0.00000000000E+00  0.10223154147E+04  0.10223154147E+04  0.00000000000E+00 0. -1.
          1   -1    0    0  502    0 -0.00000000000E+00 -0.00000000000E+00 -0.18063292216E+04  0.18063292216E+04  0.00000000000E+00 0. -1.
         25    2    1    2    0    0  0.33073368547E+02  0.13472265785E+02 -0.10498923769E+03  0.16710359745E+03  0.12500209037E+03 0.  0.
          4    1    3    3  501    0  0.37396543066E+02  0.33126175584E+02  0.94853010954E+01  0.50866774804E+02  0.12700000000E+01 0.  1.
         -4    1    3    3    0  501 -0.43231745190E+01 -0.19653909798E+02 -0.11447453879E+03  0.11623682265E+03  0.12700000000E+01 0.  1.
          2    1    1    2  502    0 -0.44690524970E+02 -0.58874871074E+02 -0.16689103942E+04  0.16705464367E+04  0.00000000000E+00 0. -1.
          1    1    1    2  503    0  0.11617156423E+02  0.45402605288E+02  0.98988582503E+03  0.99099460215E+03  0.00000000000E+00 0. -1.
<mgrwt>
<rscale>  0 0.58414005E+02</rscale>
<asrwt>0</asrwt>
<pdfrwt beam="1">  1        2 0.15727930E+00 0.46865284E+02</pdfrwt>
<pdfrwt beam="2">  1        1 0.27789680E+00 0.72808605E+02</pdfrwt>
<totfact> 0.19971729E+01</totfact>
</mgrwt>
</event>
<event>
 7    1  0.6493044E-004  0.5134050E+02  0.7546771E-02  0.1473383E+00
         -1   -1    0    0    0  501 -0.00000000000E+00  0.00000000000E+00  0.65469482495E+03  0.65469482495E+03  0.00000000000E+00 0.  1.
          1   -1    0    0  503    0  0.00000000000E+00 -0.00000000000E+00 -0.55271931209E+03  0.55271931209E+03  0.00000000000E+00 0. -1.
         25    2    1    2    0    0  0.47623859729E+01 -0.21374563229E+02  0.35351132377E+03  0.37560180711E+03  0.12500763654E+03 0.  0.
          4    1    3    3  502    0 -0.86043304535E+01  0.32304192771E+02  0.28761974357E+03  0.28955884577E+03  0.12700000000E+01 0. -1.
         -4    1    3    3    0  502  0.13366716426E+02 -0.53678756000E+02  0.65891580203E+02  0.86042961335E+02  0.12700000000E+01 0. -1.
          2    1    1    2  503    0 -0.44150961987E+02  0.26439950701E+02 -0.53908397086E+03  0.54153476904E+03  0.00000000000E+00 0. -1.
         -2    1    1    2    0  501  0.39388576014E+02 -0.50653874721E+01  0.28754815995E+03  0.29027756090E+03  0.00000000000E+00 0.  1.
<mgrwt>
<rscale>  0 0.45153986E+02</rscale>
<asrwt>0</asrwt>
<pdfrwt beam="2">  1        1 0.85033741E-01 0.51340500E+02</pdfrwt>
<pdfrwt beam="1">  1       -1 0.10072228E+00 0.39712946E+02</pdfrwt>
<totfact> 0.45087920E+01</totfact>
</mgrwt>
</event>
<event>
 7    1  0.6493044E-004  0.8518810E+02  0.7546771E-02  0.1453866E+00
          2   -1    0    0  503    0  0.00000000000E+00  0.00000000000E+00  0.15540969482E+04  0.15540969482E+04  0.00000000000E+00 0. -1.
         -2   -1    0    0    0  501 -0.00000000000E+00 -0.00000000000E+00 -0.17626653948E+02  0.17626653948E+02  0.00000000000E+00 0.  1.
         25    2    1    2    0    0  0.20089814084E+02 -0.64800365880E+02  0.50611053381E+03  0.52571550943E+03  0.12500494542E+03 0.  0.
          4    1    3    3  502    0  0.42743997272E+02 -0.65336166233E+02  0.49372116450E+03  0.49985804494E+03  0.12700000000E+01 0.  1.
         -4    1    3    3    0  502 -0.22654183188E+02  0.53580035311E+00  0.12389369310E+02  0.25857464490E+02  0.12700000000E+01 0.  1.
          1    1    1    2  503    0  0.52598295969E+01 -0.27052819866E+02  0.73795068911E+03  0.73846512472E+03  0.00000000000E+00 0. -1.
         -1    1    1    2    0  501 -0.25349643681E+02  0.91853185746E+02  0.29240907136E+03  0.30754296802E+03  0.00000000000E+00 0.  1.
<mgrwt>
<rscale>  0 0.48453415E+02</rscale>
<asrwt>0</asrwt>
<pdfrwt beam="1">  1        2 0.23909173E+00 0.27559406E+02</pdfrwt>
<pdfrwt beam="2">  1       -2 0.27117942E-02 0.85188100E+02</pdfrwt>
<totfact> 0.67439645E+03</totfact>
</mgrwt>
</event>
<event>
 7    1  0.6493044E-004  0.7183652E+02  0.7546771E-02  0.1413586E+00
          1   -1    0    0  502    0 -0.00000000000E+00  0.00000000000E+00  0.57610508891E+03  0.57610508891E+03  0.00000000000E+00 0. -1.
          2   -1    0    0  503    0  0.00000000000E+00 -0.00000000000E+00 -0.15720534553E+04  0.15720534553E+04  0.00000000000E+00 0. -1.
         25    2    1    2    0    0 -0.19051117698E+02  0.56682738026E+02 -0.15800430829E+02  0.13945711323E+03  0.12499101944E+03 0.  0.
          4    1    3    3  501    0 -0.10183673161E+02 -0.38565297084E+02 -0.17964179120E+02  0.43764300173E+02  0.12700000000E+01 0. -1.
         -4    1    3    3    0  501 -0.88674445369E+01  0.95248035110E+02  0.21637482912E+01  0.95692813062E+02  0.12700000000E+01 0. -1.
          2    1    1    2  502    0  0.42765389570E+02  0.11491654203E+02  0.51244972938E+03  0.51435946750E+03  0.00000000000E+00 0. -1.
          1    1    1    2  503    0 -0.23714271872E+02 -0.68174392229E+02 -0.14925976650E+04  0.14943419635E+04  0.00000000000E+00 0. -1.
<mgrwt>
<rscale>  0 0.56401225E+02</rscale>
<asrwt>0</asrwt>
<pdfrwt beam="2">  1        2 0.24185438E+00 0.71836522E+02</pdfrwt>
<pdfrwt beam="1">  1        1 0.88631552E-01 0.44282464E+02</pdfrwt>
<totfact> 0.75389639E+01</totfact>
</mgrwt>
</event>
<event>
 7    1  0.6493044E-004  0.1266060E+03  0.7546771E-02  0.1348427E+00
          1   -1    0    0  502    0 -0.00000000000E+00  0.00000000000E+00  0.20233650995E+04  0.20233650995E+04  0.00000000000E+00 0. -1.
          2   -1    0    0  503    0  0.00000000000E+00 -0.00000000000E+00 -0.33584709893E+03  0.33584709893E+03  0.00000000000E+00 0. -1.
         25    2    1    2    0    0  0.35144789739E+02  0.10384000334E+03  0.13684784162E+03  0.21533791740E+03  0.12500073749E+03 0.  0.
          4    1    3    3  501    0  0.18427251432E+02  0.86590513740E+02  0.13374354731E+02  0.89543100960E+02  0.12700000000E+01 0. -1.
         -4    1    3    3    0  501  0.16717538307E+02  0.17249489602E+02  0.12347348689E+03  0.12579481644E+03  0.12700000000E+01 0. -1.
          2    1    1    2  502    0 -0.77805640093E+02 -0.10148539853E+03  0.18435069842E+04  0.18479369591E+04  0.00000000000E+00 0. -1.
          1    1    1    2  503    0  0.42660850354E+02 -0.23546048159E+01 -0.29283682527E+03  0.29593732199E+03  0.00000000000E+00 0. -1.
<mgrwt>
<rscale>  0 0.73548225E+02</rscale>
<asrwt>0</asrwt>
<pdfrwt beam="2">  1        2 0.51668786E-01 0.42725780E+02</pdfrwt>
<pdfrwt beam="1">  1        1 0.31128693E+00 0.12660603E+03</pdfrwt>
<totfact> 0.46888609E+01</totfact>
</mgrwt>
</event>
<event>
 7    1  0.6493044E-004  0.4801829E+02  0.7546771E-02  0.1511305E+00
          2   -1    0    0  503    0  0.00000000000E+00  0.00000000000E+00  0.20719464660E+04  0.20719464660E+04  0.00000000000E+00 0. -1.
          1   -1    0    0  502    0 -0.00000000000E+00 -0.00000000000E+00 -0.65836325617E+02  0.65836325617E+02  0.00000000000E+00 0. -1.
         25    2    1    2    0    0 -0.76194990349E+02 -0.24822737078E+02  0.25632983920E+03  0.29622824912E+03  0.12499737710E+03 0.  0.
          4    1    3    3  501    0 -0.52166637637E+02  0.48186871668E+02  0.13620074076E+03  0.15360855239E+03  0.12700000000E+01 0. -1.
         -4    1    3    3    0  501 -0.24028352712E+02 -0.73009608746E+02  0.12012909844E+03  0.14261969673E+03  0.12700000000E+01 0. -1.
          2    1    1    2  502    0  0.31134864492E+02  0.97611163460E+01 -0.39731273940E+02  0.51412384774E+02  0.00000000000E+00 0. -1.
          1    1    1    2  503    0  0.45060125857E+02  0.15061620732E+02  0.17895115752E+04  0.17901421578E+04  0.00000000000E+00 0. -1.
<mgrwt>
<rscale>  0 0.39582753E+02</rscale>
<asrwt>0</asrwt>
<pdfrwt beam="1">  1        2 0.31876094E+00 0.48018289E+02</pdfrwt>
<pdfrwt beam="2">  1        1 0.10128667E-01 0.32629116E+02</pdfrwt>
<totfact> 0.61666070E+02</totfact>
</mgrwt>
</event>
<event>
 7    1  0.6493044E-004  0.8269648E+02  0.7546771E-02  0.1372252E+00
          2   -1    0    0  503    0  0.00000000000E+00  0.00000000000E+00  0.10701259294E+04  0.10701259294E+04  0.00000000000E+00 0. -1.
          1   -1    0    0  502    0 -0.00000000000E+00 -0.00000000000E+00 -0.24763323838E+03  0.24763323838E+03  0.00000000000E+00 0. -1.
         25    2    1    2    0    0 -0.99446136118E+02  0.74186345890E+02  0.57834846979E+03  0.60457019469E+03  0.12500007955E+03 0.  0.
          4    1    3    3  501    0 -0.20500523327E+02 -0.25783221091E+02  0.25354190887E+03  0.25567588545E+03  0.12700000000E+01 0. -1.
         -4    1    3    3    0  501 -0.78945612791E+02  0.99969566981E+02  0.32480656092E+03  0.34889430924E+03  0.12700000000E+01 0. -1.
          2    1    1    2  502    0  0.78396462171E+02 -0.24948908162E+02 -0.22573946350E+03  0.24026393546E+03  0.00000000000E+00 0. -1.
          1    1    1    2  503    0  0.21049673947E+02 -0.49237437729E+02  0.46988368470E+03  0.47292503761E+03  0.00000000000E+00 0. -1.
<mgrwt>
<rscale>  0 0.66545107E+02</rscale>
<asrwt>0</asrwt>
<pdfrwt beam="1">  1        2 0.16463476E+00 0.53548240E+02</pdfrwt>
<pdfrwt beam="2">  1        1 0.38097422E-01 0.82696484E+02</pdfrwt>
<totfact> 0.39397266E+02</totfact>
</mgrwt>
</event>
<event>
 7    1  0.6493044E-004  0.1003518E+03  0.7546771E-02  0.1304740E+00
          1   -1    0    0  503    0  0.00000000000E+00  0.00000000000E+00  0.12211164985E+04  0.12211164985E+04  0.00000000000E+00 0. -1.
         -3   -1    0    0    0  501 -0.00000000000E+00 -0.00000000000E+00 -0.97068822793E+03  0.97068822793E+03  0.00000000000E+00 0.  1.
         25    2    1    2    0    0  0.16730865617E+03  0.41897159405E+02  0.23608599854E+03  0.31798654553E+03  0.12502514160E+03 0.  0.
          4    1    3    3  502    0  0.52991972370E+02  0.44135611628E+02  0.17552938540E+03  0.18859554446E+03  0.12700000000E+01 0.  1.
         -4    1    3    3    0  502  0.11431668380E+03 -0.22384522236E+01  0.60556613140E+02  0.12939100107E+03  0.12700000000E+01 0.  1.
          2    1    1    2  503    0 -0.95879670768E+02 -0.73813513385E+01  0.93993029407E+03  0.94483668077E+03  0.00000000000E+00 0. -1.
         -2    1    1    2    0  501 -0.71428985398E+02 -0.34515808066E+02 -0.92558802206E+03  0.92898150011E+03  0.00000000000E+00 0.  1.
<mgrwt>
<rscale>  0 0.89224582E+02</rscale>
<asrwt>0</asrwt>
<pdfrwt beam="1">  1        1 0.18786408E+00 0.10035175E+03</pdfrwt>
<pdfrwt beam="2">  1       -3 0.14933665E+00 0.79331211E+02</pdfrwt>
<totfact> 0.22760287E+00</totfact>
</mgrwt>
</event>
<event>
 7    1  0.6493044E-004  0.8173515E+02  0.7546771E-02  0.1383245E+00
          1   -1    0    0  503    0  0.00000000000E+00  0.00000000000E+00  0.95135820968E+03  0.95135820968E+03  0.00000000000E+00 0. -1.
         -1   -1    0    0    0  501 -0.00000000000E+00 -0.00000000000E+00 -0.16316486020E+03  0.16316486020E+03  0.00000000000E+00 0.  1.
         25    2    1    2    0    0 -0.35900250034E+02 -0.96684544359E+01  0.10995175125E+03  0.17057650908E+03  0.12499860353E+03 0.  0.
          4    1    3    3  502    0  0.45112691995E+02 -0.16920649205E+02  0.50582762768E+02  0.69869107178E+02  0.12700000000E+01 0. -1.
         -4    1    3    3    0  502 -0.81012942028E+02  0.72521947695E+01  0.59368988478E+02  0.10070740190E+03  0.12700000000E+01 0. -1.
          2    1    1    2  503    0  0.75278183274E+02  0.39690839006E+02  0.80415547229E+03  0.80864589975E+03  0.00000000000E+00 0. -1.
         -2    1    1    2    0  501 -0.39377933240E+02 -0.30022384570E+02 -0.12591387405E+03  0.13530066104E+03  0.00000000000E+00 0.  1.
<mgrwt>
<rscale>  0 0.63618437E+02</rscale>
<asrwt>0</asrwt>
<pdfrwt beam="1">  1        1 0.14636280E+00 0.81735146E+02</pdfrwt>
<pdfrwt beam="2">  1       -1 0.25102287E-01 0.49517322E+02</pdfrwt>
<totfact> 0.24990235E+02</totfact>
</mgrwt>
</event>
<event>
 7    1  0.6493044E-004  0.7253099E+02  0.7546771E-02  0.1394864E+00
          1   -1    0    0  502    0 -0.00000000000E+00  0.00000000000E+00  0.20605768937E+03  0.20605768937E+03  0.00000000000E+00 0. -1.
          2   -1    0    0  503    0  0.00000000000E+00 -0.00000000000E+00 -0.29578675190E+04  0.29578675190E+04  0.00000000000E+00 0. -1.
         25    2    1    2    0    0  0.52889578297E+02 -0.10984088960E+03 -0.14881096416E+03  0.22941866075E+03  0.12500356126E+03 0.  0.
          4    1    3    3  501    0  0.17303231644E+02 -0.84930834714E+02 -0.16222995884E+03  0.18393700268E+03  0.12700000000E+01 0.  1.
         -4    1    3    3    0  501  0.35586346653E+02 -0.24910054883E+02  0.13418994683E+02  0.45481658069E+02  0.12700000000E+01 0.  1.
          2    1    1    2  502    0 -0.15339050349E+02  0.48450270575E+02  0.16137912060E+03  0.16919200853E+03  0.00000000000E+00 0. -1.
          1    1    1    2  503    0 -0.37550527948E+02  0.61390619021E+02 -0.27643779861E+04  0.27653145391E+04  0.00000000000E+00 0. -1.
<mgrwt>
<rscale>  0 0.60712894E+02</rscale>
<asrwt>0</asrwt>
<pdfrwt beam="2">  1        2 0.45505656E+00 0.72530991E+02</pdfrwt>
<pdfrwt beam="1">  1        1 0.31701182E-01 0.50820421E+02</pdfrwt>
<totfact> 0.50788313E+01</totfact>
</mgrwt>
</event>
<event>
 7    1  0.6493044E-004  0.7769659E+02  0.7546771E-02  0.1337771E+00
          1   -1    0    0  503    0  0.00000000000E+00  0.00000000000E+00  0.24395404151E+04  0.24395404151E+04  0.00000000000E+00 0. -1.
         -1   -1    0    0    0  501 -0.00000000000E+00 -0.00000000000E+00 -0.12860210357E+04  0.12860210357E+04  0.00000000000E+00 0.  1.
         25    2    1    2    0    0 -0.12154425542E+03 -0.28871165957E+02  0.19946167752E+04  0.20024295274E+04  0.12498552829E+03 0.  0.
          4    1    3    3  502    0  0.98849957136E+01 -0.18248343111E+02  0.84806937539E+03  0.84832422666E+03  0.12700000000E+01 0. -1.
         -4    1    3    3    0  502 -0.13142925113E+03 -0.10622822846E+02  0.11465473998E+04  0.11541053008E+04  0.12700000000E+01 0. -1.
          2    1    1    2  503    0  0.70361092530E+02 -0.29565389469E+02  0.43652677356E+03  0.44314830433E+03  0.00000000000E+00 0. -1.
         -2    1    1    2    0  501  0.51183162885E+02  0.58436555426E+02 -0.12776241693E+04  0.12799836190E+04  0.00000000000E+00 0.  1.
<mgrwt>
<rscale>  0 0.77005394E+02</rscale>
<asrwt>0</asrwt>
<pdfrwt beam="1">  1        1 0.37531391E+00 0.76320349E+02</pdfrwt>
<pdfrwt beam="2">  1       -1 0.19784939E+00 0.77696589E+02</pdfrwt>
<totfact> 0.40583349E-01</totfact>
</mgrwt>
</event>
<event>
 7    1  0.6493044E-004  0.5177722E+02  0.7546771E-02  0.1451392E+00
          2   -1    0    0  503    0  0.00000000000E+00  0.00000000000E+00  0.81674761150E+03  0.81674761150E+03  0.00000000000E+00 0. -1.
          1   -1    0    0  502    0 -0.00000000000E+00 -0.00000000000E+00 -0.37629255542E+02  0.37629255542E+02  0.00000000000E+00 0. -1.
         25    2    1    2    0    0 -0.46519231049E+02  0.24681857917E+02  0.14372761674E+03  0.19762157895E+03  0.12499371057E+03 0.  0.
          4    1    3    3  501    0 -0.57797506881E+02 -0.39771584760E+02  0.75993473461E+02  0.10343573688E+03  0.12700000000E+01 0.  1.
         -4    1    3    3    0  501  0.11278275832E+02  0.64453442677E+02  0.67734143284E+02  0.94185842063E+02  0.12700000000E+01 0.  1.
          2    1    1    2  502    0  0.53968709626E+02  0.20887405740E+02  0.76310761430E+02  0.95771799854E+02  0.00000000000E+00 0. -1.
          1    1    1    2  503    0 -0.74494785773E+01 -0.45569263657E+02  0.55907997778E+03  0.56098348824E+03  0.00000000000E+00 0. -1.
<mgrwt>
<rscale>  0 0.48895494E+02</rscale>
<asrwt>0</asrwt>
<pdfrwt beam="1">  1        2 0.12565347E+00 0.46174154E+02</pdfrwt>
<pdfrwt beam="2">  1        1 0.57891168E-02 0.51777220E+02</pdfrwt>
<totfact> 0.59168632E+03</totfact>
</mgrwt>
</event>
<event>
 7    1  0.6493044E-004  0.1217733E+03  0.7546771E-02  0.1391911E+00
          2   -1    0    0  503    0  0.00000000000E+00  0.00000000000E+00  0.10188403100E+04  0.10188403100E+04  0.00000000000E+00 0. -1.
          1   -1    0    0  502    0 -0.00000000000E+00 -0.00000000000E+00 -0.25096792469E+03  0.25096792469E+03  0.00000000000E+00 0. -1.
         25    2    1    2    0    0 -0.22127306347E+02 -0.10484883599E+03  0.53727190649E+03  0.56193346313E+03  0.12500087757E+03 0.  0.
          4    1    3    3  501    0 -0.68872434331E+01 -0.68416710438E+02  0.50831641699E+03  0.51294782685E+03  0.12700000000E+01 0. -1.
         -4    1    3    3    0  501 -0.15240062914E+02 -0.36432125556E+02  0.28955489501E+02  0.48985636286E+02  0.12700000000E+01 0. -1.
          2    1    1    2  502    0 -0.35379191274E+01  0.12222299550E+03 -0.22240995707E+03  0.25380537130E+03  0.00000000000E+00 0. -1.
          1    1    1    2  503    0  0.25665225475E+02 -0.17374159505E+02  0.45301043588E+03  0.45406940024E+03  0.00000000000E+00 0. -1.
<mgrwt>
<rscale>  0 0.61433856E+02</rscale>
<asrwt>0</asrwt>
<pdfrwt beam="1">  1        2 0.15674466E+00 0.30992987E+02</pdfrwt>
<pdfrwt beam="2">  1        1 0.38610451E-01 0.12177331E+03</pdfrwt>
<totfact> 0.42797715E+02</totfact>
</mgrwt>
</event>
<event>
 7    1  0.6493044E-004  0.6105343E+02  0.7546771E-02  0.1521176E+00
          1   -1    0    0  502    0 -0.00000000000E+00  0.00000000000E+00  0.19701664796E+03  0.19701664796E+03  0.00000000000E+00 0. -1.
          2   -1    0    0  503    0  0.00000000000E+00 -0.00000000000E+00 -0.24849620797E+04  0.24849620797E+04  0.00000000000E+00 0. -1.
         25    2    1    2    0    0 -0.33104795722E+02  0.48963887333E+02 -0.10012098157E+04  0.10107123595E+04  0.12499995515E+03 0.  0.
          4    1    3    3  501    0  0.24763287523E+02  0.35351810911E+02 -0.79309857255E+03  0.79427320842E+03  0.12700000000E+01 0. -1.
         -4    1    3    3    0  501 -0.57868083246E+02  0.13612076421E+02 -0.20811124315E+03  0.21643915105E+03  0.12700000000E+01 0. -1.
          2    1    1    2  502    0  0.20967155874E+02  0.11709633090E+02  0.19086542979E+03  0.19237034444E+03  0.00000000000E+00 0. -1.
          1    1    1    2  503    0  0.12137639849E+02 -0.60673520422E+02 -0.14776010459E+04  0.14788960238E+04  0.00000000000E+00 0. -1.
<mgrwt>
<rscale>  0 0.38291249E+02</rscale>
<asrwt>0</asrwt>
<pdfrwt beam="2">  1        2 0.38230188E+00 0.61053434E+02</pdfrwt>
<pdfrwt beam="1">  1        1 0.30310252E-01 0.24015352E+02</pdfrwt>
<totfact> 0.96464288E+01</totfact>
</mgrwt>
</event>
<event>
 7    1  0.6493044E-004  0.1175567E+03  0.7546771E-02  0.1336253E+00
          2   -1    0    0  503    0  0.00000000000E+00  0.00000000000E+00  0.17998403510E+04  0.17998403510E+04  0.00000000000E+00 0. -1.
         -2   -1    0    0    0  501 -0.00000000000E+00 -0.00000000000E+00 -0.10408879892E+03  0.10408879892E+03  0.00000000000E+00 0.  1.
         25    2    1    2    0    0 -0.76111792067E+02 -0.30206170606E+02  0.13198424291E+03  0.19938638591E+03  0.12501869010E+03 0.  0.
          4    1    3    3  502    0 -0.50486683503E+02  0.46445337496E+02  0.59758833168E+02  0.90987942211E+02  0.12700000000E+01 0.  1.
         -4    1    3    3    0  502 -0.25625108564E+02 -0.76651508102E+02  0.72225409745E+02  0.10839844370E+03  0.12700000000E+01 0.  1.
          1    1    1    2  503    0 -0.51103192756E+02 -0.99558744667E+00  0.15724399586E+04  0.15732704633E+04  0.00000000000E+00 0. -1.
         -1    1    1    2    0  501  0.12721498482E+03  0.31201758053E+02 -0.86726494368E+01  0.13127230065E+03  0.00000000000E+00 0.  1.
<mgrwt>
<rscale>  0 0.77515568E+02</rscale>
<asrwt>0</asrwt>
<pdfrwt beam="1">  1        2 0.27689849E+00 0.51112890E+02</pdfrwt>
<pdfrwt beam="2">  1       -2 0.16013663E-01 0.11755671E+03</pdfrwt>
<totfact> 0.33183369E+02</totfact>
</mgrwt>
</event>
<event>
 7    1  0.6493044E-004  0.1409268E+03  0.7546771E-02  0.1369033E+00
          2   -1    0    0  503    0  0.00000000000E+00  0.00000000000E+00  0.11591906590E+04  0.11591906590E+04  0.00000000000E+00 0. -1.
          1   -1    0    0  502    0 -0.00000000000E+00 -0.00000000000E+00 -0.34471801038E+03  0.34471801038E+03  0.00000000000E+00 0. -1.
         25    2    1    2    0    0 -0.12349184926E+03 -0.11516087944E+03 -0.22574115198E+03  0.30838107934E+03  0.12501022922E+03 0.  0.
          4    1    3    3  501    0 -0.64169526620E+02 -0.56294616847E+02 -0.21999055036E+02  0.88161121562E+02  0.12700000000E+01 0. -1.
         -4    1    3    3    0  501 -0.59322322637E+02 -0.58866262597E+02 -0.20374209695E+03  0.22021995778E+03  0.12700000000E+01 0. -1.
          2    1    1    2  502    0  0.30810601080E+02  0.95952438764E+01 -0.69674402518E+02  0.76784661295E+02  0.00000000000E+00 0. -1.
          1    1    1    2  503    0  0.92681248176E+02  0.10556563557E+03  0.11098882032E+04  0.11187429288E+04  0.00000000000E+00 0. -1.
<mgrwt>
<rscale>  0 0.67436843E+02</rscale>
<asrwt>0</asrwt>
<pdfrwt beam="1">  1        2 0.17833702E+00 0.14092681E+03</pdfrwt>
<pdfrwt beam="2">  1        1 0.53033541E-01 0.32270139E+02</pdfrwt>
<totfact> 0.22246357E+02</totfact>
</mgrwt>
</event>
<event>
 7    1  0.6493044E-004  0.8267422E+02  0.7546771E-02  0.1470939E+00
          2   -1    0    0  503    0  0.00000000000E+00  0.00000000000E+00  0.63894523981E+03  0.63894523981E+03  0.00000000000E+00 0. -1.
          1   -1    0    0  502    0 -0.00000000000E+00 -0.00000000000E+00 -0.11574321476E+03  0.11574321476E+03  0.00000000000E+00 0. -1.
         25    2    1    2    0    0  0.67784725926E+02  0.68798083846E+02  0.12675754471E+03  0.20253669312E+03  0.12500276601E+03 0.  0.
          4    1    3    3  501    0 -0.50272089203E+01  0.42674515358E+01 -0.22991914106E+02  0.23952556990E+02  0.12700000000E+01 0.  1.
         -4    1    3    3    0  501  0.72811934846E+02  0.64530632310E+02  0.14974945882E+03  0.17858413613E+03  0.12700000000E+01 0.  1.
          2    1    1    2  502    0 -0.25085292143E+02  0.72523792742E+00 -0.72210898213E+02  0.76447443860E+02  0.00000000000E+00 0. -1.
          1    1    1    2  503    0 -0.42699433783E+02 -0.69523321774E+02  0.46865537855E+03  0.47570431758E+03  0.00000000000E+00 0. -1.
<mgrwt>
<rscale>  0 0.45549681E+02</rscale>
<asrwt>0</asrwt>
<pdfrwt beam="1">  1        2 0.98299265E-01 0.82674217E+02</pdfrwt>
<pdfrwt beam="2">  1        1 0.17806649E-01 0.25095774E+02</pdfrwt>
<totfact> 0.17554913E+03</totfact>
</mgrwt>
</event>
<event>
 7    1  0.6493044E-004  0.3846840E+02  0.7546771E-02  0.1523523E+00
          2   -1    0    0  503    0  0.00000000000E+00  0.00000000000E+00  0.89845713304E+02  0.89845713304E+02  0.00000000000E+00 0. -1.
          1   -1    0    0  502    0 -0.00000000000E+00 -0.00000000000E+00 -0.40668721556E+03  0.40668721556E+03  0.00000000000E+00 0. -1.
         25    2    1    2    0    0 -0.16617375030E+02  0.15094152562E+02 -0.61242860654E+02  0.14099692339E+03  0.12500189531E+03 0.  0.
          4    1    3    3  501    0  0.26448704089E+02  0.24930017909E+02 -0.83820567448E+02  0.91370346220E+02  0.12700000000E+01 0. -1.
         -4    1    3    3    0  501 -0.43066079120E+02 -0.98358653472E+01  0.22577706794E+02  0.49626577174E+02  0.12700000000E+01 0. -1.
          2    1    1    2  502    0 -0.18723100675E+02 -0.33604515070E+02 -0.29615716882E+03  0.29864508463E+03  0.00000000000E+00 0. -1.
          1    1    1    2  503    0  0.35340475706E+02  0.18510362508E+02  0.40558527220E+02  0.56890920836E+02  0.00000000000E+00 0. -1.
<mgrwt>
<rscale>  0 0.37992919E+02</rscale>
<asrwt>0</asrwt>
<pdfrwt beam="1">  1        2 0.13822417E-01 0.37523313E+02</pdfrwt>
<pdfrwt beam="2">  1        1 0.62567264E-01 0.38468402E+02</pdfrwt>
<totfact> 0.31942860E+03</totfact>
</mgrwt>
</event>
<event>
 7    1  0.6493044E-004  0.4458250E+03  0.7546771E-02  0.1140520E+00
          1   -1    0    0  502    0 -0.00000000000E+00  0.00000000000E+00  0.24557019470E+04  0.24557019470E+04  0.00000000000E+00 0. -1.
          2   -1    0    0  503    0  0.00000000000E+00 -0.00000000000E+00 -0.28509850006E+04  0.28509850006E+04  0.00000000000E+00 0. -1.
         25    2    1    2    0    0  0.29963692709E+03 -0.25316915041E+03  0.42600149125E+03  0.59243576468E+03  0.12500383165E+03 0.  0.
          4    1    3    3  501    0  0.26641574673E+03 -0.16516136229E+03  0.28976818609E+03  0.42687567308E+03  0.12700000000E+01 0.  1.
         -4    1    3    3    0  501  0.33221180360E+02 -0.88007788129E+02  0.13623330516E+03  0.16556009160E+03  0.12700000000E+01 0.  1.
          2    1    1    2  502    0 -0.30238526685E+03  0.35330282931E+03  0.19177790034E+04  0.19733565428E+04  0.00000000000E+00 0. -1.
          1    1    1    2  503    0  0.27483397600E+01 -0.10013367889E+03 -0.27390635482E+04  0.27408946401E+04  0.00000000000E+00 0. -1.
<mgrwt>
<rscale>  0 0.21132655E+03</rscale>
<asrwt>0</asrwt>
<pdfrwt beam="2">  1        2 0.43861308E+00 0.10017139E+03</pdfrwt>
<pdfrwt beam="1">  1        1 0.37780030E+00 0.44582503E+03</pdfrwt>
<totfact> 0.64775521E-01</totfact>
</mgrwt>
</event>
<event>
 7    1  0.6493044E-004  0.1607576E+03  0.7546771E-02  0.1207053E+00
          1   -1    0    0  502    0 -0.00000000000E+00  0.00000000000E+00  0.38749977993E+03  0.38749977993E+03  0.00000000000E+00 0. -1.
          2   -1    0    0  503    0  0.00000000000E+00 -0.00000000000E+00 -0.51363588726E+03  0.51363588726E+03  0.00000000000E+00 0. -1.
         25    2    1    2    0    0 -0.11940411363E+03  0.37538356067E+01 -0.27274235858E+03  0.32289990554E+03  0.12491805793E+03 0.  0.
          4    1    3    3  501    0 -0.63899388864E+01 -0.42867776250E+02 -0.35620967107E+02  0.56115450255E+02  0.12700000000E+01 0.  1.
         -4    1    3    3    0  501 -0.11301417475E+03  0.46621611857E+02 -0.23712139148E+03  0.26678445528E+03  0.12700000000E+01 0.  1.
          2    1    1    2  502    0  0.10049304934E+03 -0.13274462467E+03  0.32034226178E+03  0.36102514182E+03  0.00000000000E+00 0. -1.
          1    1    1    2  503    0  0.18911064291E+02  0.12899078906E+03 -0.17373601053E+03  0.21721061983E+03  0.00000000000E+00 0. -1.
<mgrwt>
<rscale>  0 0.14476848E+03</rscale>
<asrwt>0</asrwt>
<pdfrwt beam="2">  1        2 0.79020906E-01 0.13036967E+03</pdfrwt>
<pdfrwt beam="1">  1        1 0.59615351E-01 0.16075758E+03</pdfrwt>
<totfact> 0.52946443E+02</totfact>
</mgrwt>
</event>
<event>
 7    1  0.6493044E-004  0.8253660E+02  0.7546771E-02  0.1340019E+00
          1   -1    0    0  502    0 -0.00000000000E+00  0.00000000000E+00  0.40665826237E+03  0.40665826237E+03  0.00000000000E+00 0. -1.
          2   -1    0    0  503    0  0.00000000000E+00 -0.00000000000E+00 -0.54785938172E+03  0.54785938172E+03  0.00000000000E+00 0. -1.
         25    2    1    2    0    0 -0.58403513654E+02  0.85658017694E+02  0.11725661563E+03  0.20030591126E+03  0.12500031109E+03 0.  0.
          4    1    3    3  501    0 -0.55133064996E+02  0.13766145212E+02 -0.64281178481E+01  0.57202230804E+02  0.12700000000E+01 0. -1.
         -4    1    3    3    0  501 -0.32704486579E+01  0.71891872482E+02  0.12368473348E+03  0.14310368046E+03  0.12700000000E+01 0. -1.
          2    1    1    2  502    0  0.80689532400E+02 -0.18818658952E+02  0.23839777577E+03  0.25238550287E+03  0.00000000000E+00 0. -1.
          1    1    1    2  503    0 -0.22286018747E+02 -0.66839358742E+02 -0.49685551076E+03  0.50182622996E+03  0.00000000000E+00 0. -1.
<mgrwt>
<rscale>  0 0.76257905E+02</rscale>
<asrwt>0</asrwt>
<pdfrwt beam="2">  1        2 0.84286059E-01 0.70456841E+02</pdfrwt>
<pdfrwt beam="1">  1        1 0.62562810E-01 0.82536598E+02</pdfrwt>
<totfact> 0.47323539E+02</totfact>
</mgrwt>
</event>
<event>
 7    1  0.6493044E-004  0.1114407E+03  0.7546771E-02  0.1341419E+00
          2   -1    0    0  503    0  0.00000000000E+00  0.00000000000E+00  0.40350515357E+03  0.40350515357E+03  0.00000000000E+00 0. -1.
         -2   -1    0    0    0  501 -0.00000000000E+00 -0.00000000000E+00 -0.13764053533E+03  0.13764053533E+03  0.00000000000E+00 0.  1.
         25    2    1    2    0    0 -0.10019492553E+03  0.74551412669E+02 -0.54776958090E+02  0.18501927089E+03  0.12503871092E+03 0.  0.
          4    1    3    3  502    0 -0.11738887368E+03  0.90207332248E+02 -0.30083913150E+02  0.15107668644E+03  0.12700000000E+01 0.  1.
         -4    1    3    3    0  502  0.17193948142E+02 -0.15655919580E+02 -0.24693044940E+02  0.33942584448E+02  0.12700000000E+01 0.  1.
          1    1    1    2  503    0  0.51534720857E+02 -0.14254629679E+01  0.20220204429E+03  0.20867085593E+03  0.00000000000E+00 0. -1.
         -1    1    1    2    0  501  0.48660204677E+02 -0.73125949701E+02  0.11843953204E+03  0.14745556208E+03  0.00000000000E+00 0.  1.
<mgrwt>
<rscale>  0 0.75797512E+02</rscale>
<asrwt>0</asrwt>
<pdfrwt beam="1">  1        2 0.62077715E-01 0.51554431E+02</pdfrwt>
<pdfrwt beam="2">  1       -2 0.21175467E-01 0.11144072E+03</pdfrwt>
<totfact> 0.14796539E+03</totfact>
</mgrwt>
</event>
<event>
 7    1  0.6493044E-004  0.6595691E+02  0.7546771E-02  0.1441841E+00
         -2   -1    0    0    0  501 -0.00000000000E+00  0.00000000000E+00  0.61631686076E+02  0.61631686076E+02  0.00000000000E+00 0.  1.
          2   -1    0    0  503    0  0.00000000000E+00 -0.00000000000E+00 -0.23960514537E+04  0.23960514537E+04  0.00000000000E+00 0. -1.
         25    2    1    2    0    0  0.77593722556E+01  0.93532493779E+02 -0.51415779944E+03  0.53739240607E+03  0.12499528044E+03 0.  0.
          4    1    3    3  502    0 -0.27933373184E+02  0.73486869494E+02 -0.13654514173E+03  0.15756516733E+03  0.12700000000E+01 0.  1.
         -4    1    3    3    0  502  0.35692745439E+02  0.20045624285E+02 -0.37761265771E+03  0.37982723875E+03  0.12700000000E+01 0.  1.
          1    1    1    2  503    0 -0.26230631628E+02 -0.59294491468E+02 -0.18620608256E+04  0.18631893090E+04  0.00000000000E+00 0. -1.
         -1    1    1    2    0  501  0.18471259372E+02 -0.34238002311E+02  0.41798857427E+02  0.57101424739E+02  0.00000000000E+00 0.  1.
<mgrwt>
<rscale>  0 0.50654799E+02</rscale>
<asrwt>0</asrwt>
<pdfrwt beam="2">  1        2 0.36862330E+00 0.65956906E+02</pdfrwt>
<pdfrwt beam="1">  1       -2 0.94817979E-02 0.38902805E+02</pdfrwt>
<totfact> 0.34526356E+02</totfact>
</mgrwt>
</event>
<event>
 7    1  0.6493044E-004  0.9025846E+02  0.7546771E-02  0.1426156E+00
         -2   -1    0    0    0  501 -0.00000000000E+00  0.00000000000E+00  0.10297048863E+04  0.10297048863E+04  0.00000000000E+00 0.  1.
          2   -1    0    0  503    0  0.00000000000E+00 -0.00000000000E+00 -0.14789021436E+04  0.14789021436E+04  0.00000000000E+00 0. -1.
         25    2    1    2    0    0  0.11947006246E+03  0.10462232605E+02 -0.12796772413E+04  0.12913488209E+04  0.12500152554E+03 0.  0.
          4    1    3    3  502    0 -0.14390081779E+02 -0.20351854356E+02 -0.79235069070E+02  0.83072748239E+02  0.12700000000E+01 0.  1.
         -4    1    3    3    0  502  0.13386014424E+03  0.30814086961E+02 -0.12004421722E+04  0.12082760727E+04  0.12700000000E+01 0.  1.
          1    1    1    2  503    0 -0.29288757507E+02 -0.12881404772E+02 -0.19006210947E+03  0.19273652317E+03  0.00000000000E+00 0. -1.
         -1    1    1    2    0  501 -0.90181304952E+02  0.24191721671E+01  0.10205420934E+04  0.10245216858E+04  0.00000000000E+00 0.  1.
<mgrwt>
<rscale>  0 0.53739511E+02</rscale>
<asrwt>0</asrwt>
<pdfrwt beam="2">  1        2 0.22752341E+00 0.31996280E+02</pdfrwt>
<pdfrwt beam="1">  1       -2 0.15841614E+00 0.90258464E+02</pdfrwt>
<totfact> 0.49354810E+00</totfact>
</mgrwt>
</event>
<event>
 7    1  0.6493044E-004  0.4359849E+02  0.7546771E-02  0.1597992E+00
          1   -1    0    0  503    0  0.00000000000E+00  0.00000000000E+00  0.90187339075E+03  0.90187339075E+03  0.00000000000E+00 0. -1.
         -1   -1    0    0    0  501 -0.00000000000E+00 -0.00000000000E+00 -0.10184700704E+03  0.10184700704E+03  0.00000000000E+00 0.  1.
         25    2    1    2    0    0 -0.40112789650E+02  0.29869010694E+02  0.88463742438E+02  0.16109509723E+03  0.12499841172E+03 0.  0.
          4    1    3    3  502    0 -0.67187521106E+02  0.60547798902E+02  0.76445764663E+02  0.11843043012E+03  0.12700000000E+01 0.  1.
         -4    1    3    3    0  502  0.27074731456E+02 -0.30678788209E+02  0.12017977775E+02  0.42664667105E+02  0.12700000000E+01 0.  1.
          2    1    1    2  503    0  0.21159848882E+02 -0.38079429343E+02  0.77483923937E+03  0.77606290274E+03  0.00000000000E+00 0. -1.
         -2    1    1    2    0  501  0.18952940768E+02  0.82104186491E+01 -0.63276598097E+02  0.66562397830E+02  0.00000000000E+00 0.  1.
<mgrwt>
<rscale>  0 0.30008707E+02</rscale>
<asrwt>0</asrwt>
<pdfrwt beam="1">  1        1 0.13874975E+00 0.43598490E+02</pdfrwt>
<pdfrwt beam="2">  1       -1 0.15668771E-01 0.20654901E+02</pdfrwt>
<totfact> 0.55405980E+02</totfact>
</mgrwt>
</event>
<event>
 7    1  0.6493044E-004  0.4365620E+02  0.7546771E-02  0.1517257E+00
          1   -1    0    0  502    0 -0.00000000000E+00  0.00000000000E+00  0.10811798492E+04  0.10811798492E+04  0.00000000000E+00 0. -1.
          2   -1    0    0  503    0  0.00000000000E+00 -0.00000000000E+00 -0.26555028153E+03  0.26555028153E+03  0.00000000000E+00 0. -1.
         25    2    1    2    0    0 -0.24595487911E+02  0.13370065082E+02 -0.34682635417E+01  0.12813798679E+03  0.12499447245E+03 0.  0.
          4    1    3    3  501    0 -0.75360512573E+02  0.16197063947E+02  0.83791662477E+00  0.77096476833E+02  0.12700000000E+01 0.  1.
         -4    1    3    3    0  501  0.50765024662E+02 -0.28269988651E+01 -0.43061801664E+01  0.51041509962E+02  0.12700000000E+01 0.  1.
          2    1    1    2  502    0  0.73489019683E+01 -0.43224841031E+02  0.10168812387E+04  0.10178260396E+04  0.00000000000E+00 0. -1.
          1    1    1    2  503    0  0.17246585943E+02  0.29854775949E+02 -0.19778340749E+03  0.20076610434E+03  0.00000000000E+00 0. -1.
<mgrwt>
<rscale>  0 0.38796793E+02</rscale>
<asrwt>0</asrwt>
<pdfrwt beam="2">  1        2 0.40853890E-01 0.34478288E+02</pdfrwt>
<pdfrwt beam="1">  1        1 0.16633536E+00 0.43656202E+02</pdfrwt>
<totfact> 0.26303359E+02</totfact>
</mgrwt>
</event>
<event>
 7    1  0.6493044E-004  0.6884935E+02  0.7546771E-02  0.1471750E+00
          2   -1    0    0  503    0  0.00000000000E+00  0.00000000000E+00  0.20178218066E+04  0.20178218066E+04  0.00000000000E+00 0. -1.
          1   -1    0    0  502    0 -0.00000000000E+00 -0.00000000000E+00 -0.31733041599E+03  0.31733041599E+03  0.00000000000E+00 0. -1.
         25    2    1    2    0    0  0.85452854472E+02 -0.90939268345E+01  0.10605946302E+04  0.10713870334E+04  0.12499726351E+03 0.  0.
          4    1    3    3  501    0  0.11394886559E+03  0.82350936011E+01  0.70133683936E+03  0.71058225132E+03  0.12700000000E+01 0.  1.
         -4    1    3    3    0  501 -0.28496011114E+02 -0.17329020436E+02  0.35925779084E+03  0.36080478209E+03  0.12700000000E+01 0.  1.
          2    1    1    2  502    0 -0.20783711783E+02  0.21579724051E+02 -0.31007190856E+03  0.31151602790E+03  0.00000000000E+00 0. -1.
          3    1    1    2  503    0 -0.64669142689E+02 -0.12485797217E+02  0.94996866900E+03  0.95224916132E+03  0.00000000000E+00 0. -1.
<mgrwt>
<rscale>  0 0.45417827E+02</rscale>
<asrwt>0</asrwt>
<pdfrwt beam="1">  1        2 0.31043412E+00 0.68849355E+02</pdfrwt>
<pdfrwt beam="2">  1        1 0.48820065E-01 0.29960760E+02</pdfrwt>
<totfact> 0.94196575E+01</totfact>
</mgrwt>
</event>
<event>
 7    1  0.6493044E-004  0.9312154E+02  0.7546771E-02  0.1455512E+00
         -1   -1    0    0    0  501 -0.00000000000E+00  0.00000000000E+00  0.16311573960E+03  0.16311573960E+03  0.00000000000E+00 0.  1.
          1   -1    0    0  503    0  0.00000000000E+00 -0.00000000000E+00 -0.25967168822E+04  0.25967168822E+04  0.00000000000E+00 0. -1.
         25    2    1    2    0    0 -0.10386963256E+03 -0.32175715184E+02 -0.11892574644E+04  0.12007424134E+04  0.12499939796E+03 0.  0.
          4    1    3    3  502    0 -0.50905708574E+02  0.45556531860E+02 -0.38659583410E+03  0.39258723948E+03  0.12700000000E+01 0.  1.
         -4    1    3    3    0  502 -0.52963923984E+02 -0.77732247044E+02 -0.80266163033E+03  0.80815517395E+03  0.12700000000E+01 0.  1.
          2    1    1    2  503    0  0.88627476624E+02  0.12473704330E+02 -0.13992925092E+04  0.14021518995E+04  0.00000000000E+00 0. -1.
         -2    1    1    2    0  501  0.15242155934E+02  0.19702010854E+02  0.15494883105E+03  0.15693830888E+03  0.00000000000E+00 0.  1.
<mgrwt>
<rscale>  0 0.48162522E+02</rscale>
<asrwt>0</asrwt>
<pdfrwt beam="2">  1        1 0.39949492E+00 0.93121541E+02</pdfrwt>
<pdfrwt beam="1">  1       -1 0.25094728E-01 0.24909688E+02</pdfrwt>
<totfact> 0.20748448E+01</totfact>
</mgrwt>
</event>
<event>
 7    1  0.6493044E-004  0.6100849E+02  0.7546771E-02  0.1442954E+00
          1   -1    0    0  502    0 -0.00000000000E+00  0.00000000000E+00  0.17985377548E+04  0.17985377548E+04  0.00000000000E+00 0. -1.
          2   -1    0    0  503    0  0.00000000000E+00 -0.00000000000E+00 -0.20295061165E+03  0.20295061165E+03  0.00000000000E+00 0. -1.
         25    2    1    2    0    0  0.65782827752E+02 -0.18413494932E+02  0.30190771160E+03  0.33382563276E+03  0.12499939817E+03 0.  0.
          4    1    3    3  501    0 -0.23882621318E+02  0.10810793669E+02  0.16799287809E+03  0.17003079971E+03  0.12700000000E+01 0.  1.
         -4    1    3    3    0  501  0.89665449070E+02 -0.29224288600E+02  0.13391483351E+03  0.16379483305E+03  0.12700000000E+01 0.  1.
          2    1    1    2  502    0 -0.57015611802E+02 -0.22365787224E+02  0.14777027778E+04  0.14789714359E+04  0.00000000000E+00 0. -1.
          1    1    1    2  503    0 -0.87672159492E+01  0.40779282156E+02 -0.18402334625E+03  0.18869129787E+03  0.00000000000E+00 0. -1.
<mgrwt>
<rscale>  0 0.50445317E+02</rscale>
<asrwt>0</asrwt>
<pdfrwt beam="2">  1        2 0.31223172E-01 0.41711077E+02</pdfrwt>
<pdfrwt beam="1">  1        1 0.27669811E+00 0.61008494E+02</pdfrwt>
<totfact> 0.11824097E+02</totfact>
</mgrwt>
</event>
<event>
 7    1  0.6493044E-004  0.8880687E+02  0.7546771E-02  0.1345193E+00
          1   -1    0    0  502    0 -0.00000000000E+00  0.00000000000E+00  0.11656619559E+04  0.11656619559E+04  0.00000000000E+00 0. -1.
          2   -1    0    0  503    0  0.00000000000E+00 -0.00000000000E+00 -0.11618113931E+04  0.11618113931E+04  0.00000000000E+00 0. -1.
         25    2    1    2    0    0 -0.32792243784E+02 -0.93410030086E+02  0.18033765880E+03  0.24072447816E+03  0.12500335288E+03 0.  0.
          4    1    3    3  501    0 -0.36959537780E+01 -0.37780953485E+02  0.17344546071E+03  0.17755562864E+03  0.12700000000E+01 0.  1.
         -4    1    3    3    0  501 -0.29096290006E+02 -0.55629076601E+02  0.68921980908E+01  0.63168849524E+02  0.12700000000E+01 0.  1.
          2    1    1    2  502    0  0.61911443215E+02  0.94152126146E+01  0.95235497850E+03  0.95441169214E+03  0.00000000000E+00 0. -1.
          1    1    1    2  503    0 -0.29119199431E+02  0.83994817471E+02 -0.11288420745E+04  0.11323371787E+04  0.00000000000E+00 0. -1.
<mgrwt>
<rscale>  0 0.74574635E+02</rscale>
<asrwt>0</asrwt>
<pdfrwt beam="2">  1        2 0.17874021E+00 0.88806874E+02</pdfrwt>
<pdfrwt beam="1">  1        1 0.17933261E+00 0.62623263E+02</pdfrwt>
<totfact> 0.41748373E+01</totfact>
</mgrwt>
</event>
<event>
 7    1  0.6493044E-004  0.7951272E+02  0.7546771E-02  0.1348699E+00
          2   -1    0    0  503    0  0.00000000000E+00  0.00000000000E+00  0.63287771038E+03  0.63287771038E+03  0.00000000000E+00 0. -1.
          1   -1    0    0  502    0 -0.00000000000E+00 -0.00000000000E+00 -0.18862000548E+03  0.18862000548E+03  0.00000000000E+00 0. -1.
         25    2    1    2    0    0 -0.13584202677E+02  0.58190790239E+01 -0.99091863474E+02  0.16020429666E+03  0.12501130756E+03 0.  0.
          4    1    3    3  501    0  0.46321790375E+02  0.51732473888E+01 -0.27005533290E+01  0.46705209992E+02  0.12700000000E+01 0. -1.
         -4    1    3    3    0  501 -0.59905993052E+02  0.64583163509E+00 -0.96391310145E+02  0.11349908666E+03  0.12700000000E+01 0. -1.
          2    1    1    2  502    0 -0.67313859564E+02 -0.86930200102E+01 -0.35647756631E+02  0.76664769217E+02  0.00000000000E+00 0. -1.
          1    1    1    2  503    0  0.80898062241E+02  0.28739409863E+01  0.57899732501E+03  0.58462864999E+03  0.00000000000E+00 0. -1.
<mgrwt>
<rscale>  0 0.73462611E+02</rscale>
<asrwt>0</asrwt>
<pdfrwt beam="1">  1        2 0.97365801E-01 0.79512720E+02</pdfrwt>
<pdfrwt beam="2">  1        1 0.29018463E-01 0.67872854E+02</pdfrwt>
<totfact> 0.10243423E+03</totfact>
</mgrwt>
</event>
<event>
 7    1  0.6493044E-004  0.7387871E+02  0.7546771E-02  0.1426700E+00
          2   -1    0    0  503    0  0.00000000000E+00  0.00000000000E+00  0.14052338167E+03  0.14052338167E+03  0.00000000000E+00 0. -1.
         -2   -1    0    0    0  501 -0.00000000000E+00 -0.00000000000E+00 -0.16339110325E+03  0.16339110325E+03  0.00000000000E+00 0.  1.
         25    2    1    2    0    0 -0.71621393123E+02 -0.75926084701E+02  0.37347685890E+01  0.16289102914E+03  0.12500057834E+03 0.  0.
          4    1    3    3  502    0 -0.52414300876E+02  0.85115963875E+01  0.42481320383E+02  0.68014569696E+02  0.12700000000E+01 0. -1.
         -4    1    3    3    0  502 -0.19207092246E+02 -0.84437681088E+02 -0.38746551794E+02  0.94876459441E+02  0.12700000000E+01 0. -1.
          1    1    1    2  503    0  0.48117570373E+02  0.44893925472E+02  0.30002025852E+02  0.72324869015E+02  0.00000000000E+00 0. -1.
         -1    1    1    2    0  501  0.23503822750E+02  0.31032159229E+02 -0.56604516024E+02  0.68698586773E+02  0.00000000000E+00 0.  1.
<mgrwt>
<rscale>  0 0.53628201E+02</rscale>
<asrwt>0</asrwt>
<pdfrwt beam="1">  1        2 0.21618982E-01 0.73878707E+02</pdfrwt>
<pdfrwt beam="2">  1       -2 0.25137093E-01 0.38928455E+02</pdfrwt>
<totfact> 0.32282685E+03</totfact>
</mgrwt>
</event>
<event>
 7    1  0.6493044E-004  0.4723939E+02  0.7546771E-02  0.1569111E+00
          1   -1    0    0  502    0 -0.00000000000E+00  0.00000000000E+00  0.47410686875E+02  0.47410686875E+02  0.00000000000E+00 0. -1.
          2   -1    0    0  503    0  0.00000000000E+00 -0.00000000000E+00 -0.15267881627E+04  0.15267881627E+04  0.00000000000E+00 0. -1.
         25    2    1    2    0    0  0.40119090746E+02  0.47358993761E+01 -0.24677759732E+03  0.27956145253E+03  0.12499381193E+03 0.  0.
          4    1    3    3  501    0  0.30668595090E+02  0.17794823210E+02 -0.25764671210E+03  0.26007817981E+03  0.12700000000E+01 0.  1.
         -4    1    3    3    0  501  0.94504956563E+01 -0.13058923834E+02  0.10869114783E+02  0.19483272723E+02  0.12700000000E+01 0.  1.
          2    1    1    2  502    0  0.40350491176E+01 -0.22405446540E+02  0.26331220870E+02  0.34808315796E+02  0.00000000000E+00 0. -1.
          3    1    1    2  503    0 -0.44154139864E+02  0.17669547164E+02 -0.12589310993E+04  0.12598290812E+04  0.00000000000E+00 0. -1.
<mgrwt>
<rscale>  0 0.32794003E+02</rscale>
<asrwt>0</asrwt>
<pdfrwt beam="2">  1        2 0.23489045E+00 0.47239388E+02</pdfrwt>
<pdfrwt beam="1">  1        1 0.72939528E-02 0.22765888E+02</pdfrwt>
<totfact> 0.16614058E+03</totfact>
</mgrwt>
</event>
<event>
 7    1  0.6493044E-004  0.4199739E+02  0.7546771E-02  0.1533139E+00
          1   -1    0    0  502    0 -0.00000000000E+00  0.00000000000E+00  0.13284102864E+03  0.13284102864E+03  0.00000000000E+00 0. -1.
          2   -1    0    0  503    0  0.00000000000E+00 -0.00000000000E+00 -0.57714635319E+03  0.57714635319E+03  0.00000000000E+00 0. -1.
         25    2    1    2    0    0  0.97945461576E+01  0.53903674951E+01 -0.12794271565E+03  0.17922227122E+03  0.12500517917E+03 0.  0.
          4    1    3    3  501    0 -0.46987009520E+02 -0.29614525576E+02 -0.38303253869E+02  0.67480007007E+02  0.12700000000E+01 0. -1.
         -4    1    3    3    0  501  0.56781555678E+02  0.35004893071E+02 -0.89639461777E+02  0.11174226421E+03  0.12700000000E+01 0. -1.
          2    1    1    2  502    0  0.25630764059E+02  0.19578858595E+02  0.10363462983E+03  0.10853757078E+03  0.00000000000E+00 0. -1.
          3    1    1    2  503    0 -0.35425310216E+02 -0.24969226090E+02 -0.41999723873E+03  0.42222753983E+03  0.00000000000E+00 0. -1.
<mgrwt>
<rscale>  0 0.36804203E+02</rscale>
<asrwt>0</asrwt>
<pdfrwt beam="2">  1        2 0.88791747E-01 0.41997385E+02</pdfrwt>
<pdfrwt beam="1">  1        1 0.20437081E-01 0.32253182E+02</pdfrwt>
<totfact> 0.17119119E+03</totfact>
</mgrwt>
</event>
<event>
 7    1  0.6493044E-004  0.7497022E+02  0.7546771E-02  0.1461555E+00
          2   -1    0    0  503    0  0.00000000000E+00  0.00000000000E+00  0.15796156816E+03  0.15796156816E+03  0.00000000000E+00 0. -1.
          1   -1    0    0  502    0 -0.00000000000E+00 -0.00000000000E+00 -0.58895420967E+03  0.58895420967E+03  0.00000000000E+00 0. -1.
         25    2    1    2    0    0 -0.52398670436E+01 -0.58126622700E+02 -0.94657455956E+02  0.16731217629E+03  0.12500867928E+03 0.  0.
          4    1    3    3  501    0  0.27550563591E+02 -0.86396348583E+02 -0.44434329434E+02  0.10099200530E+03  0.12700000000E+01 0.  1.
         -4    1    3    3    0  501 -0.32790430634E+02  0.28269725882E+02 -0.50223126522E+02  0.66320170991E+02  0.12700000000E+01 0.  1.
          2    1    1    2  502    0 -0.27302614462E+02 -0.11457629444E+02 -0.44529997094E+03  0.44628328912E+03  0.00000000000E+00 0. -1.
          1    1    1    2  503    0  0.32542481506E+02  0.69584252145E+02  0.10896478538E+03  0.13332031242E+03  0.00000000000E+00 0. -1.
<mgrwt>
<rscale>  0 0.47114913E+02</rscale>
<asrwt>0</asrwt>
<pdfrwt beam="1">  1        2 0.24301780E-01 0.74970221E+02</pdfrwt>
<pdfrwt beam="2">  1        1 0.90608341E-01 0.29609290E+02</pdfrwt>
<totfact> 0.11281601E+03</totfact>
</mgrwt>
</event>
<event>
 7    1  0.6493044E-004  0.2294739E+03  0.7546771E-02  0.1332586E+00
          2   -1    0    0  503    0  0.00000000000E+00  0.00000000000E+00  0.47306870333E+03  0.47306870333E+03  0.00000000000E+00 0. -1.
         -2   -1    0    0    0  501 -0.00000000000E+00 -0.00000000000E+00 -0.47674976661E+03  0.47674976661E+03  0.00000000000E+00 0.  1.
         25    2    1    2    0    0  0.74765354113E+02 -0.19955706574E+03  0.97635861178E+02  0.26565489295E+03  0.12500752016E+03 0.  0.
          4    1    3    3  502    0 -0.20756085886E+02 -0.80493775949E+01 -0.11862231755E+02  0.25257336027E+02  0.12700000000E+01 0. -1.
         -4    1    3    3    0  502  0.95521439999E+02 -0.19150768815E+03  0.10949809293E+03  0.24039755693E+03  0.12700000000E+01 0. -1.
          1    1    1    2  503    0 -0.76445773754E+02  0.22654187356E+03  0.24176217278E+03  0.34002077141E+03  0.00000000000E+00 0. -1.
         -3    1    1    2    0  501  0.16804196408E+01 -0.26984807817E+02 -0.34307909725E+03  0.34414280558E+03  0.00000000000E+00 0.  1.
<mgrwt>
<rscale>  0 0.78767407E+02</rscale>
<asrwt>0</asrwt>
<pdfrwt beam="1">  1        2 0.72779801E-01 0.22947391E+03</pdfrwt>
<pdfrwt beam="2">  1       -2 0.73346118E-01 0.27037079E+02</pdfrwt>
<totfact> 0.11904204E+02</totfact>
</mgrwt>
</event>
<event>
 7    1  0.6493044E-004  0.9374150E+02  0.7546771E-02  0.1375177E+00
          1   -1    0    0  502    0 -0.00000000000E+00  0.00000000000E+00  0.24261071284E+03  0.24261071284E+03  0.00000000000E+00 0. -1.
          2   -1    0    0  503    0  0.00000000000E+00 -0.00000000000E+00 -0.13721528889E+04  0.13721528889E+04  0.00000000000E+00 0. -1.
         25    2    1    2    0    0  0.46399275567E+02  0.44378318795E+02 -0.11263565773E+03  0.18008408230E+03  0.12498462847E+03 0.  0.
          4    1    3    3  501    0  0.32868886949E+02 -0.73057870608E+01  0.18526770919E+02  0.38452469291E+02  0.12700000000E+01 0.  1.
         -4    1    3    3    0  501  0.13530388618E+02  0.51684105856E+02 -0.13116242865E+03  0.14163161301E+03  0.12700000000E+01 0.  1.
          2    1    1    2  502    0 -0.11389823587E+02  0.44686558898E+02  0.20444657050E+03  0.20958295927E+03  0.00000000000E+00 0. -1.
          1    1    1    2  503    0 -0.35009451980E+02 -0.89064877693E+02 -0.12213530889E+04  0.12250965602E+04  0.00000000000E+00 0. -1.
<mgrwt>
<rscale>  0 0.65748865E+02</rscale>
<asrwt>0</asrwt>
<pdfrwt beam="2">  1        2 0.21110045E+00 0.93741504E+02</pdfrwt>
<pdfrwt beam="1">  1        1 0.37324725E-01 0.46115254E+02</pdfrwt>
<totfact> 0.26640077E+02</totfact>
</mgrwt>
</event>
<event>
 7    1  0.6493044E-004  0.5164217E+02  0.7546771E-02  0.1454823E+00
          1   -1    0    0  503    0  0.00000000000E+00  0.00000000000E+00  0.74190667557E+03  0.74190667557E+03  0.00000000000E+00 0. -1.
         -1   -1    0    0    0  501 -0.00000000000E+00 -0.00000000000E+00 -0.18681717957E+04  0.18681717957E+04  0.00000000000E+00 0.  1.
         25    2    1    2    0    0 -0.91959535250E+02  0.22625489858E+02 -0.94965152465E+03  0.96251509364E+03  0.12501527230E+03 0.  0.
          4    1    3    3  502    0 -0.10992231715E+03 -0.63334426005E+01 -0.52097648875E+03  0.53248581487E+03  0.12700000000E+01 0.  1.
         -4    1    3    3    0  502  0.17962781901E+02  0.28958932458E+02 -0.42867503589E+03  0.43002927877E+03  0.12700000000E+01 0.  1.
          2    1    1    2  503    0  0.46825133538E+02 -0.21685923138E+02  0.73400988571E+03  0.73582157125E+03  0.00000000000E+00 0. -1.
         -2    1    1    2    0  501  0.45134401711E+02 -0.93956671985E+00 -0.91062348117E+03  0.91174180635E+03  0.00000000000E+00 0.  1.
<mgrwt>
<rscale>  0 0.48283987E+02</rscale>
<asrwt>0</asrwt>
<pdfrwt beam="1">  1        1 0.11413949E+00 0.51642170E+02</pdfrwt>
<pdfrwt beam="2">  1       -1 0.28741105E+00 0.45144180E+02</pdfrwt>
<totfact> 0.16284900E+00</totfact>
</mgrwt>
</event>
<event>
 7    1  0.6493044E-004  0.6110025E+02  0.7546771E-02  0.1395400E+00
          2   -1    0    0  503    0  0.00000000000E+00  0.00000000000E+00  0.18530238189E+04  0.18530238189E+04  0.00000000000E+00 0. -1.
          1   -1    0    0  502    0 -0.00000000000E+00 -0.00000000000E+00 -0.28695039746E+03  0.28695039746E+03  0.00000000000E+00 0. -1.
         25    2    1    2    0    0 -0.99602114919E+02 -0.43056253330E+02  0.11887292124E+03  0.20379591471E+03  0.12501032439E+03 0.  0.
          4    1    3    3  501    0 -0.11349795553E+03 -0.33297880434E+02  0.42725738269E+02  0.12576818502E+03  0.12700000000E+01 0.  1.
         -4    1    3    3    0  501  0.13895840615E+02 -0.97583728959E+01  0.76147182967E+02  0.78027729697E+02  0.12700000000E+01 0.  1.
          2    1    1    2  502    0  0.39029654466E+02  0.45663971403E+02 -0.24024640544E+03  0.24764258022E+03  0.00000000000E+00 0. -1.
          1    1    1    2  503    0  0.60572460452E+02 -0.26077180731E+01  0.16874469056E+04  0.16885357214E+04  0.00000000000E+00 0. -1.
<mgrwt>
<rscale>  0 0.60583387E+02</rscale>
<asrwt>0</asrwt>
<pdfrwt beam="1">  1        2 0.28508058E+00 0.61100254E+02</pdfrwt>
<pdfrwt beam="2">  1        1 0.44146216E-01 0.60070893E+02</pdfrwt>
<totfact> 0.13019642E+02</totfact>
</mgrwt>
</event>
<event>
 7    1  0.6493044E-004  0.5722836E+02  0.7546771E-02  0.1485038E+00
          2   -1    0    0  503    0  0.00000000000E+00  0.00000000000E+00  0.89610561217E+03  0.89610561217E+03  0.00000000000E+00 0. -1.
          1   -1    0    0  502    0 -0.00000000000E+00 -0.00000000000E+00 -0.37833047808E+03  0.37833047808E+03  0.00000000000E+00 0. -1.
         25    2    1    2    0    0  0.83875404279E+02 -0.69688346072E+01 -0.31120703492E+02  0.15387507087E+03  0.12500156460E+03 0.  0.
          4    1    3    3  501    0  0.28577732881E+02  0.58411268407E+02 -0.14564420785E+02  0.66650568988E+02  0.12700000000E+01 0. -1.
         -4    1    3    3    0  501  0.55297671398E+02 -0.65380103014E+02 -0.16556282706E+02  0.87224501886E+02  0.12700000000E+01 0. -1.
          2    1    1    2  502    0 -0.30331473942E+02 -0.12505879867E+02 -0.28391457893E+03  0.28580392487E+03  0.00000000000E+00 0. -1.
          1    1    1    2  503    0 -0.53543930337E+02  0.19474714474E+02  0.83281041651E+03  0.83475709451E+03  0.00000000000E+00 0. -1.
<mgrwt>
<rscale>  0 0.43330989E+02</rscale>
<asrwt>0</asrwt>
<pdfrwt beam="1">  1        2 0.13786240E+00 0.57228359E+02</pdfrwt>
<pdfrwt beam="2">  1        1 0.58204689E-01 0.32808464E+02</pdfrwt>
<totfact> 0.29700617E+02</totfact>
</mgrwt>
</event>
<event>
 7    1  0.6493044E-004  0.3919936E+02  0.7546771E-02  0.1538483E+00
          2   -1    0    0  503    0  0.00000000000E+00  0.00000000000E+00  0.68271666654E+03  0.68271666654E+03  0.00000000000E+00 0. -1.
          1   -1    0    0  502    0 -0.00000000000E+00 -0.00000000000E+00 -0.16579892336E+04  0.16579892336E+04  0.00000000000E+00 0. -1.
         25    2    1    2    0    0 -0.78966989959E+01 -0.16608580220E+01 -0.60511043493E+03  0.61794099958E+03  0.12500929648E+03 0.  0.
          4    1    3    3  501    0  0.46218262382E+02 -0.60267863888E+01 -0.47026898199E+03  0.47257483878E+03  0.12700000000E+01 0.  1.
         -4    1    3    3    0  501 -0.54114961378E+02  0.43659283668E+01 -0.13484145294E+03  0.14536616080E+03  0.12700000000E+01 0.  1.
          2    1    1    2  502    0 -0.26960354052E+02  0.19660315386E+02 -0.10456282581E+04  0.10461605244E+04  0.00000000000E+00 0. -1.
          1    1    1    2  503    0  0.34857053048E+02 -0.17999457364E+02  0.67546612592E+03  0.67660437619E+03  0.00000000000E+00 0. -1.
<mgrwt>
<rscale>  0 0.36166060E+02</rscale>
<asrwt>0</asrwt>
<pdfrwt beam="1">  1        2 0.10503333E+00 0.39199361E+02</pdfrwt>
<pdfrwt beam="2">  1        1 0.25507527E+00 0.33367480E+02</pdfrwt>
<totfact> 0.44204991E+01</totfact>
</mgrwt>
</event>
<event>
 7    1  0.6493044E-004  0.2156179E+03  0.7546771E-02  0.1282670E+00
          1   -1    0    0  502    0 -0.00000000000E+00  0.00000000000E+00  0.60019435713E+03  0.60019435713E+03  0.00000000000E+00 0. -1.
          2   -1    0    0  503    0  0.00000000000E+00 -0.00000000000E+00 -0.20476145313E+04  0.20476145313E+04  0.00000000000E+00 0. -1.
         25    2    1    2    0    0  0.49809030275E+02  0.21512678870E+03  0.29295357126E+02  0.25542815650E+03  0.12499940189E+03 0.  0.
          4    1    3    3  501    0 -0.20041991462E+02  0.14508033126E+03  0.49216480868E+02  0.15451167862E+03  0.12700000000E+01 0. -1.
         -4    1    3    3    0  501  0.69851021737E+02  0.70046457443E+02 -0.19921123742E+02  0.10091647789E+03  0.12700000000E+01 0. -1.
          2    1    1    2  502    0 -0.44642644330E+01 -0.21526507259E+03  0.43223408964E+03  0.48289262718E+03  0.00000000000E+00 0. -1.
          1    1    1    2  503    0 -0.45344765842E+02  0.13828389156E+00 -0.19089496209E+04  0.19094881048E+04  0.00000000000E+00 0. -1.
<mgrwt>
<rscale>  0 0.98879656E+02</rscale>
<asrwt>0</asrwt>
<pdfrwt beam="2">  1        2 0.31501761E+00 0.45344977E+02</pdfrwt>
<pdfrwt beam="1">  1        1 0.92337596E-01 0.21561785E+03</pdfrwt>
<totfact> 0.41631322E+01</totfact>
</mgrwt>
</event>
<event>
 7    1  0.6493044E-004  0.9830560E+02  0.7546771E-02  0.1319749E+00
          2   -1    0    0  503    0  0.00000000000E+00  0.00000000000E+00  0.47118975430E+03  0.47118975430E+03  0.00000000000E+00 0. -1.
          1   -1    0    0  502    0 -0.00000000000E+00 -0.00000000000E+00 -0.20632369688E+04  0.20632369688E+04  0.00000000000E+00 0. -1.
         25    2    1    2    0    0 -0.49840272813E+02  0.75874679718E+02 -0.15875585862E+03  0.22151955660E+03  0.12500588583E+03 0.  0.
          4    1    3    3  501    0 -0.33132026970E+02 -0.17027412836E+02 -0.53512940044E+00  0.37276846199E+02  0.12700000000E+01 0.  1.
         -4    1    3    3    0  501 -0.16708245843E+02  0.92902092554E+02 -0.15822072922E+03  0.18424271040E+03  0.12700000000E+01 0.  1.
          2    1    1    2  502    0  0.96914867051E+02 -0.23118839194E+02 -0.18689220099E+04  0.18715759272E+04  0.00000000000E+00 0. -1.
          1    1    1    2  503    0 -0.47074594237E+02 -0.52755840524E+02  0.43563065398E+03  0.44133123934E+03  0.00000000000E+00 0. -1.
<mgrwt>
<rscale>  0 0.83370840E+02</rscale>
<asrwt>0</asrwt>
<pdfrwt beam="1">  1        2 0.72490732E-01 0.70704994E+02</pdfrwt>
<pdfrwt beam="2">  1        1 0.31742107E+00 0.98305601E+02</pdfrwt>
<totfact> 0.32152028E+01</totfact>
</mgrwt>
</event>
<event>
 7    1  0.6493044E-004  0.5143235E+02  0.7546771E-02  0.1460229E+00
          2   -1    0    0  503    0  0.00000000000E+00  0.00000000000E+00  0.20367541971E+04  0.20367541971E+04  0.00000000000E+00 0. -1.
         -2   -1    0    0    0  501 -0.00000000000E+00 -0.00000000000E+00 -0.34487239696E+02  0.34487239696E+02  0.00000000000E+00 0.  1.
         25    2    1    2    0    0 -0.48764486461E+01 -0.86448798785E+02  0.40786471036E+03  0.43527985796E+03  0.12497102952E+03 0.  0.
          4    1    3    3  502    0 -0.18360885332E+02  0.29531117718E+02  0.10873862403E+03  0.11417053157E+03  0.12700000000E+01 0.  1.
         -4    1    3    3    0  502  0.13484436686E+02 -0.11597991650E+03  0.29912608633E+03  0.32110932638E+03  0.12700000000E+01 0.  1.
          1    1    1    2  503    0 -0.15739203463E+02  0.48056910647E+02  0.15914839196E+04  0.15922871147E+04  0.00000000000E+00 0. -1.
         -1    1    1    2    0  501  0.20615652109E+02  0.38391888138E+02  0.29183274513E+01  0.43674464185E+02  0.00000000000E+00 0.  1.
<mgrwt>
<rscale>  0 0.47341948E+02</rscale>
<asrwt>0</asrwt>
<pdfrwt beam="1">  1        2 0.31334671E+00 0.51432350E+02</pdfrwt>
<pdfrwt beam="2">  1       -2 0.53057308E-02 0.43576854E+02</pdfrwt>
<totfact> 0.12882876E+03</totfact>
</mgrwt>
</event>
<event>
 7    1  0.6493044E-004  0.9944729E+02  0.7546771E-02  0.1331929E+00
         -2   -1    0    0    0  501 -0.00000000000E+00  0.00000000000E+00  0.63081968029E+03  0.63081968029E+03  0.00000000000E+00 0.  1.
          2   -1    0    0  503    0  0.00000000000E+00 -0.00000000000E+00 -0.74401638614E+03  0.74401638614E+03  0.00000000000E+00 0. -1.
         25    2    1    2    0    0  0.11782610551E+03 -0.75930944903E+02 -0.11990438503E+01  0.18781400532E+03  0.12499665337E+03 0.  0.
          4    1    3    3  502    0  0.23190122188E+02 -0.16452755029E+02 -0.56377663817E+02  0.63154800234E+02  0.12700000000E+01 0. -1.
         -4    1    3    3    0  502  0.94635983326E+02 -0.59478189874E+02  0.55178619967E+02  0.12465920508E+03  0.12700000000E+01 0. -1.
          1    1    1    2  503    0 -0.96791635490E+02  0.16813136205E+02 -0.64394037228E+03  0.65139120757E+03  0.00000000000E+00 0. -1.
         -1    1    1    2    0  501 -0.21034470024E+02  0.59117808698E+02  0.53194271029E+03  0.53563085354E+03  0.00000000000E+00 0.  1.
<mgrwt>
<rscale>  0 0.78994685E+02</rscale>
<asrwt>0</asrwt>
<pdfrwt beam="2">  1        2 0.11446406E+00 0.99447289E+02</pdfrwt>
<pdfrwt beam="1">  1       -2 0.97049182E-01 0.62748420E+02</pdfrwt>
<totfact> 0.39008289E+01</totfact>
</mgrwt>
</event>
<event>
 7    1  0.6493044E-004  0.1626808E+03  0.7546771E-02  0.1268025E+00
         -2   -1    0    0    0  501 -0.00000000000E+00  0.00000000000E+00  0.46556186697E+02  0.46556186697E+02  0.00000000000E+00 0.  1.
          2   -1    0    0  503    0  0.00000000000E+00 -0.00000000000E+00 -0.28201017459E+04  0.28201017459E+04  0.00000000000E+00 0. -1.
         25    2    1    2    0    0 -0.42203523934E+02  0.11689690681E+03 -0.32740790305E+03  0.37184272772E+03  0.12500021970E+03 0.  0.
          4    1    3    3  502    0 -0.19849489859E+02 -0.16133246757E+02 -0.10991794883E+02  0.27869631382E+02  0.12700000000E+01 0.  1.
         -4    1    3    3    0  502 -0.22354034075E+02  0.13303015357E+03 -0.31641610817E+03  0.34397309634E+03  0.12700000000E+01 0.  1.
          1    1    1    2  503    0  0.11053660557E+03 -0.12755468979E+03 -0.24116222304E+04  0.24175215247E+04  0.00000000000E+00 0. -1.
         -1    1    1    2    0  501 -0.68333081638E+02  0.10657782983E+02 -0.34515425734E+02  0.77293680194E+02  0.00000000000E+00 0.  1.
<mgrwt>
<rscale>  0 0.10607016E+03</rscale>
<asrwt>0</asrwt>
<pdfrwt beam="2">  1        2 0.43386185E+00 0.16268080E+03</pdfrwt>
<pdfrwt beam="1">  1       -2 0.71624896E-02 0.69159225E+02</pdfrwt>
<totfact> 0.28972245E+02</totfact>
</mgrwt>
</event>
<event>
 7    1  0.6493044E-004  0.5436544E+02  0.7546771E-02  0.1493291E+00
         -1   -1    0    0    0  501 -0.00000000000E+00  0.00000000000E+00  0.41767119577E+03  0.41767119577E+03  0.00000000000E+00 0.  1.
          1   -1    0    0  503    0  0.00000000000E+00 -0.00000000000E+00 -0.40403906956E+03  0.40403906956E+03  0.00000000000E+00 0. -1.
         25    2    1    2    0    0 -0.65320642833E+01 -0.49666907642E+01 -0.32225338966E+03  0.34574396940E+03  0.12499723738E+03 0.  0.
          4    1    3    3  502    0  0.40024734860E+02  0.41270418570E+02 -0.18255772367E+03  0.19140052827E+03  0.12700000000E+01 0.  1.
         -4    1    3    3    0  502 -0.46556799143E+02 -0.46237109335E+02 -0.13969566599E+03  0.15434344114E+03  0.12700000000E+01 0.  1.
          2    1    1    2  503    0  0.42502577041E+02  0.45730933450E+02 -0.53855856601E+02  0.82451444012E+02  0.00000000000E+00 0. -1.
         -2    1    1    2    0  501 -0.35970512758E+02 -0.40764242686E+02  0.38974137246E+03  0.39351485192E+03  0.00000000000E+00 0.  1.
<mgrwt>
<rscale>  0 0.42101689E+02</rscale>
<asrwt>0</asrwt>
<pdfrwt beam="2">  1        1 0.62159857E-01 0.32604393E+02</pdfrwt>
<pdfrwt beam="1">  1       -1 0.64257107E-01 0.54365442E+02</pdfrwt>
<totfact> 0.16259071E+02</totfact>
</mgrwt>
</event>
<event>
 7    1  0.6493044E-004  0.4093979E+02  0.7546771E-02  0.1569986E+00
          2   -1    0    0  503    0  0.00000000000E+00  0.00000000000E+00  0.16686307538E+03  0.16686307538E+03  0.00000000000E+00 0. -1.
          1   -1    0    0  502    0 -0.00000000000E+00 -0.00000000000E+00 -0.21909782063E+04  0.21909782063E+04  0.00000000000E+00 0. -1.
         25    2    1    2    0    0  0.15594984589E+02 -0.59953395307E+02 -0.34094064082E+03  0.36837813210E+03  0.12499725794E+03 0.  0.
          4    1    3    3  501    0 -0.68250414836E+01 -0.29859632943E+02 -0.32683157040E+03  0.32826615296E+03  0.12700000000E+01 0.  1.
         -4    1    3    3    0  501  0.22420026072E+02 -0.30093762364E+02 -0.14109070424E+02  0.40111979140E+02  0.12700000000E+01 0.  1.
          2    1    1    2  502    0 -0.17708882769E+02  0.19207615705E+02 -0.18335065943E+04  0.18336927137E+04  0.00000000000E+00 0. -1.
          1    1    1    2  503    0  0.21138981806E+01  0.40745779603E+02  0.15033210422E+03  0.15577043583E+03  0.00000000000E+00 0. -1.
<mgrwt>
<rscale>  0 0.32704263E+02</rscale>
<asrwt>0</asrwt>
<pdfrwt beam="1">  1        2 0.25671244E-01 0.40939791E+02</pdfrwt>
<pdfrwt beam="2">  1        1 0.33707355E+00 0.26125410E+02</pdfrwt>
<totfact> 0.94307774E+01</totfact>
</mgrwt>
</event>
<event>
 7    1  0.6493044E-004  0.2167105E+03  0.7546771E-02  0.1254503E+00
         -2   -1    0    0    0  501  0.00000000000E+00  0.00000000000E+00  0.13197124146E+04  0.13197124146E+04  0.00000000000E+00 0.  1.
         -1   -1    0    0    0  502 -0.00000000000E+00 -0.00000000000E+00 -0.10016294527E+04  0.10016294527E+04  0.00000000000E+00 0.  1.
         25    2    1    2    0    0 -0.15667692735E+03  0.43468195910E+02 -0.21015131642E+03  0.29364222381E+03  0.12500014476E+03 0.  0.
          4    1    3    3  503    0 -0.11630237823E+03 -0.28681863928E+02 -0.14680258100E+03  0.18947691994E+03  0.12700000000E+01 0. -1.
         -4    1    3    3    0  503 -0.40374549116E+02  0.72150059838E+02 -0.63348735414E+02  0.10416530387E+03  0.12700000000E+01 0. -1.
         -2    1    1    2    0  502 -0.58924900406E+02 -0.64705212993E+01 -0.73917624562E+03  0.74154941415E+03  0.00000000000E+00 0.  1.
         -1    1    1    2    0  501  0.21560182775E+03 -0.36997674610E+02  0.12674105240E+04  0.12861502293E+04  0.00000000000E+00 0.  1.
<mgrwt>
<rscale>  0 0.11334197E+03</rscale>
<asrwt>0</asrwt>
<pdfrwt beam="1">  1       -2 0.20303268E+00 0.21671048E+03</pdfrwt>
<pdfrwt beam="2">  1       -1 0.15409684E+00 0.59279099E+02</pdfrwt>
<totfact> 0.41117193E-01</totfact>
</mgrwt>
</event>
<event>
 7    1  0.6493044E-004  0.4327141E+02  0.7546771E-02  0.1543334E+00
          2   -1    0    0  503    0  0.00000000000E+00  0.00000000000E+00  0.10887745951E+04  0.10887745951E+04  0.00000000000E+00 0. -1.
         -2   -1    0    0    0  501 -0.00000000000E+00 -0.00000000000E+00 -0.63518261134E+02  0.63518261134E+02  0.00000000000E+00 0.  1.
         25    2    1    2    0    0  0.60023225184E+02 -0.29281129320E+02  0.75229308949E+02  0.16045110687E+03  0.12499974670E+03 0.  0.
          4    1    3    3  502    0  0.89656622208E+02 -0.25362869513E+02  0.16629833982E+02  0.94655952449E+02  0.12700000000E+01 0. -1.
         -4    1    3    3    0  502 -0.29633397025E+02 -0.39182598072E+01  0.58599474967E+02  0.65795154423E+02  0.12700000000E+01 0. -1.
          1    1    1    2  503    0 -0.30746264672E+02  0.30122991618E+02  0.95995218581E+03  0.96091671151E+03  0.00000000000E+00 0. -1.
         -1    1    1    2    0  501 -0.29276960511E+02 -0.84186229774E+00 -0.99251607992E+01  0.30925037847E+02  0.00000000000E+00 0.  1.
<mgrwt>
<rscale>  0 0.35600267E+02</rscale>
<asrwt>0</asrwt>
<pdfrwt beam="1">  1        2 0.16750377E+00 0.43271409E+02</pdfrwt>
<pdfrwt beam="2">  1       -2 0.97720410E-02 0.29289062E+02</pdfrwt>
<totfact> 0.15109658E+03</totfact>
</mgrwt>
</event>
<event>
 7    1  0.6493044E-004  0.8130834E+02  0.7546771E-02  0.1439125E+00
         -2   -1    0    0    0  501 -0.00000000000E+00  0.00000000000E+00  0.69541233404E+02  0.69541233404E+02  0.00000000000E+00 0.  1.
          2   -1    0    0  503    0  0.00000000000E+00 -0.00000000000E+00 -0.10629420290E+04  0.10629420290E+04  0.00000000000E+00 0. -1.
         25    2    1    2    0    0  0.95723239583E+01  0.10733497874E+03 -0.16749211468E+03  0.23514265100E+03  0.12500412310E+03 0.  0.
          4    1    3    3  502    0 -0.22097578999E+02  0.82299154664E+02 -0.27669044629E+02  0.89602694082E+02  0.12700000000E+01 0. -1.
         -4    1    3    3    0  502  0.31669902958E+02  0.25035824079E+02 -0.13982307006E+03  0.14553995692E+03  0.12700000000E+01 0. -1.
          1    1    1    2  503    0  0.15149297773E+01 -0.32168837337E+02 -0.82053999127E+03  0.82117172770E+03  0.00000000000E+00 0. -1.
         -1    1    1    2    0  501 -0.11087253736E+02 -0.75166141406E+02 -0.53686895991E+01  0.76168883655E+02  0.00000000000E+00 0.  1.
<mgrwt>
<rscale>  0 0.51171219E+02</rscale>
<asrwt>0</asrwt>
<pdfrwt beam="2">  1        2 0.16352953E+00 0.32204489E+02</pdfrwt>
<pdfrwt beam="1">  1       -2 0.10698652E-01 0.81308344E+02</pdfrwt>
<totfact> 0.15034220E+03</totfact>
</mgrwt>
</event>
<event>
 7    1  0.6493044E-004  0.5261683E+02  0.7546771E-02  0.1439952E+00
          2   -1    0    0  503    0  0.00000000000E+00  0.00000000000E+00  0.44739676652E+03  0.44739676652E+03  0.00000000000E+00 0. -1.
         -2   -1    0    0    0  501 -0.00000000000E+00 -0.00000000000E+00 -0.69370630992E+03  0.69370630992E+03  0.00000000000E+00 0.  1.
         25    2    1    2    0    0  0.43974289428E+02  0.82253010624E+02  0.28556649413E+02  0.15855717798E+03  0.12500240228E+03 0.  0.
          4    1    3    3  502    0  0.86256492998E+02  0.55467446227E+02  0.34339806600E+02  0.10815569977E+03  0.12700000000E+01 0. -1.
         -4    1    3    3    0  502 -0.42282203570E+02  0.26785564396E+02 -0.57831571875E+01  0.50401478211E+02  0.12700000000E+01 0. -1.
          1    1    1    2  503    0 -0.39721017343E+02 -0.32977771100E+02  0.35097590718E+03  0.35475256169E+03  0.00000000000E+00 0. -1.
         -1    1    1    2    0  501 -0.42532720855E+01 -0.49275239524E+02 -0.62584209999E+03  0.62779333676E+03  0.00000000000E+00 0.  1.
<mgrwt>
<rscale>  0 0.51013210E+02</rscale>
<asrwt>0</asrwt>
<pdfrwt beam="1">  1        2 0.68830272E-01 0.52616831E+02</pdfrwt>
<pdfrwt beam="2">  1       -2 0.10672405E+00 0.49458463E+02</pdfrwt>
<totfact> 0.56149410E+01</totfact>
</mgrwt>
</event>
<event>
 7    1  0.6493044E-004  0.1424059E+03  0.7546771E-02  0.1289515E+00
          2   -1    0    0  503    0  0.00000000000E+00  0.00000000000E+00  0.45413025363E+03  0.45413025363E+03  0.00000000000E+00 0. -1.
          1   -1    0    0  502    0 -0.00000000000E+00 -0.00000000000E+00 -0.97711411209E+03  0.97711411209E+03  0.00000000000E+00 0. -1.
         25    2    1    2    0    0 -0.80034973202E+02 -0.56445416696E+02  0.74816469425E+02  0.17554327253E+03  0.12500501762E+03 0.  0.
          4    1    3    3  501    0 -0.67461022202E+02  0.11605765862E+02 -0.64842468046E+01  0.68770209208E+02  0.12700000000E+01 0. -1.
         -4    1    3    3    0  501 -0.12573950999E+02 -0.68051182558E+02  0.81300716229E+02  0.10677306332E+03  0.12700000000E+01 0. -1.
          2    1    1    2  502    0  0.79669999166E+02  0.12081253173E+03 -0.91787747217E+03  0.92921581482E+03  0.00000000000E+00 0. -1.
          1    1    1    2  503    0  0.36497403542E+00 -0.64367115032E+02  0.32007714428E+03  0.32648527837E+03  0.00000000000E+00 0. -1.
<mgrwt>
<rscale>  0 0.95741336E+02</rscale>
<asrwt>0</asrwt>
<pdfrwt beam="1">  1        2 0.69866194E-01 0.64368150E+02</pdfrwt>
<pdfrwt beam="2">  1        1 0.15032525E+00 0.14240589E+03</pdfrwt>
<totfact> 0.16686367E+02</totfact>
</mgrwt>
</event>
<event>
 7    1  0.6493044E-004  0.3061060E+02  0.7546771E-02  0.1646559E+00
          2   -1    0    0  503    0  0.00000000000E+00  0.00000000000E+00  0.58272276669E+02  0.58272276669E+02  0.00000000000E+00 0. -1.
         -2   -1    0    0    0  501 -0.00000000000E+00 -0.00000000000E+00 -0.22916960807E+03  0.22916960807E+03  0.00000000000E+00 0.  1.
         25    2    1    2    0    0 -0.23971169768E+01 -0.13147258978E+02 -0.17250308328E+03  0.21345280416E+03  0.12500475700E+03 0.  0.
          4    1    3    3  502    0 -0.11902993311E+02 -0.47322693184E+00 -0.18967589806E+03  0.19005384605E+03  0.12700000000E+01 0.  1.
         -4    1    3    3    0  502  0.95058763337E+01 -0.12674032046E+02  0.17172814777E+02  0.23398958108E+02  0.12700000000E+01 0.  1.
          1    1    1    2  503    0  0.22957838892E+02  0.21370579865E+02  0.26219133039E+02  0.40880398576E+02  0.00000000000E+00 0. -1.
         -1    1    1    2    0  501 -0.20560721915E+02 -0.82233208878E+01 -0.24613381154E+02  0.33108682002E+02  0.00000000000E+00 0.  1.
<mgrwt>
<rscale>  0 0.26035507E+02</rscale>
<asrwt>0</asrwt>
<pdfrwt beam="1">  1        2 0.89649658E-02 0.30610595E+02</pdfrwt>
<pdfrwt beam="2">  1       -2 0.35256862E-01 0.22144216E+02</pdfrwt>
<totfact> 0.45360199E+03</totfact>
</mgrwt>
</event>
<event>
 7    1  0.6493044E-004  0.8808790E+02  0.7546771E-02  0.1338773E+00
          1   -1    0    0  503    0  0.00000000000E+00  0.00000000000E+00  0.48829268549E+02  0.48829268549E+02  0.00000000000E+00 0. -1.
         -1   -1    0    0    0  501 -0.00000000000E+00 -0.00000000000E+00 -0.12395709954E+04  0.12395709954E+04  0.00000000000E+00 0.  1.
         25    2    1    2    0    0  0.13077058308E+03 -0.52796387911E+02 -0.49050796582E+03  0.52546581563E+03  0.12501141904E+03 0.  0.
          4    1    3    3  502    0  0.27573139313E+02 -0.39169956287E+02 -0.33449806351E+03  0.33791290428E+03  0.12700000000E+01 0.  1.
         -4    1    3    3    0  502  0.10319744376E+03 -0.13626431624E+02 -0.15600990231E+03  0.18755291135E+03  0.12700000000E+01 0.  1.
          2    1    1    2  503    0 -0.66686900879E+02  0.25129383034E+01 -0.94914650904E+01  0.67405827028E+02  0.00000000000E+00 0. -1.
         -2    1    1    2    0  501 -0.64083682199E+02  0.50283449608E+02 -0.69074229596E+03  0.69552862131E+03  0.00000000000E+00 0.  1.
<mgrwt>
<rscale>  0 0.76671234E+02</rscale>
<asrwt>0</asrwt>
<pdfrwt beam="1">  1        1 0.75121954E-02 0.66734231E+02</pdfrwt>
<pdfrwt beam="2">  1       -1 0.19070322E+00 0.88087898E+02</pdfrwt>
<totfact> 0.18207932E+02</totfact>
</mgrwt>
</event>
<event>
 7    1  0.6493044E-004  0.2906688E+02  0.7546771E-02  0.1624524E+00
          2   -1    0    0  503    0  0.00000000000E+00  0.00000000000E+00  0.13939697294E+04  0.13939697294E+04  0.00000000000E+00 0. -1.
          1   -1    0    0  502    0 -0.00000000000E+00 -0.00000000000E+00 -0.42927747700E+02  0.42927747700E+02  0.00000000000E+00 0. -1.
         25    2    1    2    0    0 -0.16530176350E+02  0.38017607430E+01  0.15019037617E+03  0.19614202412E+03  0.12500737745E+03 0.  0.
          4    1    3    3  501    0  0.88091296617E+00  0.43127579724E+02  0.14676631615E+03  0.15297950384E+03  0.12700000000E+01 0.  1.
         -4    1    3    3    0  501 -0.17411089316E+02 -0.39325818981E+02  0.34240600258E+01  0.43162520278E+02  0.12700000000E+01 0.  1.
          2    1    1    2  502    0  0.88437539021E+01 -0.29131682769E+02 -0.81083449968E+01  0.31505748406E+02  0.00000000000E+00 0. -1.
          1    1    1    2  503    0  0.76864224478E+01  0.25329922026E+02  0.12089599505E+04  0.12092497045E+04  0.00000000000E+00 0. -1.
<mgrwt>
<rscale>  0 0.27738317E+02</rscale>
<asrwt>0</asrwt>
<pdfrwt beam="1">  1        2 0.21445685E+00 0.26470475E+02</pdfrwt>
<pdfrwt beam="2">  1        1 0.66042700E-02 0.29066885E+02</pdfrwt>
<totfact> 0.23673634E+03</totfact>
</mgrwt>
</event>
<event>
 7    1  0.6493044E-004  0.5629757E+02  0.7546771E-02  0.1437575E+00
         -1   -1    0    0    0  501 -0.00000000000E+00  0.00000000000E+00  0.13338923490E+02  0.13338923490E+02  0.00000000000E+00 0.  1.
          1   -1    0    0  503    0  0.00000000000E+00 -0.00000000000E+00 -0.13131611332E+04  0.13131611332E+04  0.00000000000E+00 0. -1.
         25    2    1    2    0    0 -0.54852565279E+02  0.29946914856E+02 -0.92975088345E+03  0.94019505331E+03  0.12499764546E+03 0.  0.
          4    1    3    3  502    0  0.34337520247E+02  0.18089810652E+02 -0.13839595899E+03  0.14374060286E+03  0.12700000000E+01 0.  1.
         -4    1    3    3    0  502 -0.89190085526E+02  0.11857104205E+02 -0.79135492446E+03  0.79645445045E+03  0.12700000000E+01 0.  1.
          2    1    1    2  503    0  0.57209025939E+02  0.17048878388E+02 -0.25683370200E+03  0.26367989568E+03  0.00000000000E+00 0. -1.
         -2    1    1    2    0  501 -0.23564606596E+01 -0.46995793244E+02 -0.11323762424E+03  0.12262510768E+03  0.00000000000E+00 0.  1.
<mgrwt>
<rscale>  0 0.51469147E+02</rscale>
<asrwt>0</asrwt>
<pdfrwt beam="2">  1        1 0.20202483E+00 0.56297574E+02</pdfrwt>
<pdfrwt beam="1">  1       -1 0.20521417E-02 0.47054835E+02</pdfrwt>
<totfact> 0.57506262E+03</totfact>
</mgrwt>
</event>
<event>
 7    1  0.6493044E-004  0.8928534E+02  0.7546771E-02  0.1402529E+00
         -2   -1    0    0    0  501 -0.00000000000E+00  0.00000000000E+00  0.12197920302E+03  0.12197920302E+03  0.00000000000E+00 0.  1.
          2   -1    0    0  503    0  0.00000000000E+00 -0.00000000000E+00 -0.32420359845E+04  0.32420359845E+04  0.00000000000E+00 0. -1.
         25    2    1    2    0    0  0.51357954900E+02  0.10313702290E+03 -0.46678738889E+03  0.49678033484E+03  0.12500139851E+03 0.  0.
          4    1    3    3  502    0  0.75233410320E+01 -0.29118316917E+02 -0.99402075638E+02  0.10385982179E+03  0.12700000000E+01 0.  1.
         -4    1    3    3    0  502  0.43834613868E+02  0.13225533981E+03 -0.36738531325E+03  0.39292051305E+03  0.12700000000E+01 0.  1.
          1    1    1    2  503    0 -0.59534075894E+02 -0.65158641973E+02 -0.27559954707E+04  0.27574083827E+04  0.00000000000E+00 0. -1.
         -1    1    1    2    0  501  0.81761209939E+01 -0.37978380924E+02  0.10272607811E+03  0.10982646992E+03  0.00000000000E+00 0.  1.
<mgrwt>
<rscale>  0 0.58894840E+02</rscale>
<asrwt>0</asrwt>
<pdfrwt beam="2">  1        2 0.49877470E+00 0.89285343E+02</pdfrwt>
<pdfrwt beam="1">  1       -2 0.18766034E-01 0.38848505E+02</pdfrwt>
<totfact> 0.38870913E+01</totfact>
</mgrwt>
</event>
<event>
 7    1  0.6493044E-004  0.1148710E+03  0.7546771E-02  0.1285307E+00
          2   -1    0    0  503    0  0.00000000000E+00  0.00000000000E+00  0.98819376714E+03  0.98819376714E+03  0.00000000000E+00 0. -1.
         -2   -1    0    0    0  501 -0.00000000000E+00 -0.00000000000E+00 -0.30729417978E+03  0.30729417978E+03  0.00000000000E+00 0.  1.
         25    2    1    2    0    0  0.69193248627E+02 -0.57282836057E+02 -0.11663292945E+03  0.19312574592E+03  0.12500113816E+03 0.  0.
          4    1    3    3  502    0  0.74970269502E+02 -0.64938350475E+02 -0.13783750668E+03  0.16981849669E+03  0.12700000000E+01 0. -1.
         -4    1    3    3    0  502 -0.57770208755E+01  0.76555144173E+01  0.21204577224E+02  0.23307249225E+02  0.12700000000E+01 0. -1.
          1    1    1    2  503    0 -0.11547634186E+03 -0.11636612785E+02  0.93478134290E+03  0.94195878642E+03  0.00000000000E+00 0. -1.
         -1    1    1    2    0  501  0.46283093235E+02  0.68919448842E+02 -0.13724882609E+03  0.16040341459E+03  0.00000000000E+00 0.  1.
<mgrwt>
<rscale>  0 0.97654366E+02</rscale>
<asrwt>0</asrwt>
<pdfrwt beam="1">  1        2 0.15202981E+00 0.11487095E+03</pdfrwt>
<pdfrwt beam="2">  1       -2 0.47276028E-01 0.83018162E+02</pdfrwt>
<totfact> 0.12100925E+02</totfact>
</mgrwt>
</event>
<event>
 7    1  0.6493044E-004  0.5062828E+02  0.7546771E-02  0.1466130E+00
          2   -1    0    0  503    0  0.00000000000E+00  0.00000000000E+00  0.10976719642E+03  0.10976719642E+03  0.00000000000E+00 0. -1.
          1   -1    0    0  502    0 -0.00000000000E+00 -0.00000000000E+00 -0.66556019621E+03  0.66556019621E+03  0.00000000000E+00 0. -1.
         25    2    1    2    0    0 -0.28547964260E+02  0.28936076559E+02 -0.88513841786E+02  0.15846031427E+03  0.12499075254E+03 0.  0.
          4    1    3    3  501    0  0.25142090742E+01 -0.44032830682E+02 -0.69080718674E+01  0.44660337908E+02  0.12700000000E+01 0. -1.
         -4    1    3    3    0  501 -0.31062173335E+02  0.72968907240E+02 -0.81605769919E+02  0.11379997636E+03  0.12700000000E+01 0. -1.
          2    1    1    2  502    0 -0.77013461877E+01 -0.50968444463E+02 -0.53471770545E+03  0.53719653534E+03  0.00000000000E+00 0. -1.
          1    1    1    2  503    0  0.36249310448E+02  0.22032367904E+02  0.67438547441E+02  0.79670543016E+02  0.00000000000E+00 0. -1.
<mgrwt>
<rscale>  0 0.46342642E+02</rscale>
<asrwt>0</asrwt>
<pdfrwt beam="1">  1        2 0.16887261E-01 0.42419780E+02</pdfrwt>
<pdfrwt beam="2">  1        1 0.10239388E+00 0.50628280E+02</pdfrwt>
<totfact> 0.13723917E+03</totfact>
</mgrwt>
</event>
<event>
 7    1  0.6493044E-004  0.9382093E+02  0.7546771E-02  0.1398041E+00
          2   -1    0    0  503    0  0.00000000000E+00  0.00000000000E+00  0.40974843556E+04  0.40974843556E+04  0.00000000000E+00 0. -1.
          1   -1    0    0  502    0 -0.00000000000E+00 -0.00000000000E+00 -0.33849270936E+03  0.33849270936E+03  0.00000000000E+00 0. -1.
         25    2    1    2    0    0 -0.46508075893E+02  0.71790218311E+02  0.12841569626E+03  0.19857294916E+03  0.12499515400E+03 0.  0.
          4    1    3    3  501    0 -0.71659589544E+02  0.23160815392E+00  0.84939085079E+02  0.11113690427E+03  0.12700000000E+01 0. -1.
         -4    1    3    3    0  501  0.25151513652E+02  0.71558610157E+02  0.43476611182E+02  0.87436044892E+02  0.12700000000E+01 0. -1.
          2    1    1    2  502    0 -0.32355398729E+02 -0.20507634869E+02 -0.30164019645E+03  0.30406289322E+03  0.00000000000E+00 0. -1.
          1    1    1    2  503    0  0.78863474622E+02 -0.51282583442E+02  0.39322161464E+04  0.39333412226E+04  0.00000000000E+00 0. -1.
<mgrwt>
<rscale>  0 0.59950055E+02</rscale>
<asrwt>0</asrwt>
<pdfrwt beam="1">  1        2 0.63038217E+00 0.93820932E+02</pdfrwt>
<pdfrwt beam="2">  1        1 0.52075804E-01 0.38307113E+02</pdfrwt>
<totfact> 0.48797056E+00</totfact>
</mgrwt>
</event>
<event>
 7    1  0.6493044E-004  0.4891420E+02  0.7546771E-02  0.1465906E+00
          1   -1    0    0  502    0 -0.00000000000E+00  0.00000000000E+00  0.11672215928E+03  0.11672215928E+03  0.00000000000E+00 0. -1.
          2   -1    0    0  503    0  0.00000000000E+00 -0.00000000000E+00 -0.30572208063E+03  0.30572208063E+03  0.00000000000E+00 0. -1.
         25    2    1    2    0    0 -0.19688641260E+01 -0.67551376182E+02 -0.39400508838E+02  0.14746091620E+03  0.12500102744E+03 0.  0.
          4    1    3    3  501    0  0.42478143914E+02  0.16261976804E+02 -0.22151600691E+01  0.45556167904E+02  0.12700000000E+01 0. -1.
         -4    1    3    3    0  501 -0.44447008040E+02 -0.83813352987E+02 -0.37185348769E+02  0.10190474830E+03  0.12700000000E+01 0. -1.
          2    1    1    2  502    0  0.32525838023E+02  0.35924765531E+02  0.50568983641E+02  0.70040995310E+02  0.00000000000E+00 0. -1.
          1    1    1    2  503    0 -0.30556973897E+02  0.31626610652E+02 -0.20016839615E+03  0.20494232840E+03  0.00000000000E+00 0. -1.
<mgrwt>
<rscale>  0 0.46379916E+02</rscale>
<asrwt>0</asrwt>
<pdfrwt beam="2">  1        2 0.47034166E-01 0.43976939E+02</pdfrwt>
<pdfrwt beam="1">  1        1 0.17957255E-01 0.48914197E+02</pdfrwt>
<totfact> 0.39389469E+03</totfact>
</mgrwt>
</event>
<event>
 7    1  0.6493044E-004  0.2097364E+03  0.7546771E-02  0.1239555E+00
         -2   -1    0    0    0  501 -0.00000000000E+00  0.00000000000E+00  0.44929028534E+03  0.44929028534E+03  0.00000000000E+00 0.  1.
          2   -1    0    0  503    0  0.00000000000E+00 -0.00000000000E+00 -0.10229687234E+04  0.10229687234E+04  0.00000000000E+00 0. -1.
         25    2    1    2    0    0 -0.98479693876E+02  0.23028756357E+03 -0.42413260330E+03  0.50817745566E+03  0.12500099689E+03 0.  0.
          4    1    3    3  502    0 -0.79254211447E+02  0.12801318274E+03 -0.34816552034E+03  0.37932762546E+03  0.12700000000E+01 0.  1.
         -4    1    3    3    0  502 -0.19225482429E+02  0.10227438083E+03 -0.75967082957E+02  0.12884983020E+03  0.12700000000E+01 0.  1.
          1    1    1    2  503    0 -0.28038239740E+02 -0.65410543185E+02 -0.52775616341E+03  0.53253286290E+03  0.00000000000E+00 0. -1.
         -1    1    1    2    0  501  0.12651793362E+03 -0.16487702039E+03  0.37821032860E+03  0.43154869022E+03  0.00000000000E+00 0.  1.
<mgrwt>
<rscale>  0 0.12217291E+03</rscale>
<asrwt>0</asrwt>
<pdfrwt beam="2">  1        2 0.15737980E+00 0.71166580E+02</pdfrwt>
<pdfrwt beam="1">  1       -2 0.69121583E-01 0.20973638E+03</pdfrwt>
<totfact> 0.54378182E+01</totfact>
</mgrwt>
</event>
<event>
 7    1  0.6493044E-004  0.4680464E+02  0.7546771E-02  0.1537726E+00
          2   -1    0    0  503    0  0.00000000000E+00  0.00000000000E+00  0.18593388361E+04  0.18593388361E+04  0.00000000000E+00 0. -1.
         -2   -1    0    0    0  501 -0.00000000000E+00 -0.00000000000E+00 -0.11814231715E+02  0.11814231715E+02  0.00000000000E+00 0.  1.
         25    2    1    2    0    0 -0.23301894651E+02 -0.33298597830E+02  0.73544295533E+03  0.74709685302E+03  0.12500236933E+03 0.  0.
          4    1    3    3  502    0 -0.73309357219E+02 -0.17806211854E+02  0.51627864851E+03  0.52176295273E+03  0.12700000000E+01 0.  1.
         -4    1    3    3    0  502  0.50007462568E+02 -0.15492385976E+02  0.21916430682E+03  0.22533390029E+03  0.12700000000E+01 0.  1.
          1    1    1    2  503    0 -0.61619008480E+00  0.48017269902E+02  0.10813858762E+04  0.10824515930E+04  0.00000000000E+00 0. -1.
         -1    1    1    2    0  501  0.23918084735E+02 -0.14718672072E+02  0.30695772851E+02  0.41604621810E+02  0.00000000000E+00 0.  1.
<mgrwt>
<rscale>  0 0.36255538E+02</rscale>
<asrwt>0</asrwt>
<pdfrwt beam="1">  1        2 0.28605190E+00 0.46804641E+02</pdfrwt>
<pdfrwt beam="2">  1       -2 0.18175756E-02 0.28084054E+02</pdfrwt>
<totfact> 0.67683550E+03</totfact>
</mgrwt>
</event>
<event>
 7    1  0.6493044E-004  0.8339447E+02  0.7546771E-02  0.1376537E+00
          2   -1    0    0  503    0  0.00000000000E+00  0.00000000000E+00  0.20831696140E+04  0.20831696140E+04  0.00000000000E+00 0. -1.
         -2   -1    0    0    0  501 -0.00000000000E+00 -0.00000000000E+00 -0.47297405140E+02  0.47297405140E+02  0.00000000000E+00 0.  1.
         25    2    1    2    0    0 -0.68242208626E+02 -0.10874771625E+03  0.59778701627E+03  0.62406375378E+03  0.12499274835E+03 0.  0.
          4    1    3    3  502    0  0.30036639846E+01 -0.39790129759E+02  0.36528605009E+02  0.54113106614E+02  0.12700000000E+01 0.  1.
         -4    1    3    3    0  502 -0.71245872611E+02 -0.68957586495E+02  0.56125841126E+03  0.56995064717E+03  0.12700000000E+01 0.  1.
          1    1    1    2  503    0  0.52660742169E+02  0.59911587927E+02  0.14512802744E+04  0.14534706694E+04  0.00000000000E+00 0. -1.
         -1    1    1    2    0  501  0.15581466457E+02  0.48836128327E+02 -0.13195081784E+02  0.52932595914E+02  0.00000000000E+00 0.  1.
<mgrwt>
<rscale>  0 0.65382967E+02</rscale>
<asrwt>0</asrwt>
<pdfrwt beam="1">  1        2 0.32048756E+00 0.83394473E+02</pdfrwt>
<pdfrwt beam="2">  1       -2 0.72765255E-02 0.51261579E+02</pdfrwt>
<totfact> 0.73701184E+02</totfact>
</mgrwt>
</event>
<event>
 7    1  0.6493044E-004  0.4363356E+02  0.7546771E-02  0.1525221E+00
          2   -1    0    0  503    0  0.00000000000E+00  0.00000000000E+00  0.22104618234E+04  0.22104618234E+04  0.00000000000E+00 0. -1.
         -2   -1    0    0    0  501 -0.00000000000E+00 -0.00000000000E+00 -0.61238516624E+03  0.61238516624E+03  0.00000000000E+00 0.  1.
         25    2    1    2    0    0  0.37770105160E+02 -0.36861951790E+02  0.11628739699E+03  0.17869968236E+03  0.12500173377E+03 0.  0.
          4    1    3    3  502    0  0.69008718989E+02 -0.60797362878E+02  0.59318479619E+02  0.10944778460E+03  0.12700000000E+01 0. -1.
         -4    1    3    3    0  502 -0.31238613829E+02  0.23935411087E+02  0.56968917369E+02  0.69251897765E+02  0.12700000000E+01 0. -1.
          1    1    1    2  503    0  0.56277826055E+01  0.32222420328E+02  0.20620189743E+04  0.20622784019E+04  0.00000000000E+00 0. -1.
         -1    1    1    2    0  501 -0.43397887765E+02  0.46395314621E+01 -0.58022971414E+03  0.58186890541E+03  0.00000000000E+00 0.  1.
<mgrwt>
<rscale>  0 0.37779120E+02</rscale>
<asrwt>0</asrwt>
<pdfrwt beam="1">  1        2 0.34007105E+00 0.32710187E+02</pdfrwt>
<pdfrwt beam="2">  1       -2 0.94213104E-01 0.43633560E+02</pdfrwt>
<totfact> 0.77971521E+00</totfact>
</mgrwt>
</event>
<event>
 7    1  0.6493044E-004  0.1165509E+03  0.7546771E-02  0.1433878E+00
         -1   -1    0    0    0  501 -0.00000000000E+00  0.00000000000E+00  0.53738056668E+02  0.53738056668E+02  0.00000000000E+00 0.  1.
          1   -1    0    0  503    0  0.00000000000E+00 -0.00000000000E+00 -0.92648318548E+03  0.92648318548E+03  0.00000000000E+00 0. -1.
         25    2    1    2    0    0 -0.68064768615E+02 -0.92319134330E+02 -0.36057078545E+03  0.39846933032E+03  0.12494350962E+03 0.  0.
          4    1    3    3  502    0  0.40704505031E+01  0.22080418427E+02 -0.14117631901E+02  0.26552474004E+02  0.12700000000E+01 0. -1.
         -4    1    3    3    0  502 -0.72135219118E+02 -0.11439955276E+03 -0.34645315355E+03  0.37191685631E+03  0.12700000000E+01 0. -1.
          2    1    1    2  503    0  0.87291853601E+02  0.79035463319E+02 -0.53576052826E+03  0.54854882718E+03  0.00000000000E+00 0. -1.
         -2    1    1    2    0  501 -0.19227084986E+02  0.13283671010E+02  0.23586184890E+02  0.33203084649E+02  0.00000000000E+00 0.  1.
<mgrwt>
<rscale>  0 0.52189493E+02</rscale>
<asrwt>0</asrwt>
<pdfrwt beam="2">  1        1 0.14253588E+00 0.11655086E+03</pdfrwt>
<pdfrwt beam="1">  1       -1 0.82673932E-02 0.23369568E+02</pdfrwt>
<totfact> 0.12837189E+03</totfact>
</mgrwt>
</event>
<event>
 7    1  0.6493044E-004  0.9140408E+02  0.7546771E-02  0.1411975E+00
         -2   -1    0    0    0  501  0.00000000000E+00  0.00000000000E+00  0.30522749713E+03  0.30522749713E+03  0.00000000000E+00 0.  1.
         -1   -1    0    0    0  502 -0.00000000000E+00 -0.00000000000E+00 -0.14984601574E+04  0.14984601574E+04  0.00000000000E+00 0.  1.
         25    2    1    2    0    0 -0.71366640193E+02 -0.44555679312E+02 -0.14077656559E+03  0.20620693484E+03  0.12499941066E+03 0.  0.
          4    1    3    3  503    0 -0.23070047061E+02  0.41130365293E+02 -0.22195132307E+02  0.52136079817E+02  0.12700000000E+01 0. -1.
         -4    1    3    3    0  503 -0.48296593131E+02 -0.85686044606E+02 -0.11858143329E+03  0.15407085503E+03  0.12700000000E+01 0. -1.
         -2    1    1    2    0  502 -0.19387546964E+02  0.29429022295E+02 -0.13169601357E+04  0.13174315706E+04  0.00000000000E+00 0.  1.
         -1    1    1    2    0  501  0.90754187157E+02  0.15126657017E+02  0.26450404094E+03  0.28004914911E+03  0.00000000000E+00 0.  1.
<mgrwt>
<rscale>  0 0.56755547E+02</rscale>
<asrwt>0</asrwt>
<pdfrwt beam="1">  1       -2 0.46958077E-01 0.91404075E+02</pdfrwt>
<pdfrwt beam="2">  1       -1 0.23053233E+00 0.35241231E+02</pdfrwt>
<totfact> 0.42146682E+00</totfact>
</mgrwt>
</event>
<event>
 7    1  0.6493044E-004  0.5396195E+02  0.7546771E-02  0.1498408E+00
          2   -1    0    0  503    0  0.00000000000E+00  0.00000000000E+00  0.10786254095E+03  0.10786254095E+03  0.00000000000E+00 0. -1.
          1   -1    0    0  502    0 -0.00000000000E+00 -0.00000000000E+00 -0.53068494465E+03  0.53068494465E+03  0.00000000000E+00 0. -1.
         25    2    1    2    0    0 -0.22489486337E+02 -0.89645861488E+01 -0.12234653531E+03  0.17656873769E+03  0.12498681382E+03 0.  0.
          4    1    3    3  501    0 -0.59367872786E+02 -0.30464640309E+01 -0.12798339953E+02  0.60821342207E+02  0.12700000000E+01 0. -1.
         -4    1    3    3    0  501  0.36878386450E+02 -0.59181221180E+01 -0.10954819535E+03  0.11574739548E+03  0.12700000000E+01 0. -1.
          2    1    1    2  502    0 -0.28926289186E+02 -0.12984498245E+02 -0.37079314927E+03  0.37214632465E+03  0.00000000000E+00 0. -1.
          1    1    1    2  503    0  0.51415775523E+02  0.21949084394E+02  0.70317280886E+02  0.89832423264E+02  0.00000000000E+00 0. -1.
<mgrwt>
<rscale>  0 0.41363826E+02</rscale>
<asrwt>0</asrwt>
<pdfrwt beam="1">  1        2 0.16594237E-01 0.53961951E+02</pdfrwt>
<pdfrwt beam="2">  1        1 0.81643837E-01 0.31706898E+02</pdfrwt>
<totfact> 0.19273169E+03</totfact>
</mgrwt>
</event>
<event>
 7    1  0.6493044E-004  0.5587118E+02  0.7546771E-02  0.1461856E+00
          2   -1    0    0  503    0  0.00000000000E+00  0.00000000000E+00  0.65578019297E+02  0.65578019297E+02  0.00000000000E+00 0. -1.
         -2   -1    0    0    0  501 -0.00000000000E+00 -0.00000000000E+00 -0.67020278864E+03  0.67020278864E+03  0.00000000000E+00 0.  1.
         25    2    1    2    0    0  0.10065892070E+01  0.81664171763E+02 -0.18532694057E+03  0.23798713905E+03  0.12498701245E+03 0.  0.
          4    1    3    3  502    0  0.50065781553E+02  0.76459859203E+02 -0.79180397512E+02  0.12092907344E+03  0.12700000000E+01 0.  1.
         -4    1    3    3    0  502 -0.49059192346E+02  0.52043125604E+01 -0.10614654306E+03  0.11705806562E+03  0.12700000000E+01 0.  1.
          1    1    1    2  503    0  0.22079799591E+02 -0.49435480978E+02  0.19246254207E+02  0.57461314208E+02  0.00000000000E+00 0. -1.
         -1    1    1    2    0  501 -0.23086388798E+02 -0.32228690785E+02 -0.43854408298E+03  0.44033235467E+03  0.00000000000E+00 0.  1.
<mgrwt>
<rscale>  0 0.47063505E+02</rscale>
<asrwt>0</asrwt>
<pdfrwt beam="1">  1        2 0.10088925E-01 0.55871183E+02</pdfrwt>
<pdfrwt beam="2">  1       -2 0.10310813E+00 0.39644292E+02</pdfrwt>
<totfact> 0.48685292E+02</totfact>
</mgrwt>
</event>
<event>
 7    1  0.6493044E-004  0.1046112E+03  0.7546771E-02  0.1465836E+00
          1   -1    0    0  502    0 -0.00000000000E+00  0.00000000000E+00  0.13523101091E+04  0.13523101091E+04  0.00000000000E+00 0. -1.
          2   -1    0    0  503    0  0.00000000000E+00 -0.00000000000E+00 -0.10043413551E+04  0.10043413551E+04  0.00000000000E+00 0. -1.
         25    2    1    2    0    0  0.84217105940E+02 -0.73642044790E+02  0.31042549739E+02  0.17059915162E+03  0.12499903578E+03 0.  0.
          4    1    3    3  501    0 -0.20895675672E+02 -0.68764024290E+01 -0.25612336804E+02  0.33786371049E+02  0.12700000000E+01 0. -1.
         -4    1    3    3    0  501  0.10511278161E+03 -0.66765642361E+02  0.56654886543E+02  0.13681278057E+03  0.12700000000E+01 0. -1.
          2    1    1    2  502    0 -0.89533640104E+02  0.53767571990E+02  0.12491967231E+04  0.12535548164E+04  0.00000000000E+00 0. -1.
          1    1    1    2  503    0  0.53165341643E+01  0.19874472800E+02 -0.93227051882E+03  0.93249749623E+03  0.00000000000E+00 0. -1.
<mgrwt>
<rscale>  0 0.46391771E+02</rscale>
<asrwt>0</asrwt>
<pdfrwt beam="2">  1        2 0.15451406E+00 0.20573289E+02</pdfrwt>
<pdfrwt beam="1">  1        1 0.20804771E+00 0.10461120E+03</pdfrwt>
<totfact> 0.40011836E+01</totfact>
</mgrwt>
</event>
<event>
 7    1  0.6493044E-004  0.2467137E+03  0.7546771E-02  0.1344561E+00
          1   -1    0    0  503    0  0.00000000000E+00  0.00000000000E+00  0.35408425001E+03  0.35408425001E+03  0.00000000000E+00 0. -1.
         -1   -1    0    0    0  501 -0.00000000000E+00 -0.00000000000E+00 -0.10442006079E+04  0.10442006079E+04  0.00000000000E+00 0.  1.
         25    2    1    2    0    0 -0.22941483411E+03  0.48630861211E+02 -0.25997559008E+03  0.37177157992E+03  0.12502269163E+03 0.  0.
          4    1    3    3  502    0 -0.21648317020E+03  0.31413945045E+02 -0.16400372585E+03  0.27340562159E+03  0.12700000000E+01 0. -1.
         -4    1    3    3    0  502 -0.12931663911E+02  0.17216916166E+02 -0.95971864233E+02  0.98365958330E+02  0.12700000000E+01 0. -1.
          2    1    1    2  503    0  0.24650878404E+03 -0.33748401325E+02  0.24606158805E+03  0.34993119369E+03  0.00000000000E+00 0. -1.
         -2    1    1    2    0  501 -0.17093949931E+02 -0.14882459886E+02 -0.67620235591E+03  0.67658208436E+03  0.00000000000E+00 0.  1.
<mgrwt>
<rscale>  0 0.74777688E+02</rscale>
<asrwt>0</asrwt>
<pdfrwt beam="1">  1        1 0.54474500E-01 0.24671366E+03</pdfrwt>
<pdfrwt beam="2">  1       -1 0.16064625E+00 0.22664747E+02</pdfrwt>
<totfact> 0.26998529E+01</totfact>
</mgrwt>
</event>
<event>
 7    1  0.6493044E-004  0.6785526E+02  0.7546771E-02  0.1496113E+00
          2   -1    0    0  503    0  0.00000000000E+00  0.00000000000E+00  0.21507193088E+04  0.21507193088E+04  0.00000000000E+00 0. -1.
          1   -1    0    0  502    0 -0.00000000000E+00 -0.00000000000E+00 -0.95841505316E+03  0.95841505316E+03  0.00000000000E+00 0. -1.
         25    2    1    2    0    0  0.39512341053E+02 -0.16873835042E+02  0.39829588300E+03  0.41965436644E+03  0.12499690178E+03 0.  0.
          4    1    3    3  501    0 -0.21478945201E+02  0.10550536262E+02  0.29884298262E+03  0.29980226828E+03  0.12700000000E+01 0. -1.
         -4    1    3    3    0  501  0.60991286254E+02 -0.27424371305E+02  0.99452900376E+02  0.11985209816E+03  0.12700000000E+01 0. -1.
          2    1    1    2  502    0 -0.64950468582E+02  0.19898023521E+02 -0.94642418913E+03  0.94885891495E+03  0.00000000000E+00 0. -1.
          1    1    1    2  503    0  0.25438127529E+02 -0.30241884787E+01  0.17404325618E+04  0.17406210806E+04  0.00000000000E+00 0. -1.
<mgrwt>
<rscale>  0 0.41692516E+02</rscale>
<asrwt>0</asrwt>
<pdfrwt beam="1">  1        2 0.33087989E+00 0.25617261E+02</pdfrwt>
<pdfrwt beam="2">  1        1 0.14744847E+00 0.67855261E+02</pdfrwt>
<totfact> 0.21175614E+01</totfact>
</mgrwt>
</event>
<event>
 7    1  0.6493044E-004  0.5689090E+02  0.7546771E-02  0.1415853E+00
          2   -1    0    0  503    0  0.00000000000E+00  0.00000000000E+00  0.34400051188E+02  0.34400051188E+02  0.00000000000E+00 0. -1.
          1   -1    0    0  502    0 -0.00000000000E+00 -0.00000000000E+00 -0.27518756581E+04  0.27518756581E+04  0.00000000000E+00 0. -1.
         25    2    1    2    0    0 -0.11750673060E+02  0.35663527796E+02 -0.96540793572E+03  0.97419002092E+03  0.12499499578E+03 0.  0.
          4    1    3    3  501    0 -0.32081402899E+02  0.21885756970E+02 -0.93146243394E+03  0.93227253607E+03  0.12700000000E+01 0. -1.
         -4    1    3    3    0  501  0.20330729839E+02  0.13777770826E+02 -0.33945501782E+02  0.41917484848E+02  0.12700000000E+01 0. -1.
          2    1    1    2  502    0 -0.46074420621E+02 -0.29929493831E+02 -0.17531069734E+04  0.17539676984E+04  0.00000000000E+00 0. -1.
          1    1    1    2  503    0  0.57825093681E+02 -0.57340339647E+01  0.10393022496E+01  0.58117989933E+02  0.00000000000E+00 0. -1.
<mgrwt>
<rscale>  0 0.55907972E+02</rscale>
<asrwt>0</asrwt>
<pdfrwt beam="1">  1        2 0.52923147E-02 0.56890895E+02</pdfrwt>
<pdfrwt beam="2">  1        1 0.42336556E+00 0.54942032E+02</pdfrwt>
<totfact> 0.23913478E+02</totfact>
</mgrwt>
</event>
<event>
 7    1  0.6493044E-004  0.8867599E+02  0.7546771E-02  0.1370014E+00
          2   -1    0    0  503    0  0.00000000000E+00  0.00000000000E+00  0.30861285896E+04  0.30861285896E+04  0.00000000000E+00 0. -1.
          1   -1    0    0  502    0 -0.00000000000E+00 -0.00000000000E+00 -0.72342745293E+03  0.72342745293E+03  0.00000000000E+00 0. -1.
         25    2    1    2    0    0 -0.16930690256E+02 -0.47848457244E+02 -0.87232951828E+02  0.16064550169E+03  0.12498506389E+03 0.  0.
          4    1    3    3  501    0 -0.67928605847E+02 -0.47402460292E+01 -0.43467829466E+02  0.80794990706E+02  0.12700000000E+01 0.  1.
         -4    1    3    3    0  501  0.50997915591E+02 -0.43108211215E+02 -0.43765122363E+02  0.79850510983E+02  0.12700000000E+01 0.  1.
          2    1    1    2  502    0  0.63961468670E+02  0.67234852010E+02 -0.59568332656E+03  0.60286832753E+03  0.00000000000E+00 0. -1.
          1    1    1    2  503    0 -0.47030778415E+02 -0.19386394766E+02  0.30456174150E+04  0.30460422133E+04  0.00000000000E+00 0. -1.
<mgrwt>
<rscale>  0 0.67163389E+02</rscale>
<asrwt>0</asrwt>
<pdfrwt beam="1">  1        2 0.47478901E+00 0.50869700E+02</pdfrwt>
<pdfrwt beam="2">  1        1 0.11129653E+00 0.88675987E+02</pdfrwt>
<totfact> 0.94346157E+00</totfact>
</mgrwt>
</event>
<event>
 7    1  0.6493044E-004  0.2803859E+03  0.7546771E-02  0.1209856E+00
          2   -1    0    0  503    0  0.00000000000E+00  0.00000000000E+00  0.21914047067E+04  0.21914047067E+04  0.00000000000E+00 0. -1.
          1   -1    0    0  502    0 -0.00000000000E+00 -0.00000000000E+00 -0.29216466040E+03  0.29216466040E+03  0.00000000000E+00 0. -1.
         25    2    1    2    0    0 -0.23555143249E+03  0.86232925287E+02  0.30052264383E+03  0.41091862268E+03  0.12497863919E+03 0.  0.
          4    1    3    3  501    0 -0.12000277903E+03 -0.28218063061E+01  0.20166624274E+03  0.23469025529E+03  0.12700000000E+01 0.  1.
         -4    1    3    3    0  501 -0.11554865346E+03  0.89054731593E+02  0.98856401096E+02  0.17622836739E+03  0.12700000000E+01 0.  1.
          2    1    1    2  502    0  0.24174887860E+03 -0.15850514065E+03 -0.14777021586E+03  0.32465741422E+03  0.00000000000E+00 0. -1.
          1    1    1    2  503    0 -0.61974461041E+01  0.72272215361E+02  0.17464876183E+04  0.17479933302E+04  0.00000000000E+00 0. -1.
<mgrwt>
<rscale>  0 0.14261303E+03</rscale>
<asrwt>0</asrwt>
<pdfrwt beam="1">  1        2 0.33713917E+00 0.72537449E+02</pdfrwt>
<pdfrwt beam="2">  1        1 0.44948411E-01 0.28038587E+03</pdfrwt>
<totfact> 0.84858275E+01</totfact>
</mgrwt>
</event>
<event>
 7    1  0.5414170E-003  0.4290216E+02  0.7546771E-02  0.1509149E+00
         -2   -1    0    0    0  501 -0.00000000000E+00  0.00000000000E+00  0.21493924554E+03  0.21493924554E+03  0.00000000000E+00 0.  1.
          2   -1    0    0  503    0  0.00000000000E+00 -0.00000000000E+00 -0.98622352281E+02  0.98622352281E+02  0.00000000000E+00 0. -1.
         25    2    1    2    0    0  0.73780196330E+02 -0.59585651981E+01 -0.39615569829E+01  0.14530171259E+03  0.12497148425E+03 0.  0.
          4    1    3    3  502    0  0.33657790242E+02  0.84283161468E+01 -0.63319711204E+02  0.72214140471E+02  0.12700000000E+01 0.  1.
         -4    1    3    3    0  502  0.40122406088E+02 -0.14386881345E+02  0.59358154221E+02  0.73087572115E+02  0.12700000000E+01 0.  1.
          3    1    1    2  503    0 -0.35531304544E+02 -0.10525824365E+02 -0.39194860318E+01  0.37264312041E+02  0.00000000000E+00 0. -1.
         -3    1    1    2    0  501 -0.38248891786E+02  0.16484389563E+02  0.12419793628E+03  0.13099557320E+03  0.00000000000E+00 0.  1.
<mgrwt>
<rscale>  0 0.39872942E+02</rscale>
<asrwt>0</asrwt>
<pdfrwt beam="2">  1        2 0.15172670E-01 0.37057612E+02</pdfrwt>
<pdfrwt beam="1">  1       -2 0.33067576E-01 0.42902158E+02</pdfrwt>
<totfact> 0.28810074E+03</totfact>
</mgrwt>
</event>
<event>
 7    1  0.6493044E-004  0.4642570E+02  0.7546771E-02  0.1513170E+00
          1   -1    0    0  502    0 -0.00000000000E+00  0.00000000000E+00  0.21403648815E+03  0.21403648815E+03  0.00000000000E+00 0. -1.
          2   -1    0    0  503    0  0.00000000000E+00 -0.00000000000E+00 -0.12792870169E+04  0.12792870169E+04  0.00000000000E+00 0. -1.
         25    2    1    2    0    0  0.23336745580E+02 -0.28921597414E+02  0.32552443585E+02  0.13434897920E+03  0.12493568000E+03 0.  0.
          4    1    3    3  501    0  0.72890360319E+02 -0.17735361494E+02  0.19984177224E+01  0.75054341968E+02  0.12700000000E+01 0. -1.
         -4    1    3    3    0  501 -0.49553614739E+02 -0.11186235920E+02  0.30554025862E+02  0.59294637229E+02  0.12700000000E+01 0. -1.
          2    1    1    2  502    0 -0.47683927044E+02  0.61660236720E+01  0.12592544628E+03  0.13479241361E+03  0.00000000000E+00 0. -1.
          1    1    1    2  503    0  0.24347181464E+02  0.22755573742E+02 -0.12237284187E+04  0.12241821123E+04  0.00000000000E+00 0. -1.
<mgrwt>
<rscale>  0 0.39334060E+02</rscale>
<asrwt>0</asrwt>
<pdfrwt beam="2">  1        2 0.19681339E+00 0.33325687E+02</pdfrwt>
<pdfrwt beam="1">  1        1 0.32928691E-01 0.46425699E+02</pdfrwt>
<totfact> 0.37299061E+02</totfact>
</mgrwt>
</event>
<event>
 7    1  0.6493044E-004  0.2581094E+02  0.7546771E-02  0.1650329E+00
          2   -1    0    0  503    0  0.00000000000E+00  0.00000000000E+00  0.30679535631E+03  0.30679535631E+03  0.00000000000E+00 0. -1.
          1   -1    0    0  502    0 -0.00000000000E+00 -0.00000000000E+00 -0.67952455841E+02  0.67952455841E+02  0.00000000000E+00 0. -1.
         25    2    1    2    0    0 -0.14715300153E+01 -0.34215817458E+02  0.23224288126E+02  0.13168217982E+03  0.12501176488E+03 0.  0.
          4    1    3    3  501    0  0.54251117309E+02 -0.12777014295E+02 -0.18604217027E+02  0.58772149992E+02  0.12700000000E+01 0. -1.
         -4    1    3    3    0  501 -0.55722647324E+02 -0.21438803163E+02  0.41828505153E+02  0.72910029825E+02  0.12700000000E+01 0. -1.
          2    1    1    2  502    0  0.20091764600E+02  0.16341492490E+02 -0.93839882434E-02  0.25898329475E+02  0.00000000000E+00 0. -1.
          1    1    1    2  503    0 -0.18620234585E+02  0.17874324968E+02  0.21562799633E+03  0.21716730286E+03  0.00000000000E+00 0. -1.
<mgrwt>
<rscale>  0 0.25759348E+02</rscale>
<asrwt>0</asrwt>
<pdfrwt beam="1">  1        2 0.47199285E-01 0.25810940E+02</pdfrwt>
<pdfrwt beam="2">  1        1 0.10454224E-01 0.25707859E+02</pdfrwt>
<totfact> 0.72986458E+03</totfact>
</mgrwt>
</event>
<event>
 7    1  0.6493044E-004  0.6920884E+02  0.7546771E-02  0.1525709E+00
          2   -1    0    0  503    0  0.00000000000E+00  0.00000000000E+00  0.21516916317E+04  0.21516916317E+04  0.00000000000E+00 0. -1.
          1   -1    0    0  502    0 -0.00000000000E+00 -0.00000000000E+00 -0.14582850616E+03  0.14582850616E+03  0.00000000000E+00 0. -1.
         25    2    1    2    0    0 -0.89038856207E+02  0.76516756083E+01 -0.94977642219E+01  0.15395905673E+03  0.12500687009E+03 0.  0.
          4    1    3    3  501    0 -0.11498013476E+03  0.30498945765E+00  0.16878724782E+02  0.11621974298E+03  0.12700000000E+01 0. -1.
         -4    1    3    3    0  501  0.25941278552E+02  0.73466861506E+01 -0.26376489004E+02  0.37739313752E+02  0.12700000000E+01 0. -1.
          2    1    1    2  502    0  0.20526842661E+02  0.10927818346E+01 -0.61863246784E+02  0.65189007850E+02  0.00000000000E+00 0. -1.
          1    1    1    2  503    0  0.68512013546E+02 -0.87444574429E+01  0.20772241365E+04  0.20783720733E+04  0.00000000000E+00 0. -1.
<mgrwt>
<rscale>  0 0.37718043E+02</rscale>
<asrwt>0</asrwt>
<pdfrwt beam="1">  1        2 0.33102946E+00 0.69208844E+02</pdfrwt>
<pdfrwt beam="2">  1        1 0.22435156E-01 0.20555910E+02</pdfrwt>
<totfact> 0.19764034E+02</totfact>
</mgrwt>
</event>
<event>
 7    1  0.6493044E-004  0.3785138E+02  0.7546771E-02  0.1563503E+00
          2   -1    0    0  503    0  0.00000000000E+00  0.00000000000E+00  0.45090973306E+03  0.45090973306E+03  0.00000000000E+00 0. -1.
          1   -1    0    0  502    0 -0.00000000000E+00 -0.00000000000E+00 -0.36105467771E+03  0.36105467771E+03  0.00000000000E+00 0. -1.
         25    2    1    2    0    0 -0.31460321958E+02 -0.56441001869E+02  0.25873321207E+03  0.29451981311E+03  0.12499482685E+03 0.  0.
          4    1    3    3  501    0 -0.29865269721E+02  0.31862055973E+02  0.42536180418E+02  0.60975933702E+02  0.12700000000E+01 0.  1.
         -4    1    3    3    0  501 -0.15950522370E+01 -0.88303057842E+02  0.21619703165E+03  0.23354387941E+03  0.12700000000E+01 0.  1.
          2    1    1    2  502    0  0.14396504475E+02  0.25670377577E+02 -0.34074467815E+03  0.34201339639E+03  0.00000000000E+00 0. -1.
          1    1    1    2  503    0  0.17063817483E+02  0.30770624292E+02  0.17186652144E+03  0.17543120126E+03  0.00000000000E+00 0. -1.
<mgrwt>
<rscale>  0 0.33377119E+02</rscale>
<asrwt>0</asrwt>
<pdfrwt beam="1">  1        2 0.69370728E-01 0.37851377E+02</pdfrwt>
<pdfrwt beam="2">  1        1 0.55546873E-01 0.29431745E+02</pdfrwt>
<totfact> 0.68074754E+02</totfact>
</mgrwt>
</event>
<event>
 7    1  0.6493044E-004  0.8025505E+02  0.7546771E-02  0.1401514E+00
          2   -1    0    0  503    0  0.00000000000E+00  0.00000000000E+00  0.22862202021E+04  0.22862202021E+04  0.00000000000E+00 0. -1.
         -2   -1    0    0    0  501 -0.00000000000E+00 -0.00000000000E+00 -0.67790577151E+02  0.67790577151E+02  0.00000000000E+00 0.  1.
         25    2    1    2    0    0  0.11812014671E+03 -0.33328348680E+02  0.21358717505E+03  0.27623909916E+03  0.12500164267E+03 0.  0.
          4    1    3    3  502    0  0.14498160141E+03 -0.30079186993E+02  0.18205186764E+03  0.23466767491E+03  0.12700000000E+01 0. -1.
         -4    1    3    3    0  502 -0.26861454697E+02 -0.32491616878E+01  0.31535307417E+02  0.41571424248E+02  0.12700000000E+01 0. -1.
          1    1    1    2  503    0 -0.76635577587E+02  0.20018111081E+02  0.20272381734E+04  0.20287849438E+04  0.00000000000E+00 0. -1.
         -1    1    1    2    0  501 -0.41484569123E+02  0.13310237599E+02 -0.22395723510E+02  0.48986736284E+02  0.00000000000E+00 0.  1.
<mgrwt>
<rscale>  0 0.59131349E+02</rscale>
<asrwt>0</asrwt>
<pdfrwt beam="1">  1        2 0.35172613E+00 0.80255052E+02</pdfrwt>
<pdfrwt beam="2">  1       -2 0.10429321E-01 0.43567556E+02</pdfrwt>
<totfact> 0.33453353E+02</totfact>
</mgrwt>
</event>
<event>
 7    1  0.6493044E-004  0.7022059E+02  0.7546771E-02  0.1373880E+00
          2   -1    0    0  503    0  0.00000000000E+00  0.00000000000E+00  0.81639979802E+03  0.81639979802E+03  0.00000000000E+00 0. -1.
          1   -1    0    0  502    0 -0.00000000000E+00 -0.00000000000E+00 -0.47056096716E+02  0.47056096716E+02  0.00000000000E+00 0. -1.
         25    2    1    2    0    0  0.44512899728E+02  0.42503342855E+02  0.33375904729E+03  0.36167829479E+03  0.12501261888E+03 0.  0.
          4    1    3    3  501    0  0.62959792013E+02  0.83582990112E+00  0.70631611714E+02  0.94631239531E+02  0.12700000000E+01 0.  1.
         -4    1    3    3    0  501 -0.18446892285E+02  0.41667512954E+02  0.26312743558E+03  0.26704705526E+03  0.12700000000E+01 0.  1.
          2    1    1    2  502    0  0.93175309727E+01 -0.73709410075E+02  0.13972013989E+02  0.75598351119E+02  0.00000000000E+00 0. -1.
          1    1    1    2  503    0 -0.53830430701E+02  0.31206067220E+02  0.42161264003E+03  0.42617924883E+03  0.00000000000E+00 0. -1.
<mgrwt>
<rscale>  0 0.66100236E+02</rscale>
<asrwt>0</asrwt>
<pdfrwt beam="1">  1        2 0.12559996E+00 0.62221651E+02</pdfrwt>
<pdfrwt beam="2">  1        1 0.72394001E-02 0.70220592E+02</pdfrwt>
<totfact> 0.44790671E+03</totfact>
</mgrwt>
</event>
<event>
 7    1  0.6493044E-004  0.7277101E+02  0.7546771E-02  0.1462609E+00
          2   -1    0    0  503    0  0.00000000000E+00  0.00000000000E+00  0.25181541676E+03  0.25181541676E+03  0.00000000000E+00 0. -1.
          1   -1    0    0  502    0 -0.00000000000E+00 -0.00000000000E+00 -0.17410693204E+04  0.17410693204E+04  0.00000000000E+00 0. -1.
         25    2    1    2    0    0  0.83438657039E+02  0.28182939222E+02  0.12051844944E+03  0.19469391198E+03  0.12499894061E+03 0.  0.
          4    1    3    3  501    0  0.66337908913E+02  0.75379857775E+02  0.63960006697E+02  0.11906022205E+03  0.12700000000E+01 0.  1.
         -4    1    3    3    0  501  0.17100748127E+02 -0.47196918553E+02  0.56558442742E+02  0.75633689932E+02  0.12700000000E+01 0.  1.
          2    1    1    2  502    0 -0.57747851474E+02 -0.44194689771E+02 -0.17007526172E+04  0.17023065088E+04  0.00000000000E+00 0. -1.
          1    1    1    2  503    0 -0.25690805565E+02  0.16011750549E+02  0.90980264188E+02  0.95884316329E+02  0.00000000000E+00 0. -1.
<mgrwt>
<rscale>  0 0.46935313E+02</rscale>
<asrwt>0</asrwt>
<pdfrwt beam="1">  1        2 0.38740832E-01 0.30271994E+02</pdfrwt>
<pdfrwt beam="2">  1        1 0.26785683E+00 0.72771010E+02</pdfrwt>
<totfact> 0.10000657E+02</totfact>
</mgrwt>
</event>
<event>
 7    1  0.6493044E-004  0.7955858E+02  0.7546771E-02  0.1483678E+00
          2   -1    0    0  503    0  0.00000000000E+00  0.00000000000E+00  0.11510006062E+04  0.11510006062E+04  0.00000000000E+00 0. -1.
          1   -1    0    0  502    0 -0.00000000000E+00 -0.00000000000E+00 -0.24100877841E+03  0.24100877841E+03  0.00000000000E+00 0. -1.
         25    2    1    2    0    0 -0.12635981419E+02  0.69082043905E+02 -0.34245463963E+02  0.14741460080E+03  0.12500526353E+03 0.  0.
          4    1    3    3  501    0  0.28840423632E+01  0.10404322942E+03 -0.17135983807E+02  0.10549201927E+03  0.12700000000E+01 0.  1.
         -4    1    3    3    0  501 -0.15520023782E+02 -0.34961185514E+02 -0.17109480156E+02  0.41922581528E+02  0.12700000000E+01 0.  1.
          2    1    1    2  502    0 -0.23751405225E+02  0.18887167528E+01 -0.14777016918E+03  0.14967872060E+03  0.00000000000E+00 0. -1.
          1    1    1    2  503    0  0.36387386644E+02 -0.70970760657E+02  0.10920074610E+04  0.10949160633E+04  0.00000000000E+00 0. -1.
<mgrwt>
<rscale>  0 0.43538410E+02</rscale>
<asrwt>0</asrwt>
<pdfrwt beam="1">  1        2 0.17707701E+00 0.79558580E+02</pdfrwt>
<pdfrwt beam="2">  1        1 0.37078274E-01 0.23826382E+02</pdfrwt>
<totfact> 0.35161985E+02</totfact>
</mgrwt>
</event>
<event>
 7    1  0.6493044E-004  0.4723786E+02  0.7546771E-02  0.1505743E+00
          2   -1    0    0  503    0  0.00000000000E+00  0.00000000000E+00  0.40197792509E+03  0.40197792509E+03  0.00000000000E+00 0. -1.
          1   -1    0    0  502    0 -0.00000000000E+00 -0.00000000000E+00 -0.61677397622E+03  0.61677397622E+03  0.00000000000E+00 0. -1.
         25    2    1    2    0    0  0.18014342941E+02 -0.21675819381E+02  0.96268524404E+01  0.12849479231E+03  0.12499551058E+03 0.  0.
          4    1    3    3  501    0 -0.54573194902E+01  0.43734133479E+02  0.33099463783E+02  0.55132968086E+02  0.12700000000E+01 0.  1.
         -4    1    3    3    0  501  0.23471662432E+02 -0.65409952861E+02 -0.23472611342E+02  0.73361824226E+02  0.12700000000E+01 0.  1.
          2    1    1    2  502    0 -0.47487712992E+02  0.38495953448E+01 -0.55542649490E+03  0.55746613665E+03  0.00000000000E+00 0. -1.
          1    1    1    2  503    0  0.29473370051E+02  0.17826224036E+02  0.33100359133E+03  0.33279097235E+03  0.00000000000E+00 0. -1.
<mgrwt>
<rscale>  0 0.40337394E+02</rscale>
<asrwt>0</asrwt>
<pdfrwt beam="1">  1        2 0.61842758E-01 0.34444939E+02</pdfrwt>
<pdfrwt beam="2">  1        1 0.94888304E-01 0.47237864E+02</pdfrwt>
<totfact> 0.39275662E+02</totfact>
</mgrwt>
</event>
<event>
 7    1  0.6493044E-004  0.4228179E+02  0.7546771E-02  0.1534009E+00
          1   -1    0    0  502    0 -0.00000000000E+00  0.00000000000E+00  0.42898332718E+03  0.42898332718E+03  0.00000000000E+00 0. -1.
          2   -1    0    0  503    0  0.00000000000E+00 -0.00000000000E+00 -0.39586746520E+03  0.39586746520E+03  0.00000000000E+00 0. -1.
         25    2    1    2    0    0  0.19374825913E+02 -0.62431226198E+02  0.13263905520E+03  0.19360480712E+03  0.12496663751E+03 0.  0.
          4    1    3    3  501    0 -0.34215206483E+02  0.21109249641E+01 -0.26565832345E+01  0.34406492023E+02  0.12700000000E+01 0. -1.
         -4    1    3    3    0  501  0.53590032396E+02 -0.64542151162E+02  0.13529563844E+03  0.15919831510E+03  0.12700000000E+01 0. -1.
          2    1    1    2  502    0 -0.26796222055E+02  0.31454128030E+02  0.26355432668E+03  0.26677384204E+03  0.00000000000E+00 0. -1.
          1    1    1    2  503    0  0.74213961418E+01  0.30977098168E+02 -0.36307751990E+03  0.36447214322E+03  0.00000000000E+00 0. -1.
<mgrwt>
<rscale>  0 0.36699197E+02</rscale>
<asrwt>0</asrwt>
<pdfrwt beam="2">  1        2 0.60902687E-01 0.31853693E+02</pdfrwt>
<pdfrwt beam="1">  1        1 0.65997435E-01 0.42281787E+02</pdfrwt>
<totfact> 0.63092901E+02</totfact>
</mgrwt>
</event>
<event>
 7    1  0.6493044E-004  0.5028437E+02  0.7546771E-02  0.1513861E+00
         -2   -1    0    0    0  501 -0.00000000000E+00  0.00000000000E+00  0.20092611637E+04  0.20092611637E+04  0.00000000000E+00 0.  1.
          2   -1    0    0  503    0  0.00000000000E+00 -0.00000000000E+00 -0.16668009190E+04  0.16668009190E+04  0.00000000000E+00 0. -1.
         25    2    1    2    0    0  0.78882613487E+02  0.53197932594E+01  0.43552811356E+03  0.45995713185E+03  0.12500023409E+03 0.  0.
          4    1    3    3  502    0 -0.10478578577E+01 -0.49088595892E+02  0.18516608596E+03  0.19156951883E+03  0.12700000000E+01 0.  1.
         -4    1    3    3    0  502  0.79930471345E+02  0.54408389151E+02  0.25036202760E+03  0.26838761302E+03  0.12700000000E+01 0.  1.
          1    1    1    2  503    0 -0.30373158912E+02  0.39223498502E+01 -0.16540542080E+04  0.16543377033E+04  0.00000000000E+00 0. -1.
         -1    1    1    2    0  501 -0.48509454575E+02 -0.92421431096E+01  0.15609863392E+04  0.15617672475E+04  0.00000000000E+00 0.  1.
<mgrwt>
<rscale>  0 0.39242551E+02</rscale>
<asrwt>0</asrwt>
<pdfrwt beam="2">  1        2 0.25643091E+00 0.30625375E+02</pdfrwt>
<pdfrwt beam="1">  1       -2 0.30911710E+00 0.50284375E+02</pdfrwt>
<totfact> 0.54519205E-01</totfact>
</mgrwt>
</event>
<event>
 7    1  0.6493044E-004  0.7002351E+02  0.7546771E-02  0.1381811E+00
          1   -1    0    0  502    0 -0.00000000000E+00  0.00000000000E+00  0.33416548343E+03  0.33416548343E+03  0.00000000000E+00 0. -1.
          2   -1    0    0  503    0  0.00000000000E+00 -0.00000000000E+00 -0.41268230706E+03  0.41268230706E+03  0.00000000000E+00 0. -1.
         25    2    1    2    0    0  0.10605291632E+02  0.24573518299E+02  0.49486642259E+01  0.12792851762E+03  0.12499954532E+03 0.  0.
          4    1    3    3  501    0  0.31463623269E+02 -0.42101732982E+02  0.20353549723E+02  0.56377259561E+02  0.12700000000E+01 0.  1.
         -4    1    3    3    0  501 -0.20858331637E+02  0.66675251281E+02 -0.15404885497E+02  0.71551258055E+02  0.12700000000E+01 0.  1.
          2    1    1    2  502    0 -0.40773532756E+02  0.41916698737E+02  0.26065715883E+03  0.26713600479E+03  0.00000000000E+00 0. -1.
          1    1    1    2  503    0  0.30168241124E+02 -0.66490217036E+02 -0.34412264669E+03  0.35178326807E+03  0.00000000000E+00 0. -1.
<mgrwt>
<rscale>  0 0.63990025E+02</rscale>
<asrwt>0</asrwt>
<pdfrwt beam="2">  1        2 0.63489586E-01 0.70023506E+02</pdfrwt>
<pdfrwt beam="1">  1        1 0.51410074E-01 0.58476411E+02</pdfrwt>
<totfact> 0.81501807E+02</totfact>
</mgrwt>
</event>
<event>
 7    1  0.6493044E-004  0.3787876E+02  0.7546771E-02  0.1603601E+00
          2   -1    0    0  503    0  0.00000000000E+00  0.00000000000E+00  0.46989329837E+03  0.46989329837E+03  0.00000000000E+00 0. -1.
          1   -1    0    0  502    0 -0.00000000000E+00 -0.00000000000E+00 -0.32752608292E+03  0.32752608292E+03  0.00000000000E+00 0. -1.
         25    2    1    2    0    0 -0.55889656025E+02  0.48286148919E+01  0.24465404333E+02  0.13917323211E+03  0.12499465330E+03 0.  0.
          4    1    3    3  501    0  0.30725316061E+02  0.16372398513E+01 -0.24736579328E+02  0.39499833648E+02  0.12700000000E+01 0.  1.
         -4    1    3    3    0  501 -0.86614972086E+02  0.31913750405E+01  0.49201983661E+02  0.99673398458E+02  0.12700000000E+01 0.  1.
          2    1    1    2  502    0  0.34870802731E+02 -0.14132102347E+02 -0.26851900379E+03  0.27114229585E+03  0.00000000000E+00 0. -1.
          1    1    1    2  503    0  0.21018853294E+02  0.93034874555E+01  0.38642081491E+03  0.38710385333E+03  0.00000000000E+00 0. -1.
<mgrwt>
<rscale>  0 0.29507181E+02</rscale>
<asrwt>0</asrwt>
<pdfrwt beam="1">  1        2 0.72291277E-01 0.22985802E+02</pdfrwt>
<pdfrwt beam="2">  1        1 0.50388628E-01 0.37878763E+02</pdfrwt>
<totfact> 0.73418099E+02</totfact>
</mgrwt>
</event>
<event>
 7    1  0.6493044E-004  0.8422700E+02  0.7546771E-02  0.1406652E+00
         -2   -1    0    0    0  501 -0.00000000000E+00  0.00000000000E+00  0.44662742281E+03  0.44662742281E+03  0.00000000000E+00 0.  1.
          2   -1    0    0  503    0  0.00000000000E+00 -0.00000000000E+00 -0.26296193199E+04  0.26296193199E+04  0.00000000000E+00 0. -1.
         25    2    1    2    0    0  0.56127039425E+02 -0.94575823565E+02 -0.53897599715E+03  0.56408468050E+03  0.12490624611E+03 0.  0.
          4    1    3    3  502    0  0.95262460477E+02 -0.64454337817E+02 -0.33446474547E+03  0.35369135826E+03  0.12700000000E+01 0. -1.
         -4    1    3    3    0  502 -0.39135421052E+02 -0.30121485748E+02 -0.20451125167E+03  0.21039332225E+03  0.12700000000E+01 0. -1.
          1    1    1    2  503    0 -0.18754321797E+02  0.80694225740E+02 -0.20763457891E+04  0.20779978630E+04  0.00000000000E+00 0. -1.
         -1    1    1    2    0  501 -0.37372717628E+02  0.13881597825E+02  0.43232988918E+03  0.43416419919E+03  0.00000000000E+00 0.  1.
<mgrwt>
<rscale>  0 0.57947572E+02</rscale>
<asrwt>0</asrwt>
<pdfrwt beam="2">  1        2 0.40455682E+00 0.84226996E+02</pdfrwt>
<pdfrwt beam="1">  1       -2 0.68711910E-01 0.39867515E+02</pdfrwt>
<totfact> 0.82209619E+00</totfact>
</mgrwt>
</event>
<event>
 7    1  0.6493044E-004  0.1845634E+03  0.7546771E-02  0.1338717E+00
          1   -1    0    0  502    0 -0.00000000000E+00  0.00000000000E+00  0.10421922766E+04  0.10421922766E+04  0.00000000000E+00 0. -1.
          2   -1    0    0  503    0  0.00000000000E+00 -0.00000000000E+00 -0.62576807498E+03  0.62576807498E+03  0.00000000000E+00 0. -1.
         25    2    1    2    0    0 -0.15595561080E+03 -0.14530256937E+02  0.47960434593E+02  0.20605654377E+03  0.12500326011E+03 0.  0.
          4    1    3    3  501    0 -0.12449040110E+02 -0.45138937835E+02  0.35528027635E+02  0.58790781218E+02  0.12700000000E+01 0.  1.
         -4    1    3    3    0  501 -0.14350657069E+03  0.30608680898E+02  0.12432406958E+02  0.14726576255E+03  0.12700000000E+01 0.  1.
          2    1    1    2  502    0  0.18765023526E+03  0.11228540433E+02  0.90505266976E+03  0.92436952890E+03  0.00000000000E+00 0. -1.
          1    1    1    2  503    0 -0.31694624462E+02  0.33017165032E+01 -0.53658890269E+03  0.53753427895E+03  0.00000000000E+00 0. -1.
<mgrwt>
<rscale>  0 0.76689788E+02</rscale>
<asrwt>0</asrwt>
<pdfrwt beam="2">  1        2 0.96272012E-01 0.31866135E+02</pdfrwt>
<pdfrwt beam="1">  1        1 0.16033727E+00 0.18456344E+03</pdfrwt>
<totfact> 0.10583961E+02</totfact>
</mgrwt>
</event>
<event>
 7    1  0.6493044E-004  0.6928158E+02  0.7546771E-02  0.1384147E+00
         -1   -1    0    0    0  501 -0.00000000000E+00  0.00000000000E+00  0.92467819203E+02  0.92467819203E+02  0.00000000000E+00 0.  1.
          1   -1    0    0  503    0  0.00000000000E+00 -0.00000000000E+00 -0.28040035981E+04  0.28040035981E+04  0.00000000000E+00 0. -1.
         25    2    1    2    0    0  0.11894890374E+03  0.27749110477E+02 -0.25638635439E+03  0.31028634241E+03  0.12499918693E+03 0.  0.
          4    1    3    3  502    0  0.62662306383E+02  0.68930902798E+02 -0.19984457325E+03  0.22049376490E+03  0.12700000000E+01 0.  1.
         -4    1    3    3    0  502  0.56286597359E+02 -0.41181792321E+02 -0.56541781138E+02  0.89792577507E+02  0.12700000000E+01 0.  1.
          2    1    1    2  503    0 -0.61043042235E+02 -0.30914200903E+02 -0.25072756320E+04  0.25082091292E+04  0.00000000000E+00 0. -1.
         -2    1    1    2    0  501 -0.57905861507E+02  0.31650904254E+01  0.52126207531E+02  0.77975945688E+02  0.00000000000E+00 0.  1.
<mgrwt>
<rscale>  0 0.63386101E+02</rscale>
<asrwt>0</asrwt>
<pdfrwt beam="2">  1        1 0.43138518E+00 0.69281576E+02</pdfrwt>
<pdfrwt beam="1">  1       -1 0.14225818E-01 0.57992298E+02</pdfrwt>
<totfact> 0.40003207E+01</totfact>
</mgrwt>
</event>
<event>
 7    1  0.6493044E-004  0.9940901E+02  0.7546771E-02  0.1353488E+00
          1   -1    0    0  502    0 -0.00000000000E+00  0.00000000000E+00  0.19573734780E+04  0.19573734780E+04  0.00000000000E+00 0. -1.
          2   -1    0    0  503    0  0.00000000000E+00 -0.00000000000E+00 -0.76415312512E+02  0.76415312512E+02  0.00000000000E+00 0. -1.
         25    2    1    2    0    0  0.78180409912E+02  0.93646229687E+02  0.15483131862E+03  0.23341054020E+03  0.12500380083E+03 0.  0.
          4    1    3    3  501    0 -0.15737402566E+02  0.66098244952E+02  0.28738486868E+02  0.73784533289E+02  0.12700000000E+01 0. -1.
         -4    1    3    3    0  501  0.93917812478E+02  0.27547984735E+02  0.12609283175E+03  0.15962600691E+03  0.12700000000E+01 0. -1.
          2    1    1    2  502    0 -0.26093930556E+02 -0.95479337957E+02  0.17428376277E+04  0.17456460677E+04  0.00000000000E+00 0. -1.
          1    1    1    2  503    0 -0.52086479356E+02  0.18331082706E+01 -0.16710780821E+02  0.54732182610E+02  0.00000000000E+00 0. -1.
<mgrwt>
<rscale>  0 0.71979658E+02</rscale>
<asrwt>0</asrwt>
<pdfrwt beam="2">  1        2 0.11756203E-01 0.52118726E+02</pdfrwt>
<pdfrwt beam="1">  1        1 0.30113434E+00 0.99409015E+02</pdfrwt>
<totfact> 0.26246520E+02</totfact>
</mgrwt>
</event>
<event>
 7    1  0.6493044E-004  0.8249578E+02  0.7546771E-02  0.1448599E+00
          2   -1    0    0  503    0  0.00000000000E+00  0.00000000000E+00  0.13325396077E+04  0.13325396077E+04  0.00000000000E+00 0. -1.
          1   -1    0    0  502    0 -0.00000000000E+00 -0.00000000000E+00 -0.40916122606E+03  0.40916122606E+03  0.00000000000E+00 0. -1.
         25    2    1    2    0    0  0.66976974962E+02  0.87710824529E+02  0.61253949360E+02  0.17764611324E+03  0.12500796503E+03 0.  0.
          4    1    3    3  501    0  0.33581441972E+02  0.10555252683E+03  0.63688305123E+01  0.11095595553E+03  0.12700000000E+01 0. -1.
         -4    1    3    3    0  501  0.33395532990E+02 -0.17841702299E+02  0.54885118848E+02  0.66690157712E+02  0.12700000000E+01 0. -1.
          2    1    1    2  502    0 -0.53434109405E+02 -0.61409983176E+02 -0.34606152891E+03  0.35550664111E+03  0.00000000000E+00 0. -1.
          1    1    1    2  503    0 -0.13542865558E+02 -0.26300841353E+02  0.12081859612E+04  0.12085480794E+04  0.00000000000E+00 0. -1.
<mgrwt>
<rscale>  0 0.49400994E+02</rscale>
<asrwt>0</asrwt>
<pdfrwt beam="1">  1        2 0.20500609E+00 0.29582824E+02</pdfrwt>
<pdfrwt beam="2">  1        1 0.62947882E-01 0.82495783E+02</pdfrwt>
<totfact> 0.16219996E+02</totfact>
</mgrwt>
</event>
<event>
 7    1  0.6493044E-004  0.1386046E+03  0.7546771E-02  0.1301144E+00
          2   -1    0    0  503    0  0.00000000000E+00  0.00000000000E+00  0.40102215427E+03  0.40102215427E+03  0.00000000000E+00 0. -1.
          1   -1    0    0  502    0 -0.00000000000E+00 -0.00000000000E+00 -0.24455165415E+03  0.24455165415E+03  0.00000000000E+00 0. -1.
         25    2    1    2    0    0  0.13298803879E+03 -0.45344857918E+02  0.12049630406E+03  0.22334534953E+03  0.12498724440E+03 0.  0.
          4    1    3    3  501    0  0.69622283422E+02 -0.54202101337E+02  0.15260310661E+01  0.88255718280E+02  0.12700000000E+01 0. -1.
         -4    1    3    3    0  501  0.63365755372E+02  0.88572434198E+01  0.11897027299E+03  0.13508963125E+03  0.12700000000E+01 0. -1.
          2    1    1    2  502    0 -0.13930555935E+03 -0.13681866900E+02 -0.16284473573E+03  0.21473621097E+03  0.00000000000E+00 0. -1.
          1    1    1    2  503    0  0.63175205576E+01  0.59026724817E+02  0.19881893179E+03  0.20749224792E+03  0.00000000000E+00 0. -1.
<mgrwt>
<rscale>  0 0.90708874E+02</rscale>
<asrwt>0</asrwt>
<pdfrwt beam="1">  1        2 0.61695716E-01 0.59363838E+02</pdfrwt>
<pdfrwt beam="2">  1        1 0.37623332E-01 0.13860458E+03</pdfrwt>
<totfact> 0.12323682E+03</totfact>
</mgrwt>
</event>
<event>
 7    1  0.6493044E-004  0.9185334E+02  0.7546771E-02  0.1457291E+00
          2   -1    0    0  503    0  0.00000000000E+00  0.00000000000E+00  0.28182470764E+03  0.28182470764E+03  0.00000000000E+00 0. -1.
          1   -1    0    0  502    0 -0.00000000000E+00 -0.00000000000E+00 -0.18738738089E+04  0.18738738089E+04  0.00000000000E+00 0. -1.
         25    2    1    2    0    0 -0.23139525766E+02 -0.97822824070E+02 -0.87559317275E+02  0.18276708777E+03  0.12502972354E+03 0.  0.
          4    1    3    3  501    0 -0.57534247221E+02 -0.12076334747E+02 -0.65011873970E+02  0.87659478218E+02  0.12700000000E+01 0.  1.
         -4    1    3    3    0  501  0.34394721455E+02 -0.85746489323E+02 -0.22547443304E+02  0.95107609552E+02  0.12700000000E+01 0.  1.
          2    1    1    2  502    0 -0.18695190886E+02  0.16488935600E+02 -0.17296884646E+04  0.17298680816E+04  0.00000000000E+00 0. -1.
          1    1    1    2  503    0  0.41834716652E+02  0.81333888470E+02  0.22519868068E+03  0.24306334712E+03  0.00000000000E+00 0. -1.
<mgrwt>
<rscale>  0 0.47850827E+02</rscale>
<asrwt>0</asrwt>
<pdfrwt beam="1">  1        2 0.43357645E-01 0.91853343E+02</pdfrwt>
<pdfrwt beam="2">  1        1 0.28828829E+00 0.24927799E+02</pdfrwt>
<totfact> 0.86293414E+01</totfact>
</mgrwt>
</event>
<event>
 7    1  0.6493044E-004  0.5971500E+02  0.7546771E-02  0.1438191E+00
          1   -1    0    0  502    0 -0.00000000000E+00  0.00000000000E+00  0.18596036741E+02  0.18596036741E+02  0.00000000000E+00 0. -1.
          2   -1    0    0  503    0  0.00000000000E+00 -0.00000000000E+00 -0.26695616048E+04  0.26695616048E+04  0.00000000000E+00 0. -1.
         25    2    1    2    0    0 -0.60985227717E+01 -0.48080621562E+02 -0.42651103728E+03  0.44708600628E+03  0.12500117575E+03 0.  0.
          4    1    3    3  501    0 -0.42364056064E+02  0.23466388855E+02 -0.10373517634E+03  0.11449010596E+03  0.12700000000E+01 0. -1.
         -4    1    3    3    0  501  0.36265533293E+02 -0.71547010417E+02 -0.32277586094E+03  0.33259590033E+03  0.12700000000E+01 0. -1.
          2    1    1    2  502    0  0.44152119474E+02  0.69348140183E+00 -0.53953682737E+02  0.69720086427E+02  0.00000000000E+00 0. -1.
          1    1    1    2  503    0 -0.38053596703E+02  0.47387140160E+02 -0.21705008481E+04  0.21713515488E+04  0.00000000000E+00 0. -1.
<mgrwt>
<rscale>  0 0.51350453E+02</rscale>
<asrwt>0</asrwt>
<pdfrwt beam="2">  1        2 0.41070164E+00 0.59714999E+02</pdfrwt>
<pdfrwt beam="1">  1        1 0.28609298E-02 0.44157565E+02</pdfrwt>
<totfact> 0.16061823E+03</totfact>
</mgrwt>
</event>
<event>
 7    1  0.6493044E-004  0.7372712E+02  0.7546771E-02  0.1372086E+00
          1   -1    0    0  502    0 -0.00000000000E+00  0.00000000000E+00  0.94765899228E+02  0.94765899228E+02  0.00000000000E+00 0. -1.
          2   -1    0    0  503    0  0.00000000000E+00 -0.00000000000E+00 -0.11705035582E+04  0.11705035582E+04  0.00000000000E+00 0. -1.
         25    2    1    2    0    0 -0.30318521724E+01 -0.12248563939E+03 -0.84821776085E+02  0.19449911911E+03  0.12499299841E+03 0.  0.
          4    1    3    3  501    0  0.46619316057E+02 -0.15591575459E+02  0.18487643258E+00  0.49174230387E+02  0.12700000000E+01 0.  1.
         -4    1    3    3    0  501 -0.49651168229E+02 -0.10689406393E+03 -0.85006652518E+02  0.14532488873E+03  0.12700000000E+01 0.  1.
          2    1    1    2  502    0 -0.10300546110E+02  0.63836848248E+02  0.12241892663E+02  0.65811156960E+02  0.00000000000E+00 0. -1.
          1    1    1    2  503    0  0.13332398282E+02  0.58648791145E+02 -0.10031577756E+04  0.10049591814E+04  0.00000000000E+00 0. -1.
<mgrwt>
<rscale>  0 0.66590732E+02</rscale>
<asrwt>0</asrwt>
<pdfrwt beam="2">  1        2 0.18007748E+00 0.60145104E+02</pdfrwt>
<pdfrwt beam="1">  1        1 0.14579369E-01 0.73727125E+02</pdfrwt>
<totfact> 0.11305831E+03</totfact>
</mgrwt>
</event>
<event>
 7    1  0.6493044E-004  0.9254573E+02  0.7546771E-02  0.1327439E+00
          1   -1    0    0  502    0 -0.00000000000E+00  0.00000000000E+00  0.32509385480E+03  0.32509385480E+03  0.00000000000E+00 0. -1.
          2   -1    0    0  503    0  0.00000000000E+00 -0.00000000000E+00 -0.16714237847E+04  0.16714237847E+04  0.00000000000E+00 0. -1.
         25    2    1    2    0    0  0.51638829419E+02  0.14721258257E+03 -0.49221795026E+02  0.20588393821E+03  0.12500919062E+03 0.  0.
          4    1    3    3  501    0  0.26983071988E+02  0.22383142121E+02  0.37919489896E+02  0.51658414988E+02  0.12700000000E+01 0. -1.
         -4    1    3    3    0  501  0.24655757432E+02  0.12482944045E+03 -0.87141284922E+02  0.15422552323E+03  0.12700000000E+01 0. -1.
          2    1    1    2  502    0 -0.41959008825E+02 -0.56212325920E+02  0.24038966753E+03  0.25041480839E+03  0.00000000000E+00 0. -1.
          1    1    1    2  503    0 -0.96798205945E+01 -0.91000256647E+02 -0.15374978024E+04  0.15402188929E+04  0.00000000000E+00 0. -1.
<mgrwt>
<rscale>  0 0.80570850E+02</rscale>
<asrwt>0</asrwt>
<pdfrwt beam="2">  1        2 0.25714213E+00 0.92545732E+02</pdfrwt>
<pdfrwt beam="1">  1        1 0.50014438E-01 0.70145449E+02</pdfrwt>
<totfact> 0.13236366E+02</totfact>
</mgrwt>
</event>
<event>
 7    1  0.6493044E-004  0.6372673E+02  0.7546771E-02  0.1535624E+00
          2   -1    0    0  503    0  0.00000000000E+00  0.00000000000E+00  0.14429544741E+04  0.14429544741E+04  0.00000000000E+00 0. -1.
          1   -1    0    0  502    0 -0.00000000000E+00 -0.00000000000E+00 -0.12715746468E+02  0.12715746468E+02  0.00000000000E+00 0. -1.
         25    2    1    2    0    0 -0.32945198032E+01 -0.74621212662E+02  0.64295402623E+03  0.65923741395E+03  0.12499963544E+03 0.  0.
          4    1    3    3  501    0  0.39359466589E+02 -0.91587020047E+02  0.43990480548E+03  0.45106008540E+03  0.12700000000E+01 0.  1.
         -4    1    3    3    0  501 -0.42653986392E+02  0.16965807385E+02  0.20304922075E+03  0.20817732855E+03  0.12700000000E+01 0.  1.
          2    1    1    2  502    0  0.16462485043E+02  0.58375797349E+02  0.20528798978E+03  0.21406051920E+03  0.00000000000E+00 0. -1.
          1    1    1    2  503    0 -0.13167965239E+02  0.16245415313E+02  0.58199671165E+03  0.58237228746E+03  0.00000000000E+00 0. -1.
<mgrwt>
<rscale>  0 0.36505465E+02</rscale>
<asrwt>0</asrwt>
<pdfrwt beam="1">  1        2 0.22199287E+00 0.20911930E+02</pdfrwt>
<pdfrwt beam="2">  1        1 0.19562698E-02 0.63726730E+02</pdfrwt>
<totfact> 0.12739548E+04</totfact>
</mgrwt>
</event>
<event>
 7    1  0.6493044E-004  0.3960567E+02  0.7546771E-02  0.1517547E+00
          1   -1    0    0  503    0  0.00000000000E+00  0.00000000000E+00  0.10942173638E+04  0.10942173638E+04  0.00000000000E+00 0. -1.
         -1   -1    0    0    0  501 -0.00000000000E+00 -0.00000000000E+00 -0.27216801522E+02  0.27216801522E+02  0.00000000000E+00 0.  1.
         25    2    1    2    0    0  0.82405354875E+01 -0.17107412586E+02  0.17431593075E+03  0.21533663141E+03  0.12499300430E+03 0.  0.
          4    1    3    3  502    0  0.12296693366E+02 -0.48640409655E+02  0.17644863084E+03  0.18344707778E+03  0.12700000000E+01 0. -1.
         -4    1    3    3    0  502 -0.40561578789E+01  0.31532997069E+02 -0.21327000962E+01  0.31889553628E+02  0.12700000000E+01 0. -1.
          2    1    1    2  503    0  0.36221799699E+02 -0.11256386603E+02  0.78767999675E+03  0.78859273538E+03  0.00000000000E+00 0. -1.
         -2    1    1    2    0  501 -0.44462335187E+02  0.28363799189E+02  0.10500463483E+03  0.11750479859E+03  0.00000000000E+00 0.  1.
<mgrwt>
<rscale>  0 0.38759051E+02</rscale>
<asrwt>0</asrwt>
<pdfrwt beam="1">  1        1 0.16834110E+00 0.37930529E+02</pdfrwt>
<pdfrwt beam="2">  1       -1 0.41872011E-02 0.39605670E+02</pdfrwt>
<totfact> 0.29549239E+03</totfact>
</mgrwt>
</event>
<event>
 7    1  0.6493044E-004  0.6259395E+02  0.7546771E-02  0.1475151E+00
          1   -1    0    0  503    0  0.00000000000E+00  0.00000000000E+00  0.87119899332E+03  0.87119899332E+03  0.00000000000E+00 0. -1.
         -1   -1    0    0    0  501 -0.00000000000E+00 -0.00000000000E+00 -0.18727783777E+02  0.18727783777E+02  0.00000000000E+00 0.  1.
         25    2    1    2    0    0  0.17290784977E+02 -0.34729433275E+02  0.66208496961E+03  0.67489695655E+03  0.12499716072E+03 0.  0.
          4    1    3    3  502    0  0.54543068129E+02  0.25247031649E+02  0.32049132601E+03  0.32608075968E+03  0.12700000000E+01 0. -1.
         -4    1    3    3    0  502 -0.37252283152E+02 -0.59976464924E+02  0.34159364360E+03  0.34881619686E+03  0.12700000000E+01 0. -1.
          2    1    1    2  503    0  0.28571180867E+02 -0.14775450943E+02  0.69513598717E+02  0.76594821844E+02  0.00000000000E+00 0. -1.
         -2    1    1    2    0  501 -0.45861965844E+02  0.49504884218E+02  0.12087264121E+03  0.13843499870E+03  0.00000000000E+00 0.  1.
<mgrwt>
<rscale>  0 0.44870620E+02</rscale>
<asrwt>0</asrwt>
<pdfrwt beam="1">  1        1 0.13403058E+00 0.32165608E+02</pdfrwt>
<pdfrwt beam="2">  1       -1 0.28811982E-02 0.62593954E+02</pdfrwt>
<totfact> 0.77078378E+03</totfact>
</mgrwt>
</event>
<event>
 7    1  0.6493044E-004  0.1155233E+03  0.7546771E-02  0.1330562E+00
          2   -1    0    0  503    0  0.00000000000E+00  0.00000000000E+00  0.93903073694E+03  0.93903073694E+03  0.00000000000E+00 0. -1.
         -2   -1    0    0    0  501 -0.00000000000E+00 -0.00000000000E+00 -0.50043018970E+03  0.50043018970E+03  0.00000000000E+00 0.  1.
         25    2    1    2    0    0  0.66074178550E+02  0.78845620777E+02 -0.20394597230E+03  0.26038950917E+03  0.12500523142E+03 0.  0.
          4    1    3    3  502    0 -0.23531680759E+02  0.63400333202E+02 -0.11354422211E+03  0.13216370729E+03  0.12700000000E+01 0. -1.
         -4    1    3    3    0  502  0.89605859309E+02  0.15445287575E+02 -0.90401750193E+02  0.12822580188E+03  0.12700000000E+01 0. -1.
          1    1    1    2  503    0 -0.23756548083E+02 -0.11345560945E+03  0.90428529293E+03  0.91168439710E+03  0.00000000000E+00 0. -1.
         -1    1    1    2    0  501 -0.42317630468E+02  0.34609988669E+02 -0.26173877340E+03  0.26738702037E+03  0.00000000000E+00 0.  1.
<mgrwt>
<rscale>  0 0.79469964E+02</rscale>
<asrwt>0</asrwt>
<pdfrwt beam="1">  1        2 0.14446627E+00 0.11552334E+03</pdfrwt>
<pdfrwt beam="2">  1       -2 0.76989260E-01 0.54668393E+02</pdfrwt>
<totfact> 0.48196776E+01</totfact>
</mgrwt>
</event>
<event>
 7    1  0.6493044E-004  0.1091993E+03  0.7546771E-02  0.1421677E+00
          1   -1    0    0  502    0 -0.00000000000E+00  0.00000000000E+00  0.20054706572E+03  0.20054706572E+03  0.00000000000E+00 0. -1.
          2   -1    0    0  503    0  0.00000000000E+00 -0.00000000000E+00 -0.15847100686E+04  0.15847100686E+04  0.00000000000E+00 0. -1.
         25    2    1    2    0    0  0.33219110458E+02  0.75195281857E+02  0.10782596306E+03  0.18447770716E+03  0.12509095258E+03 0.  0.
          4    1    3    3  501    0  0.78319175125E+02  0.33063999997E+02  0.80084426903E+02  0.11680004118E+03  0.12700000000E+01 0. -1.
         -4    1    3    3    0  501 -0.45100064666E+02  0.42131281860E+02  0.27741536156E+02  0.67677665979E+02  0.12700000000E+01 0. -1.
          2    1    1    2  502    0  0.10078185129E+02  0.25444801603E+02  0.48880144669E+02  0.56020320304E+02  0.00000000000E+00 0. -1.
          1    1    1    2  503    0 -0.43297295587E+02 -0.10064008346E+03 -0.15408691106E+04  0.15447591069E+04  0.00000000000E+00 0. -1.
<mgrwt>
<rscale>  0 0.54667788E+02</rscale>
<asrwt>0</asrwt>
<pdfrwt beam="2">  1        2 0.24380155E+00 0.10919930E+03</pdfrwt>
<pdfrwt beam="1">  1        1 0.30853394E-01 0.27368006E+02</pdfrwt>
<totfact> 0.25292687E+02</totfact>
</mgrwt>
</event>
<event>
 7    1  0.6493044E-004  0.6875025E+02  0.7546771E-02  0.1517944E+00
          2   -1    0    0  503    0  0.00000000000E+00  0.00000000000E+00  0.78691743826E+03  0.78691743826E+03  0.00000000000E+00 0. -1.
         -2   -1    0    0    0  501 -0.00000000000E+00 -0.00000000000E+00 -0.43529504904E+03  0.43529504904E+03  0.00000000000E+00 0.  1.
         25    2    1    2    0    0  0.86492969638E+02  0.13679612761E+02  0.27289170872E+03  0.31268865601E+03  0.12504457329E+03 0.  0.
          4    1    3    3  502    0  0.66235396676E+02 -0.28016300065E+02  0.25156496503E+03  0.26164591603E+03  0.12700000000E+01 0. -1.
         -4    1    3    3    0  502  0.20257572962E+02  0.41695912826E+02  0.21326743685E+02  0.51042739982E+02  0.12700000000E+01 0. -1.
          1    1    1    2  503    0 -0.66454787079E+02 -0.51120098515E+01  0.49159097658E+03  0.49608876184E+03  0.00000000000E+00 0. -1.
         -1    1    1    2    0  501 -0.20038182559E+02 -0.85676029099E+01 -0.41286029607E+03  0.41343506945E+03  0.00000000000E+00 0.  1.
<mgrwt>
<rscale>  0 0.38707501E+02</rscale>
<asrwt>0</asrwt>
<pdfrwt beam="1">  1        2 0.12106422E+00 0.68750250E+02</pdfrwt>
<pdfrwt beam="2">  1       -2 0.66968469E-01 0.21792948E+02</pdfrwt>
<totfact> 0.82476552E+01</totfact>
</mgrwt>
</event>
<event>
 7    1  0.6493044E-004  0.4241186E+02  0.7546771E-02  0.1527867E+00
          1   -1    0    0  503    0  0.00000000000E+00  0.00000000000E+00  0.23247831721E+03  0.23247831721E+03  0.00000000000E+00 0. -1.
         -1   -1    0    0    0  501 -0.00000000000E+00 -0.00000000000E+00 -0.28604103883E+03  0.28604103883E+03  0.00000000000E+00 0.  1.
         25    2    1    2    0    0 -0.49988889423E+00  0.26584629211E+02  0.64383958035E+02  0.14309996195E+03  0.12500125063E+03 0.  0.
          4    1    3    3  502    0  0.43990154380E+02  0.72430538305E+01 -0.17503829375E+02  0.47912341353E+02  0.12700000000E+01 0. -1.
         -4    1    3    3    0  502 -0.44490043274E+02  0.19341575381E+02  0.81887787410E+02  0.95187620601E+02  0.12700000000E+01 0. -1.
          2    1    1    2  503    0  0.33405287890E+02 -0.29853864910E+02  0.12367803025E+03  0.13154247099E+03  0.00000000000E+00 0. -1.
         -2    1    1    2    0  501 -0.32905398996E+02  0.32692356984E+01 -0.24162470990E+03  0.24387692310E+03  0.00000000000E+00 0.  1.
<mgrwt>
<rscale>  0 0.37449300E+02</rscale>
<asrwt>0</asrwt>
<pdfrwt beam="1">  1        1 0.35765895E-01 0.42411860E+02</pdfrwt>
<pdfrwt beam="2">  1       -1 0.44006314E-01 0.33067404E+02</pdfrwt>
<totfact> 0.61772686E+02</totfact>
</mgrwt>
</event>
<event>
 7    1  0.6493044E-004  0.6988623E+02  0.7546771E-02  0.1521843E+00
          2   -1    0    0  503    0  0.00000000000E+00  0.00000000000E+00  0.19826561723E+04  0.19826561723E+04  0.00000000000E+00 0. -1.
          1   -1    0    0  502    0 -0.00000000000E+00 -0.00000000000E+00 -0.27840747958E+02  0.27840747958E+02  0.00000000000E+00 0. -1.
         25    2    1    2    0    0 -0.43150226502E+02 -0.51612412570E+02  0.42623544735E+03  0.44925049890E+03  0.12499428391E+03 0.  0.
          4    1    3    3  501    0 -0.21884783570E+01 -0.74915455126E+02  0.13670447843E+03  0.15590651743E+03  0.12700000000E+01 0.  1.
         -4    1    3    3    0  501 -0.40961748145E+02  0.23303042556E+02  0.28953096892E+03  0.29334398147E+03  0.12700000000E+01 0.  1.
          2    1    1    2  502    0  0.27368776834E+02  0.65294981261E+02  0.60813931073E+02  0.93331767024E+02  0.00000000000E+00 0. -1.
          1    1    1    2  503    0  0.15781449668E+02 -0.13682568691E+02  0.14677660460E+04  0.14679146544E+04  0.00000000000E+00 0. -1.
<mgrwt>
<rscale>  0 0.38206202E+02</rscale>
<asrwt>0</asrwt>
<pdfrwt beam="1">  1        2 0.30502392E+00 0.20887002E+02</pdfrwt>
<pdfrwt beam="2">  1        1 0.42831935E-02 0.69886232E+02</pdfrwt>
<totfact> 0.25044329E+03</totfact>
</mgrwt>
</event>
<event>
 7    1  0.6493044E-004  0.5459224E+02  0.7546771E-02  0.1508591E+00
         -2   -1    0    0    0  501 -0.00000000000E+00  0.00000000000E+00  0.12185518208E+04  0.12185518208E+04  0.00000000000E+00 0.  1.
          2   -1    0    0  503    0  0.00000000000E+00 -0.00000000000E+00 -0.72275572085E+03  0.72275572085E+03  0.00000000000E+00 0. -1.
         25    2    1    2    0    0  0.21549512839E+02 -0.36765577261E+02  0.12970590952E+03  0.18512975724E+03  0.12503325508E+03 0.  0.
          4    1    3    3  502    0 -0.17574021243E+02 -0.70988338821E+02  0.45422935434E+02  0.86099050138E+02  0.12700000000E+01 0.  1.
         -4    1    3    3    0  502  0.39123534082E+02  0.34222761560E+02  0.84282974084E+02  0.99030707098E+02  0.12700000000E+01 0.  1.
          1    1    1    2  503    0 -0.22810630562E+02 -0.18281845378E+02 -0.69402161535E+03  0.69463699391E+03  0.00000000000E+00 0. -1.
         -1    1    1    2    0  501  0.12611177224E+01  0.55047422639E+02  0.10601118058E+04  0.10615407905E+04  0.00000000000E+00 0.  1.
<mgrwt>
<rscale>  0 0.39948451E+02</rscale>
<asrwt>0</asrwt>
<pdfrwt beam="2">  1        2 0.11119319E+00 0.29232700E+02</pdfrwt>
<pdfrwt beam="1">  1       -2 0.18746951E+00 0.54592245E+02</pdfrwt>
<totfact> 0.84306967E+00</totfact>
</mgrwt>
</event>
<event>
 7    1  0.6493044E-004  0.7049540E+02  0.7546771E-02  0.1397488E+00
          1   -1    0    0  502    0 -0.00000000000E+00  0.00000000000E+00  0.23044328737E+03  0.23044328737E+03  0.00000000000E+00 0. -1.
          2   -1    0    0  503    0  0.00000000000E+00 -0.00000000000E+00 -0.20985601852E+03  0.20985601852E+03  0.00000000000E+00 0. -1.
         25    2    1    2    0    0 -0.45419757945E+02  0.10328249401E+03 -0.47964271688E+01  0.16846266772E+03  0.12500574675E+03 0.  0.
          4    1    3    3  501    0 -0.51869156294E+02  0.31950842284E+02 -0.54113939472E+02  0.81493539882E+02  0.12700000000E+01 0. -1.
         -4    1    3    3    0  501  0.64493983499E+01  0.71331651723E+02  0.49317512304E+02  0.86969127836E+02  0.12700000000E+01 0. -1.
          2    1    1    2  502    0  0.51298563639E+01 -0.50949059192E+02  0.13470718597E+03  0.14411158181E+03  0.00000000000E+00 0. -1.
          1    1    1    2  503    0  0.40289901581E+02 -0.52333434816E+02 -0.10932348995E+03  0.12772505637E+03  0.00000000000E+00 0. -1.
<mgrwt>
<rscale>  0 0.60081894E+02</rscale>
<asrwt>0</asrwt>
<pdfrwt beam="2">  1        2 0.32285541E-01 0.70495400E+02</pdfrwt>
<pdfrwt beam="1">  1        1 0.35452813E-01 0.51206660E+02</pdfrwt>
<totfact> 0.25680741E+03</totfact>
</mgrwt>
</event>
<event>
 7    1  0.6493044E-004  0.1157704E+03  0.7546771E-02  0.1266017E+00
          1   -1    0    0  502    0 -0.00000000000E+00  0.00000000000E+00  0.11819430761E+04  0.11819430761E+04  0.00000000000E+00 0. -1.
          2   -1    0    0  503    0  0.00000000000E+00 -0.00000000000E+00 -0.45344636575E+03  0.45344636575E+03  0.00000000000E+00 0. -1.
         25    2    1    2    0    0  0.14080433495E+02 -0.19472980012E+02 -0.83448828851E+02  0.15220247412E+03  0.12499772211E+03 0.  0.
          4    1    3    3  501    0 -0.34202069779E+02  0.38393284853E+02 -0.27432820913E+02  0.58292353377E+02  0.12700000000E+01 0. -1.
         -4    1    3    3    0  501  0.48282503274E+02 -0.57866264865E+02 -0.56016007938E+02  0.93910120738E+02  0.12700000000E+01 0. -1.
          2    1    1    2  502    0  0.11530463551E+03  0.10374067622E+02  0.11319712146E+04  0.11378759207E+04  0.00000000000E+00 0. -1.
          1    1    1    2  503    0 -0.12938506901E+03  0.90989123899E+01 -0.32002567540E+03  0.34531104703E+03  0.00000000000E+00 0. -1.
<mgrwt>
<rscale>  0 0.10710998E+03</rscale>
<asrwt>0</asrwt>
<pdfrwt beam="2">  1        2 0.69760980E-01 0.99097441E+02</pdfrwt>
<pdfrwt beam="1">  1        1 0.18183739E+00 0.11577038E+03</pdfrwt>
<totfact> 0.12082670E+02</totfact>
</mgrwt>
</event>
<event>
 7    1  0.6493044E-004  0.2880208E+03  0.7546771E-02  0.1222379E+00
          2   -1    0    0  503    0  0.00000000000E+00  0.00000000000E+00  0.15845274592E+04  0.15845274592E+04  0.00000000000E+00 0. -1.
          1   -1    0    0  502    0 -0.00000000000E+00 -0.00000000000E+00 -0.20156593636E+04  0.20156593636E+04  0.00000000000E+00 0. -1.
         25    2    1    2    0    0 -0.28551086159E+03  0.14177812193E+03 -0.35334668192E+03  0.49201359082E+03  0.12492400882E+03 0.  0.
          4    1    3    3  501    0 -0.83930902653E+02  0.39991012504E+02 -0.30164887247E+02  0.97750758687E+02  0.12700000000E+01 0. -1.
         -4    1    3    3    0  501 -0.20157995894E+03  0.10178710942E+03 -0.32318179467E+03  0.39426283213E+03  0.12700000000E+01 0. -1.
          2    1    1    2  502    0  0.99033348089E+01 -0.61063455847E+02 -0.15787601431E+04  0.15799716488E+04  0.00000000000E+00 0. -1.
          1    1    1    2  503    0  0.27560752678E+03 -0.80714666079E+02  0.15009749207E+04  0.15282015831E+04  0.00000000000E+00 0. -1.
<mgrwt>
<rscale>  0 0.13348163E+03</rscale>
<asrwt>0</asrwt>
<pdfrwt beam="1">  1        2 0.24377346E+00 0.28802082E+03</pdfrwt>
<pdfrwt beam="2">  1        1 0.31010144E+00 0.61861310E+02</pdfrwt>
<totfact> 0.66570782E+00</totfact>
</mgrwt>
</event>
<event>
 7    1  0.6493044E-004  0.5756840E+02  0.7546771E-02  0.1409408E+00
          2   -1    0    0  503    0  0.00000000000E+00  0.00000000000E+00  0.13066262134E+04  0.13066262134E+04  0.00000000000E+00 0. -1.
          1   -1    0    0  502    0 -0.00000000000E+00 -0.00000000000E+00 -0.85943045660E+03  0.85943045660E+03  0.00000000000E+00 0. -1.
         25    2    1    2    0    0  0.62622852767E+02  0.11005096129E+02  0.21484169395E+03  0.25656042732E+03  0.12499426217E+03 0.  0.
          4    1    3    3  501    0  0.62490769365E+02  0.38448265694E+02  0.21693257127E+03  0.22900811944E+03  0.12700000000E+01 0.  1.
         -4    1    3    3    0  501  0.13208340146E+00 -0.27443169565E+02 -0.20908773150E+01  0.27552307884E+02  0.12700000000E+01 0.  1.
          2    1    1    2  502    0 -0.38507111389E+02  0.42141037825E+02 -0.83680282541E+03  0.83874765771E+03  0.00000000000E+00 0. -1.
          1    1    1    2  503    0 -0.24115741378E+02 -0.53146133954E+02  0.10691568883E+04  0.10707485850E+04  0.00000000000E+00 0. -1.
<mgrwt>
<rscale>  0 0.57326047E+02</rscale>
<asrwt>0</asrwt>
<pdfrwt beam="1">  1        2 0.20101942E+00 0.57568399E+02</pdfrwt>
<pdfrwt beam="2">  1        1 0.13222007E+00 0.57084715E+02</pdfrwt>
<totfact> 0.59619382E+01</totfact>
</mgrwt>
</event>
<event>
 7    1  0.6493044E-004  0.5290532E+02  0.7546771E-02  0.1488513E+00
          2   -1    0    0  503    0  0.00000000000E+00  0.00000000000E+00  0.47565122874E+03  0.47565122874E+03  0.00000000000E+00 0. -1.
         -2   -1    0    0    0  501 -0.00000000000E+00 -0.00000000000E+00 -0.13261919976E+03  0.13261919976E+03  0.00000000000E+00 0.  1.
         25    2    1    2    0    0  0.41505882807E+02 -0.72883215105E+01 -0.65406779196E+02  0.14723070208E+03  0.12499189947E+03 0.  0.
          4    1    3    3  502    0  0.72491045419E+02  0.20966389015E+02 -0.76700925770E+01  0.75861613181E+02  0.12700000000E+01 0. -1.
         -4    1    3    3    0  502 -0.30985162612E+02 -0.28254710525E+02 -0.57736686619E+02  0.71369088902E+02  0.12700000000E+01 0. -1.
          1    1    1    2  503    0 -0.45831739722E+02 -0.27077349767E+02  0.42088238589E+03  0.42423544641E+03  0.00000000000E+00 0. -1.
         -1    1    1    2    0  501  0.43258569150E+01  0.34365671278E+02 -0.12443577709E+02  0.36804280004E+02  0.00000000000E+00 0.  1.
<mgrwt>
<rscale>  0 0.42807413E+02</rscale>
<asrwt>0</asrwt>
<pdfrwt beam="1">  1        2 0.73177111E-01 0.52905324E+02</pdfrwt>
<pdfrwt beam="2">  1       -2 0.20402954E-01 0.34636865E+02</pdfrwt>
<totfact> 0.12599367E+03</totfact>
</mgrwt>
</event>
<event>
 7    1  0.6493044E-004  0.6667182E+02  0.7546771E-02  0.1413883E+00
          1   -1    0    0  503    0  0.00000000000E+00  0.00000000000E+00  0.34867858000E+04  0.34867858000E+04  0.00000000000E+00 0. -1.
         -1   -1    0    0    0  501 -0.00000000000E+00 -0.00000000000E+00 -0.11333900550E+04  0.11333900550E+04  0.00000000000E+00 0.  1.
         25    2    1    2    0    0  0.28899498527E+02 -0.35612992690E+01  0.46753986493E+03  0.48483823456E+03  0.12500689790E+03 0.  0.
          4    1    3    3  502    0 -0.32378986759E+02  0.38029536330E+02  0.13008450519E+03  0.13934933013E+03  0.12700000000E+01 0.  1.
         -4    1    3    3    0  502  0.61278485286E+02 -0.41590835599E+02  0.33745535975E+03  0.34548890443E+03  0.12700000000E+01 0.  1.
          2    1    1    2  503    0  0.27987896052E+02  0.38506213771E+02  0.30094176052E+04  0.30097940749E+04  0.00000000000E+00 0. -1.
         -2    1    1    2    0  501 -0.56887394579E+02 -0.34944914502E+02 -0.11235617251E+04  0.11255435455E+04  0.00000000000E+00 0.  1.
<mgrwt>
<rscale>  0 0.56336331E+02</rscale>
<asrwt>0</asrwt>
<pdfrwt beam="1">  1        1 0.53642858E+00 0.47603055E+02</pdfrwt>
<pdfrwt beam="2">  1       -1 0.17436770E+00 0.66671819E+02</pdfrwt>
<totfact> 0.12758220E-01</totfact>
</mgrwt>
</event>
<event>
 7    1  0.6493044E-004  0.4156061E+02  0.7546771E-02  0.1554701E+00
          2   -1    0    0  503    0  0.00000000000E+00  0.00000000000E+00  0.12275768532E+03  0.12275768532E+03  0.00000000000E+00 0. -1.
         -2   -1    0    0    0  501 -0.00000000000E+00 -0.00000000000E+00 -0.22690312908E+03  0.22690312908E+03  0.00000000000E+00 0.  1.
         25    2    1    2    0    0 -0.69029481816E+02  0.16541944017E+01 -0.13184749565E+03  0.19435939611E+03  0.12499602805E+03 0.  0.
          4    1    3    3  502    0 -0.65816098027E+02  0.36281772259E+02 -0.20803913063E+02  0.77990649801E+02  0.12700000000E+01 0. -1.
         -4    1    3    3    0  502 -0.32133837893E+01 -0.34627577857E+02 -0.11104358259E+03  0.11636874631E+03  0.12700000000E+01 0. -1.
          1    1    1    2  503    0  0.40694973002E+02 -0.24223953289E+01  0.83386205137E+02  0.92818144961E+02  0.00000000000E+00 0. -1.
         -1    1    1    2    0  501  0.28334508815E+02  0.76820092720E+00 -0.55684153249E+02  0.62483273325E+02  0.00000000000E+00 0.  1.
<mgrwt>
<rscale>  0 0.34322476E+02</rscale>
<asrwt>0</asrwt>
<pdfrwt beam="1">  1        2 0.18885798E-01 0.41560615E+02</pdfrwt>
<pdfrwt beam="2">  1       -2 0.34908173E-01 0.28344921E+02</pdfrwt>
<totfact> 0.20407530E+03</totfact>
</mgrwt>
</event>
<event>
 7    1  0.6493044E-004  0.4449556E+02  0.7546771E-02  0.1535889E+00
         -1   -1    0    0    0  501 -0.00000000000E+00  0.00000000000E+00  0.52654038685E+03  0.52654038685E+03  0.00000000000E+00 0.  1.
          1   -1    0    0  503    0  0.00000000000E+00 -0.00000000000E+00 -0.28319970766E+04  0.28319970766E+04  0.00000000000E+00 0. -1.
         25    2    1    2    0    0  0.12590798351E+01  0.67046176917E+02 -0.38643584762E+03  0.41165047186E+03  0.12500668597E+03 0.  0.
          4    1    3    3  502    0 -0.50387186865E+02 -0.73120641678E+01 -0.15392170181E+03  0.16212907843E+03  0.12700000000E+01 0.  1.
         -4    1    3    3    0  502  0.51646266700E+02  0.74358241085E+02 -0.23251414581E+03  0.24952139344E+03  0.12700000000E+01 0.  1.
          2    1    1    2  503    0  0.14620693056E+02 -0.41713509928E+02 -0.24323181103E+04  0.24327197067E+04  0.00000000000E+00 0. -1.
         -2    1    1    2    0  501 -0.15879772891E+02 -0.25332666989E+02  0.51329726825E+03  0.51416728484E+03  0.00000000000E+00 0.  1.
<mgrwt>
<rscale>  0 0.36473876E+02</rscale>
<asrwt>0</asrwt>
<pdfrwt beam="2">  1        1 0.43569187E+00 0.44495558E+02</pdfrwt>
<pdfrwt beam="1">  1       -1 0.81006212E-01 0.29898348E+02</pdfrwt>
<totfact> 0.21956954E+00</totfact>
</mgrwt>
</event>
<event>
 7    1  0.6493044E-004  0.1206292E+03  0.7546771E-02  0.1312484E+00
          2   -1    0    0  503    0  0.00000000000E+00  0.00000000000E+00  0.40633008088E+03  0.40633008088E+03  0.00000000000E+00 0. -1.
          1   -1    0    0  502    0 -0.00000000000E+00 -0.00000000000E+00 -0.73686088795E+03  0.73686088795E+03  0.00000000000E+00 0. -1.
         25    2    1    2    0    0 -0.52233787879E+01 -0.10148990229E+03 -0.26872858234E+02  0.16332108108E+03  0.12499656420E+03 0.  0.
          4    1    3    3  501    0 -0.40410149871E+02 -0.11573611236E+03 -0.14903446661E+02  0.12349718029E+03  0.12700000000E+01 0.  1.
         -4    1    3    3    0  501  0.35186771083E+02  0.14246210069E+02 -0.11969411573E+02  0.39823900788E+02  0.12700000000E+01 0.  1.
          2    1    1    2  502    0  0.60719660701E+02 -0.98191251987E+01 -0.62877389218E+03  0.63177519729E+03  0.00000000000E+00 0. -1.
          1    1    1    2  503    0 -0.55496281913E+02  0.11130902749E+03  0.32511594335E+03  0.34809469046E+03  0.00000000000E+00 0. -1.
<mgrwt>
<rscale>  0 0.86137777E+02</rscale>
<asrwt>0</asrwt>
<pdfrwt beam="1">  1        2 0.62512321E-01 0.12062918E+03</pdfrwt>
<pdfrwt beam="2">  1        1 0.11336321E+00 0.61508474E+02</pdfrwt>
<totfact> 0.30077453E+02</totfact>
</mgrwt>
</event>
<event>
 7    1  0.6493044E-004  0.1161121E+03  0.7546771E-02  0.1398194E+00
         -2   -1    0    0    0  501 -0.00000000000E+00  0.00000000000E+00  0.18065850496E+03  0.18065850496E+03  0.00000000000E+00 0.  1.
          2   -1    0    0  503    0  0.00000000000E+00 -0.00000000000E+00 -0.99494996554E+03  0.99494996554E+03  0.00000000000E+00 0. -1.
         25    2    1    2    0    0  0.14495860179E+03  0.10562981476E+02 -0.52999378456E+03  0.56359754829E+03  0.12499684780E+03 0.  0.
          4    1    3    3  502    0 -0.10044011538E+02 -0.28328133937E+02 -0.11575397657E+03  0.11959916945E+03  0.12700000000E+01 0.  1.
         -4    1    3    3    0  502  0.15500261333E+03  0.38891115413E+02 -0.41423980799E+03  0.44399837885E+03  0.12700000000E+01 0.  1.
          1    1    1    2  503    0 -0.30749701917E+02  0.31969821823E+01 -0.42733692628E+03  0.42845374712E+03  0.00000000000E+00 0. -1.
         -1    1    1    2    0  501 -0.11420889987E+03 -0.13759963658E+02  0.14303925026E+03  0.18355717508E+03  0.00000000000E+00 0.  1.
<mgrwt>
<rscale>  0 0.59913753E+02</rscale>
<asrwt>0</asrwt>
<pdfrwt beam="2">  1        2 0.15306923E+00 0.30915447E+02</pdfrwt>
<pdfrwt beam="1">  1       -2 0.27793616E-01 0.11611211E+03</pdfrwt>
<totfact> 0.34423415E+02</totfact>
</mgrwt>
</event>
<event>
 7    1  0.6493044E-004  0.6760890E+02  0.7546771E-02  0.1419770E+00
         -1   -1    0    0    0  502 -0.00000000000E+00  0.00000000000E+00  0.18559428197E+03  0.18559428197E+03  0.00000000000E+00 0.  1.
         -2   -1    0    0    0  501  0.00000000000E+00 -0.00000000000E+00 -0.89092920922E+03  0.89092920922E+03  0.00000000000E+00 0.  1.
         25    2    1    2    0    0  0.35218206503E+02  0.26167083056E+02 -0.39240542602E+02  0.13816270053E+03  0.12499629326E+03 0.  0.
          4    1    3    3  503    0 -0.19284516525E+02 -0.25570094918E+02  0.23915854168E+02  0.39991290456E+02  0.12700000000E+01 0. -1.
         -4    1    3    3    0  503  0.54502723028E+02  0.51737177975E+02 -0.63156396770E+02  0.98171410070E+02  0.12700000000E+01 0. -1.
         -2    1    1    2    0  502 -0.70981480087E+02  0.90796140189E+00  0.12620133676E+03  0.14479631318E+03  0.00000000000E+00 0.  1.
         -1    1    1    2    0  501  0.35763273584E+02 -0.27075044458E+02 -0.79229572141E+03  0.79356447749E+03  0.00000000000E+00 0.  1.
<mgrwt>
<rscale>  0 0.55069700E+02</rscale>
<asrwt>0</asrwt>
<pdfrwt beam="2">  1       -2 0.13706603E+00 0.44856101E+02</pdfrwt>
<pdfrwt beam="1">  1       -1 0.28552967E-01 0.67608904E+02</pdfrwt>
<totfact> 0.34890731E+01</totfact>
</mgrwt>
</event>
<event>
 7    1  0.6493044E-004  0.7599170E+02  0.7546771E-02  0.1427562E+00
         -1   -1    0    0    0  501 -0.00000000000E+00  0.00000000000E+00  0.66339288716E+02  0.66339288716E+02  0.00000000000E+00 0.  1.
          1   -1    0    0  503    0  0.00000000000E+00 -0.00000000000E+00 -0.78275798322E+03  0.78275798322E+03  0.00000000000E+00 0. -1.
         25    2    1    2    0    0  0.71865142966E+02  0.19969395919E+02 -0.28709311842E+03  0.32188823944E+03  0.12500481789E+03 0.  0.
          4    1    3    3  502    0 -0.13057467522E+02 -0.34805446738E+02 -0.12897473125E+03  0.13423118409E+03  0.12700000000E+01 0.  1.
         -4    1    3    3    0  502  0.84922610488E+02  0.54774842657E+02 -0.15811838717E+03  0.18765705535E+03  0.12700000000E+01 0.  1.
          2    1    1    2  503    0 -0.16677247830E+02  0.33697358902E+02 -0.44671131046E+03  0.44829079567E+03  0.00000000000E+00 0. -1.
         -2    1    1    2    0  501 -0.55187895135E+02 -0.53666754821E+02  0.17385734385E+02  0.78918236819E+02  0.00000000000E+00 0.  1.
<mgrwt>
<rscale>  0 0.53452497E+02</rscale>
<asrwt>0</asrwt>
<pdfrwt beam="2">  1        1 0.12042431E+00 0.37598439E+02</pdfrwt>
<pdfrwt beam="1">  1       -1 0.10206044E-01 0.75991704E+02</pdfrwt>
<totfact> 0.14367362E+03</totfact>
</mgrwt>
</event>
<event>
 7    1  0.6493044E-004  0.5864432E+02  0.7546771E-02  0.1428031E+00
          1   -1    0    0  502    0 -0.00000000000E+00  0.00000000000E+00  0.75966960633E+03  0.75966960633E+03  0.00000000000E+00 0. -1.
          2   -1    0    0  503    0  0.00000000000E+00 -0.00000000000E+00 -0.44622443691E+03  0.44622443691E+03  0.00000000000E+00 0. -1.
         25    2    1    2    0    0 -0.59951077509E+01 -0.31860146417E+02 -0.37138067546E+02  0.13436499113E+03  0.12499481803E+03 0.  0.
          4    1    3    3  501    0  0.14156412913E+02  0.41738061569E+02 -0.37750743124E+02  0.58044821616E+02  0.12700000000E+01 0. -1.
         -4    1    3    3    0  501 -0.20151520664E+02 -0.73598207985E+02  0.61267557751E+00  0.76320169517E+02  0.12700000000E+01 0. -1.
          2    1    1    2  502    0  0.53963998217E+02  0.24391549205E+02  0.70818010852E+03  0.71065190274E+03  0.00000000000E+00 0. -1.
          1    1    1    2  503    0 -0.47968890466E+02  0.74685972121E+01 -0.35759687155E+03  0.36087714937E+03  0.00000000000E+00 0. -1.
<mgrwt>
<rscale>  0 0.53357247E+02</rscale>
<asrwt>0</asrwt>
<pdfrwt beam="2">  1        2 0.68649914E-01 0.48546827E+02</pdfrwt>
<pdfrwt beam="1">  1        1 0.11687225E+00 0.58644324E+02</pdfrwt>
<totfact> 0.26310000E+02</totfact>
</mgrwt>
</event>
<event>
 7    1  0.6493044E-004  0.3836974E+02  0.7546771E-02  0.1602569E+00
          1   -1    0    0  502    0 -0.00000000000E+00  0.00000000000E+00  0.43318858296E+02  0.43318858296E+02  0.00000000000E+00 0. -1.
          2   -1    0    0  503    0  0.00000000000E+00 -0.00000000000E+00 -0.22476714770E+03  0.22476714770E+03  0.00000000000E+00 0. -1.
         25    2    1    2    0    0 -0.16858459250E+02 -0.15036751042E+02 -0.13467147457E+03  0.18512706778E+03  0.12500125452E+03 0.  0.
          4    1    3    3  501    0  0.14030537447E+02 -0.65469447260E+02 -0.60445731199E+02  0.90213102295E+02  0.12700000000E+01 0.  1.
         -4    1    3    3    0  501 -0.30888996697E+02  0.50432696218E+02 -0.74225743371E+02  0.94913965483E+02  0.12700000000E+01 0.  1.
          2    1    1    2  502    0 -0.17213298525E+02 -0.15000824577E+02 -0.12302410970E+02  0.25935915248E+02  0.00000000000E+00 0. -1.
          1    1    1    2  503    0  0.34071757774E+02  0.30037575619E+02 -0.34474403865E+02  0.57023022971E+02  0.00000000000E+00 0. -1.
<mgrwt>
<rscale>  0 0.29598588E+02</rscale>
<asrwt>0</asrwt>
<pdfrwt beam="2">  1        2 0.34579561E-01 0.38369735E+02</pdfrwt>
<pdfrwt beam="1">  1        1 0.66644398E-02 0.22832485E+02</pdfrwt>
<totfact> 0.17517372E+04</totfact>
</mgrwt>
</event>
<event>
 7    1  0.6493044E-004  0.8289725E+02  0.7546771E-02  0.1405037E+00
          2   -1    0    0  503    0  0.00000000000E+00  0.00000000000E+00  0.84870933672E+03  0.84870933672E+03  0.00000000000E+00 0. -1.
         -2   -1    0    0    0  501 -0.00000000000E+00 -0.00000000000E+00 -0.46995082737E+02  0.46995082737E+02  0.00000000000E+00 0.  1.
         25    2    1    2    0    0 -0.53923723606E+02 -0.33055426074E+02  0.21447727267E+03  0.25617529172E+03  0.12499940172E+03 0.  0.
          4    1    3    3  502    0 -0.10104585364E+02 -0.31019655383E+02 -0.43983114203E+01  0.32943583728E+02  0.12700000000E+01 0. -1.
         -4    1    3    3    0  502 -0.43819138243E+02 -0.20357706908E+01  0.21887558409E+03  0.22323170799E+03  0.12700000000E+01 0. -1.
          1    1    1    2  503    0  0.82718457987E+00 -0.41015664214E+02  0.53069483051E+03  0.53227809656E+03  0.00000000000E+00 0. -1.
         -1    1    1    2    0  501  0.53096539027E+02  0.74071090288E+02  0.56542150800E+02  0.10725103118E+03  0.00000000000E+00 0.  1.
<mgrwt>
<rscale>  0 0.58316182E+02</rscale>
<asrwt>0</asrwt>
<pdfrwt beam="1">  1        2 0.13057066E+00 0.41024004E+02</pdfrwt>
<pdfrwt beam="2">  1       -2 0.72300134E-02 0.82897247E+02</pdfrwt>
<totfact> 0.36006769E+03</totfact>
</mgrwt>
</event>
<event>
 7    1  0.6493044E-004  0.5115713E+02  0.7546771E-02  0.1575296E+00
          2   -1    0    0  503    0  0.00000000000E+00  0.00000000000E+00  0.10636771717E+04  0.10636771717E+04  0.00000000000E+00 0. -1.
         -2   -1    0    0    0  501 -0.00000000000E+00 -0.00000000000E+00 -0.80578136940E+02  0.80578136940E+02  0.00000000000E+00 0.  1.
         25    2    1    2    0    0 -0.64139855685E+02  0.26144656259E+02  0.50489369763E+02  0.15156634902E+03  0.12500287020E+03 0.  0.
          4    1    3    3  502    0 -0.54090057655E+02 -0.24965776174E+02  0.73489176081E+02  0.94611290120E+02  0.12700000000E+01 0. -1.
         -4    1    3    3    0  502 -0.10049798030E+02  0.51110432433E+02 -0.22999806318E+02  0.56955058903E+02  0.12700000000E+01 0. -1.
          1    1    1    2  503    0  0.49424800042E+02 -0.12266966430E+02  0.95849015332E+03  0.95984199915E+03  0.00000000000E+00 0. -1.
         -1    1    1    2    0  501  0.14715055643E+02 -0.13877689829E+02 -0.25880488309E+02  0.32846960479E+02  0.00000000000E+00 0.  1.
<mgrwt>
<rscale>  0 0.32167446E+02</rscale>
<asrwt>0</asrwt>
<pdfrwt beam="1">  1        2 0.16364263E+00 0.51157126E+02</pdfrwt>
<pdfrwt beam="2">  1       -2 0.12396637E-01 0.20226793E+02</pdfrwt>
<totfact> 0.10406805E+03</totfact>
</mgrwt>
</event>
<event>
 7    1  0.6493044E-004  0.9854850E+02  0.7546771E-02  0.1460930E+00
          1   -1    0    0  502    0 -0.00000000000E+00  0.00000000000E+00  0.69011610464E+03  0.69011610464E+03  0.00000000000E+00 0. -1.
          2   -1    0    0  503    0  0.00000000000E+00 -0.00000000000E+00 -0.18125584395E+03  0.18125584395E+03  0.00000000000E+00 0. -1.
         25    2    1    2    0    0  0.76215969439E+02  0.25643785509E+02  0.55497154805E+02  0.15864193483E+03  0.12498340514E+03 0.  0.
          4    1    3    3  501    0  0.11043765312E+03  0.22193161680E+02  0.51908343744E+02  0.12403669095E+03  0.12700000000E+01 0. -1.
         -4    1    3    3    0  501 -0.34221683681E+02  0.34506238287E+01  0.35888110602E+01  0.34605243874E+02  0.12700000000E+01 0. -1.
          2    1    1    2  502    0  0.17723287874E+02  0.14067023155E+02  0.56273220182E+03  0.56318693792E+03  0.00000000000E+00 0. -1.
          1    1    1    2  503    0 -0.93939257313E+02 -0.39710808664E+02 -0.10936909594E+03  0.14954307585E+03  0.00000000000E+00 0. -1.
<mgrwt>
<rscale>  0 0.47221704E+02</rscale>
<asrwt>0</asrwt>
<pdfrwt beam="2">  1        2 0.27885515E-01 0.98548496E+02</pdfrwt>
<pdfrwt beam="1">  1        1 0.10617171E+00 0.22627330E+02</pdfrwt>
<totfact> 0.80697599E+02</totfact>
</mgrwt>
</event>
<event>
 7    1  0.6493044E-004  0.5889911E+02  0.7546771E-02  0.1481354E+00
          2   -1    0    0  503    0  0.00000000000E+00  0.00000000000E+00  0.79102130442E+03  0.79102130442E+03  0.00000000000E+00 0. -1.
          1   -1    0    0  502    0 -0.00000000000E+00 -0.00000000000E+00 -0.23102594267E+04  0.23102594267E+04  0.00000000000E+00 0. -1.
         25    2    1    2    0    0 -0.49514675852E+02 -0.29288434160E+01 -0.61093011545E+02  0.14771280591E+03  0.12500574275E+03 0.  0.
          4    1    3    3  501    0 -0.22229334783E+02 -0.10913460890E+02  0.37576940856E+02  0.45020954428E+02  0.12700000000E+01 0. -1.
         -4    1    3    3    0  501 -0.27285341068E+02  0.79846174744E+01 -0.98669952402E+02  0.10269185148E+03  0.12700000000E+01 0. -1.
          2    1    1    2  502    0  0.51018266188E+02 -0.29751184175E+02 -0.22051031133E+04  0.22058938635E+04  0.00000000000E+00 0. -1.
          1    1    1    2  503    0 -0.15035903369E+01  0.32680027591E+02  0.74695800259E+03  0.74767406175E+03  0.00000000000E+00 0. -1.
<mgrwt>
<rscale>  0 0.43896022E+02</rscale>
<asrwt>0</asrwt>
<pdfrwt beam="1">  1        2 0.12169558E+00 0.32714599E+02</pdfrwt>
<pdfrwt beam="2">  1        1 0.35542453E+00 0.58899109E+02</pdfrwt>
<totfact> 0.13930884E+01</totfact>
</mgrwt>
</event>
<event>
 7    1  0.6493044E-004  0.1223777E+03  0.7546771E-02  0.1286387E+00
          2   -1    0    0  503    0  0.00000000000E+00  0.00000000000E+00  0.22586764464E+04  0.22586764464E+04  0.00000000000E+00 0. -1.
         -2   -1    0    0    0  501 -0.00000000000E+00 -0.00000000000E+00 -0.10759832649E+03  0.10759832649E+03  0.00000000000E+00 0.  1.
         25    2    1    2    0    0 -0.81137258081E+02  0.14742166380E+03  0.49948190811E+03  0.54168620979E+03  0.12500148693E+03 0.  0.
          4    1    3    3  502    0  0.29361399276E-01 -0.59490200861E+01 -0.52011553635E+01  0.80035379172E+01  0.12700000000E+01 0.  1.
         -4    1    3    3    0  502 -0.81166619480E+02  0.15337068389E+03  0.50468306348E+03  0.53368267187E+03  0.12700000000E+01 0.  1.
          1    1    1    2  503    0  0.95270716138E+02 -0.71590974028E+02  0.17184109860E+04  0.17225382706E+04  0.00000000000E+00 0. -1.
         -1    1    1    2    0  501 -0.14133458057E+02 -0.75830689771E+02 -0.66814774199E+02  0.10205029250E+03  0.00000000000E+00 0.  1.
<mgrwt>
<rscale>  0 0.97158610E+02</rscale>
<asrwt>0</asrwt>
<pdfrwt beam="1">  1        2 0.34748865E+00 0.12237772E+03</pdfrwt>
<pdfrwt beam="2">  1       -2 0.16553590E-01 0.77136555E+02</pdfrwt>
<totfact> 0.16449104E+02</totfact>
</mgrwt>
</event>
<event>
 7    1  0.6493044E-004  0.1063095E+03  0.7546771E-02  0.1428219E+00
          1   -1    0    0  502    0 -0.00000000000E+00  0.00000000000E+00  0.44325619801E+03  0.44325619801E+03  0.00000000000E+00 0. -1.
          2   -1    0    0  503    0  0.00000000000E+00 -0.00000000000E+00 -0.56003048061E+03  0.56003048061E+03  0.00000000000E+00 0. -1.
         25    2    1    2    0    0  0.80445301138E+02 -0.98442133092E+02  0.10885218863E+03  0.20888758105E+03  0.12499168975E+03 0.  0.
          4    1    3    3  501    0  0.59340413507E+02  0.15788626026E+02  0.46544826259E+02  0.77062306859E+02  0.12700000000E+01 0. -1.
         -4    1    3    3    0  501  0.21104887631E+02 -0.11423075912E+03  0.62307362375E+02  0.13182527419E+03  0.12700000000E+01 0. -1.
          2    1    1    2  502    0 -0.25432073525E+02  0.82670579083E+01  0.27826895128E+03  0.27955096827E+03  0.00000000000E+00 0. -1.
          1    1    1    2  503    0 -0.55013227612E+02  0.90175075183E+02 -0.50389542253E+03  0.51484812930E+03  0.00000000000E+00 0. -1.
<mgrwt>
<rscale>  0 0.53319131E+02</rscale>
<asrwt>0</asrwt>
<pdfrwt beam="2">  1        2 0.86158535E-01 0.10630954E+03</pdfrwt>
<pdfrwt beam="1">  1        1 0.68193262E-01 0.26742001E+02</pdfrwt>
<totfact> 0.41877335E+02</totfact>
</mgrwt>
</event>
<event>
 7    1  0.6493044E-004  0.1086485E+03  0.7546771E-02  0.1354731E+00
          1   -1    0    0  503    0  0.00000000000E+00  0.00000000000E+00  0.29136543289E+04  0.29136543289E+04  0.00000000000E+00 0. -1.
         -1   -1    0    0    0  501 -0.00000000000E+00 -0.00000000000E+00 -0.15325678511E+03  0.15325678511E+03  0.00000000000E+00 0.  1.
         25    2    1    2    0    0  0.73370314055E+02 -0.27598212538E+02  0.26008490955E+03  0.29902253068E+03  0.12500179743E+03 0.  0.
          4    1    3    3  502    0  0.19424692426E+02  0.42140502952E+02  0.15521826854E+03  0.16201069241E+03  0.12700000000E+01 0.  1.
         -4    1    3    3    0  502  0.53945621628E+02 -0.69738715490E+02  0.10486664101E+03  0.13701183827E+03  0.12700000000E+01 0.  1.
          2    1    1    2  503    0 -0.11076100580E+03 -0.11854812935E+01  0.26287370600E+04  0.26310697324E+04  0.00000000000E+00 0. -1.
         -2    1    1    2    0  501  0.37390691743E+02  0.28783693831E+02 -0.12842442575E+03  0.13681885100E+03  0.00000000000E+00 0.  1.
<mgrwt>
<rscale>  0 0.71601271E+02</rscale>
<asrwt>0</asrwt>
<pdfrwt beam="1">  1        1 0.44825447E+00 0.10864851E+03</pdfrwt>
<pdfrwt beam="2">  1       -1 0.23577969E-01 0.47186490E+02</pdfrwt>
<totfact> 0.14160801E+01</totfact>
</mgrwt>
</event>
<event>
 7    1  0.6493044E-004  0.1125368E+03  0.7546771E-02  0.1432285E+00
         -2   -1    0    0    0  501 -0.00000000000E+00  0.00000000000E+00  0.40775993497E+03  0.40775993497E+03  0.00000000000E+00 0.  1.
          2   -1    0    0  503    0  0.00000000000E+00 -0.00000000000E+00 -0.15090140515E+04  0.15090140515E+04  0.00000000000E+00 0. -1.
         25    2    1    2    0    0  0.11439943226E+03  0.21402128412E+02  0.24017852176E+03  0.29470697349E+03  0.12498478589E+03 0.  0.
          4    1    3    3  502    0  0.50374031524E+02  0.38456191817E+02  0.21444291410E+03  0.22361529029E+03  0.12700000000E+01 0. -1.
         -4    1    3    3    0  502  0.64025400740E+02 -0.17054063405E+02  0.25735607655E+02  0.71091683198E+02  0.12700000000E+01 0. -1.
          1    1    1    2  503    0 -0.10378701927E+03 -0.43479823554E+02 -0.14785262600E+04  0.14828021250E+04  0.00000000000E+00 0. -1.
         -1    1    1    2    0  501 -0.10612412990E+02  0.22077695142E+02  0.13709362166E+03  0.13926488801E+03  0.00000000000E+00 0.  1.
<mgrwt>
<rscale>  0 0.52504157E+02</rscale>
<asrwt>0</asrwt>
<pdfrwt beam="2">  1        2 0.23215600E+00 0.11253676E+03</pdfrwt>
<pdfrwt beam="1">  1       -2 0.62732299E-01 0.24495876E+02</pdfrwt>
<totfact> 0.35840424E+01</totfact>
</mgrwt>
</event>
<event>
 7    1  0.6493044E-004  0.1496080E+03  0.7546771E-02  0.1343587E+00
         -2   -1    0    0    0  501 -0.00000000000E+00  0.00000000000E+00  0.15112063584E+03  0.15112063584E+03  0.00000000000E+00 0.  1.
          2   -1    0    0  503    0  0.00000000000E+00 -0.00000000000E+00 -0.12072814303E+04  0.12072814303E+04  0.00000000000E+00 0. -1.
         25    2    1    2    0    0  0.37033359656E+02  0.12427522667E+03 -0.38478404431E+03  0.42485267147E+03  0.12500092001E+03 0.  0.
          4    1    3    3  502    0 -0.14794658767E+02  0.12383882253E+03 -0.30704838950E+03  0.33141403454E+03  0.12700000000E+01 0.  1.
         -4    1    3    3    0  502  0.51828018423E+02  0.43640414120E+00 -0.77735654808E+02  0.93438636926E+02  0.12700000000E+01 0.  1.
          1    1    1    2  503    0 -0.18163192080E+02 -0.15690172261E+03 -0.79178209199E+03  0.80738276753E+03  0.00000000000E+00 0. -1.
         -3    1    1    2    0  501 -0.18870167576E+02  0.32626495941E+02  0.12040534184E+03  0.12616662714E+03  0.00000000000E+00 0.  1.
<mgrwt>
<rscale>  0 0.75091910E+02</rscale>
<asrwt>0</asrwt>
<pdfrwt beam="2">  1        2 0.18573561E+00 0.14960798E+03</pdfrwt>
<pdfrwt beam="1">  1       -2 0.23249328E-01 0.37690469E+02</pdfrwt>
<totfact> 0.31315844E+02</totfact>
</mgrwt>
</event>
<event>
 7    1  0.9156625E-004  0.6134687E+02  0.7546771E-02  0.1409489E+00
          1   -1    0    0  502    0 -0.00000000000E+00  0.00000000000E+00  0.81659831791E+03  0.81659831791E+03  0.00000000000E+00 0. -1.
          2   -1    0    0  503    0  0.00000000000E+00 -0.00000000000E+00 -0.17621787165E+04  0.17621787165E+04  0.00000000000E+00 0. -1.
         25    2    1    2    0    0 -0.12808888004E+02  0.14642500155E+01  0.73519171036E+02  0.14558751863E+03  0.12499778171E+03 0.  0.
          4    1    3    3  501    0 -0.44736475874E+02 -0.19877188742E+02 -0.13216084294E+02  0.50722112437E+02  0.12700000000E+01 0. -1.
         -4    1    3    3    0  501  0.31927587871E+02  0.21341438758E+02  0.86735255330E+02  0.94865406195E+02  0.12700000000E+01 0. -1.
          2    1    1    2  502    0 -0.34488897646E+02 -0.40945116736E+02  0.70548073902E+03  0.70750905279E+03  0.00000000000E+00 0. -1.
          1    1    1    2  503    0  0.47297785650E+02  0.39480866721E+02 -0.17245803086E+04  0.17256804630E+04  0.00000000000E+00 0. -1.
<mgrwt>
<rscale>  0 0.57307935E+02</rscale>
<asrwt>0</asrwt>
<pdfrwt beam="2">  1        2 0.27110442E+00 0.61346873E+02</pdfrwt>
<pdfrwt beam="1">  1        1 0.12563051E+00 0.53534911E+02</pdfrwt>
<totfact> 0.37984586E+01</totfact>
</mgrwt>
</event>
<event>
 7    1  0.6493044E-004  0.1477860E+03  0.7546771E-02  0.1313495E+00
          1   -1    0    0  503    0  0.00000000000E+00  0.00000000000E+00  0.23203382563E+04  0.23203382563E+04  0.00000000000E+00 0. -1.
         -3   -1    0    0    0  501 -0.00000000000E+00 -0.00000000000E+00 -0.64831158854E+02  0.64831158854E+02  0.00000000000E+00 0.  1.
         25    2    1    2    0    0 -0.95954354579E+02  0.70454190483E+02  0.38363424864E+03  0.42068025271E+03  0.12500242866E+03 0.  0.
          4    1    3    3  502    0 -0.46879634861E+02  0.10309815416E+03  0.23844441977E+03  0.26397780925E+03  0.12700000000E+01 0. -1.
         -4    1    3    3    0  502 -0.49074719718E+02 -0.32643963676E+02  0.14518982887E+03  0.15670244346E+03  0.12700000000E+01 0. -1.
          2    1    1    2  503    0  0.94990569660E+02 -0.12019406881E+03  0.19007850296E+04  0.19069487542E+04  0.00000000000E+00 0. -1.
         -2    1    1    2    0  501  0.96378491886E+00  0.49739878330E+02 -0.28912180804E+02  0.57540408206E+02  0.00000000000E+00 0.  1.
<mgrwt>
<rscale>  0 0.85745181E+02</rscale>
<asrwt>0</asrwt>
<pdfrwt beam="1">  1        1 0.35697505E+00 0.14778597E+03</pdfrwt>
<pdfrwt beam="2">  1       -3 0.99740262E-02 0.49749215E+02</pdfrwt>
<totfact> 0.76908136E+01</totfact>
</mgrwt>
</event>
<event>
 7    1  0.6493044E-004  0.8701988E+02  0.7546771E-02  0.1454468E+00
          1   -1    0    0  503    0  0.00000000000E+00  0.00000000000E+00  0.22793442096E+03  0.22793442096E+03  0.00000000000E+00 0. -1.
         -1   -1    0    0    0  501 -0.00000000000E+00 -0.00000000000E+00 -0.52851968990E+03  0.52851968990E+03  0.00000000000E+00 0.  1.
         25    2    1    2    0    0 -0.12567117610E+02 -0.65798344409E+02 -0.12678445124E+03  0.19022864044E+03  0.12500113598E+03 0.  0.
          4    1    3    3  502    0 -0.23837531512E+02 -0.69610676685E+02 -0.11688576543E+02  0.74512481765E+02  0.12700000000E+01 0.  1.
         -4    1    3    3    0  502  0.11270413902E+02  0.38123322765E+01 -0.11509587470E+03  0.11571615868E+03  0.12700000000E+01 0.  1.
          2    1    1    2  503    0  0.34446075609E+02  0.81380625907E+02  0.18573575711E+03  0.20568692196E+03  0.00000000000E+00 0. -1.
         -2    1    1    2    0  501 -0.21878958000E+02 -0.15582281499E+02 -0.35953657481E+03  0.36053854846E+03  0.00000000000E+00 0.  1.
<mgrwt>
<rscale>  0 0.48346803E+02</rscale>
<asrwt>0</asrwt>
<pdfrwt beam="1">  1        1 0.35066834E-01 0.87019878E+02</pdfrwt>
<pdfrwt beam="2">  1       -1 0.81310721E-01 0.26860683E+02</pdfrwt>
<totfact> 0.20924948E+02</totfact>
</mgrwt>
</event>
<event>
 7    1  0.6493044E-004  0.2262630E+03  0.7546771E-02  0.1234019E+00
          1   -1    0    0  502    0 -0.00000000000E+00  0.00000000000E+00  0.18447881474E+04  0.18447881474E+04  0.00000000000E+00 0. -1.
          2   -1    0    0  503    0  0.00000000000E+00 -0.00000000000E+00 -0.13569401953E+04  0.13569401953E+04  0.00000000000E+00 0. -1.
         25    2    1    2    0    0 -0.37746895789E+02  0.23064524406E+03  0.82097815217E+03  0.86270327128E+03  0.12501900327E+03 0.  0.
          4    1    3    3  501    0 -0.41398102156E+02  0.18106760531E+03  0.42767736593E+03  0.46627119017E+03  0.12700000000E+01 0.  1.
         -4    1    3    3    0  501  0.36512063667E+01  0.49577638753E+02  0.39330078624E+03  0.39643208111E+03  0.12700000000E+01 0.  1.
          2    1    1    2  502    0 -0.63768355657E+02 -0.28394324088E+02  0.99213002631E+03  0.99458264108E+03  0.00000000000E+00 0. -1.
          1    1    1    2  503    0  0.10151525145E+03 -0.20225091997E+03 -0.13252602264E+04  0.13444424304E+04  0.00000000000E+00 0. -1.
<mgrwt>
<rscale>  0 0.12567470E+03</rscale>
<asrwt>0</asrwt>
<pdfrwt beam="2">  1        2 0.20876003E+00 0.22626298E+03</pdfrwt>
<pdfrwt beam="1">  1        1 0.28381356E+00 0.69804304E+02</pdfrwt>
<totfact> 0.11282690E+01</totfact>
</mgrwt>
</event>
<event>
 7    1  0.6493044E-004  0.9132913E+02  0.7546771E-02  0.1369198E+00
          1   -1    0    0  502    0 -0.00000000000E+00  0.00000000000E+00  0.21033974503E+03  0.21033974503E+03  0.00000000000E+00 0. -1.
          2   -1    0    0  503    0  0.00000000000E+00 -0.00000000000E+00 -0.11862338217E+04  0.11862338217E+04  0.00000000000E+00 0. -1.
         25    2    1    2    0    0 -0.14150322434E+02  0.57493351617E+02 -0.28290532778E+03  0.31491566076E+03  0.12502292509E+03 0.  0.
          4    1    3    3  501    0 -0.62496041622E+02  0.12044539200E+02 -0.85111104970E+02  0.10628423793E+03  0.12700000000E+01 0. -1.
         -4    1    3    3    0  501  0.48345719187E+02  0.45448812416E+02 -0.19779422281E+03  0.20863142283E+03  0.12700000000E+01 0. -1.
          2    1    1    2  502    0  0.31519197112E+02  0.38461579036E+02  0.18841998807E+03  0.19487135437E+03  0.00000000000E+00 0. -1.
          1    1    1    2  503    0 -0.17368874678E+02 -0.95954930653E+02 -0.88140873697E+03  0.88678655162E+03  0.00000000000E+00 0. -1.
<mgrwt>
<rscale>  0 0.67390682E+02</rscale>
<asrwt>0</asrwt>
<pdfrwt beam="2">  1        2 0.18249751E+00 0.91329135E+02</pdfrwt>
<pdfrwt beam="1">  1        1 0.32359960E-01 0.49726782E+02</pdfrwt>
<totfact> 0.39808076E+02</totfact>
</mgrwt>
</event>
<event>
 7    1  0.6493044E-004  0.1290869E+03  0.7546771E-02  0.1330295E+00
          2   -1    0    0  503    0  0.00000000000E+00  0.00000000000E+00  0.28479045901E+03  0.28479045901E+03  0.00000000000E+00 0. -1.
         -2   -1    0    0    0  501 -0.00000000000E+00 -0.00000000000E+00 -0.24152965110E+03  0.24152965110E+03  0.00000000000E+00 0.  1.
         25    2    1    2    0    0 -0.28976958075E+02 -0.97900696035E+02  0.40924155931E+02  0.16650418699E+03  0.12499858945E+03 0.  0.
          4    1    3    3  502    0  0.18078098994E+02 -0.29710468713E+02 -0.38380458685E+02  0.51809286071E+02  0.12700000000E+01 0.  1.
         -4    1    3    3    0  502 -0.47055057068E+02 -0.68190227322E+02  0.79304614616E+02  0.11469490092E+03  0.12700000000E+01 0.  1.
          1    1    1    2  503    0  0.29583469940E+02 -0.39111296626E+02  0.15033580719E+03  0.15813200226E+03  0.00000000000E+00 0. -1.
         -1    1    1    2    0  501 -0.60651186562E+00  0.13701199266E+03 -0.14799915520E+03  0.20168392085E+03  0.00000000000E+00 0.  1.
<mgrwt>
<rscale>  0 0.79563568E+02</rscale>
<asrwt>0</asrwt>
<pdfrwt beam="1">  1        2 0.43813917E-01 0.49039527E+02</pdfrwt>
<pdfrwt beam="2">  1       -2 0.37158408E-01 0.12908692E+03</pdfrwt>
<totfact> 0.78063510E+02</totfact>
</mgrwt>
</event>
<event>
 7    1  0.6493044E-004  0.1705690E+03  0.7546771E-02  0.1340861E+00
          2   -1    0    0  503    0  0.00000000000E+00  0.00000000000E+00  0.18957699728E+04  0.18957699728E+04  0.00000000000E+00 0. -1.
          1   -1    0    0  502    0 -0.00000000000E+00 -0.00000000000E+00 -0.19350927561E+04  0.19350927561E+04  0.00000000000E+00 0. -1.
         25    2    1    2    0    0 -0.33175383943E+02  0.19766671886E+03 -0.16963283918E+03  0.29080258757E+03  0.12497242482E+03 0.  0.
          4    1    3    3  501    0 -0.50880952724E+02  0.12183109949E+03 -0.37218413261E+02  0.13718057931E+03  0.12700000000E+01 0. -1.
         -4    1    3    3    0  501  0.17705568780E+02  0.75835619362E+02 -0.13241442592E+03  0.15362200826E+03  0.12700000000E+01 0. -1.
          2    1    1    2  502    0  0.38089085311E+02 -0.16417953113E+03 -0.17005528902E+04  0.17088843815E+04  0.00000000000E+00 0. -1.
          1    1    1    2  503    0 -0.49137013680E+01 -0.33487187723E+02  0.18308629461E+04  0.18311757599E+04  0.00000000000E+00 0. -1.
<mgrwt>
<rscale>  0 0.75980513E+02</rscale>
<asrwt>0</asrwt>
<pdfrwt beam="1">  1        2 0.29165692E+00 0.33845771E+02</pdfrwt>
<pdfrwt beam="2">  1        1 0.29770658E+00 0.17056897E+03</pdfrwt>
<totfact> 0.56558284E+00</totfact>
</mgrwt>
</event>
<event>
 7    1  0.6493044E-004  0.1097266E+03  0.7546771E-02  0.1356946E+00
          2   -1    0    0  503    0  0.00000000000E+00  0.00000000000E+00  0.20644619511E+03  0.20644619511E+03  0.00000000000E+00 0. -1.
          1   -1    0    0  502    0 -0.00000000000E+00 -0.00000000000E+00 -0.19760308721E+04  0.19760308721E+04  0.00000000000E+00 0. -1.
         25    2    1    2    0    0  0.43548739923E+02  0.69979266479E+02 -0.43221122813E+02  0.15585497578E+03  0.12501646904E+03 0.  0.
          4    1    3    3  501    0  0.87210828322E+02  0.56265850457E+02 -0.33350671112E+02  0.10902043234E+03  0.12700000000E+01 0. -1.
         -4    1    3    3    0  501 -0.43662088399E+02  0.13713416022E+02 -0.98704517011E+01  0.46834543439E+02  0.12700000000E+01 0. -1.
          2    1    1    2  502    0 -0.89190192199E+02 -0.65549384025E+02 -0.18713173342E+04  0.18745880020E+04  0.00000000000E+00 0. -1.
          1    1    1    2  503    0  0.45641452276E+02 -0.44298824540E+01  0.14495377997E+03  0.15203408944E+03  0.00000000000E+00 0. -1.
<mgrwt>
<rscale>  0 0.70933884E+02</rscale>
<asrwt>0</asrwt>
<pdfrwt beam="1">  1        2 0.31760952E-01 0.45855927E+02</pdfrwt>
<pdfrwt beam="2">  1        1 0.30400476E+00 0.10972662E+03</pdfrwt>
<totfact> 0.84129966E+01</totfact>
</mgrwt>
</event>
<event>
 7    1  0.6493044E-004  0.1017369E+03  0.7546771E-02  0.1365692E+00
         -1   -1    0    0    0  501 -0.00000000000E+00  0.00000000000E+00  0.31119937909E+03  0.31119937909E+03  0.00000000000E+00 0.  1.
          1   -1    0    0  503    0  0.00000000000E+00 -0.00000000000E+00 -0.11140851627E+04  0.11140851627E+04  0.00000000000E+00 0. -1.
         25    2    1    2    0    0 -0.20944193773E+02 -0.10713995896E+03 -0.55251476930E+03  0.57690153601E+03  0.12500072758E+03 0.  0.
          4    1    3    3  502    0  0.33254408971E+02 -0.93481058204E+02 -0.44258145129E+03  0.45356864738E+03  0.12700000000E+01 0.  1.
         -4    1    3    3    0  502 -0.54198602744E+02 -0.13658900760E+02 -0.10993331801E+03  0.12333288863E+03  0.12700000000E+01 0.  1.
          2    1    1    2  503    0 -0.24237574841E+02  0.98721007280E+02 -0.54286493225E+03  0.55230030960E+03  0.00000000000E+00 0. -1.
         -2    1    1    2    0  501  0.45181768614E+02  0.84189516842E+01  0.29249391793E+03  0.29608269620E+03  0.00000000000E+00 0.  1.
<mgrwt>
<rscale>  0 0.68379629E+02</rscale>
<asrwt>0</asrwt>
<pdfrwt beam="2">  1        1 0.17139772E+00 0.10173694E+03</pdfrwt>
<pdfrwt beam="1">  1       -1 0.47876828E-01 0.45959449E+02</pdfrwt>
<totfact> 0.64178091E+01</totfact>
</mgrwt>
</event>
<event>
 7    1  0.6493044E-004  0.6661854E+02  0.7546771E-02  0.1404826E+00
          2   -1    0    0  503    0  0.00000000000E+00  0.00000000000E+00  0.27451767359E+04  0.27451767359E+04  0.00000000000E+00 0. -1.
          1   -1    0    0  502    0 -0.00000000000E+00 -0.00000000000E+00 -0.12324006411E+04  0.12324006411E+04  0.00000000000E+00 0. -1.
         25    2    1    2    0    0 -0.29345917404E+01  0.52563405496E+02  0.51673055797E+03  0.53423405114E+03  0.12499611365E+03 0.  0.
          4    1    3    3  501    0 -0.17553772565E+02  0.31478466272E+02  0.50449125148E+03  0.50577867144E+03  0.12700000000E+01 0.  1.
         -4    1    3    3    0  501  0.14619180824E+02  0.21084939224E+02  0.12239306494E+02  0.28455379694E+02  0.12700000000E+01 0.  1.
          2    1    1    2  502    0  0.50991847539E+02 -0.38000559162E+01 -0.12225864249E+04  0.12236552518E+04  0.00000000000E+00 0. -1.
          1    1    1    2  503    0 -0.48057255798E+02 -0.48763349580E+02  0.22186319617E+04  0.22196880740E+04  0.00000000000E+00 0. -1.
<mgrwt>
<rscale>  0 0.58364565E+02</rscale>
<asrwt>0</asrwt>
<pdfrwt beam="1">  1        2 0.42233488E+00 0.66618545E+02</pdfrwt>
<pdfrwt beam="2">  1        1 0.18960010E+00 0.51133247E+02</pdfrwt>
<totfact> 0.61242968E+00</totfact>
</mgrwt>
</event>
<event>
 7    1  0.6493044E-004  0.5969179E+02  0.7546771E-02  0.1411771E+00
          1   -1    0    0  502    0 -0.00000000000E+00  0.00000000000E+00  0.13077100287E+02  0.13077100287E+02  0.00000000000E+00 0. -1.
          2   -1    0    0  503    0  0.00000000000E+00 -0.00000000000E+00 -0.17452699218E+04  0.17452699218E+04  0.00000000000E+00 0. -1.
         25    2    1    2    0    0  0.11230781555E+02 -0.53065365866E+02 -0.65761844866E+03  0.67158675927E+03  0.12499875076E+03 0.  0.
          4    1    3    3  501    0 -0.43677006124E+02 -0.66060939634E+02 -0.35204015208E+03  0.36084014492E+03  0.12700000000E+01 0.  1.
         -4    1    3    3    0  501  0.54907787679E+02  0.12995573768E+02 -0.30557829659E+03  0.31074661435E+03  0.12700000000E+01 0.  1.
          2    1    1    2  502    0 -0.58354775344E+02  0.16426051284E+02 -0.17490977706E+03  0.18511759797E+03  0.00000000000E+00 0. -1.
          1    1    1    2  503    0  0.47123993788E+02  0.36639314583E+02 -0.89966459576E+03  0.90164266482E+03  0.00000000000E+00 0. -1.
<mgrwt>
<rscale>  0 0.56800435E+02</rscale>
<asrwt>0</asrwt>
<pdfrwt beam="2">  1        2 0.26850304E+00 0.59691793E+02</pdfrwt>
<pdfrwt beam="1">  1        1 0.20118617E-02 0.54049130E+02</pdfrwt>
<totfact> 0.77391192E+03</totfact>
</mgrwt>
</event>
<event>
 7    1  0.6493044E-004  0.7175454E+02  0.7546771E-02  0.1369654E+00
          1   -1    0    0  503    0  0.00000000000E+00  0.00000000000E+00  0.23426593401E+04  0.23426593401E+04  0.00000000000E+00 0. -1.
         -1   -1    0    0    0  501 -0.00000000000E+00 -0.00000000000E+00 -0.28315308759E+02  0.28315308759E+02  0.00000000000E+00 0.  1.
         25    2    1    2    0    0 -0.11575731092E+03  0.37541681880E+02  0.91881376783E+03  0.93522851055E+03  0.12499797628E+03 0.  0.
          4    1    3    3  502    0  0.84113254913E+01  0.36299112230E+02  0.94079015182E+02  0.10119708466E+03  0.12700000000E+01 0. -1.
         -4    1    3    3    0  502 -0.12416863641E+03  0.12425696495E+01  0.82473475265E+03  0.83403142589E+03  0.12700000000E+01 0. -1.
          2    1    1    2  503    0  0.67291105587E+02  0.27915194586E+01  0.13632452212E+04  0.13649078426E+04  0.00000000000E+00 0. -1.
         -2    1    1    2    0  501  0.48466205334E+02 -0.40333201339E+02  0.32285042276E+02  0.70838295748E+02  0.00000000000E+00 0.  1.
<mgrwt>
<rscale>  0 0.67263458E+02</rscale>
<asrwt>0</asrwt>
<pdfrwt beam="1">  1        1 0.36040898E+00 0.71754539E+02</pdfrwt>
<pdfrwt beam="2">  1       -1 0.43562032E-02 0.63053471E+02</pdfrwt>
<totfact> 0.45525950E+02</totfact>
</mgrwt>
</event>
<event>
 7    1  0.6493044E-004  0.1792396E+03  0.7546771E-02  0.1354844E+00
          2   -1    0    0  503    0  0.00000000000E+00  0.00000000000E+00  0.51090252031E+03  0.51090252031E+03  0.00000000000E+00 0. -1.
          1   -1    0    0  502    0 -0.00000000000E+00 -0.00000000000E+00 -0.48516428036E+03  0.48516428036E+03  0.00000000000E+00 0. -1.
         25    2    1    2    0    0  0.88192419118E+02  0.12392049001E+03  0.37556204314E+03  0.42403512318E+03  0.12499898723E+03 0.  0.
          4    1    3    3  501    0 -0.14472607601E+02  0.59956280053E+01  0.14261226624E+03  0.14347569587E+03  0.12700000000E+01 0.  1.
         -4    1    3    3    0  501  0.10266502672E+03  0.11792486201E+03  0.23294977690E+03  0.28055942730E+03  0.12700000000E+01 0.  1.
          2    1    1    2  502    0 -0.10139983812E+03 -0.14926059056E+03 -0.44099657860E+03  0.47648571165E+03  0.00000000000E+00 0. -1.
          1    1    1    2  503    0  0.13207419006E+02  0.25340100551E+02  0.91172775409E+02  0.95545965841E+02  0.00000000000E+00 0. -1.
<mgrwt>
<rscale>  0 0.71567116E+02</rscale>
<asrwt>0</asrwt>
<pdfrwt beam="1">  1        2 0.78600388E-01 0.28575455E+02</pdfrwt>
<pdfrwt beam="2">  1        1 0.74640658E-01 0.17923957E+03</pdfrwt>
<totfact> 0.40639735E+02</totfact>
</mgrwt>
</event>
<event>
 7    1  0.6493044E-004  0.8627840E+02  0.7546771E-02  0.1422704E+00
          1   -1    0    0  502    0 -0.00000000000E+00  0.00000000000E+00  0.15303948341E+04  0.15303948341E+04  0.00000000000E+00 0. -1.
          2   -1    0    0  503    0  0.00000000000E+00 -0.00000000000E+00 -0.34028052297E+03  0.34028052297E+03  0.00000000000E+00 0. -1.
         25    2    1    2    0    0 -0.29825864495E+02  0.66769830242E+02  0.12833057087E+03  0.19350353125E+03  0.12500835478E+03 0.  0.
          4    1    3    3  501    0  0.24994316418E+02 -0.18904765775E+02  0.21642041573E+01  0.31438872465E+02  0.12700000000E+01 0. -1.
         -4    1    3    3    0  501 -0.54820180914E+02  0.85674596017E+02  0.12616636672E+03  0.16206465879E+03  0.12700000000E+01 0. -1.
          2    1    1    2  502    0  0.63443513448E+02 -0.59633207367E+02  0.13671288912E+04  0.13698987568E+04  0.00000000000E+00 0. -1.
          1    1    1    2  503    0 -0.33617648953E+02 -0.71366228755E+01 -0.30534515095E+03  0.30727306897E+03  0.00000000000E+00 0. -1.
<mgrwt>
<rscale>  0 0.54452854E+02</rscale>
<asrwt>0</asrwt>
<pdfrwt beam="2">  1        2 0.52350850E-01 0.34366811E+02</pdfrwt>
<pdfrwt beam="1">  1        1 0.23544536E+00 0.86278395E+02</pdfrwt>
<totfact> 0.98698395E+01</totfact>
</mgrwt>
</event>
<event>
 7    1  0.6493044E-004  0.8674778E+02  0.7546771E-02  0.1355388E+00
          2   -1    0    0  503    0  0.00000000000E+00  0.00000000000E+00  0.64779514080E+03  0.64779514080E+03  0.00000000000E+00 0. -1.
         -2   -1    0    0    0  501 -0.00000000000E+00 -0.00000000000E+00 -0.10912390575E+04  0.10912390575E+04  0.00000000000E+00 0.  1.
         25    2    1    2    0    0 -0.44606757970E+02  0.30611265332E+02 -0.22545570185E+03  0.26340251188E+03  0.12499518928E+03 0.  0.
          4    1    3    3  502    0 -0.69356147345E+02  0.21944639676E+02 -0.22571115389E+03  0.23714759176E+03  0.12700000000E+01 0. -1.
         -4    1    3    3    0  502  0.24749389376E+02  0.86666256565E+01  0.25545203895E+00  0.26254920120E+02  0.12700000000E+01 0. -1.
          1    1    1    2  503    0  0.86697017772E+02  0.10406970194E+02  0.62476205498E+03  0.63083460848E+03  0.00000000000E+00 0. -1.
         -1    1    1    2    0  501 -0.42090259802E+02 -0.41018235527E+02 -0.84275026983E+03  0.84479707795E+03  0.00000000000E+00 0.  1.
<mgrwt>
<rscale>  0 0.71402343E+02</rscale>
<asrwt>0</asrwt>
<pdfrwt beam="1">  1        2 0.99660791E-01 0.86747781E+02</pdfrwt>
<pdfrwt beam="2">  1       -2 0.16788293E+00 0.58771469E+02</pdfrwt>
<totfact> 0.12330688E+01</totfact>
</mgrwt>
</event>
<event>
 7    1  0.6493044E-004  0.6323159E+02  0.7546771E-02  0.1413428E+00
          1   -1    0    0  503    0  0.00000000000E+00  0.00000000000E+00  0.57829064302E+03  0.57829064302E+03  0.00000000000E+00 0. -1.
         -1   -1    0    0    0  501 -0.00000000000E+00 -0.00000000000E+00 -0.20163274466E+03  0.20163274466E+03  0.00000000000E+00 0.  1.
         25    2    1    2    0    0  0.11146228138E+03  0.16909827770E+01  0.90893896190E+02  0.19056108700E+03  0.12500051169E+03 0.  0.
          4    1    3    3  502    0  0.10491781643E+03  0.49501023434E+02  0.46530317807E+02  0.12499913160E+03  0.12700000000E+01 0.  1.
         -4    1    3    3    0  502  0.65444649471E+01 -0.47810040657E+02  0.44363578383E+02  0.65561955401E+02  0.12700000000E+01 0.  1.
          2    1    1    2  503    0 -0.61096928028E+02 -0.24183212260E+01  0.43116739966E+03  0.43548135370E+03  0.00000000000E+00 0. -1.
         -2    1    1    2    0  501 -0.50365353350E+02  0.72733844900E+00 -0.14540339750E+03  0.15388094698E+03  0.00000000000E+00 0.  1.
<mgrwt>
<rscale>  0 0.56435924E+02</rscale>
<asrwt>0</asrwt>
<pdfrwt beam="1">  1        1 0.88967791E-01 0.63231592E+02</pdfrwt>
<pdfrwt beam="2">  1       -1 0.31020422E-01 0.50370605E+02</pdfrwt>
<totfact> 0.36668214E+02</totfact>
</mgrwt>
</event>
<event>
 7    1  0.6493044E-004  0.9477236E+02  0.7546771E-02  0.1468176E+00
          2   -1    0    0  503    0  0.00000000000E+00  0.00000000000E+00  0.19942607358E+04  0.19942607358E+04  0.00000000000E+00 0. -1.
          1   -1    0    0  502    0 -0.00000000000E+00 -0.00000000000E+00 -0.14744031510E+03  0.14744031510E+03  0.00000000000E+00 0. -1.
         25    2    1    2    0    0 -0.44600778587E+02 -0.59770156995E+02  0.28647339744E+03  0.32133106220E+03  0.12499977192E+03 0.  0.
          4    1    3    3  501    0 -0.61453015564E+02 -0.52184683986E+02  0.78494144319E+02  0.11252847620E+03  0.12700000000E+01 0.  1.
         -4    1    3    3    0  501  0.16852236977E+02 -0.75854730091E+01  0.20797925312E+03  0.20880258600E+03  0.12700000000E+01 0.  1.
          2    1    1    2  502    0 -0.17357061855E+02 -0.14048450511E+02 -0.12766797025E+03  0.12960608468E+03  0.00000000000E+00 0. -1.
          1    1    1    2  503    0  0.61957840442E+02  0.73818607506E+02  0.16880149935E+04  0.16907639040E+04  0.00000000000E+00 0. -1.
<mgrwt>
<rscale>  0 0.46002846E+02</rscale>
<asrwt>0</asrwt>
<pdfrwt beam="1">  1        2 0.30680933E+00 0.94772361E+02</pdfrwt>
<pdfrwt beam="2">  1        1 0.22683127E-01 0.22329948E+02</pdfrwt>
<totfact> 0.22665388E+02</totfact>
</mgrwt>
</event>
<event>
 7    1  0.6493044E-004  0.4569493E+02  0.7546771E-02  0.1518371E+00
         -1   -1    0    0    0  502 -0.00000000000E+00  0.00000000000E+00  0.23226404666E+03  0.23226404666E+03  0.00000000000E+00 0.  1.
         -2   -1    0    0    0  501  0.00000000000E+00 -0.00000000000E+00 -0.16819719145E+03  0.16819719145E+03  0.00000000000E+00 0.  1.
         25    2    1    2    0    0  0.49859115004E+02 -0.41547376204E+01  0.66332799589E+02  0.15009523316E+03  0.12500138208E+03 0.  0.
          4    1    3    3  503    0  0.35534656271E+02  0.59458913175E+02  0.37629585866E+02  0.78839538207E+02  0.12700000000E+01 0.  1.
         -4    1    3    3    0  503  0.14324458733E+02 -0.63613650795E+02  0.28703213723E+02  0.71255694955E+02  0.12700000000E+01 0.  1.
         -2    1    1    2    0  502 -0.33213171801E+02  0.32294762410E+02  0.11745520048E+03  0.12626080382E+03  0.00000000000E+00 0.  1.
         -1    1    1    2    0  501 -0.16645943203E+02 -0.28140024790E+02 -0.11972114487E+03  0.12410520113E+03  0.00000000000E+00 0.  1.
<mgrwt>
<rscale>  0 0.38652109E+02</rscale>
<asrwt>0</asrwt>
<pdfrwt beam="2">  1       -2 0.25876491E-01 0.32694777E+02</pdfrwt>
<pdfrwt beam="1">  1       -1 0.35732930E-01 0.45694931E+02</pdfrwt>
<totfact> 0.68922438E+02</totfact>
</mgrwt>
</event>
<event>
 7    1  0.6493044E-004  0.1004607E+03  0.7546771E-02  0.1367767E+00
         -2   -1    0    0    0  501 -0.00000000000E+00  0.00000000000E+00  0.48241761361E+03  0.48241761361E+03  0.00000000000E+00 0.  1.
          2   -1    0    0  503    0  0.00000000000E+00 -0.00000000000E+00 -0.53438126865E+03  0.53438126865E+03  0.00000000000E+00 0. -1.
         25    2    1    2    0    0 -0.23178608565E+02  0.13064952196E+03  0.11102401426E+03  0.21342720254E+03  0.12497317136E+03 0.  0.
          4    1    3    3  502    0 -0.31609904377E+02 -0.15921652189E+02  0.23400704539E+02  0.42448685917E+02  0.12700000000E+01 0. -1.
         -4    1    3    3    0  502  0.84312958118E+01  0.14657117415E+03  0.87623309723E+02  0.17097851663E+03  0.12700000000E+01 0. -1.
          1    1    1    2  503    0 -0.99414133128E+01 -0.99092840145E+02 -0.47636953288E+03  0.48666842359E+03  0.00000000000E+00 0. -1.
         -1    1    1    2    0  501  0.33120021878E+02 -0.31556681816E+02  0.31338186358E+03  0.31670325612E+03  0.00000000000E+00 0.  1.
<mgrwt>
<rscale>  0 0.67791930E+02</rscale>
<asrwt>0</asrwt>
<pdfrwt beam="2">  1        2 0.82212503E-01 0.10046072E+03</pdfrwt>
<pdfrwt beam="1">  1       -2 0.74218094E-01 0.45746694E+02</pdfrwt>
<totfact> 0.10250649E+02</totfact>
</mgrwt>
</event>
<event>
 7    1  0.6493044E-004  0.5393566E+02  0.7546771E-02  0.1469307E+00
          1   -1    0    0  502    0 -0.00000000000E+00  0.00000000000E+00  0.13462498016E+04  0.13462498016E+04  0.00000000000E+00 0. -1.
          2   -1    0    0  503    0  0.00000000000E+00 -0.00000000000E+00 -0.15031328923E+04  0.15031328923E+04  0.00000000000E+00 0. -1.
         25    2    1    2    0    0  0.29082189672E+02  0.87275865187E+02  0.51466598768E+03  0.53755870648E+03  0.12500173455E+03 0.  0.
          4    1    3    3  501    0  0.34770869765E+02 -0.24957474888E+02  0.14205770641E+03  0.14837079830E+03  0.12700000000E+01 0. -1.
         -4    1    3    3    0  501 -0.56886800934E+01  0.11223334008E+03  0.37260828127E+03  0.38918790818E+03  0.12700000000E+01 0. -1.
          2    1    1    2  502    0 -0.17937985566E+02 -0.34539527827E+02  0.81918837478E+03  0.82011239699E+03  0.00000000000E+00 0. -1.
          1    1    1    2  503    0 -0.11144204106E+02 -0.52736337360E+02 -0.14907374532E+04  0.14917115904E+04  0.00000000000E+00 0. -1.
<mgrwt>
<rscale>  0 0.45816642E+02</rscale>
<asrwt>0</asrwt>
<pdfrwt beam="2">  1        2 0.23125121E+00 0.53935658E+02</pdfrwt>
<pdfrwt beam="1">  1        1 0.20711535E+00 0.38919793E+02</pdfrwt>
<totfact> 0.22938384E+01</totfact>
</mgrwt>
</event>
<event>
 7    1  0.6493044E-004  0.7842685E+02  0.7546771E-02  0.1381922E+00
          2   -1    0    0  503    0  0.00000000000E+00  0.00000000000E+00  0.20724598546E+03  0.20724598546E+03  0.00000000000E+00 0. -1.
          1   -1    0    0  502    0 -0.00000000000E+00 -0.00000000000E+00 -0.42099937211E+03  0.42099937211E+03  0.00000000000E+00 0. -1.
         25    2    1    2    0    0 -0.66486443114E+02  0.31512391006E+02  0.27490834008E+02  0.14763017350E+03  0.12500177706E+03 0.  0.
          4    1    3    3  501    0 -0.98577255739E+02 -0.18224381625E+01  0.15494941482E+02  0.99812337621E+02  0.12700000000E+01 0. -1.
         -4    1    3    3    0  501  0.32090812625E+02  0.33334829168E+02  0.11995892526E+02  0.47817835878E+02  0.12700000000E+01 0. -1.
          2    1    1    2  502    0  0.29853966507E+02  0.42776430073E+02 -0.34439572398E+03  0.34832383924E+03  0.00000000000E+00 0. -1.
          1    1    1    2  503    0  0.36632476607E+02 -0.74288821078E+02  0.10315150332E+03  0.13229134483E+03  0.00000000000E+00 0. -1.
<mgrwt>
<rscale>  0 0.63961378E+02</rscale>
<asrwt>0</asrwt>
<pdfrwt beam="1">  1        2 0.31883998E-01 0.78426853E+02</pdfrwt>
<pdfrwt beam="2">  1        1 0.64769133E-01 0.52163994E+02</pdfrwt>
<totfact> 0.12650153E+03</totfact>
</mgrwt>
</event>
<event>
 7    1  0.6493044E-004  0.1267077E+03  0.7546771E-02  0.1242500E+00
          2   -1    0    0  503    0  0.00000000000E+00  0.00000000000E+00  0.39998546933E+04  0.39998546933E+04  0.00000000000E+00 0. -1.
          1   -1    0    0  502    0 -0.00000000000E+00 -0.00000000000E+00 -0.22924133930E+04  0.22924133930E+04  0.00000000000E+00 0. -1.
         25    2    1    2    0    0 -0.21840860260E+02  0.25365531059E+01  0.20940327488E+03  0.24486535081E+03  0.12500340483E+03 0.  0.
          4    1    3    3  501    0  0.47497708560E+01  0.40098675374E+02  0.19109657112E+03  0.19532018965E+03  0.12700000000E+01 0.  1.
         -4    1    3    3    0  501 -0.26590631116E+02 -0.37562122268E+02  0.18306703762E+02  0.49545161167E+02  0.12700000000E+01 0.  1.
          2    1    1    2  502    0  0.72279089495E+02 -0.10514506965E+03 -0.22720257752E+04  0.22756056063E+04  0.00000000000E+00 0. -1.
          1    1    1    2  503    0 -0.50438229235E+02  0.10260851655E+03  0.37700638007E+04  0.37717971292E+04  0.00000000000E+00 0. -1.
<mgrwt>
<rscale>  0 0.12036253E+03</rscale>
<asrwt>0</asrwt>
<pdfrwt beam="1">  1        2 0.61536226E+00 0.11433513E+03</pdfrwt>
<pdfrwt beam="2">  1        1 0.35267898E+00 0.12670766E+03</pdfrwt>
<totfact> 0.17647239E-01</totfact>
</mgrwt>
</event>
<event>
 7    1  0.6493044E-004  0.5031674E+02  0.7546771E-02  0.1469557E+00
          2   -1    0    0  503    0  0.00000000000E+00  0.00000000000E+00  0.34668195020E+04  0.34668195020E+04  0.00000000000E+00 0. -1.
         -2   -1    0    0    0  501 -0.00000000000E+00 -0.00000000000E+00 -0.18757065704E+02  0.18757065704E+02  0.00000000000E+00 0.  1.
         25    2    1    2    0    0 -0.83414909597E+02 -0.11829368202E+02  0.54861176917E+03  0.56894918596E+03  0.12502128554E+03 0.  0.
          4    1    3    3  502    0 -0.42423933787E+02 -0.26986440119E+02  0.59597203485E+02  0.77983957783E+02  0.12700000000E+01 0. -1.
         -4    1    3    3    0  502 -0.40990975811E+02  0.15157071917E+02  0.48901456568E+03  0.49096522817E+03  0.12700000000E+01 0. -1.
          1    1    1    2  503    0  0.48503082144E+02 -0.10873328574E+02  0.28560362111E+04  0.28564687321E+04  0.00000000000E+00 0. -1.
         -1    1    1    2    0  501  0.34911827454E+02  0.22702696776E+02  0.43414456030E+02  0.60158649665E+02  0.00000000000E+00 0.  1.
<mgrwt>
<rscale>  0 0.45775601E+02</rscale>
<asrwt>0</asrwt>
<pdfrwt beam="1">  1        2 0.53335634E+00 0.50316740E+02</pdfrwt>
<pdfrwt beam="2">  1       -2 0.28857052E-02 0.41644305E+02</pdfrwt>
<totfact> 0.52424174E+02</totfact>
</mgrwt>
</event>
<event>
 7    1  0.6493044E-004  0.5182722E+02  0.7546771E-02  0.1455543E+00
          1   -1    0    0  502    0 -0.00000000000E+00  0.00000000000E+00  0.33377685169E+04  0.33377685169E+04  0.00000000000E+00 0. -1.
          2   -1    0    0  503    0  0.00000000000E+00 -0.00000000000E+00 -0.17135319004E+02  0.17135319004E+02  0.00000000000E+00 0. -1.
         25    2    1    2    0    0 -0.32191476022E+02 -0.24741491796E+02  0.40472490939E+03  0.42553177159E+03  0.12500641504E+03 0.  0.
          4    1    3    3  501    0 -0.72296192918E+02  0.14231477693E+02  0.26413167769E+03  0.27421967568E+03  0.12700000000E+01 0.  1.
         -4    1    3    3    0  501  0.40104716896E+02 -0.38972969489E+02  0.14059323170E+03  0.15131209591E+03  0.12700000000E+01 0.  1.
          2    1    1    2  502    0  0.28631005688E+02 -0.34388007247E+02  0.27885792704E+04  0.27889382598E+04  0.00000000000E+00 0. -1.
          3    1    1    2  503    0  0.35604703349E+01  0.59129499042E+02  0.12732901805E+03  0.14043380449E+03  0.00000000000E+00 0. -1.
<mgrwt>
<rscale>  0 0.48157017E+02</rscale>
<asrwt>0</asrwt>
<pdfrwt beam="2">  1        2 0.26362056E-02 0.51827216E+02</pdfrwt>
<pdfrwt beam="1">  1        1 0.51350233E+00 0.44746726E+02</pdfrwt>
<totfact> 0.24444099E+02</totfact>
</mgrwt>
</event>
<event>
 7    1  0.6493044E-004  0.8341622E+02  0.7546771E-02  0.1396171E+00
          2   -1    0    0  503    0  0.00000000000E+00  0.00000000000E+00  0.82326277452E+02  0.82326277452E+02  0.00000000000E+00 0. -1.
          1   -1    0    0  502    0 -0.00000000000E+00 -0.00000000000E+00 -0.11813228421E+04  0.11813228421E+04  0.00000000000E+00 0. -1.
         25    2    1    2    0    0 -0.41968391099E+02 -0.83926134078E+02 -0.52095845376E+03  0.54390090559E+03  0.12500217088E+03 0.  0.
          4    1    3    3  501    0 -0.19400079238E+02  0.32407392319E+02 -0.12490833959E+03  0.13050022357E+03  0.12700000000E+01 0. -1.
         -4    1    3    3    0  501 -0.22568311860E+02 -0.11633352640E+03 -0.39605011416E+03  0.41340068202E+03  0.12700000000E+01 0. -1.
          2    1    1    2  502    0 -0.17522751682E+01  0.82980572710E+02 -0.63919697722E+03  0.64456312460E+03  0.00000000000E+00 0. -1.
          1    1    1    2  503    0  0.43720666267E+02  0.94556136735E+00  0.61158866278E+02  0.75185089410E+02  0.00000000000E+00 0. -1.
<mgrwt>
<rscale>  0 0.60397562E+02</rscale>
<asrwt>0</asrwt>
<pdfrwt beam="1">  1        2 0.12665581E-01 0.43730890E+02</pdfrwt>
<pdfrwt beam="2">  1        1 0.18174197E+00 0.83416218E+02</pdfrwt>
<totfact> 0.75923307E+02</totfact>
</mgrwt>
</event>
<event>
 7    1  0.6493044E-004  0.2624503E+02  0.7546771E-02  0.1648573E+00
          2   -1    0    0  503    0  0.00000000000E+00  0.00000000000E+00  0.16881655511E+04  0.16881655511E+04  0.00000000000E+00 0. -1.
          1   -1    0    0  502    0 -0.00000000000E+00 -0.00000000000E+00 -0.21338439890E+03  0.21338439890E+03  0.00000000000E+00 0. -1.
         25    2    1    2    0    0  0.10185583617E+02  0.14468963617E+02 -0.22996913695E+02  0.12839549561E+03  0.12507377116E+03 0.  0.
          4    1    3    3  501    0 -0.34457347524E+02 -0.21885660594E+02  0.29572344246E+02  0.50422488854E+02  0.12700000000E+01 0. -1.
         -4    1    3    3    0  501  0.44642931141E+02  0.36354624211E+02 -0.52569257941E+02  0.77973006758E+02  0.12700000000E+01 0. -1.
          2    1    1    2  502    0 -0.24361629278E+02  0.76505667104E+01 -0.13639782811E+03  0.13876738689E+03  0.00000000000E+00 0. -1.
          1    1    1    2  503    0  0.14176045661E+02 -0.22119530328E+02  0.16341758940E+04  0.16343870675E+04  0.00000000000E+00 0. -1.
<mgrwt>
<rscale>  0 0.25887421E+02</rscale>
<asrwt>0</asrwt>
<pdfrwt beam="1">  1        2 0.25971777E+00 0.26245030E+02</pdfrwt>
<pdfrwt beam="2">  1        1 0.32828370E-01 0.25534685E+02</pdfrwt>
<totfact> 0.23929429E+02</totfact>
</mgrwt>
</event>
<event>
 7    1  0.6493044E-004  0.4790498E+02  0.7546771E-02  0.1458998E+00
          2   -1    0    0  503    0  0.00000000000E+00  0.00000000000E+00  0.85717132934E+03  0.85717132934E+03  0.00000000000E+00 0. -1.
          1   -1    0    0  502    0 -0.00000000000E+00 -0.00000000000E+00 -0.15479512735E+03  0.15479512735E+03  0.00000000000E+00 0. -1.
         25    2    1    2    0    0 -0.39298162837E+02  0.57753376142E+02 -0.50338369006E+02  0.15178486598E+03  0.12499958436E+03 0.  0.
          4    1    3    3  501    0  0.15362545661E+02 -0.27369073408E+02  0.11224411028E+02  0.33356772795E+02  0.12700000000E+01 0. -1.
         -4    1    3    3    0  501 -0.54660708498E+02  0.85122449550E+02 -0.61562780033E+02  0.11842809319E+03  0.12700000000E+01 0. -1.
          2    1    1    2  502    0  0.46056381059E+02 -0.10355465156E+02 -0.42504771924E+02  0.63522291608E+02  0.00000000000E+00 0. -1.
          1    1    1    2  503    0 -0.67582182216E+01 -0.47397910986E+02  0.79521934292E+03  0.79665929910E+03  0.00000000000E+00 0. -1.
<mgrwt>
<rscale>  0 0.47554311E+02</rscale>
<asrwt>0</asrwt>
<pdfrwt beam="1">  1        2 0.13187251E+00 0.47904983E+02</pdfrwt>
<pdfrwt beam="2">  1        1 0.23814635E-01 0.47206206E+02</pdfrwt>
<totfact> 0.91998775E+02</totfact>
</mgrwt>
</event>
<event>
 7    1  0.6493044E-004  0.9883883E+02  0.7546771E-02  0.1346064E+00
          1   -1    0    0  502    0 -0.00000000000E+00  0.00000000000E+00  0.30260328657E+03  0.30260328657E+03  0.00000000000E+00 0. -1.
          2   -1    0    0  503    0  0.00000000000E+00 -0.00000000000E+00 -0.22896739200E+03  0.22896739200E+03  0.00000000000E+00 0. -1.
         25    2    1    2    0    0  0.73222978344E+02  0.10062809791E+03 -0.91667864897E+02  0.19877972283E+03  0.12499104810E+03 0.  0.
          4    1    3    3  501    0 -0.11863316837E+02 -0.51152827677E-01 -0.62680744956E+02  0.63806187719E+02  0.12700000000E+01 0.  1.
         -4    1    3    3    0  501  0.85086295181E+02  0.10067925074E+03 -0.28987119942E+02  0.13497353511E+03  0.12700000000E+01 0.  1.
          2    1    1    2  502    0 -0.54374731961E+02 -0.12742547423E+02  0.22039927074E+03  0.22736495450E+03  0.00000000000E+00 0. -1.
          1    1    1    2  503    0 -0.18848246383E+02 -0.87885550486E+02 -0.55095511279E+02  0.10542600125E+03  0.00000000000E+00 0. -1.
<mgrwt>
<rscale>  0 0.74296283E+02</rscale>
<asrwt>0</asrwt>
<pdfrwt beam="2">  1        2 0.35225752E-01 0.98838832E+02</pdfrwt>
<pdfrwt beam="1">  1        1 0.46554352E-01 0.55847865E+02</pdfrwt>
<totfact> 0.17032072E+03</totfact>
</mgrwt>
</event>
<event>
 7    1  0.6493044E-004  0.2109615E+03  0.7546771E-02  0.1199950E+00
          1   -1    0    0  502    0 -0.00000000000E+00  0.00000000000E+00  0.35266960499E+03  0.35266960499E+03  0.00000000000E+00 0. -1.
          2   -1    0    0  503    0  0.00000000000E+00 -0.00000000000E+00 -0.95205658762E+03  0.95205658762E+03  0.00000000000E+00 0. -1.
         25    2    1    2    0    0 -0.39396770486E+02  0.21132110869E+03 -0.11979760085E+03  0.27601838016E+03  0.12500385798E+03 0.  0.
          4    1    3    3  501    0 -0.45556881875E+02  0.19487253119E+03 -0.14366505205E+03  0.24635744961E+03  0.12700000000E+01 0.  1.
         -4    1    3    3    0  501  0.61601113886E+01  0.16448577501E+02  0.23867451198E+02  0.29660930545E+02  0.12700000000E+01 0.  1.
          2    1    1    2  502    0 -0.67612898258E+02 -0.20397707175E+03  0.22784064103E+03  0.31319244486E+03  0.00000000000E+00 0. -1.
          1    1    1    2  503    0  0.10700966874E+03 -0.73440369432E+01 -0.70743002281E+03  0.71551536759E+03  0.00000000000E+00 0. -1.
<mgrwt>
<rscale>  0 0.15042615E+03</rscale>
<asrwt>0</asrwt>
<pdfrwt beam="2">  1        2 0.14647024E+00 0.10726138E+03</pdfrwt>
<pdfrwt beam="1">  1        1 0.54256864E-01 0.21096153E+03</pdfrwt>
<totfact> 0.28680522E+02</totfact>
</mgrwt>
</event>
<event>
 7    1  0.6493044E-004  0.5058611E+02  0.7546771E-02  0.1527343E+00
          1   -1    0    0  502    0 -0.00000000000E+00  0.00000000000E+00  0.85414672447E+03  0.85414672447E+03  0.00000000000E+00 0. -1.
          2   -1    0    0  503    0  0.00000000000E+00 -0.00000000000E+00 -0.30155676585E+03  0.30155676585E+03  0.00000000000E+00 0. -1.
         25    2    1    2    0    0 -0.51692358441E+02  0.15624244924E+02  0.70005887503E+03  0.71317813382E+03  0.12499762037E+03 0.  0.
          4    1    3    3  501    0  0.34078859074E+02  0.70933972553E+01  0.81361441221E+02  0.88504135147E+02  0.12700000000E+01 0. -1.
         -4    1    3    3    0  501 -0.85771217515E+02  0.85308476686E+01  0.61869743381E+03  0.62467399867E+03  0.12700000000E+01 0. -1.
          2    1    1    2  502    0  0.17473031918E+02  0.21648673753E+02  0.14401744137E+03  0.14667990775E+03  0.00000000000E+00 0. -1.
          1    1    1    2  503    0  0.34219326523E+02 -0.37272918677E+02 -0.29148635778E+03  0.29584544875E+03  0.00000000000E+00 0. -1.
<mgrwt>
<rscale>  0 0.37514309E+02</rscale>
<asrwt>0</asrwt>
<pdfrwt beam="2">  1        2 0.46393349E-01 0.50586113E+02</pdfrwt>
<pdfrwt beam="1">  1        1 0.13140719E+00 0.27820351E+02</pdfrwt>
<totfact> 0.34572895E+02</totfact>
</mgrwt>
</event>
<event>
 7    1  0.6493044E-004  0.9048505E+02  0.7546771E-02  0.1430497E+00
         -1   -1    0    0    0  501 -0.00000000000E+00  0.00000000000E+00  0.17545452322E+03  0.17545452322E+03  0.00000000000E+00 0.  1.
          1   -1    0    0  503    0  0.00000000000E+00 -0.00000000000E+00 -0.27672675165E+03  0.27672675165E+03  0.00000000000E+00 0. -1.
         25    2    1    2    0    0 -0.31591316144E+02  0.65444200405E+02  0.21255133060E+02  0.14615396296E+03  0.12501298166E+03 0.  0.
          4    1    3    3  502    0  0.55401719139E+01  0.16070594975E+02  0.67088466098E+02  0.69220175607E+02  0.12700000000E+01 0. -1.
         -4    1    3    3    0  502 -0.37131488058E+02  0.49373605430E+02 -0.45833333038E+02  0.76933787349E+02  0.12700000000E+01 0. -1.
          2    1    1    2  503    0 -0.27922049610E+02  0.13189594988E+02 -0.18613369193E+03  0.18867792013E+03  0.00000000000E+00 0. -1.
         -2    1    1    2    0  501  0.59513365753E+02 -0.78633795393E+02  0.63606330440E+02  0.11734939179E+03  0.00000000000E+00 0.  1.
<mgrwt>
<rscale>  0 0.52860430E+02</rscale>
<asrwt>0</asrwt>
<pdfrwt beam="2">  1        1 0.42573346E-01 0.30880516E+02</pdfrwt>
<pdfrwt beam="1">  1       -1 0.26993004E-01 0.90485052E+02</pdfrwt>
<totfact> 0.11532920E+03</totfact>
</mgrwt>
</event>
<event>
 7    1  0.6493044E-004  0.4759115E+02  0.7546771E-02  0.1525029E+00
          2   -1    0    0  503    0  0.00000000000E+00  0.00000000000E+00  0.16993705610E+04  0.16993705610E+04  0.00000000000E+00 0. -1.
         -2   -1    0    0    0  501 -0.00000000000E+00 -0.00000000000E+00 -0.57968727969E+02  0.57968727969E+02  0.00000000000E+00 0.  1.
         25    2    1    2    0    0  0.22820732770E+02  0.67105656302E+02  0.82300836679E+03  0.83545888744E+03  0.12499930336E+03 0.  0.
          4    1    3    3  502    0 -0.17325776548E+02  0.93163184267E+02  0.59243518650E+03  0.59996718622E+03  0.12700000000E+01 0. -1.
         -4    1    3    3    0  502  0.40146509318E+02 -0.26057527965E+02  0.23057318028E+03  0.23549170121E+03  0.12700000000E+01 0. -1.
          1    1    1    2  503    0  0.58590695086E+01 -0.29451116124E+02  0.85899489144E+03  0.85951958701E+03  0.00000000000E+00 0. -1.
         -1    1    1    2    0  501 -0.28679802278E+02 -0.37654540178E+02 -0.40601425222E+02  0.62360814497E+02  0.00000000000E+00 0.  1.
<mgrwt>
<rscale>  0 0.37803171E+02</rscale>
<asrwt>0</asrwt>
<pdfrwt beam="1">  1        2 0.26144159E+00 0.30028269E+02</pdfrwt>
<pdfrwt beam="2">  1       -2 0.89182672E-02 0.47591147E+02</pdfrwt>
<totfact> 0.92872382E+02</totfact>
</mgrwt>
</event>
<event>
 7    1  0.6493044E-004  0.1127131E+03  0.7546771E-02  0.1313004E+00
          2   -1    0    0  503    0  0.00000000000E+00  0.00000000000E+00  0.16833616979E+03  0.16833616979E+03  0.00000000000E+00 0. -1.
         -2   -1    0    0    0  501 -0.00000000000E+00 -0.00000000000E+00 -0.61123050100E+03  0.61123050100E+03  0.00000000000E+00 0.  1.
         25    2    1    2    0    0  0.75643821871E+02  0.53534530449E+02  0.71336648359E+01  0.15574176867E+03  0.12496669795E+03 0.  0.
          4    1    3    3  502    0 -0.13098578515E+02 -0.30092691529E+02 -0.48899799042E+01  0.33206439828E+02  0.12700000000E+01 0. -1.
         -4    1    3    3    0  502  0.88742400386E+02  0.83627221978E+02  0.12023644740E+02  0.12253532884E+03  0.12700000000E+01 0. -1.
          1    1    1    2  503    0 -0.35811523883E+02  0.54866785165E+02  0.67203545071E+02  0.93857049961E+02  0.00000000000E+00 0. -1.
         -1    1    1    2    0  501 -0.39832297988E+02 -0.10840131561E+03 -0.51723154111E+03  0.52996785215E+03  0.00000000000E+00 0.  1.
<mgrwt>
<rscale>  0 0.85935588E+02</rscale>
<asrwt>0</asrwt>
<pdfrwt beam="1">  1        2 0.25897872E-01 0.65519687E+02</pdfrwt>
<pdfrwt beam="2">  1       -2 0.94035462E-01 0.11271307E+03</pdfrwt>
<totfact> 0.20304968E+02</totfact>
</mgrwt>
</event>
<event>
 7    1  0.6493044E-004  0.1087862E+03  0.7546771E-02  0.1426025E+00
          1   -1    0    0  502    0 -0.00000000000E+00  0.00000000000E+00  0.89730310539E+03  0.89730310539E+03  0.00000000000E+00 0. -1.
          2   -1    0    0  503    0  0.00000000000E+00 -0.00000000000E+00 -0.42134986329E+03  0.42134986329E+03  0.00000000000E+00 0. -1.
         25    2    1    2    0    0  0.83377564076E+02  0.71729228945E+02 -0.17710889942E+03  0.24308308802E+03  0.12499969980E+03 0.  0.
          4    1    3    3  501    0 -0.53422166096E+01  0.30349419816E+00 -0.11149605387E+03  0.11163160088E+03  0.12700000000E+01 0.  1.
         -4    1    3    3    0  501  0.88719780685E+02  0.71425734747E+02 -0.65612845547E+02  0.13145148713E+03  0.12700000000E+01 0.  1.
          2    1    1    2  502    0 -0.62969664939E+02 -0.88748615482E+02  0.86003809446E+03  0.86689504519E+03  0.00000000000E+00 0. -1.
          1    1    1    2  503    0 -0.20407899137E+02  0.17019386536E+02 -0.20697595294E+03  0.20867483547E+03  0.00000000000E+00 0. -1.
<mgrwt>
<rscale>  0 0.53766271E+02</rscale>
<asrwt>0</asrwt>
<pdfrwt beam="2">  1        2 0.64823056E-01 0.26573330E+02</pdfrwt>
<pdfrwt beam="1">  1        1 0.13804663E+00 0.10878621E+03</pdfrwt>
<totfact> 0.21087075E+02</totfact>
</mgrwt>
</event>
<event>
 7    1  0.6493044E-004  0.1514604E+03  0.7546771E-02  0.1202919E+00
          2   -1    0    0  503    0  0.00000000000E+00  0.00000000000E+00  0.86148326575E+03  0.86148326575E+03  0.00000000000E+00 0. -1.
          1   -1    0    0  502    0 -0.00000000000E+00 -0.00000000000E+00 -0.12450235833E+04  0.12450235833E+04  0.00000000000E+00 0. -1.
         25    2    1    2    0    0  0.25654429861E+03 -0.90824573651E+02  0.10241163712E+03  0.31652446525E+03  0.12504204636E+03 0.  0.
          4    1    3    3  501    0  0.22420075287E+03 -0.24858731493E+02  0.84570687069E+02  0.24091024912E+03  0.12700000000E+01 0.  1.
         -4    1    3    3    0  501  0.32343545733E+02 -0.65965842158E+02  0.17840950048E+02  0.75614216129E+02  0.12700000000E+01 0.  1.
          2    1    1    2  502    0 -0.11206668537E+03  0.98292200069E+02 -0.11249647401E+04  0.11347977640E+04  0.00000000000E+00 0. -1.
          1    1    1    2  503    0 -0.14447761323E+03 -0.74676264175E+01  0.63901278543E+03  0.65518461986E+03  0.00000000000E+00 0. -1.
<mgrwt>
<rscale>  0 0.14802653E+03</rscale>
<asrwt>0</asrwt>
<pdfrwt beam="1">  1        2 0.13253589E+00 0.14467047E+03</pdfrwt>
<pdfrwt beam="2">  1        1 0.19154209E+00 0.15146045E+03</pdfrwt>
<totfact> 0.50629640E+01</totfact>
</mgrwt>
</event>
<event>
 7    1  0.6493044E-004  0.1257448E+03  0.7546771E-02  0.1240176E+00
          2   -1    0    0  503    0  0.00000000000E+00  0.00000000000E+00  0.11979526279E+04  0.11979526279E+04  0.00000000000E+00 0. -1.
         -2   -1    0    0    0  501 -0.00000000000E+00 -0.00000000000E+00 -0.12017529722E+04  0.12017529722E+04  0.00000000000E+00 0.  1.
         25    2    1    2    0    0 -0.16635416105E+03 -0.96603145436E+00 -0.13071826731E+03  0.24573558975E+03  0.12499629814E+03 0.  0.
          4    1    3    3  502    0  0.12536992409E+02  0.16331707251E+02  0.41366159485E+01  0.21038662788E+02  0.12700000000E+01 0. -1.
         -4    1    3    3    0  502 -0.17889115346E+03 -0.17297738706E+02 -0.13485488326E+03  0.22469692696E+03  0.12700000000E+01 0. -1.
          1    1    1    2  503    0  0.89499238161E+02 -0.88515050921E+02  0.11335162092E+04  0.11404841185E+04  0.00000000000E+00 0. -1.
         -1    1    1    2    0  501  0.76854922887E+02  0.89481082376E+02 -0.10065982862E+04  0.10134858919E+04  0.00000000000E+00 0.  1.
<mgrwt>
<rscale>  0 0.12178798E+03</rscale>
<asrwt>0</asrwt>
<pdfrwt beam="1">  1        2 0.18430040E+00 0.12574479E+03</pdfrwt>
<pdfrwt beam="2">  1       -2 0.18488507E+00 0.11795568E+03</pdfrwt>
<totfact> 0.40611513E+00</totfact>
</mgrwt>
</event>
<event>
 7    1  0.6493044E-004  0.1163578E+03  0.7546771E-02  0.1379107E+00
         -2   -1    0    0    0  501 -0.00000000000E+00  0.00000000000E+00  0.12301165240E+03  0.12301165240E+03  0.00000000000E+00 0.  1.
          2   -1    0    0  503    0  0.00000000000E+00 -0.00000000000E+00 -0.29758201836E+04  0.29758201836E+04  0.00000000000E+00 0. -1.
         25    2    1    2    0    0 -0.23513260769E+02 -0.10568276916E+03 -0.74951569914E+03  0.76754240745E+03  0.12500337134E+03 0.  0.
          4    1    3    3  502    0 -0.12661643348E+02 -0.13110447592E+03 -0.68151714175E+03  0.69412961917E+03  0.12700000000E+01 0. -1.
         -4    1    3    3    0  502 -0.10851617421E+02  0.25421706756E+02 -0.67998557387E+02  0.73412788271E+02  0.12700000000E+01 0. -1.
          1    1    1    2  503    0 -0.35642307702E+02  0.48816840697E+01 -0.21871471709E+04  0.21874430168E+04  0.00000000000E+00 0. -1.
         -1    1    1    2    0  501  0.59155568472E+02  0.10080108509E+03  0.83854338773E+02  0.14384641173E+03  0.00000000000E+00 0.  1.
<mgrwt>
<rscale>  0 0.64699141E+02</rscale>
<asrwt>0</asrwt>
<pdfrwt beam="2">  1        2 0.45781850E+00 0.35975060E+02</pdfrwt>
<pdfrwt beam="1">  1       -2 0.18924869E-01 0.11635780E+03</pdfrwt>
<totfact> 0.67512738E+01</totfact>
</mgrwt>
</event>
<event>
 7    1  0.6493044E-004  0.6532294E+02  0.7546771E-02  0.1383061E+00
          1   -1    0    0  502    0 -0.00000000000E+00  0.00000000000E+00  0.41673059699E+02  0.41673059699E+02  0.00000000000E+00 0. -1.
          2   -1    0    0  503    0  0.00000000000E+00 -0.00000000000E+00 -0.19705277426E+04  0.19705277426E+04  0.00000000000E+00 0. -1.
         25    2    1    2    0    0 -0.97421967398E+01  0.13857748762E+02 -0.47559929046E+03  0.49204159493E+03  0.12499319367E+03 0.  0.
          4    1    3    3  501    0 -0.22583908262E+02  0.49614152152E+02 -0.42637640861E+03  0.42984887079E+03  0.12700000000E+01 0.  1.
         -4    1    3    3    0  501  0.12841711522E+02 -0.35756403390E+02 -0.49222881850E+02  0.62192724139E+02  0.12700000000E+01 0.  1.
          2    1    1    2  502    0 -0.53573369697E+02 -0.37376199925E+02  0.12163151560E-01  0.65322939382E+02  0.00000000000E+00 0. -1.
          1    1    1    2  503    0  0.63315566437E+02  0.23518451163E+02 -0.14532675556E+04  0.14548362680E+04  0.00000000000E+00 0. -1.
<mgrwt>
<rscale>  0 0.63666060E+02</rscale>
<asrwt>0</asrwt>
<pdfrwt beam="2">  1        2 0.30315816E+00 0.62051208E+02</pdfrwt>
<pdfrwt beam="1">  1        1 0.64112391E-02 0.65322938E+02</pdfrwt>
<totfact> 0.12881480E+03</totfact>
</mgrwt>
</event>
<event>
 7    1  0.6493044E-004  0.3763026E+02  0.7546771E-02  0.1625824E+00
          1   -1    0    0  502    0 -0.00000000000E+00  0.00000000000E+00  0.11439640235E+03  0.11439640235E+03  0.00000000000E+00 0. -1.
          2   -1    0    0  503    0  0.00000000000E+00 -0.00000000000E+00 -0.65137142136E+03  0.65137142136E+03  0.00000000000E+00 0. -1.
         25    2    1    2    0    0  0.32167187996E+02 -0.12858551255E+02 -0.52318869095E+03  0.53902856374E+03  0.12500126347E+03 0.  0.
          4    1    3    3  501    0  0.10862846214E+02  0.53322963148E+02 -0.31124271877E+03  0.31596674305E+03  0.12700000000E+01 0. -1.
         -4    1    3    3    0  501  0.21304341782E+02 -0.66181514403E+02 -0.21194597218E+03  0.22306182069E+03  0.12700000000E+01 0. -1.
          2    1    1    2  502    0 -0.72381642292E+01 -0.18957666502E+02  0.10205288358E+03  0.10405082982E+03  0.00000000000E+00 0. -1.
          3    1    1    2  503    0 -0.24929023767E+02  0.31816217757E+02 -0.11583921164E+03  0.12268843015E+03  0.00000000000E+00 0. -1.
<mgrwt>
<rscale>  0 0.27633509E+02</rscale>
<asrwt>0</asrwt>
<pdfrwt beam="2">  1        2 0.10021099E+00 0.37630265E+02</pdfrwt>
<pdfrwt beam="1">  1        1 0.17599446E-01 0.20292465E+02</pdfrwt>
<totfact> 0.17530220E+03</totfact>
</mgrwt>
</event>
<event>
 7    1  0.6493044E-004  0.2319848E+02  0.7546771E-02  0.1696940E+00
         -2   -1    0    0    0  501  0.00000000000E+00  0.00000000000E+00  0.71640628213E+03  0.71640628213E+03  0.00000000000E+00 0.  1.
         -1   -1    0    0    0  502 -0.00000000000E+00 -0.00000000000E+00 -0.65843013445E+02  0.65843013445E+02  0.00000000000E+00 0.  1.
         25    2    1    2    0    0  0.26256487492E+02 -0.28792531695E+02  0.22228016385E+03  0.25797626521E+03  0.12499947661E+03 0.  0.
          4    1    3    3  503    0 -0.28429068716E+02  0.35342568183E+02  0.95490357869E+02  0.10572289449E+03  0.12700000000E+01 0.  1.
         -4    1    3    3    0  503  0.54685556209E+02 -0.64135099878E+02  0.12678980598E+03  0.15225337071E+03  0.12700000000E+01 0.  1.
         -2    1    1    2    0  502 -0.50114119477E+01  0.22523429000E+02 -0.44947541683E+02  0.50524257609E+02  0.00000000000E+00 0.  1.
         -1    1    1    2    0  501 -0.21245075545E+02  0.62691026953E+01  0.47323064652E+03  0.47374877276E+03  0.00000000000E+00 0.  1.
<mgrwt>
<rscale>  0 0.22668554E+02</rscale>
<asrwt>0</asrwt>
<pdfrwt beam="1">  1       -2 0.11021635E+00 0.22150731E+02</pdfrwt>
<pdfrwt beam="2">  1       -1 0.10129695E-01 0.23198482E+02</pdfrwt>
<totfact> 0.27174380E+02</totfact>
</mgrwt>
</event>
<event>
 7    1  0.6493044E-004  0.7755923E+02  0.7546771E-02  0.1370838E+00
          1   -1    0    0  502    0 -0.00000000000E+00  0.00000000000E+00  0.13201464846E+04  0.13201464846E+04  0.00000000000E+00 0. -1.
          2   -1    0    0  503    0  0.00000000000E+00 -0.00000000000E+00 -0.30675784231E+03  0.30675784231E+03  0.00000000000E+00 0. -1.
         25    2    1    2    0    0 -0.16790360981E+02  0.45532454264E+02  0.14814268906E+03  0.19981323917E+03  0.12499581439E+03 0.  0.
          4    1    3    3  501    0  0.11368485749E+02 -0.41164644200E+01 -0.19352929101E+02  0.22854682503E+02  0.12700000000E+01 0. -1.
         -4    1    3    3    0  501 -0.28158846731E+02  0.49648918684E+02  0.16749561816E+03  0.17695855667E+03  0.12700000000E+01 0. -1.
          2    1    1    2  502    0 -0.34525199543E+02 -0.72057873272E+02  0.11417879393E+04  0.11445802832E+04  0.00000000000E+00 0. -1.
          1    1    1    2  503    0  0.51315560525E+02  0.26525419008E+02 -0.27654198605E+03  0.28251080449E+03  0.00000000000E+00 0. -1.
<mgrwt>
<rscale>  0 0.66934812E+02</rscale>
<asrwt>0</asrwt>
<pdfrwt beam="2">  1        2 0.47193515E-01 0.57765774E+02</pdfrwt>
<pdfrwt beam="1">  1        1 0.20309946E+00 0.77559231E+02</pdfrwt>
<totfact> 0.15184870E+02</totfact>
</mgrwt>
</event>
<event>
 7    1  0.6493044E-004  0.7849563E+02  0.7546771E-02  0.1337466E+00
          1   -1    0    0  502    0 -0.00000000000E+00  0.00000000000E+00  0.16207660174E+04  0.16207660174E+04  0.00000000000E+00 0. -1.
          2   -1    0    0  503    0  0.00000000000E+00 -0.00000000000E+00 -0.21574233051E+03  0.21574233051E+03  0.00000000000E+00 0. -1.
         25    2    1    2    0    0  0.23192636918E+02  0.82129309592E+02  0.84757650632E+02  0.17347180273E+03  0.12500194038E+03 0.  0.
          4    1    3    3  501    0 -0.57718430478E+01  0.10644989668E+03  0.83819332825E+02  0.13561780167E+03  0.12700000000E+01 0. -1.
         -4    1    3    3    0  501  0.28964479966E+02 -0.24320587084E+02  0.93831780720E+00  0.37854001059E+02  0.12700000000E+01 0. -1.
          2    1    1    2  502    0 -0.73277650105E+02 -0.19172443677E+02  0.14811891415E+04  0.14831245630E+04  0.00000000000E+00 0. -1.
          1    1    1    2  503    0  0.50085013186E+02 -0.62956865915E+02 -0.16092310524E+03  0.17991198213E+03  0.00000000000E+00 0. -1.
<mgrwt>
<rscale>  0 0.77107684E+02</rscale>
<asrwt>0</asrwt>
<pdfrwt beam="2">  1        2 0.33191129E-01 0.78495626E+02</pdfrwt>
<pdfrwt beam="1">  1        1 0.24934861E+00 0.75744284E+02</pdfrwt>
<totfact> 0.14183243E+02</totfact>
</mgrwt>
</event>
<event>
 7    1  0.6493044E-004  0.2135703E+03  0.7546771E-02  0.1222787E+00
          2   -1    0    0  503    0  0.00000000000E+00  0.00000000000E+00  0.21835908207E+04  0.21835908207E+04  0.00000000000E+00 0. -1.
          1   -1    0    0  502    0 -0.00000000000E+00 -0.00000000000E+00 -0.22212705389E+03  0.22212705389E+03  0.00000000000E+00 0. -1.
         25    2    1    2    0    0 -0.40313203467E+02  0.12978574407E+03  0.15718733515E+04  0.15826820403E+04  0.12500845416E+03 0.  0.
          4    1    3    3  501    0  0.45237272437E+02  0.44103483077E+02  0.49216215758E+03  0.49620230783E+03  0.12700000000E+01 0. -1.
         -4    1    3    3    0  501 -0.85550475904E+02  0.85682260995E+02  0.10797111940E+04  0.10864797325E+04  0.12700000000E+01 0. -1.
          2    1    1    2  502    0  0.88822637063E+02 -0.19722250287E+03 -0.15883433441E+03  0.26835521661E+03  0.00000000000E+00 0. -1.
          1    1    1    2  503    0 -0.48509433596E+02  0.67436758795E+02  0.54842474968E+03  0.55468061770E+03  0.00000000000E+00 0. -1.
<mgrwt>
<rscale>  0 0.13319766E+03</rscale>
<asrwt>0</asrwt>
<pdfrwt beam="1">  1        2 0.33593703E+00 0.83071545E+02</pdfrwt>
<pdfrwt beam="2">  1        1 0.34173394E-01 0.21357031E+03</pdfrwt>
<totfact> 0.11885796E+02</totfact>
</mgrwt>
</event>
<event>
 7    1  0.6493044E-004  0.1526213E+03  0.7546771E-02  0.1291898E+00
          2   -1    0    0  503    0  0.00000000000E+00  0.00000000000E+00  0.24182999688E+04  0.24182999688E+04  0.00000000000E+00 0. -1.
          1   -1    0    0  502    0 -0.00000000000E+00 -0.00000000000E+00 -0.12402112913E+03  0.12402112913E+03  0.00000000000E+00 0. -1.
         25    2    1    2    0    0  0.72584003350E+02  0.10485867836E+03  0.19848446046E+03  0.26699281948E+03  0.12500121856E+03 0.  0.
          4    1    3    3  501    0  0.90172187768E+01  0.32801457868E+02  0.15982672166E+03  0.16341187145E+03  0.12700000000E+01 0. -1.
         -4    1    3    3    0  501  0.63566784573E+02  0.72057220495E+02  0.38657738795E+02  0.10358094803E+03  0.12700000000E+01 0. -1.
          2    1    1    2  502    0 -0.13068990293E+03 -0.96280099500E+02 -0.15639507031E+02  0.16307759646E+03  0.00000000000E+00 0. -1.
          1    1    1    2  503    0  0.58105899582E+02 -0.85785788631E+01  0.21114338862E+04  0.21122506820E+04  0.00000000000E+00 0. -1.
<mgrwt>
<rscale>  0 0.94680129E+02</rscale>
<asrwt>0</asrwt>
<pdfrwt beam="1">  1        2 0.37204612E+00 0.58735744E+02</pdfrwt>
<pdfrwt beam="2">  1        1 0.19080175E-01 0.15262132E+03</pdfrwt>
<totfact> 0.19635389E+02</totfact>
</mgrwt>
</event>
<event>
 7    1  0.6493044E-004  0.8527244E+02  0.7546771E-02  0.1331400E+00
         -1   -1    0    0    0  501 -0.00000000000E+00  0.00000000000E+00  0.13629155737E+03  0.13629155737E+03  0.00000000000E+00 0.  1.
          1   -1    0    0  503    0  0.00000000000E+00 -0.00000000000E+00 -0.28028565638E+04  0.28028565638E+04  0.00000000000E+00 0. -1.
         25    2    1    2    0    0 -0.51392117546E+01 -0.54224348611E+02 -0.62654468486E+03  0.64120950624E+03  0.12499878911E+03 0.  0.
          4    1    3    3  502    0  0.10939007458E+02 -0.25371096054E+02 -0.59459400404E+03  0.59523692505E+03  0.12700000000E+01 0.  1.
         -4    1    3    3    0  502 -0.16078219212E+02 -0.28853252557E+02 -0.31950680821E+02  0.45972581188E+02  0.12700000000E+01 0.  1.
          2    1    1    2  503    0  0.73510358038E+02  0.11437821025E+01 -0.21537569724E+04  0.21550114100E+04  0.00000000000E+00 0. -1.
         -2    1    1    2    0  501 -0.68371146283E+02  0.53080566508E+02  0.11373665081E+03  0.14292720498E+03  0.00000000000E+00 0.  1.
<mgrwt>
<rscale>  0 0.79178069E+02</rscale>
<asrwt>0</asrwt>
<pdfrwt beam="2">  1        1 0.43120868E+00 0.73519256E+02</pdfrwt>
<pdfrwt beam="1">  1       -1 0.20967933E-01 0.85272444E+02</pdfrwt>
<totfact> 0.22085119E+01</totfact>
</mgrwt>
</event>
<event>
 7    1  0.6493044E-004  0.9006631E+02  0.7546771E-02  0.1318350E+00
          2   -1    0    0  503    0  0.00000000000E+00  0.00000000000E+00  0.17020015373E+04  0.17020015373E+04  0.00000000000E+00 0. -1.
          1   -1    0    0  502    0 -0.00000000000E+00 -0.00000000000E+00 -0.75216775609E+03  0.75216775609E+03  0.00000000000E+00 0. -1.
         25    2    1    2    0    0  0.11009308816E+03 -0.89329109718E+02  0.29409246266E+02  0.19129016491E+03  0.12500738187E+03 0.  0.
          4    1    3    3  501    0 -0.24004332160E+02  0.54979130066E+01  0.60906372727E+01  0.25399680554E+02  0.12700000000E+01 0. -1.
         -4    1    3    3    0  501  0.13409742032E+03 -0.94827022725E+02  0.23318608994E+02  0.16589048436E+03  0.12700000000E+01 0. -1.
          2    1    1    2  502    0 -0.32192801299E+02  0.83145858057E+02 -0.66730123831E+03  0.67323142590E+03  0.00000000000E+00 0. -1.
          1    1    1    2  503    0 -0.77900286863E+02  0.61832516611E+01  0.15877257732E+04  0.15896477025E+04  0.00000000000E+00 0. -1.
<mgrwt>
<rscale>  0 0.83894331E+02</rscale>
<asrwt>0</asrwt>
<pdfrwt beam="1">  1        2 0.26184639E+00 0.78145296E+02</pdfrwt>
<pdfrwt beam="2">  1        1 0.11571812E+00 0.90066314E+02</pdfrwt>
<totfact> 0.43638244E+01</totfact>
</mgrwt>
</event>
<event>
 7    1  0.6493044E-004  0.7516008E+02  0.7546771E-02  0.1425455E+00
          1   -1    0    0  502    0 -0.00000000000E+00  0.00000000000E+00  0.81200909430E+03  0.81200909430E+03  0.00000000000E+00 0. -1.
          2   -1    0    0  503    0  0.00000000000E+00 -0.00000000000E+00 -0.39003187218E+02  0.39003187218E+02  0.00000000000E+00 0. -1.
         25    2    1    2    0    0  0.89829285912E+02 -0.34665433861E+02  0.21368358981E+03  0.26562908281E+03  0.12500856038E+03 0.  0.
          4    1    3    3  501    0 -0.99175350542E+01  0.34779436101E+02  0.52053957035E+02  0.63397113657E+02  0.12700000000E+01 0.  1.
         -4    1    3    3    0  501  0.99746820966E+02 -0.69444869962E+02  0.16162963278E+03  0.20223196916E+03  0.12700000000E+01 0.  1.
          2    1    1    2  502    0 -0.21764397766E+02  0.31914735585E+02  0.47686515641E+03  0.47842723246E+03  0.00000000000E+00 0. -1.
          1    1    1    2  503    0 -0.68064888146E+02  0.27506982763E+01  0.82457160858E+02  0.10695596625E+03  0.00000000000E+00 0. -1.
<mgrwt>
<rscale>  0 0.53883183E+02</rscale>
<asrwt>0</asrwt>
<pdfrwt beam="2">  1        2 0.60004909E-02 0.75160082E+02</pdfrwt>
<pdfrwt beam="1">  1        1 0.12492446E+00 0.38629514E+02</pdfrwt>
<totfact> 0.37648823E+03</totfact>
</mgrwt>
</event>
<event>
 7    1  0.6493044E-004  0.1195707E+03  0.7546771E-02  0.1333783E+00
          1   -1    0    0  502    0 -0.00000000000E+00  0.00000000000E+00  0.51926862247E+02  0.51926862247E+02  0.00000000000E+00 0. -1.
          2   -1    0    0  503    0  0.00000000000E+00 -0.00000000000E+00 -0.10858892978E+04  0.10858892978E+04  0.00000000000E+00 0. -1.
         25    2    1    2    0    0 -0.66677123670E+02 -0.71736269763E+02 -0.17333912466E+03  0.23508141978E+03  0.12499956226E+03 0.  0.
          4    1    3    3  501    0  0.13711295679E+02  0.23084025731E+01 -0.10554287429E+03  0.10646238569E+03  0.12700000000E+01 0. -1.
         -4    1    3    3    0  501 -0.80388419349E+02 -0.74044672336E+02 -0.67796250365E+02  0.12861903409E+03  0.12700000000E+01 0. -1.
          2    1    1    2  502    0  0.97609007357E+02  0.11272133448E+03 -0.25847146028E+03  0.29839757597E+03  0.00000000000E+00 0. -1.
          1    1    1    2  503    0 -0.30931883687E+02 -0.40985064719E+02 -0.60215185062E+03  0.60433716430E+03  0.00000000000E+00 0. -1.
<mgrwt>
<rscale>  0 0.78355911E+02</rscale>
<asrwt>0</asrwt>
<pdfrwt beam="2">  1        2 0.16705988E+00 0.51347414E+02</pdfrwt>
<pdfrwt beam="1">  1        1 0.79887485E-02 0.11957075E+03</pdfrwt>
<totfact> 0.28629760E+03</totfact>
</mgrwt>
</event>
<event>
 7    1  0.6493044E-004  0.1706340E+03  0.7546771E-02  0.1279647E+00
          2   -1    0    0  503    0  0.00000000000E+00  0.00000000000E+00  0.40849147802E+03  0.40849147802E+03  0.00000000000E+00 0. -1.
         -2   -1    0    0    0  501 -0.00000000000E+00 -0.00000000000E+00 -0.13944473750E+04  0.13944473750E+04  0.00000000000E+00 0.  1.
         25    2    1    2    0    0  0.17253798357E+03 -0.18356985843E+02 -0.26647185734E+03  0.34170529238E+03  0.12509564892E+03 0.  0.
          4    1    3    3  502    0  0.12816044588E+03  0.42222331666E+02 -0.13882574429E+03  0.19360275141E+03  0.12700000000E+01 0. -1.
         -4    1    3    3    0  502  0.44377537698E+02 -0.60579317509E+02 -0.12764611305E+03  0.14810254096E+03  0.12700000000E+01 0. -1.
          1    1    1    2  503    0 -0.16625791145E+03 -0.40275825782E+02  0.35029325912E+03  0.38983227502E+03  0.00000000000E+00 0. -1.
         -1    1    1    2    0  501 -0.62800721231E+01  0.58632811625E+02 -0.10697772987E+04  0.10714012856E+04  0.00000000000E+00 0.  1.
<mgrwt>
<rscale>  0 0.10030940E+03</rscale>
<asrwt>0</asrwt>
<pdfrwt beam="1">  1        2 0.62844843E-01 0.17063399E+03</pdfrwt>
<pdfrwt beam="2">  1       -2 0.21453037E+00 0.58968177E+02</pdfrwt>
<totfact> 0.10371297E+01</totfact>
</mgrwt>
</event>
<event>
 7    1  0.6493044E-004  0.1265217E+03  0.7546771E-02  0.1296299E+00
          1   -1    0    0  502    0 -0.00000000000E+00  0.00000000000E+00  0.41765268374E+03  0.41765268374E+03  0.00000000000E+00 0. -1.
          2   -1    0    0  503    0  0.00000000000E+00 -0.00000000000E+00 -0.93566085464E+03  0.93566085464E+03  0.00000000000E+00 0. -1.
         25    2    1    2    0    0 -0.75782639449E+02  0.11830215917E+03  0.15813056974E+03  0.24571896845E+03  0.12503649494E+03 0.  0.
          4    1    3    3  501    0 -0.50559967868E+01  0.57887238978E+02 -0.45706445389E+01  0.58300936798E+02  0.12700000000E+01 0.  1.
         -4    1    3    3    0  501 -0.70726642662E+02  0.60414920190E+02  0.16270121427E+03  0.18741803166E+03  0.12700000000E+01 0.  1.
          2    1    1    2  502    0  0.67534854062E+02  0.80207426454E+01  0.20573324340E+03  0.21668284719E+03  0.00000000000E+00 0. -1.
          1    1    1    2  503    0  0.82477853870E+01 -0.12632290181E+03 -0.88187198404E+03  0.89091172274E+03  0.00000000000E+00 0. -1.
<mgrwt>
<rscale>  0 0.92761388E+02</rscale>
<asrwt>0</asrwt>
<pdfrwt beam="2">  1        2 0.14394782E+00 0.12652171E+03</pdfrwt>
<pdfrwt beam="1">  1        1 0.64254260E-01 0.68009476E+02</pdfrwt>
<totfact> 0.23881055E+02</totfact>
</mgrwt>
</event>
<event>
 7    1  0.6493044E-004  0.6924238E+02  0.7546771E-02  0.1447122E+00
         -2   -1    0    0    0  501  0.00000000000E+00  0.00000000000E+00  0.10366934044E+03  0.10366934044E+03  0.00000000000E+00 0.  1.
         -1   -1    0    0    0  502 -0.00000000000E+00 -0.00000000000E+00 -0.18634920411E+03  0.18634920411E+03  0.00000000000E+00 0.  1.
         25    2    1    2    0    0  0.50597599594E+02 -0.47936550914E+02 -0.39745892832E+02  0.14853247709E+03  0.12499652298E+03 0.  0.
          4    1    3    3  503    0  0.82618955267E+02 -0.38945667436E+02  0.64733445013E+01  0.91576055115E+02  0.12700000000E+01 0. -1.
         -4    1    3    3    0  503 -0.32021355673E+02 -0.89908834788E+01 -0.46219237334E+02  0.56956421978E+02  0.12700000000E+01 0. -1.
         -2    1    1    2    0  502  0.18444292695E+02  0.30487043599E+02 -0.58588337530E+02  0.68572917795E+02  0.00000000000E+00 0.  1.
         -1    1    1    2    0  501 -0.69041892289E+02  0.17449507315E+02  0.15654366697E+02  0.72913149658E+02  0.00000000000E+00 0.  1.
<mgrwt>
<rscale>  0 0.49671484E+02</rscale>
<asrwt>0</asrwt>
<pdfrwt beam="1">  1       -2 0.15949129E-01 0.69242375E+02</pdfrwt>
<pdfrwt beam="2">  1       -1 0.28669108E-01 0.35632173E+02</pdfrwt>
<totfact> 0.22676289E+03</totfact>
</mgrwt>
</event>
<event>
 7    1  0.6493044E-004  0.6647041E+02  0.7546771E-02  0.1491101E+00
          1   -1    0    0  502    0 -0.00000000000E+00  0.00000000000E+00  0.69329294471E+03  0.69329294471E+03  0.00000000000E+00 0. -1.
          2   -1    0    0  503    0  0.00000000000E+00 -0.00000000000E+00 -0.71989954965E+03  0.71989954965E+03  0.00000000000E+00 0. -1.
         25    2    1    2    0    0  0.70075285605E+02 -0.18516242339E+02  0.39567831196E+02  0.14981585542E+03  0.12500312151E+03 0.  0.
          4    1    3    3  501    0  0.84705523518E+02 -0.24905515322E+02  0.71810956866E+02  0.11381448429E+03  0.12700000000E+01 0.  1.
         -4    1    3    3    0  501 -0.14630237913E+02  0.63892729831E+01 -0.32243125670E+02  0.36001371135E+02  0.12700000000E+01 0.  1.
          2    1    1    2  502    0 -0.41330713174E+01  0.26758128905E+02  0.59663249272E+03  0.59724652457E+03  0.00000000000E+00 0. -1.
          1    1    1    2  503    0 -0.65942214287E+02 -0.82418865655E+01 -0.66280692886E+03  0.66613011436E+03  0.00000000000E+00 0. -1.
<mgrwt>
<rscale>  0 0.42423061E+02</rscale>
<asrwt>0</asrwt>
<pdfrwt beam="2">  1        2 0.11075378E+00 0.66470414E+02</pdfrwt>
<pdfrwt beam="1">  1        1 0.10666045E+00 0.27075445E+02</pdfrwt>
<totfact> 0.18254592E+02</totfact>
</mgrwt>
</event>
<event>
 7    1  0.6493044E-004  0.4585012E+02  0.7546771E-02  0.1477461E+00
         -2   -1    0    0    0  501 -0.00000000000E+00  0.00000000000E+00  0.80148270218E+03  0.80148270218E+03  0.00000000000E+00 0.  1.
          2   -1    0    0  503    0  0.00000000000E+00 -0.00000000000E+00 -0.72588790130E+03  0.72588790130E+03  0.00000000000E+00 0. -1.
         25    2    1    2    0    0  0.74068934515E+02 -0.43284340886E+02 -0.97102541318E+02  0.18003511938E+03  0.12499599774E+03 0.  0.
          4    1    3    3  502    0  0.89958107355E+02 -0.56951872436E+02 -0.31329074208E+02  0.11099144401E+03  0.12700000000E+01 0.  1.
         -4    1    3    3    0  502 -0.15889172841E+02  0.13667531550E+02 -0.65773467110E+02  0.69043675365E+02  0.12700000000E+01 0.  1.
          1    1    1    2  503    0 -0.32631718192E+02  0.31077939815E+02 -0.58583927059E+03  0.58756984125E+03  0.00000000000E+00 0. -1.
         -1    1    1    2    0  501 -0.41437216322E+02  0.12206401071E+02  0.75853661279E+03  0.75976564286E+03  0.00000000000E+00 0.  1.
<mgrwt>
<rscale>  0 0.44504143E+02</rscale>
<asrwt>0</asrwt>
<pdfrwt beam="2">  1        2 0.11167506E+00 0.45850123E+02</pdfrwt>
<pdfrwt beam="1">  1       -2 0.12330503E+00 0.43197675E+02</pdfrwt>
<totfact> 0.23949145E+01</totfact>
</mgrwt>
</event>
<event>
 7    1  0.6493044E-004  0.1112895E+03  0.7546771E-02  0.1427781E+00
          1   -1    0    0  503    0  0.00000000000E+00  0.00000000000E+00  0.29581837696E+03  0.29581837696E+03  0.00000000000E+00 0. -1.
         -1   -1    0    0    0  501 -0.00000000000E+00 -0.00000000000E+00 -0.31299557294E+03  0.31299557294E+03  0.00000000000E+00 0.  1.
         25    2    1    2    0    0  0.97349037226E+02 -0.51772731961E+00 -0.11073268664E+03  0.19329777629E+03  0.12500079735E+03 0.  0.
          4    1    3    3  502    0  0.72837675958E+02 -0.12829998356E+02  0.52048451500E+01  0.74152809858E+02  0.12700000000E+01 0.  1.
         -4    1    3    3    0  502  0.24511361268E+02  0.12312271036E+02 -0.11593753179E+03  0.11914496643E+03  0.12700000000E+01 0.  1.
          2    1    1    2  503    0 -0.11027948287E+03  0.22647623588E+02  0.24092677055E+03  0.26593267562E+03  0.00000000000E+00 0. -1.
         -2    1    1    2    0  501  0.12930445643E+02 -0.22129896268E+02 -0.14737127989E+03  0.14958349799E+03  0.00000000000E+00 0.  1.
<mgrwt>
<rscale>  0 0.53408046E+02</rscale>
<asrwt>0</asrwt>
<pdfrwt beam="1">  1        1 0.45510520E-01 0.11128952E+03</pdfrwt>
<pdfrwt beam="2">  1       -1 0.48153165E-01 0.25630621E+02</pdfrwt>
<totfact> 0.39795213E+02</totfact>
</mgrwt>
</event>
<event>
 7    1  0.6493044E-004  0.2029470E+03  0.7546771E-02  0.1173633E+00
          1   -1    0    0  502    0 -0.00000000000E+00  0.00000000000E+00  0.45720724854E+03  0.45720724854E+03  0.00000000000E+00 0. -1.
          2   -1    0    0  503    0  0.00000000000E+00 -0.00000000000E+00 -0.14458565259E+04  0.14458565259E+04  0.00000000000E+00 0. -1.
         25    2    1    2    0    0  0.80223007077E+02 -0.84664117179E+02 -0.15257326976E+03  0.22914444789E+03  0.12499932700E+03 0.  0.
          4    1    3    3  501    0  0.10938457457E+03 -0.51393403910E+02 -0.82756345551E+02  0.14648034936E+03  0.12700000000E+01 0. -1.
         -4    1    3    3    0  501 -0.29161567490E+02 -0.33270713269E+02 -0.69816924210E+02  0.82664098532E+02  0.12700000000E+01 0. -1.
          2    1    1    2  502    0  0.14594195917E+03  0.31785683481E+02  0.39438889594E+03  0.42172501273E+03  0.00000000000E+00 0. -1.
          1    1    1    2  503    0 -0.22616496625E+03  0.52878433698E+02 -0.12304649035E+04  0.12521943138E+04  0.00000000000E+00 0. -1.
<mgrwt>
<rscale>  0 0.17410579E+03</rscale>
<asrwt>0</asrwt>
<pdfrwt beam="2">  1        2 0.22243947E+00 0.20294700E+03</pdfrwt>
<pdfrwt beam="1">  1        1 0.70339577E-01 0.14936327E+03</pdfrwt>
<totfact> 0.10534192E+02</totfact>
</mgrwt>
</event>
<event>
 7    1  0.6493044E-004  0.9139904E+02  0.7546771E-02  0.1437145E+00
          2   -1    0    0  503    0  0.00000000000E+00  0.00000000000E+00  0.14614481964E+04  0.14614481964E+04  0.00000000000E+00 0. -1.
          1   -1    0    0  502    0 -0.00000000000E+00 -0.00000000000E+00 -0.24524198599E+03  0.24524198599E+03  0.00000000000E+00 0. -1.
         25    2    1    2    0    0  0.49886300932E+02 -0.72833507881E+02 -0.28791641908E+02  0.15571968115E+03  0.12500519014E+03 0.  0.
          4    1    3    3  501    0 -0.19768548508E+02 -0.71666835087E+01 -0.52945913713E+02  0.56982800401E+02  0.12700000000E+01 0. -1.
         -4    1    3    3    0  501  0.69654849440E+02 -0.65666824373E+02  0.24154271805E+02  0.98736880749E+02  0.12700000000E+01 0. -1.
          2    1    1    2  502    0 -0.24798123164E+02 -0.15183524639E+02 -0.15009156992E+03  0.15288219548E+03  0.00000000000E+00 0. -1.
          1    1    1    2  503    0 -0.25088177767E+02  0.88017032520E+02  0.13950894223E+04  0.13980883058E+04  0.00000000000E+00 0. -1.
<mgrwt>
<rscale>  0 0.51552230E+02</rscale>
<asrwt>0</asrwt>
<pdfrwt beam="1">  1        2 0.22483818E+00 0.91399038E+02</pdfrwt>
<pdfrwt beam="2">  1        1 0.37729537E-01 0.29077248E+02</pdfrwt>
<totfact> 0.23499134E+02</totfact>
</mgrwt>
</event>
<event>
 7    1  0.6493044E-004  0.6426721E+02  0.7546771E-02  0.1408574E+00
          2   -1    0    0  503    0  0.00000000000E+00  0.00000000000E+00  0.11678220242E+04  0.11678220242E+04  0.00000000000E+00 0. -1.
         -2   -1    0    0    0  501 -0.00000000000E+00 -0.00000000000E+00 -0.25223256640E+03  0.25223256640E+03  0.00000000000E+00 0.  1.
         25    2    1    2    0    0  0.67656989841E+02  0.26373600119E+02  0.60978288533E+03  0.62668501259E+03  0.12500361078E+03 0.  0.
          4    1    3    3  502    0 -0.19932808217E+02 -0.25256565526E+02  0.65514934532E+02  0.73000208851E+02  0.12700000000E+01 0. -1.
         -4    1    3    3    0  502  0.87589798058E+02  0.51630165645E+02  0.54426795080E+03  0.55368480374E+03  0.12700000000E+01 0. -1.
          1    1    1    2  503    0 -0.40384723549E+02  0.31908208987E+02  0.54410620079E+03  0.54653510174E+03  0.00000000000E+00 0. -1.
         -1    1    1    2    0  501 -0.27272266292E+02 -0.58281809106E+02 -0.23829962836E+03  0.24683447623E+03  0.00000000000E+00 0.  1.
<mgrwt>
<rscale>  0 0.57513215E+02</rscale>
<asrwt>0</asrwt>
<pdfrwt beam="1">  1        2 0.17966492E+00 0.51469017E+02</pdfrwt>
<pdfrwt beam="2">  1       -2 0.38805011E-01 0.64267206E+02</pdfrwt>
<totfact> 0.14547398E+02</totfact>
</mgrwt>
</event>
<event>
 7    1  0.6493044E-004  0.4942783E+02  0.7546771E-02  0.1517073E+00
         -2   -1    0    0    0  501 -0.00000000000E+00  0.00000000000E+00  0.45609788438E+01  0.45609788438E+01  0.00000000000E+00 0.  1.
          2   -1    0    0  503    0  0.00000000000E+00 -0.00000000000E+00 -0.31752370921E+04  0.31752370921E+04  0.00000000000E+00 0. -1.
         25    2    1    2    0    0 -0.47957825013E+01  0.19213987835E+02 -0.23082064067E+04  0.23116734976E+04  0.12500146751E+03 0.  0.
          4    1    3    3  502    0 -0.46694833865E+02  0.50434171528E+02 -0.96210675537E+03  0.96455950298E+03  0.12700000000E+01 0.  1.
         -4    1    3    3    0  502  0.41899051364E+02 -0.31220183692E+02 -0.13460996513E+04  0.13471139947E+04  0.12700000000E+01 0.  1.
          1    1    1    2  503    0 -0.44580163881E+02 -0.21478153650E+02 -0.43863478591E+03  0.44141723743E+03  0.00000000000E+00 0. -1.
         -1    1    1    2    0  501  0.49375946383E+02  0.22641658143E+01 -0.42383492067E+03  0.42670733590E+03  0.00000000000E+00 0.  1.
<mgrwt>
<rscale>  0 0.38820784E+02</rscale>
<asrwt>0</asrwt>
<pdfrwt beam="2">  1        2 0.48849735E+00 0.30489973E+02</pdfrwt>
<pdfrwt beam="1">  1       -2 0.70169000E-03 0.49427832E+02</pdfrwt>
<totfact> 0.64053291E+03</totfact>
</mgrwt>
</event>
<event>
 7    1  0.6493044E-004  0.8662473E+02  0.7546771E-02  0.1366890E+00
          1   -1    0    0  502    0 -0.00000000000E+00  0.00000000000E+00  0.15062945472E+03  0.15062945472E+03  0.00000000000E+00 0. -1.
          2   -1    0    0  503    0  0.00000000000E+00 -0.00000000000E+00 -0.14298940583E+04  0.14298940583E+04  0.00000000000E+00 0. -1.
         25    2    1    2    0    0 -0.68011952561E+02  0.85215530322E+02 -0.53683454838E+03  0.56187521251E+03  0.12500043918E+03 0.  0.
          4    1    3    3  501    0  0.16150292878E+02  0.53732640718E+02 -0.89780974780E+02  0.10587853877E+03  0.12700000000E+01 0. -1.
         -4    1    3    3    0  501 -0.84162245439E+02  0.31482889605E+02 -0.44705357360E+03  0.45599667374E+03  0.12700000000E+01 0. -1.
          2    1    1    2  502    0  0.79807608318E+02 -0.33092125512E+02  0.12369281313E+03  0.15087827921E+03  0.00000000000E+00 0. -1.
          1    1    1    2  503    0 -0.11795655756E+02 -0.52123404810E+02 -0.86612286833E+03  0.86777002130E+03  0.00000000000E+00 0. -1.
<mgrwt>
<rscale>  0 0.68039325E+02</rscale>
<asrwt>0</asrwt>
<pdfrwt beam="2">  1        2 0.21998371E+00 0.53441434E+02</pdfrwt>
<pdfrwt beam="1">  1        1 0.23173761E-01 0.86624731E+02</pdfrwt>
<totfact> 0.47068578E+02</totfact>
</mgrwt>
</event>
<event>
 7    1  0.6493044E-004  0.6641492E+02  0.7546771E-02  0.1471128E+00
          2   -1    0    0  503    0  0.00000000000E+00  0.00000000000E+00  0.15934433051E+03  0.15934433051E+03  0.00000000000E+00 0. -1.
          1   -1    0    0  502    0 -0.00000000000E+00 -0.00000000000E+00 -0.43260753717E+03  0.43260753717E+03  0.00000000000E+00 0. -1.
         25    2    1    2    0    0 -0.64227324517E+02  0.60639406528E+02 -0.14501503062E+03  0.21084657511E+03  0.12499852915E+03 0.  0.
          4    1    3    3  501    0 -0.23967825822E+02  0.33687335921E+02  0.14732979639E+02  0.43908619485E+02  0.12700000000E+01 0.  1.
         -4    1    3    3    0  501 -0.40259498695E+02  0.26952070608E+02 -0.15974801026E+03  0.16693795562E+03  0.12700000000E+01 0.  1.
          2    1    1    2  502    0  0.56320070612E+02 -0.30460727534E+02 -0.24863219449E+03  0.25674457037E+03  0.00000000000E+00 0. -1.
          1    1    1    2  503    0  0.79072539047E+01 -0.30178678994E+02  0.12038401845E+03  0.12436072220E+03  0.00000000000E+00 0. -1.
<mgrwt>
<rscale>  0 0.45518922E+02</rscale>
<asrwt>0</asrwt>
<pdfrwt beam="1">  1        2 0.24514513E-01 0.31197393E+02</pdfrwt>
<pdfrwt beam="2">  1        1 0.66555005E-01 0.66414918E+02</pdfrwt>
<totfact> 0.15602111E+03</totfact>
</mgrwt>
</event>
<event>
 7    1  0.6493044E-004  0.7828093E+02  0.7546771E-02  0.1402400E+00
          2   -1    0    0  503    0  0.00000000000E+00  0.00000000000E+00  0.12116919845E+04  0.12116919845E+04  0.00000000000E+00 0. -1.
          1   -1    0    0  502    0 -0.00000000000E+00 -0.00000000000E+00 -0.26800562611E+02  0.26800562611E+02  0.00000000000E+00 0. -1.
         25    2    1    2    0    0  0.41136237270E+02  0.17190038109E+02  0.40962294876E+03  0.43058304247E+03  0.12499243529E+03 0.  0.
          4    1    3    3  501    0  0.19884960090E+02  0.66248698179E+02  0.14561447095E+03  0.16121255751E+03  0.12700000000E+01 0. -1.
         -4    1    3    3    0  501  0.21251277180E+02 -0.49058660070E+02  0.26400847782E+03  0.26937048496E+03  0.12700000000E+01 0. -1.
          2    1    1    2  502    0  0.44232217387E+02 -0.32970263974E+01  0.21672823582E+02  0.49366696467E+02  0.00000000000E+00 0. -1.
          1    1    1    2  503    0 -0.85368454658E+02 -0.13893011712E+02  0.75359564958E+03  0.75854280822E+03  0.00000000000E+00 0. -1.
<mgrwt>
<rscale>  0 0.58924908E+02</rscale>
<asrwt>0</asrwt>
<pdfrwt beam="1">  1        2 0.18641411E+00 0.78280929E+02</pdfrwt>
<pdfrwt beam="2">  1        1 0.41231644E-02 0.44354926E+02</pdfrwt>
<totfact> 0.52508337E+03</totfact>
</mgrwt>
</event>
<event>
 7    1  0.6493044E-004  0.2615902E+02  0.7546771E-02  0.1671134E+00
          1   -1    0    0  502    0 -0.00000000000E+00  0.00000000000E+00  0.13080618186E+03  0.13080618186E+03  0.00000000000E+00 0. -1.
          2   -1    0    0  503    0  0.00000000000E+00 -0.00000000000E+00 -0.87264667235E+03  0.87264667235E+03  0.00000000000E+00 0. -1.
         25    2    1    2    0    0 -0.23402009862E+02  0.10542911117E+02 -0.35112264301E+03  0.37359161672E+03  0.12499911444E+03 0.  0.
          4    1    3    3  501    0 -0.38340845190E+02  0.25459557887E+02 -0.37840352613E+02  0.59596264007E+02  0.12700000000E+01 0. -1.
         -4    1    3    3    0  501  0.14938835328E+02 -0.14916646770E+02 -0.31328229040E+03  0.31399535272E+03  0.12700000000E+01 0. -1.
          2    1    1    2  502    0  0.23265994694E+02  0.12045994353E+02  0.11788283082E+03  0.12075915821E+03  0.00000000000E+00 0. -1.
          1    1    1    2  503    0  0.13601516805E+00 -0.22588905470E+02 -0.50860067831E+03  0.50910207928E+03  0.00000000000E+00 0. -1.
<mgrwt>
<rscale>  0 0.24308728E+02</rscale>
<asrwt>0</asrwt>
<pdfrwt beam="2">  1        2 0.13425333E+00 0.22589315E+02</pdfrwt>
<pdfrwt beam="1">  1        1 0.20124028E-01 0.26159016E+02</pdfrwt>
<totfact> 0.11099226E+03</totfact>
</mgrwt>
</event>
<event>
 7    1  0.6493044E-004  0.7143735E+02  0.7546771E-02  0.1362650E+00
          1   -1    0    0  502    0 -0.00000000000E+00  0.00000000000E+00  0.47108710901E+03  0.47108710901E+03  0.00000000000E+00 0. -1.
          2   -1    0    0  503    0  0.00000000000E+00 -0.00000000000E+00 -0.35792907017E+04  0.35792907017E+04  0.00000000000E+00 0. -1.
         25    2    1    2    0    0  0.98631348425E+02 -0.69825357147E+02 -0.35568666638E+03  0.39591020788E+03  0.12501265803E+03 0.  0.
          4    1    3    3  501    0  0.12648742766E+03 -0.64365075459E+02 -0.26152667123E+03  0.29755628872E+03  0.12700000000E+01 0. -1.
         -4    1    3    3    0  501 -0.27856079233E+02 -0.54602816884E+01 -0.94159995153E+02  0.98353919157E+02  0.12700000000E+01 0. -1.
          2    1    1    2  502    0 -0.66806800397E+02  0.66447891365E+01  0.44808366766E+03  0.45308528449E+03  0.00000000000E+00 0. -1.
          1    1    1    2  503    0 -0.31824548029E+02  0.63180568011E+02 -0.32006005939E+04  0.32013823183E+04  0.00000000000E+00 0. -1.
<mgrwt>
<rscale>  0 0.69253516E+02</rscale>
<asrwt>0</asrwt>
<pdfrwt beam="2">  1        2 0.55066011E+00 0.71437349E+02</pdfrwt>
<pdfrwt beam="1">  1        1 0.72474940E-01 0.67136442E+02</pdfrwt>
<totfact> 0.79467222E+00</totfact>
</mgrwt>
</event>
<event>
 7    1  0.6493044E-004  0.5701161E+02  0.7546771E-02  0.1472341E+00
          2   -1    0    0  503    0  0.00000000000E+00  0.00000000000E+00  0.12721186096E+04  0.12721186096E+04  0.00000000000E+00 0. -1.
          1   -1    0    0  502    0 -0.00000000000E+00 -0.00000000000E+00 -0.84481280063E+02  0.84481280063E+02  0.00000000000E+00 0. -1.
         25    2    1    2    0    0 -0.55270451330E+02 -0.22406546470E+02  0.16630495979E+01  0.13850366443E+03  0.12499449273E+03 0.  0.
          4    1    3    3  501    0 -0.39989271552E+02  0.49169014891E+02 -0.10640346682E+02  0.64277241245E+02  0.12700000000E+01 0. -1.
         -4    1    3    3    0  501 -0.15281179778E+02 -0.71575561360E+02  0.12303396280E+02  0.74226423189E+02  0.12700000000E+01 0. -1.
          2    1    1    2  502    0  0.32457646397E+02  0.50293608027E+02  0.40995036270E+02  0.72550250287E+02  0.00000000000E+00 0. -1.
          1    1    1    2  503    0  0.22812804933E+02 -0.27887061557E+02  0.11449792437E+04  0.11455459750E+04  0.00000000000E+00 0. -1.
<mgrwt>
<rscale>  0 0.45322068E+02</rscale>
<asrwt>0</asrwt>
<pdfrwt beam="1">  1        2 0.19571054E+00 0.36029325E+02</pdfrwt>
<pdfrwt beam="2">  1        1 0.12997121E-01 0.57011609E+02</pdfrwt>
<totfact> 0.11828068E+03</totfact>
</mgrwt>
</event>
<event>
 7    1  0.6493044E-004  0.5311078E+02  0.7546771E-02  0.1448084E+00
          2   -1    0    0  503    0  0.00000000000E+00  0.00000000000E+00  0.19232587937E+04  0.19232587937E+04  0.00000000000E+00 0. -1.
         -2   -1    0    0    0  501 -0.00000000000E+00 -0.00000000000E+00 -0.10604234335E+03  0.10604234335E+03  0.00000000000E+00 0.  1.
         25    2    1    2    0    0 -0.58195811728E+01  0.93689756260E+02  0.72411248264E+03  0.74079272709E+03  0.12499335595E+03 0.  0.
          4    1    3    3  502    0  0.41771857439E+02  0.23325352651E+02  0.47878871057E+03  0.48117481482E+03  0.12700000000E+01 0. -1.
         -4    1    3    3    0  502 -0.47591438612E+02  0.70364403609E+02  0.24532377208E+03  0.25961791227E+03  0.12700000000E+01 0. -1.
          1    1    1    2  503    0 -0.12772188915E+02 -0.44322072134E+02  0.11832032480E+04  0.11841019808E+04  0.00000000000E+00 0. -1.
         -1    1    1    2    0  501  0.18591770087E+02 -0.49367684125E+02 -0.90099280256E+02  0.10440642918E+03  0.00000000000E+00 0.  1.
<mgrwt>
<rscale>  0 0.49495138E+02</rscale>
<asrwt>0</asrwt>
<pdfrwt beam="1">  1        2 0.29588594E+00 0.46125642E+02</pdfrwt>
<pdfrwt beam="2">  1       -2 0.16314208E-01 0.53110776E+02</pdfrwt>
<totfact> 0.27244811E+02</totfact>
</mgrwt>
</event>
<event>
 7    1  0.6493044E-004  0.5701217E+02  0.7546771E-02  0.1424702E+00
          1   -1    0    0  502    0 -0.00000000000E+00  0.00000000000E+00  0.64381091508E+02  0.64381091508E+02  0.00000000000E+00 0. -1.
          2   -1    0    0  503    0  0.00000000000E+00 -0.00000000000E+00 -0.32814950276E+04  0.32814950276E+04  0.00000000000E+00 0. -1.
         25    2    1    2    0    0  0.50230125724E+02 -0.54341298069E+02 -0.22219130290E+03  0.26545924255E+03  0.12499436853E+03 0.  0.
          4    1    3    3  501    0  0.15216182704E+02 -0.66027096970E+02 -0.38193679243E+02  0.77791257764E+02  0.12700000000E+01 0.  1.
         -4    1    3    3    0  501  0.35013943021E+02  0.11685798901E+02 -0.18399762366E+03  0.18766798478E+03  0.12700000000E+01 0.  1.
          2    1    1    2  502    0 -0.51148179981E+02 -0.27033646372E+01  0.27037806681E+02  0.57917937514E+02  0.00000000000E+00 0. -1.
          1    1    1    2  503    0  0.91805425682E+00  0.57044662706E+02 -0.30219604399E+04  0.30224989391E+04  0.00000000000E+00 0. -1.
<mgrwt>
<rscale>  0 0.54038307E+02</rscale>
<asrwt>0</asrwt>
<pdfrwt beam="2">  1        2 0.50484535E+00 0.57012165E+02</pdfrwt>
<pdfrwt beam="1">  1        1 0.99047842E-02 0.51219571E+02</pdfrwt>
<totfact> 0.14634573E+02</totfact>
</mgrwt>
</event>
<event>
 7    1  0.6493044E-004  0.6208188E+02  0.7546771E-02  0.1423855E+00
         -2   -1    0    0    0  501 -0.00000000000E+00  0.00000000000E+00  0.58199509739E+03  0.58199509739E+03  0.00000000000E+00 0.  1.
          2   -1    0    0  503    0  0.00000000000E+00 -0.00000000000E+00 -0.14935861298E+03  0.14935861298E+03  0.00000000000E+00 0. -1.
         25    2    1    2    0    0 -0.61424336890E+01  0.15251613625E+02  0.62220308771E+01  0.12623266490E+03  0.12500252322E+03 0.  0.
          4    1    3    3  502    0 -0.45795093199E+02  0.62703741634E+01  0.48882483511E+02  0.67287578701E+02  0.12700000000E+01 0. -1.
         -4    1    3    3    0  502  0.39652659510E+02  0.89812394618E+01 -0.42660452634E+02  0.58945086203E+02  0.12700000000E+01 0. -1.
          1    1    1    2  503    0 -0.25089283018E+02  0.40147603815E+02 -0.80954806245E+02  0.93781569984E+02  0.00000000000E+00 0. -1.
         -1    1    1    2    0  501  0.31231716707E+02 -0.55399217440E+02  0.50736925977E+03  0.51133947548E+03  0.00000000000E+00 0.  1.
<mgrwt>
<rscale>  0 0.54213512E+02</rscale>
<asrwt>0</asrwt>
<pdfrwt beam="2">  1        2 0.22978248E-01 0.47342393E+02</pdfrwt>
<pdfrwt beam="1">  1       -2 0.89537706E-01 0.62081881E+02</pdfrwt>
<totfact> 0.25799006E+02</totfact>
</mgrwt>
</event>
<event>
 7    1  0.6493044E-004  0.1244625E+03  0.7546771E-02  0.1287322E+00
          2   -1    0    0  503    0  0.00000000000E+00  0.00000000000E+00  0.46277460077E+03  0.46277460077E+03  0.00000000000E+00 0. -1.
          1   -1    0    0  502    0 -0.00000000000E+00 -0.00000000000E+00 -0.31824107864E+03  0.31824107864E+03  0.00000000000E+00 0. -1.
         25    2    1    2    0    0 -0.59898128074E+02 -0.31238434828E+02 -0.35871659981E+02  0.14654174206E+03  0.12499632242E+03 0.  0.
          4    1    3    3  501    0 -0.87481268618E+02  0.91821371111E+01 -0.38665879017E+01  0.88055933377E+02  0.12700000000E+01 0.  1.
         -4    1    3    3    0  501  0.27583140544E+02 -0.40420571939E+02 -0.32005072080E+02  0.58485808680E+02  0.12700000000E+01 0.  1.
          2    1    1    2  502    0 -0.22479747903E+02 -0.71740730713E+02 -0.20965359821E+03  0.22272562213E+03  0.00000000000E+00 0. -1.
          1    1    1    2  503    0  0.82377875976E+02  0.10297916554E+03  0.39005878032E+03  0.41174831523E+03  0.00000000000E+00 0. -1.
<mgrwt>
<rscale>  0 0.96732206E+02</rscale>
<asrwt>0</asrwt>
<pdfrwt beam="1">  1        2 0.71196092E-01 0.12446245E+03</pdfrwt>
<pdfrwt beam="2">  1        1 0.48960166E-01 0.75180260E+02</pdfrwt>
<totfact> 0.76177495E+02</totfact>
</mgrwt>
</event>
<event>
 7    1  0.6493044E-004  0.6825737E+02  0.7546771E-02  0.1469724E+00
          2   -1    0    0  503    0  0.00000000000E+00  0.00000000000E+00  0.69211757136E+03  0.69211757136E+03  0.00000000000E+00 0. -1.
          1   -1    0    0  502    0 -0.00000000000E+00 -0.00000000000E+00 -0.42464847257E+02  0.42464847257E+02  0.00000000000E+00 0. -1.
         25    2    1    2    0    0 -0.71005897550E+01  0.42308146135E+02  0.12470293249E+03  0.18171066775E+03  0.12501019078E+03 0.  0.
          4    1    3    3  501    0  0.62132163971E+01  0.39010826083E+01 -0.25258188213E+02  0.26332707330E+02  0.12700000000E+01 0. -1.
         -4    1    3    3    0  501 -0.13313806152E+02  0.38407063527E+02  0.14996112070E+03  0.15537796042E+03  0.12700000000E+01 0. -1.
          2    1    1    2  502    0  0.12563787102E+02  0.27969695471E+02  0.87565156161E+01  0.31887759044E+02  0.00000000000E+00 0. -1.
          1    1    1    2  503    0 -0.54631973471E+01 -0.70277841606E+02  0.51619327600E+03  0.52098399182E+03  0.00000000000E+00 0. -1.
<mgrwt>
<rscale>  0 0.45748238E+02</rscale>
<asrwt>0</asrwt>
<pdfrwt beam="1">  1        2 0.10647962E+00 0.68257372E+02</pdfrwt>
<pdfrwt beam="2">  1        1 0.65330539E-02 0.30661908E+02</pdfrwt>
<totfact> 0.57257955E+03</totfact>
</mgrwt>
</event>
<event>
 7    1  0.6493044E-004  0.3850033E+02  0.7546771E-02  0.1559511E+00
         -2   -1    0    0    0  501  0.00000000000E+00  0.00000000000E+00  0.69146467867E+03  0.69146467867E+03  0.00000000000E+00 0.  1.
         -1   -1    0    0    0  502 -0.00000000000E+00 -0.00000000000E+00 -0.11147307566E+04  0.11147307566E+04  0.00000000000E+00 0.  1.
         25    2    1    2    0    0  0.50770692432E+01 -0.73333051586E+01 -0.66474802636E+03  0.67645772996E+03  0.12500227145E+03 0.  0.
          4    1    3    3  503    0  0.44734703918E+02  0.67908298165E+01 -0.58056476529E+03  0.58232668554E+03  0.12700000000E+01 0.  1.
         -4    1    3    3    0  503 -0.39657634675E+02 -0.14124134975E+02 -0.84183261074E+02  0.94131044411E+02  0.12700000000E+01 0.  1.
         -2    1    1    2    0  502  0.13224691714E+02 -0.26566023221E+02 -0.44308999723E+03  0.44408264063E+03  0.00000000000E+00 0.  1.
         -1    1    1    2    0  501 -0.18301760957E+02  0.33899328380E+02  0.68457194567E+03  0.68565506467E+03  0.00000000000E+00 0.  1.
<mgrwt>
<rscale>  0 0.33801236E+02</rscale>
<asrwt>0</asrwt>
<pdfrwt beam="1">  1       -2 0.10637918E+00 0.38500331E+02</pdfrwt>
<pdfrwt beam="2">  1       -1 0.17149704E+00 0.29675681E+02</pdfrwt>
<totfact> 0.18349870E+00</totfact>
</mgrwt>
</event>
<event>
 7    1  0.6493044E-004  0.1994075E+03  0.7546771E-02  0.1300221E+00
          2   -1    0    0  503    0  0.00000000000E+00  0.00000000000E+00  0.83026490896E+03  0.83026490896E+03  0.00000000000E+00 0. -1.
          1   -1    0    0  502    0 -0.00000000000E+00 -0.00000000000E+00 -0.45002068711E+03  0.45002068711E+03  0.00000000000E+00 0. -1.
         25    2    1    2    0    0 -0.19957205236E+03 -0.10942847502E+03 -0.81660223904E+02  0.27220260034E+03  0.12498907247E+03 0.  0.
          4    1    3    3  501    0 -0.18499852056E+03 -0.60114510727E+02 -0.25735803830E+02  0.19621965118E+03  0.12700000000E+01 0. -1.
         -4    1    3    3    0  501 -0.14573531799E+02 -0.49313964293E+02 -0.55924420074E+02  0.75982949167E+02  0.12700000000E+01 0. -1.
          2    1    1    2  502    0  0.17350545674E+03  0.76988866856E+02 -0.23941278505E+03  0.30553217635E+03  0.00000000000E+00 0. -1.
          1    1    1    2  503    0  0.26066595621E+02  0.32439608164E+02  0.70131723081E+03  0.70255081938E+03  0.00000000000E+00 0. -1.
<mgrwt>
<rscale>  0 0.91095069E+02</rscale>
<asrwt>0</asrwt>
<pdfrwt beam="1">  1        2 0.12773306E+00 0.41614848E+02</pdfrwt>
<pdfrwt beam="2">  1        1 0.69233952E-01 0.19940747E+03</pdfrwt>
<totfact> 0.26030401E+02</totfact>
</mgrwt>
</event>
<event>
 7    1  0.6493044E-004  0.1576661E+03  0.7546771E-02  0.1193921E+00
          2   -1    0    0  503    0  0.00000000000E+00  0.00000000000E+00  0.17233984263E+04  0.17233984263E+04  0.00000000000E+00 0. -1.
          1   -1    0    0  502    0 -0.00000000000E+00 -0.00000000000E+00 -0.25746029129E+04  0.25746029129E+04  0.00000000000E+00 0. -1.
         25    2    1    2    0    0  0.16218704740E+03  0.93030185139E+02 -0.23890833171E+03  0.32811842176E+03  0.12500101620E+03 0.  0.
          4    1    3    3  501    0  0.39194480664E+02 -0.14781433194E+02 -0.11654716043E+03  0.12385294339E+03  0.12700000000E+01 0. -1.
         -4    1    3    3    0  501  0.12299256673E+03  0.10781161833E+03 -0.12236117128E+03  0.20426547838E+03  0.12700000000E+01 0. -1.
          2    1    1    2  502    0 -0.23496259148E+02 -0.15830363014E+03 -0.22847857529E+04  0.22903838216E+04  0.00000000000E+00 0. -1.
          1    1    1    2  503    0 -0.13869078825E+03  0.65273444997E+02  0.16724895980E+04  0.16794990958E+04  0.00000000000E+00 0. -1.
<mgrwt>
<rscale>  0 0.15545925E+03</rscale>
<asrwt>0</asrwt>
<pdfrwt beam="1">  1        2 0.26513822E+00 0.15328326E+03</pdfrwt>
<pdfrwt beam="2">  1        1 0.39609275E+00 0.15766613E+03</pdfrwt>
<totfact> 0.22979278E+00</totfact>
</mgrwt>
</event>
<event>
 7    1  0.6493044E-004  0.1582386E+03  0.7546771E-02  0.1269522E+00
          1   -1    0    0  502    0 -0.00000000000E+00  0.00000000000E+00  0.65302733484E+03  0.65302733484E+03  0.00000000000E+00 0. -1.
          2   -1    0    0  503    0  0.00000000000E+00 -0.00000000000E+00 -0.78433705091E+03  0.78433705091E+03  0.00000000000E+00 0. -1.
         25    2    1    2    0    0  0.82902349857E+02  0.66622582929E+02 -0.12333841802E+03  0.20530136723E+03  0.12499967143E+03 0.  0.
          4    1    3    3  501    0  0.23453590275E+01 -0.17649641202E+01  0.23872706784E+02  0.24085988386E+02  0.12700000000E+01 0.  1.
         -4    1    3    3    0  501  0.80556990829E+02  0.68387547049E+02 -0.14721112481E+03  0.18121537885E+03  0.12700000000E+01 0.  1.
          2    1    1    2  502    0  0.66151857368E+02  0.23124302502E+02  0.59775260315E+03  0.60184630610E+03  0.00000000000E+00 0. -1.
          1    1    1    2  503    0 -0.14905420722E+03 -0.89746885431E+02 -0.60572390119E+03  0.63021671242E+03  0.00000000000E+00 0. -1.
<mgrwt>
<rscale>  0 0.10530388E+03</rscale>
<asrwt>0</asrwt>
<pdfrwt beam="2">  1        2 0.12066724E+00 0.15823864E+03</pdfrwt>
<pdfrwt beam="1">  1        1 0.10046574E+00 0.70077112E+02</pdfrwt>
<totfact> 0.16683095E+02</totfact>
</mgrwt>
</event>
<event>
 7    1  0.6493044E-004  0.1055018E+03  0.7546771E-02  0.1450639E+00
         -2   -1    0    0    0  501 -0.00000000000E+00  0.00000000000E+00  0.17754400711E+03  0.17754400711E+03  0.00000000000E+00 0.  1.
          2   -1    0    0  503    0  0.00000000000E+00 -0.00000000000E+00 -0.44177073472E+03  0.44177073472E+03  0.00000000000E+00 0. -1.
         25    2    1    2    0    0  0.11902755451E+03  0.40176270715E+02 -0.54999105716E+02  0.18556289379E+03  0.12500797758E+03 0.  0.
          4    1    3    3  502    0  0.14499516220E+02  0.41487099459E+02  0.27959080466E+02  0.52103152233E+02  0.12700000000E+01 0. -1.
         -4    1    3    3    0  502  0.10452803829E+03 -0.13108287439E+01 -0.82958186183E+02  0.13345974155E+03  0.12700000000E+01 0. -1.
          1    1    1    2  503    0 -0.96863704304E+02 -0.34884510068E+02 -0.31196679245E+03  0.32851603591E+03  0.00000000000E+00 0. -1.
         -1    1    1    2    0  501 -0.22163850207E+02 -0.52917606469E+01  0.10273917057E+03  0.10523581214E+03  0.00000000000E+00 0.  1.
<mgrwt>
<rscale>  0 0.49031111E+02</rscale>
<asrwt>0</asrwt>
<pdfrwt beam="2">  1        2 0.67964728E-01 0.10550179E+03</pdfrwt>
<pdfrwt beam="1">  1       -2 0.27314463E-01 0.22786816E+02</pdfrwt>
<totfact> 0.81513600E+02</totfact>
</mgrwt>
</event>
<event>
 7    1  0.6493044E-004  0.4623509E+02  0.7546771E-02  0.1482560E+00
          1   -1    0    0  502    0 -0.00000000000E+00  0.00000000000E+00  0.75461861903E+02  0.75461861903E+02  0.00000000000E+00 0. -1.
          2   -1    0    0  503    0  0.00000000000E+00 -0.00000000000E+00 -0.21428895413E+04  0.21428895413E+04  0.00000000000E+00 0. -1.
         25    2    1    2    0    0  0.21229879376E+02  0.18891260621E+02 -0.45181950697E+03  0.46965147726E+03  0.12499622275E+03 0.  0.
          4    1    3    3  501    0  0.48392102178E+02  0.16629519398E+02 -0.43412158190E+03  0.43712869643E+03  0.12700000000E+01 0. -1.
         -4    1    3    3    0  501 -0.27162222802E+02  0.22617412230E+01 -0.17697925070E+02  0.32522780826E+02  0.12700000000E+01 0. -1.
          2    1    1    2  502    0  0.23804731321E+02 -0.33777009639E+02  0.59762781725E+02  0.72657702227E+02  0.00000000000E+00 0. -1.
          1    1    1    2  503    0 -0.45034610697E+02  0.14885749019E+02 -0.16753709541E+04  0.16760422237E+04  0.00000000000E+00 0. -1.
<mgrwt>
<rscale>  0 0.43709852E+02</rscale>
<asrwt>0</asrwt>
<pdfrwt beam="2">  1        2 0.32967529E+00 0.46235094E+02</pdfrwt>
<pdfrwt beam="1">  1        1 0.11609518E-01 0.41322532E+02</pdfrwt>
<totfact> 0.49061079E+02</totfact>
</mgrwt>
</event>
<event>
 7    1  0.6493044E-004  0.7443020E+02  0.7546771E-02  0.1412426E+00
         -2   -1    0    0    0  501  0.00000000000E+00  0.00000000000E+00  0.23121811336E+03  0.23121811336E+03  0.00000000000E+00 0.  1.
         -1   -1    0    0    0  502 -0.00000000000E+00 -0.00000000000E+00 -0.13116900081E+04  0.13116900081E+04  0.00000000000E+00 0.  1.
         25    2    1    2    0    0 -0.51044501402E+01 -0.32726971722E+02 -0.29730308850E+03  0.32420857126E+03  0.12499984462E+03 0.  0.
          4    1    3    3  503    0 -0.49030688227E+01 -0.34486912466E+02 -0.30968286727E+03  0.31163837761E+03  0.12700000000E+01 0.  1.
         -4    1    3    3    0  503 -0.20138131752E+00  0.17599407446E+01  0.12379778775E+02  0.12570193649E+02  0.12700000000E+01 0.  1.
         -2    1    1    2    0  502 -0.19606236718E+02 -0.38412107057E+02 -0.99394168891E+03  0.99487686446E+03  0.00000000000E+00 0.  1.
         -1    1    1    2    0  501  0.24710686858E+02  0.71139078779E+02  0.21077288268E+03  0.22382268573E+03  0.00000000000E+00 0.  1.
<mgrwt>
<rscale>  0 0.56656097E+02</rscale>
<asrwt>0</asrwt>
<pdfrwt beam="1">  1       -2 0.35572017E-01 0.74430195E+02</pdfrwt>
<pdfrwt beam="2">  1       -1 0.20179846E+00 0.43126494E+02</pdfrwt>
<totfact> 0.10464945E+01</totfact>
</mgrwt>
</event>
<event>
 7    1  0.6493044E-004  0.7915911E+02  0.7546771E-02  0.1460070E+00
         -1   -1    0    0    0  501 -0.00000000000E+00  0.00000000000E+00  0.31866140327E+03  0.31866140327E+03  0.00000000000E+00 0.  1.
          1   -1    0    0  503    0  0.00000000000E+00 -0.00000000000E+00 -0.20073913776E+03  0.20073913776E+03  0.00000000000E+00 0. -1.
         25    2    1    2    0    0  0.55331524698E+02 -0.10550353508E+02  0.71440198565E+02  0.15460274792E+03  0.12500168042E+03 0.  0.
          4    1    3    3  502    0 -0.60806566072E+01  0.11795918763E+02  0.86504276844E+02  0.87525544252E+02  0.12700000000E+01 0.  1.
         -4    1    3    3    0  502  0.61412181305E+02 -0.22346272271E+02 -0.15064078280E+02  0.67077203665E+02  0.12700000000E+01 0.  1.
          2    1    1    2  503    0 -0.75412431480E+02  0.30556793121E+02 -0.14766129371E+03  0.16859599666E+03  0.00000000000E+00 0. -1.
         -2    1    1    2    0  501  0.20080906782E+02 -0.20006439613E+02  0.19414336066E+03  0.19620179646E+03  0.00000000000E+00 0.  1.
<mgrwt>
<rscale>  0 0.47369301E+02</rscale>
<asrwt>0</asrwt>
<pdfrwt beam="2">  1        1 0.30882944E-01 0.79159110E+02</pdfrwt>
<pdfrwt beam="1">  1       -1 0.49024831E-01 0.28346083E+02</pdfrwt>
<totfact> 0.61838645E+02</totfact>
</mgrwt>
</event>
<event>
 7    1  0.6493044E-004  0.9595290E+02  0.7546771E-02  0.1365812E+00
         -1   -1    0    0    0  501 -0.00000000000E+00  0.00000000000E+00  0.17888312054E+03  0.17888312054E+03  0.00000000000E+00 0.  1.
          1   -1    0    0  503    0  0.00000000000E+00 -0.00000000000E+00 -0.27723406181E+03  0.27723406181E+03  0.00000000000E+00 0. -1.
         25    2    1    2    0    0  0.61239078893E+02 -0.39115565299E+02  0.75114201260E+02  0.16293431386E+03  0.12500078068E+03 0.  0.
          4    1    3    3  502    0  0.97114093632E+02 -0.26950951964E+02  0.73955293463E+02  0.12501399652E+03  0.12700000000E+01 0. -1.
         -4    1    3    3    0  502 -0.35875014739E+02 -0.12164613335E+02  0.11589077974E+01  0.37920317343E+02  0.12700000000E+01 0. -1.
          2    1    1    2  503    0 -0.98545048077E+02  0.78412249004E+01 -0.21014116848E+03  0.23223247404E+03  0.00000000000E+00 0. -1.
         -2    1    1    2    0  501  0.37305969184E+02  0.31274340399E+02  0.36676025950E+02  0.60950394450E+02  0.00000000000E+00 0.  1.
<mgrwt>
<rscale>  0 0.68345178E+02</rscale>
<asrwt>0</asrwt>
<pdfrwt beam="2">  1        1 0.42651394E-01 0.95952900E+02</pdfrwt>
<pdfrwt beam="1">  1       -1 0.27520480E-01 0.48680794E+02</pdfrwt>
<totfact> 0.11062831E+03</totfact>
</mgrwt>
</event>
<event>
 7    1  0.6493044E-004  0.6722563E+02  0.7546771E-02  0.1533330E+00
          2   -1    0    0  503    0  0.00000000000E+00  0.00000000000E+00  0.54687712538E+03  0.54687712538E+03  0.00000000000E+00 0. -1.
          1   -1    0    0  502    0 -0.00000000000E+00 -0.00000000000E+00 -0.25774485498E+04  0.25774485498E+04  0.00000000000E+00 0. -1.
         25    2    1    2    0    0  0.54087087237E+02 -0.68542094052E+02 -0.11699880650E+04  0.11798814401E+04  0.12499883487E+03 0.  0.
          4    1    3    3  501    0  0.67407542212E+02  0.85819163949E+01 -0.71362373173E+03  0.71685275296E+03  0.12700000000E+01 0. -1.
         -4    1    3    3    0  501 -0.13320454975E+02 -0.77124010447E+02 -0.45636433327E+03  0.46302868711E+03  0.12700000000E+01 0. -1.
          2    1    1    2  502    0 -0.12648538924E+02  0.15652149950E+02 -0.14003586236E+04  0.14005032131E+04  0.00000000000E+00 0. -1.
          1    1    1    2  503    0 -0.41438548313E+02  0.52889944102E+02  0.53977526421E+03  0.54394102192E+03  0.00000000000E+00 0. -1.
<mgrwt>
<rscale>  0 0.36781090E+02</rscale>
<asrwt>0</asrwt>
<pdfrwt beam="1">  1        2 0.84134944E-01 0.67225633E+02</pdfrwt>
<pdfrwt beam="2">  1        1 0.39653054E+00 0.20123999E+02</pdfrwt>
<totfact> 0.16912725E+01</totfact>
</mgrwt>
</event>
<event>
 7    1  0.6493044E-004  0.4366599E+02  0.7546771E-02  0.1581130E+00
          2   -1    0    0  503    0  0.00000000000E+00  0.00000000000E+00  0.39425828890E+03  0.39425828890E+03  0.00000000000E+00 0. -1.
          1   -1    0    0  502    0 -0.00000000000E+00 -0.00000000000E+00 -0.43804355886E+03  0.43804355886E+03  0.00000000000E+00 0. -1.
         25    2    1    2    0    0 -0.33582392859E+02  0.52824430923E+02  0.24845839289E+03  0.28508936872E+03  0.12500471011E+03 0.  0.
          4    1    3    3  501    0 -0.35601489501E+02  0.77427083610E+02  0.24588551518E+03  0.26023781203E+03  0.12700000000E+01 0. -1.
         -4    1    3    3    0  501  0.20190966427E+01 -0.24602652687E+02  0.25728777048E+01  0.24851556695E+02  0.12700000000E+01 0. -1.
          2    1    1    2  502    0  0.83391430239E+01 -0.21281030415E+02 -0.41620581493E+03  0.41683294489E+03  0.00000000000E+00 0. -1.
          3    1    1    2  503    0  0.25243249835E+02 -0.31543400508E+02  0.12396215208E+03  0.13037953415E+03  0.00000000000E+00 0. -1.
<mgrwt>
<rscale>  0 0.31592018E+02</rscale>
<asrwt>0</asrwt>
<pdfrwt beam="1">  1        2 0.60655122E-01 0.43665995E+02</pdfrwt>
<pdfrwt beam="2">  1        1 0.67391316E-01 0.22856587E+02</pdfrwt>
<totfact> 0.62267556E+02</totfact>
</mgrwt>
</event>
<event>
 7    1  0.6493044E-004  0.1144488E+03  0.7546771E-02  0.1260637E+00
          2   -1    0    0  503    0  0.00000000000E+00  0.00000000000E+00  0.87095375697E+03  0.87095375697E+03  0.00000000000E+00 0. -1.
          1   -1    0    0  502    0 -0.00000000000E+00 -0.00000000000E+00 -0.19966260985E+03  0.19966260985E+03  0.00000000000E+00 0. -1.
         25    2    1    2    0    0  0.56753555530E+01 -0.21325605190E+02  0.30221158177E+03  0.32778458634E+03  0.12499561508E+03 0.  0.
          4    1    3    3  501    0 -0.41766881855E+02 -0.30239618448E+02  0.25530713376E+03  0.26046545335E+03  0.12700000000E+01 0. -1.
         -4    1    3    3    0  501  0.47442237408E+02  0.89140132585E+01  0.46904448015E+02  0.67319132988E+02  0.12700000000E+01 0. -1.
          2    1    1    2  502    0  0.56932462938E+02  0.10643269710E+03 -0.16161941816E+03  0.20171777481E+03  0.00000000000E+00 0. -1.
          1    1    1    2  503    0 -0.62607818491E+02 -0.85107091908E+02  0.53069898351E+03  0.54111400566E+03  0.00000000000E+00 0. -1.
<mgrwt>
<rscale>  0 0.10996397E+03</rscale>
<asrwt>0</asrwt>
<pdfrwt beam="1">  1        2 0.13399288E+00 0.10565489E+03</pdfrwt>
<pdfrwt beam="2">  1        1 0.30717325E-01 0.11444880E+03</pdfrwt>
<totfact> 0.65295464E+02</totfact>
</mgrwt>
</event>
<event>
 7    1  0.6493044E-004  0.5417191E+02  0.7546771E-02  0.1549734E+00
          1   -1    0    0  503    0  0.00000000000E+00  0.00000000000E+00  0.10298707143E+04  0.10298707143E+04  0.00000000000E+00 0. -1.
         -1   -1    0    0    0  501 -0.00000000000E+00 -0.00000000000E+00 -0.13315395647E+02  0.13315395647E+02  0.00000000000E+00 0.  1.
         25    2    1    2    0    0  0.72739746349E+01 -0.42365643430E+02  0.65225986273E+03  0.66552293948E+03  0.12502038232E+03 0.  0.
          4    1    3    3  502    0  0.13566598860E+02  0.13175409587E+02  0.53783455210E+03  0.53816843308E+03  0.12700000000E+01 0.  1.
         -4    1    3    3    0  502 -0.62926242252E+01 -0.55541053016E+02  0.11442531063E+03  0.12735450641E+03  0.12700000000E+01 0.  1.
          2    1    1    2  503    0  0.82893925994E+01  0.58544019977E+02  0.33780152222E+03  0.34293728978E+03  0.00000000000E+00 0. -1.
         -2    1    1    2    0  501 -0.15563367234E+02 -0.16178376547E+02  0.26493933748E+02  0.34725880735E+02  0.00000000000E+00 0.  1.
<mgrwt>
<rscale>  0 0.34872711E+02</rscale>
<asrwt>0</asrwt>
<pdfrwt beam="1">  1        1 0.15844159E+00 0.54171907E+02</pdfrwt>
<pdfrwt beam="2">  1       -1 0.20485232E-02 0.22449015E+02</pdfrwt>
<totfact> 0.78440270E+03</totfact>
</mgrwt>
</event>
<event>
 7    1  0.6493044E-004  0.5197927E+02  0.7546771E-02  0.1570959E+00
         -2   -1    0    0    0  501 -0.00000000000E+00  0.00000000000E+00  0.40309728526E+02  0.40309728526E+02  0.00000000000E+00 0.  1.
          2   -1    0    0  503    0  0.00000000000E+00 -0.00000000000E+00 -0.12665680166E+04  0.12665680166E+04  0.00000000000E+00 0. -1.
         25    2    1    2    0    0  0.36726991643E+02 -0.58279591117E+02 -0.60972153916E+03  0.62620551010E+03  0.12501041118E+03 0.  0.
          4    1    3    3  502    0  0.25086631228E+02 -0.92317168033E+02 -0.31264239221E+03  0.32695363110E+03  0.12700000000E+01 0. -1.
         -4    1    3    3    0  502  0.11640360415E+02  0.34037576916E+02 -0.29707914695E+03  0.29925187900E+03  0.12700000000E+01 0. -1.
          1    1    1    2  503    0 -0.32175510592E+02  0.38340378224E+02 -0.64427106841E+03  0.64621239363E+03  0.00000000000E+00 0. -1.
         -1    1    1    2    0  501 -0.45514810516E+01  0.19939212893E+02  0.27734319505E+02  0.34459841395E+02  0.00000000000E+00 0.  1.
<mgrwt>
<rscale>  0 0.32604985E+02</rscale>
<asrwt>0</asrwt>
<pdfrwt beam="2">  1        2 0.19485662E+00 0.51979273E+02</pdfrwt>
<pdfrwt beam="1">  1       -2 0.62014967E-02 0.20452095E+02</pdfrwt>
<totfact> 0.22429632E+03</totfact>
</mgrwt>
</event>
<event>
 7    1  0.6493044E-004  0.1426339E+03  0.7546771E-02  0.1326571E+00
          2   -1    0    0  503    0  0.00000000000E+00  0.00000000000E+00  0.38475659317E+03  0.38475659317E+03  0.00000000000E+00 0. -1.
          1   -1    0    0  502    0 -0.00000000000E+00 -0.00000000000E+00 -0.10288743904E+04  0.10288743904E+04  0.00000000000E+00 0. -1.
         25    2    1    2    0    0  0.57462232249E+01 -0.11170403377E+03 -0.73005167485E+02  0.18293459685E+03  0.12499800800E+03 0.  0.
          4    1    3    3  501    0 -0.30127580594E+02 -0.92164480141E+02 -0.95652625241E+02  0.13620939809E+03  0.12700000000E+01 0. -1.
         -4    1    3    3    0  501  0.35873803819E+02 -0.19539553626E+02  0.22647457756E+02  0.46725198760E+02  0.12700000000E+01 0. -1.
          2    1    1    2  502    0 -0.31999099006E+02 -0.32855956497E+02 -0.88391647012E+03  0.88510552047E+03  0.00000000000E+00 0. -1.
          1    1    1    2  503    0  0.26252875781E+02  0.14455999026E+03  0.31280384039E+03  0.34559086624E+03  0.00000000000E+00 0. -1.
<mgrwt>
<rscale>  0 0.80880663E+02</rscale>
<asrwt>0</asrwt>
<pdfrwt beam="1">  1        2 0.59193322E-01 0.14263387E+03</pdfrwt>
<pdfrwt beam="2">  1        1 0.15828837E+00 0.45863452E+02</pdfrwt>
<totfact> 0.19569676E+02</totfact>
</mgrwt>
</event>
<event>
 7    1  0.6493044E-004  0.5200892E+02  0.7546771E-02  0.1511649E+00
          1   -1    0    0  502    0 -0.00000000000E+00  0.00000000000E+00  0.59522315093E+02  0.59522315093E+02  0.00000000000E+00 0. -1.
          2   -1    0    0  503    0  0.00000000000E+00 -0.00000000000E+00 -0.73584873509E+03  0.73584873509E+03  0.00000000000E+00 0. -1.
         25    2    1    2    0    0 -0.39239442485E+02  0.26631557656E+02 -0.26640384625E+03  0.29807083376E+03  0.12500495562E+03 0.  0.
          4    1    3    3  501    0 -0.30678397960E+02  0.52972872383E+02 -0.26312038913E+03  0.27015040512E+03  0.12700000000E+01 0.  1.
         -4    1    3    3    0  501 -0.85610445251E+01 -0.26341314726E+02 -0.32834571247E+01  0.27920428642E+02  0.12700000000E+01 0.  1.
          2    1    1    2  502    0  0.19562577415E+02  0.22817268711E+02  0.36746154017E+02  0.47472118360E+02  0.00000000000E+00 0. -1.
          1    1    1    2  503    0  0.19676865070E+02 -0.49448826367E+02 -0.44666872776E+03  0.44982809806E+03  0.00000000000E+00 0. -1.
<mgrwt>
<rscale>  0 0.39536626E+02</rscale>
<asrwt>0</asrwt>
<pdfrwt beam="2">  1        2 0.11320749E+00 0.52008924E+02</pdfrwt>
<pdfrwt beam="1">  1        1 0.91572796E-02 0.30055319E+02</pdfrwt>
<totfact> 0.34916377E+03</totfact>
</mgrwt>
</event>
<event>
 7    1  0.6493044E-004  0.1137270E+03  0.7546771E-02  0.1262965E+00
         -2   -1    0    0    0  501  0.00000000000E+00  0.00000000000E+00  0.30275089568E+03  0.30275089568E+03  0.00000000000E+00 0.  1.
         -1   -1    0    0    0  502 -0.00000000000E+00 -0.00000000000E+00 -0.31813954189E+03  0.31813954189E+03  0.00000000000E+00 0.  1.
         25    2    1    2    0    0  0.90318586089E+02  0.80617509948E+02  0.61143202186E+02  0.18444549119E+03  0.12500007257E+03 0.  0.
          4    1    3    3  503    0 -0.86531911762E+01 -0.25837282791E+02  0.18500227906E+02  0.32959281426E+02  0.12700000000E+01 0.  1.
         -4    1    3    3    0  503  0.98971777265E+02  0.10645479274E+03  0.42642974280E+02  0.15148620976E+03  0.12700000000E+01 0.  1.
         -2    1    1    2    0  502  0.68202023947E+01 -0.11756230479E+03 -0.22574035914E+03  0.25460974140E+03  0.00000000000E+00 0.  1.
         -1    1    1    2    0  501 -0.97138788484E+02  0.36944794842E+02  0.14920851075E+03  0.18183520499E+03  0.00000000000E+00 0.  1.
<mgrwt>
<rscale>  0 0.10871671E+03</rscale>
<asrwt>0</asrwt>
<pdfrwt beam="1">  1       -2 0.46577061E-01 0.10392720E+03</pdfrwt>
<pdfrwt beam="2">  1       -1 0.48944545E-01 0.11372696E+03</pdfrwt>
<totfact> 0.14202785E+02</totfact>
</mgrwt>
</event>
<event>
 7    1  0.6493044E-004  0.4059575E+03  0.7546771E-02  0.1222466E+00
          1   -1    0    0  502    0 -0.00000000000E+00  0.00000000000E+00  0.94128660239E+03  0.94128660239E+03  0.00000000000E+00 0. -1.
          2   -1    0    0  503    0  0.00000000000E+00 -0.00000000000E+00 -0.44446278730E+03  0.44446278730E+03  0.00000000000E+00 0. -1.
         25    2    1    2    0    0  0.15732188752E+03 -0.39947543815E+03  0.36579707130E+03  0.57772136435E+03  0.12499470179E+03 0.  0.
          4    1    3    3  501    0  0.16407717416E+03 -0.26246549936E+03  0.26523574529E+03  0.40762859433E+03  0.12700000000E+01 0.  1.
         -4    1    3    3    0  501 -0.67552866378E+01 -0.13700993879E+03  0.10056132601E+03  0.17009277002E+03  0.12700000000E+01 0.  1.
          2    1    1    2  502    0 -0.12851253189E+03  0.36641724696E+03  0.38706218946E+03  0.54826472459E+03  0.00000000000E+00 0. -1.
          1    1    1    2  503    0 -0.28809355630E+02  0.33058191190E+02 -0.25603544567E+03  0.25976330075E+03  0.00000000000E+00 0. -1.
<mgrwt>
<rscale>  0 0.13342129E+03</rscale>
<asrwt>0</asrwt>
<pdfrwt beam="2">  1        2 0.68378891E-01 0.43850005E+02</pdfrwt>
<pdfrwt beam="1">  1        1 0.14481332E+00 0.40595753E+03</pdfrwt>
<totfact> 0.17161121E+02</totfact>
</mgrwt>
</event>
<event>
 7    1  0.6493044E-004  0.1382108E+03  0.7546771E-02  0.1387806E+00
         -1   -1    0    0    0  501 -0.00000000000E+00  0.00000000000E+00  0.36292994039E+03  0.36292994039E+03  0.00000000000E+00 0.  1.
          1   -1    0    0  503    0  0.00000000000E+00 -0.00000000000E+00 -0.16150835974E+03  0.16150835974E+03  0.00000000000E+00 0. -1.
         25    2    1    2    0    0  0.10190089668E+03  0.10763883086E+03  0.15361533750E+03  0.24736841804E+03  0.12499420657E+03 0.  0.
          4    1    3    3  502    0  0.21584128738E+02 -0.13853385398E+02 -0.10679261604E+02  0.27810976767E+02  0.12700000000E+01 0. -1.
         -4    1    3    3    0  502  0.80316767946E+02  0.12149221625E+03  0.16429459910E+03  0.21955744127E+03  0.12700000000E+01 0. -1.
          2    1    1    2  503    0 -0.11019019131E+03 -0.80660634069E+02 -0.71727616207E+02  0.15424936654E+03  0.00000000000E+00 0. -1.
         -2    1    1    2    0  501  0.82892946287E+01 -0.26978196786E+02  0.11953385936E+03  0.12282051556E+03  0.00000000000E+00 0.  1.
<mgrwt>
<rscale>  0 0.62455733E+02</rscale>
<asrwt>0</asrwt>
<pdfrwt beam="2">  1        1 0.24847440E-01 0.13821082E+03</pdfrwt>
<pdfrwt beam="1">  1       -1 0.55835375E-01 0.28222961E+02</pdfrwt>
<totfact> 0.65130972E+02</totfact>
</mgrwt>
</event>
<event>
 7    1  0.6493044E-004  0.8525380E+02  0.7546771E-02  0.1350993E+00
          1   -1    0    0  502    0 -0.00000000000E+00  0.00000000000E+00  0.12116104664E+04  0.12116104664E+04  0.00000000000E+00 0. -1.
          2   -1    0    0  503    0  0.00000000000E+00 -0.00000000000E+00 -0.10729892178E+04  0.10729892178E+04  0.00000000000E+00 0. -1.
         25    2    1    2    0    0  0.37758266442E+01 -0.13249605435E+03 -0.55472317420E+03  0.58387819274E+03  0.12500593055E+03 0.  0.
          4    1    3    3  501    0 -0.18302816288E+02 -0.27123115797E+02 -0.35903825698E+03  0.36052841686E+03  0.12700000000E+01 0.  1.
         -4    1    3    3    0  501  0.22078642933E+02 -0.10537293855E+03 -0.19568491722E+03  0.22334977587E+03  0.12700000000E+01 0.  1.
          2    1    1    2  502    0  0.29286413867E+02  0.79958173963E+02  0.11935978181E+04  0.11966314199E+04  0.00000000000E+00 0. -1.
          1    1    1    2  503    0 -0.33062240512E+02  0.52537880387E+02 -0.50025339537E+03  0.50409007152E+03  0.00000000000E+00 0. -1.
<mgrwt>
<rscale>  0 0.72747190E+02</rscale>
<asrwt>0</asrwt>
<pdfrwt beam="2">  1        2 0.16507527E+00 0.62075282E+02</pdfrwt>
<pdfrwt beam="1">  1        1 0.18640161E+00 0.85253799E+02</pdfrwt>
<totfact> 0.43419934E+01</totfact>
</mgrwt>
</event>
<event>
 7    1  0.6493044E-004  0.6662706E+02  0.7546771E-02  0.1431339E+00
          1   -1    0    0  503    0  0.00000000000E+00  0.00000000000E+00  0.49032757845E+03  0.49032757845E+03  0.00000000000E+00 0. -1.
         -3   -1    0    0    0  501 -0.00000000000E+00 -0.00000000000E+00 -0.51149665936E+03  0.51149665936E+03  0.00000000000E+00 0.  1.
         25    2    1    2    0    0  0.15601412182E+02  0.48223244187E+02  0.34338666040E+01  0.13491721583E+03  0.12498791279E+03 0.  0.
          4    1    3    3  502    0  0.24735478242E+02  0.60927051518E+02 -0.47818100829E+02  0.81315024180E+02  0.12700000000E+01 0.  1.
         -4    1    3    3    0  502 -0.91340660597E+01 -0.12703807331E+02  0.51251967433E+02  0.53602191645E+02  0.12700000000E+01 0.  1.
          2    1    1    2  503    0  0.23107305522E+02 -0.63655699296E+02  0.41744347387E+03  0.42290075608E+03  0.00000000000E+00 0. -1.
         -2    1    1    2    0  501 -0.38708717703E+02  0.15432455109E+02 -0.44204642139E+03  0.44400626590E+03  0.00000000000E+00 0.  1.
<mgrwt>
<rscale>  0 0.52692115E+02</rscale>
<asrwt>0</asrwt>
<pdfrwt beam="1">  1        1 0.75435012E-01 0.66627064E+02</pdfrwt>
<pdfrwt beam="2">  1       -3 0.78691794E-01 0.41671639E+02</pdfrwt>
<totfact> 0.38100888E+01</totfact>
</mgrwt>
</event>
<event>
 7    1  0.6493044E-004  0.7169886E+02  0.7546771E-02  0.1515306E+00
          1   -1    0    0  502    0 -0.00000000000E+00  0.00000000000E+00  0.46105348000E+03  0.46105348000E+03  0.00000000000E+00 0. -1.
          2   -1    0    0  503    0  0.00000000000E+00 -0.00000000000E+00 -0.20224569509E+04  0.20224569509E+04  0.00000000000E+00 0. -1.
         25    2    1    2    0    0 -0.47933092744E+02 -0.27429348973E+02  0.29760972113E+03  0.32748464614E+03  0.12499878712E+03 0.  0.
          4    1    3    3  501    0 -0.54923643082E+02 -0.72455246250E+02  0.19104697276E+03  0.21158196516E+03  0.12700000000E+01 0. -1.
         -4    1    3    3    0  501  0.69905503377E+01  0.45025897277E+02  0.10656274837E+03  0.11590268099E+03  0.12700000000E+01 0. -1.
          2    1    1    2  502    0 -0.20463935406E+02  0.58009360061E+01  0.14710029324E+03  0.14863014426E+03  0.00000000000E+00 0. -1.
          1    1    1    2  503    0  0.68397028151E+02  0.21628412967E+02 -0.20061134852E+04  0.20073956405E+04  0.00000000000E+00 0. -1.
<mgrwt>
<rscale>  0 0.39051923E+02</rscale>
<asrwt>0</asrwt>
<pdfrwt beam="2">  1        2 0.31114722E+00 0.71698864E+02</pdfrwt>
<pdfrwt beam="1">  1        1 0.70931306E-01 0.21270249E+02</pdfrwt>
<totfact> 0.60240708E+01</totfact>
</mgrwt>
</event>
<event>
 7    1  0.6493044E-004  0.7213448E+02  0.7546771E-02  0.1364227E+00
          2   -1    0    0  503    0  0.00000000000E+00  0.00000000000E+00  0.14398701594E+03  0.14398701594E+03  0.00000000000E+00 0. -1.
          1   -1    0    0  502    0 -0.00000000000E+00 -0.00000000000E+00 -0.68368211138E+03  0.68368211138E+03  0.00000000000E+00 0. -1.
         25    2    1    2    0    0 -0.68572769165E+02  0.11049333042E+03 -0.10400481360E+03  0.20821316292E+03  0.12499887688E+03 0.  0.
          4    1    3    3  501    0  0.33075547522E+02  0.58064431192E+01 -0.11880076059E+02  0.35643452874E+02  0.12700000000E+01 0. -1.
         -4    1    3    3    0  501 -0.10164831669E+03  0.10468688730E+03 -0.92124737539E+02  0.17256971004E+03  0.12700000000E+01 0. -1.
          2    1    1    2  502    0  0.19501724010E+02 -0.66931530207E+02 -0.51319303600E+03  0.51790659310E+03  0.00000000000E+00 0. -1.
          3    1    1    2  503    0  0.49071045155E+02 -0.43561800209E+02  0.77502754156E+02  0.10154937130E+03  0.00000000000E+00 0. -1.
<mgrwt>
<rscale>  0 0.68798635E+02</rscale>
<asrwt>0</asrwt>
<pdfrwt beam="1">  1        2 0.22151849E-01 0.65617055E+02</pdfrwt>
<pdfrwt beam="2">  1        1 0.10518186E+00 0.72134480E+02</pdfrwt>
<totfact> 0.98750509E+02</totfact>
</mgrwt>
</event>
<event>
 7    1  0.6493044E-004  0.4513542E+02  0.7546771E-02  0.1530920E+00
          1   -1    0    0  502    0 -0.00000000000E+00  0.00000000000E+00  0.53848502512E+02  0.53848502512E+02  0.00000000000E+00 0. -1.
          2   -1    0    0  503    0  0.00000000000E+00 -0.00000000000E+00 -0.11818971959E+04  0.11818971959E+04  0.00000000000E+00 0. -1.
         25    2    1    2    0    0  0.24662090497E+02 -0.20240032400E+02 -0.31556139317E+03  0.34091352900E+03  0.12500065510E+03 0.  0.
          4    1    3    3  501    0  0.38828424210E+02  0.42620070483E+02 -0.95047926165E+02  0.11117480876E+03  0.12700000000E+01 0.  1.
         -4    1    3    3    0  501 -0.14166333713E+02 -0.62860102882E+02 -0.22051346701E+03  0.22973872024E+03  0.12700000000E+01 0.  1.
          2    1    1    2  502    0  0.21487165452E+02  0.21578363323E+02  0.34825975783E+02  0.46261999871E+02  0.00000000000E+00 0. -1.
          1    1    1    2  503    0 -0.46149255948E+02 -0.13383309239E+01 -0.84731327598E+03  0.84857016952E+03  0.00000000000E+00 0. -1.
<mgrwt>
<rscale>  0 0.37073761E+02</rscale>
<asrwt>0</asrwt>
<pdfrwt beam="2">  1        2 0.18183035E+00 0.45135424E+02</pdfrwt>
<pdfrwt beam="1">  1        1 0.82843846E-02 0.30451996E+02</pdfrwt>
<totfact> 0.21870512E+03</totfact>
</mgrwt>
</event>
<event>
 7    1  0.6493044E-004  0.5455558E+02  0.7546771E-02  0.1548751E+00
          2   -1    0    0  503    0  0.00000000000E+00  0.00000000000E+00  0.64027493114E+03  0.64027493114E+03  0.00000000000E+00 0. -1.
         -2   -1    0    0    0  501 -0.00000000000E+00 -0.00000000000E+00 -0.32425431435E+03  0.32425431435E+03  0.00000000000E+00 0.  1.
         25    2    1    2    0    0 -0.52556710192E+02 -0.48978557997E+02  0.11782004764E+03  0.18619166177E+03  0.12499865742E+03 0.  0.
          4    1    3    3  502    0 -0.48460438746E+02 -0.78105944429E+02  0.12568728359E+03  0.15571724001E+03  0.12700000000E+01 0. -1.
         -4    1    3    3    0  502 -0.40962714459E+01  0.29127386432E+02 -0.78672359501E+01  0.30474421760E+02  0.12700000000E+01 0. -1.
          1    1    1    2  503    0  0.30611077920E+02  0.44330576018E+02  0.48634582718E+03  0.48932044886E+03  0.00000000000E+00 0. -1.
         -1    1    1    2    0  501  0.21945632272E+02  0.46479819781E+01 -0.28814525803E+03  0.28901713485E+03  0.00000000000E+00 0.  1.
<mgrwt>
<rscale>  0 0.34983065E+02</rscale>
<asrwt>0</asrwt>
<pdfrwt beam="1">  1        2 0.98503835E-01 0.54555576E+02</pdfrwt>
<pdfrwt beam="2">  1       -2 0.49885279E-01 0.22432443E+02</pdfrwt>
<totfact> 0.18762028E+02</totfact>
</mgrwt>
</event>
<event>
 7    1  0.6493044E-004  0.8571194E+02  0.7546771E-02  0.1432858E+00
          2   -1    0    0  503    0  0.00000000000E+00  0.00000000000E+00  0.15708043492E+03  0.15708043492E+03  0.00000000000E+00 0. -1.
          1   -1    0    0  502    0 -0.00000000000E+00 -0.00000000000E+00 -0.11111816317E+04  0.11111816317E+04  0.00000000000E+00 0. -1.
         25    2    1    2    0    0  0.64258683131E+02 -0.80161398052E+02 -0.14255638739E+03  0.21564091432E+03  0.12499460887E+03 0.  0.
          4    1    3    3  501    0  0.74432660409E+02 -0.93431635079E+02 -0.15432029482E+03  0.19515649531E+03  0.12700000000E+01 0.  1.
         -4    1    3    3    0  501 -0.10173977278E+02  0.13270237027E+02  0.11763907422E+02  0.20484419011E+02  0.12700000000E+01 0.  1.
          2    1    1    2  502    0 -0.31963182901E+02  0.19590331387E+01 -0.91692177470E+03  0.91748080296E+03  0.00000000000E+00 0. -1.
          1    1    1    2  503    0 -0.32295500229E+02  0.78202364914E+02  0.10537696529E+03  0.13514034937E+03  0.00000000000E+00 0. -1.
<mgrwt>
<rscale>  0 0.52390528E+02</rscale>
<asrwt>0</asrwt>
<pdfrwt beam="1">  1        2 0.24166221E-01 0.85711943E+02</pdfrwt>
<pdfrwt beam="2">  1        1 0.17095102E+00 0.32023161E+02</pdfrwt>
<totfact> 0.45680000E+02</totfact>
</mgrwt>
</event>
<event>
 7    1  0.6493044E-004  0.3116127E+03  0.7546771E-02  0.1214063E+00
          2   -1    0    0  503    0  0.00000000000E+00  0.00000000000E+00  0.12246636592E+04  0.12246636592E+04  0.00000000000E+00 0. -1.
          1   -1    0    0  502    0 -0.00000000000E+00 -0.00000000000E+00 -0.88495394323E+03  0.88495394323E+03  0.00000000000E+00 0. -1.
         25    2    1    2    0    0 -0.13146399224E+03 -0.31218471262E+03  0.11169093174E+02  0.36123037859E+03  0.12498224563E+03 0.  0.
          4    1    3    3  501    0 -0.19702695835E+02 -0.12418015789E+03 -0.48095917920E+02  0.13462443336E+03  0.12700000000E+01 0.  1.
         -4    1    3    3    0  501 -0.11176129641E+03 -0.18800455473E+03  0.59265011094E+02  0.22660594523E+03  0.12700000000E+01 0.  1.
          2    1    1    2  502    0  0.61312848705E+02  0.11653383090E+02 -0.68554630877E+03  0.68838129567E+03  0.00000000000E+00 0. -1.
          1    1    1    2  503    0  0.70151143535E+02  0.30053132953E+03  0.10140869315E+04  0.10600059281E+04  0.00000000000E+00 0. -1.
<mgrwt>
<rscale>  0 0.13945570E+03</rscale>
<asrwt>0</asrwt>
<pdfrwt beam="1">  1        2 0.18840979E+00 0.31161265E+03</pdfrwt>
<pdfrwt beam="2">  1        1 0.13614676E+00 0.62410470E+02</pdfrwt>
<totfact> 0.56255426E+01</totfact>
</mgrwt>
</event>
<event>
 7    1  0.6493044E-004  0.7526561E+02  0.7546771E-02  0.1384560E+00
          2   -1    0    0  503    0  0.00000000000E+00  0.00000000000E+00  0.44324823749E+03  0.44324823749E+03  0.00000000000E+00 0. -1.
          1   -1    0    0  502    0 -0.00000000000E+00 -0.00000000000E+00 -0.12463194750E+03  0.12463194750E+03  0.00000000000E+00 0. -1.
         25    2    1    2    0    0 -0.56156267187E+02 -0.18785378888E+02  0.49622890188E+02  0.14693518170E+03  0.12498439737E+03 0.  0.
          4    1    3    3  501    0 -0.30735624679E+02 -0.61623332551E+02 -0.95976230032E+01  0.69540211435E+02  0.12700000000E+01 0. -1.
         -4    1    3    3    0  501 -0.25420642508E+02  0.42837953663E+02  0.59220513191E+02  0.77394970264E+02  0.12700000000E+01 0. -1.
          2    1    1    2  502    0  0.18688172066E+02 -0.49813193784E+02 -0.61508521752E+02  0.81325889471E+02  0.00000000000E+00 0. -1.
          1    1    1    2  503    0  0.37468095121E+02  0.68598572672E+02  0.33050192155E+03  0.33961911383E+03  0.00000000000E+00 0. -1.
<mgrwt>
<rscale>  0 0.63280221E+02</rscale>
<asrwt>0</asrwt>
<pdfrwt beam="1">  1        2 0.68192035E-01 0.75265608E+02</pdfrwt>
<pdfrwt beam="2">  1        1 0.19174146E-01 0.53203403E+02</pdfrwt>
<totfact> 0.24885002E+03</totfact>
</mgrwt>
</event>
<event>
 7    1  0.6493044E-004  0.1485136E+03  0.7546771E-02  0.1256883E+00
          1   -1    0    0  502    0 -0.00000000000E+00  0.00000000000E+00  0.55065362275E+03  0.55065362275E+03  0.00000000000E+00 0. -1.
          2   -1    0    0  503    0  0.00000000000E+00 -0.00000000000E+00 -0.21064258575E+04  0.21064258575E+04  0.00000000000E+00 0. -1.
         25    2    1    2    0    0  0.31478302104E+01  0.78161558203E+02  0.20489515430E+03  0.25244113553E+03  0.12500145854E+03 0.  0.
          4    1    3    3  501    0 -0.10798453536E+02  0.80940014489E+02  0.47655168493E+02  0.94554325805E+02  0.12700000000E+01 0.  1.
         -4    1    3    3    0  501  0.13946283747E+02 -0.27784562860E+01  0.15723998581E+03  0.15788680973E+03  0.12700000000E+01 0.  1.
          2    1    1    2  502    0  0.63743682139E+02  0.55449880291E+02  0.31370943513E+03  0.32488698947E+03  0.00000000000E+00 0. -1.
          1    1    1    2  503    0 -0.66891512350E+02 -0.13361143849E+03 -0.20743768242E+04  0.20797513552E+04  0.00000000000E+00 0. -1.
<mgrwt>
<rscale>  0 0.11201507E+03</rscale>
<asrwt>0</asrwt>
<pdfrwt beam="2">  1        2 0.32406551E+00 0.14851361E+03</pdfrwt>
<pdfrwt beam="1">  1        1 0.84715943E-01 0.84486367E+02</pdfrwt>
<totfact> 0.39178257E+01</totfact>
</mgrwt>
</event>
<event>
 7    1  0.6493044E-004  0.8199610E+02  0.7546771E-02  0.1423978E+00
          1   -1    0    0  502    0 -0.00000000000E+00  0.00000000000E+00  0.62512764438E+03  0.62512764438E+03  0.00000000000E+00 0. -1.
          2   -1    0    0  503    0  0.00000000000E+00 -0.00000000000E+00 -0.80344190213E+03  0.80344190213E+03  0.00000000000E+00 0. -1.
         25    2    1    2    0    0 -0.42364190032E+02  0.32662538050E+02 -0.21872295396E+03  0.25753749555E+03  0.12499706011E+03 0.  0.
          4    1    3    3  501    0  0.16615223206E+02  0.18863545607E+02  0.50815591066E+01  0.25677502566E+02  0.12700000000E+01 0.  1.
         -4    1    3    3    0  501 -0.58979413238E+02  0.13798992443E+02 -0.22380451307E+03  0.23185999299E+03  0.12700000000E+01 0.  1.
          2    1    1    2  502    0  0.77751748191E+02 -0.27173349575E+02  0.60234792722E+03  0.60795291816E+03  0.00000000000E+00 0. -1.
          1    1    1    2  503    0 -0.35387558159E+02 -0.54891884752E+01 -0.56193923100E+03  0.56307913281E+03  0.00000000000E+00 0. -1.
<mgrwt>
<rscale>  0 0.54188029E+02</rscale>
<asrwt>0</asrwt>
<pdfrwt beam="2">  1        2 0.12360645E+00 0.35810759E+02</pdfrwt>
<pdfrwt beam="1">  1        1 0.96173484E-01 0.81996097E+02</pdfrwt>
<totfact> 0.18065219E+02</totfact>
</mgrwt>
</event>
<event>
 7    1  0.6493044E-004  0.8241488E+02  0.7546771E-02  0.1384539E+00
          2   -1    0    0  503    0  0.00000000000E+00  0.00000000000E+00  0.20323665583E+04  0.20323665583E+04  0.00000000000E+00 0. -1.
         -2   -1    0    0    0  501 -0.00000000000E+00 -0.00000000000E+00 -0.24161836353E+02  0.24161836353E+02  0.00000000000E+00 0.  1.
         25    2    1    2    0    0  0.53700207573E+01  0.63969024291E+02  0.73062774784E+03  0.74401597564E+03  0.12498797102E+03 0.  0.
          4    1    3    3  502    0 -0.49424405118E+02  0.10949310234E+02  0.14809679702E+03  0.15651496224E+03  0.12700000000E+01 0.  1.
         -4    1    3    3    0  502  0.54794425876E+02  0.53019714057E+02  0.58253095082E+03  0.58750101340E+03  0.12700000000E+01 0.  1.
          1    1    1    2  503    0  0.48440311064E+02  0.38895985266E+01  0.11840475815E+04  0.11850444160E+04  0.00000000000E+00 0. -1.
         -1    1    1    2    0  501 -0.53810331822E+02 -0.67858622817E+02  0.93529392585E+02  0.12746800296E+03  0.00000000000E+00 0.  1.
<mgrwt>
<rscale>  0 0.63285477E+02</rscale>
<asrwt>0</asrwt>
<pdfrwt beam="1">  1        2 0.31267164E+00 0.48596221E+02</pdfrwt>
<pdfrwt beam="2">  1       -2 0.37172072E-02 0.82414876E+02</pdfrwt>
<totfact> 0.23560575E+03</totfact>
</mgrwt>
</event>
<event>
 7    1  0.6493044E-004  0.6288980E+02  0.7546771E-02  0.1427410E+00
         -2   -1    0    0    0  501 -0.00000000000E+00  0.00000000000E+00  0.11127822931E+03  0.11127822931E+03  0.00000000000E+00 0.  1.
          2   -1    0    0  503    0  0.00000000000E+00 -0.00000000000E+00 -0.30820391365E+04  0.30820391365E+04  0.00000000000E+00 0. -1.
         25    2    1    2    0    0 -0.69590743251E+02 -0.68874790601E+02 -0.38727583913E+03  0.41856164816E+03  0.12499867762E+03 0.  0.
          4    1    3    3  502    0 -0.33476823963E+02 -0.57586350898E+02 -0.37170164250E+03  0.37762495877E+03  0.12700000000E+01 0. -1.
         -4    1    3    3    0  502 -0.36113919288E+02 -0.11288439703E+02 -0.15574196639E+02  0.40936689390E+02  0.12700000000E+01 0. -1.
          1    1    1    2  503    0  0.12773198077E+02  0.43653441847E+02 -0.26688043196E+04  0.26691918765E+04  0.00000000000E+00 0. -1.
         -1    1    1    2    0  501  0.56817545174E+02  0.25221348754E+02  0.85319251512E+02  0.10556384112E+03  0.00000000000E+00 0.  1.
<mgrwt>
<rscale>  0 0.53483346E+02</rscale>
<asrwt>0</asrwt>
<pdfrwt beam="2">  1        2 0.47415992E+00 0.45483817E+02</pdfrwt>
<pdfrwt beam="1">  1       -2 0.17119726E-01 0.62889803E+02</pdfrwt>
<totfact> 0.64830745E+01</totfact>
</mgrwt>
</event>
<event>
 7    1  0.6493044E-004  0.1393749E+03  0.7546771E-02  0.1348415E+00
          1   -1    0    0  502    0 -0.00000000000E+00  0.00000000000E+00  0.84728255063E+03  0.84728255063E+03  0.00000000000E+00 0. -1.
          2   -1    0    0  503    0  0.00000000000E+00 -0.00000000000E+00 -0.17236162285E+04  0.17236162285E+04  0.00000000000E+00 0. -1.
         25    2    1    2    0    0  0.40731434948E+02 -0.95576869489E+02 -0.98655490183E+02  0.19013094532E+03  0.12499153112E+03 0.  0.
          4    1    3    3  501    0 -0.42956076711E+02 -0.32577768794E+02 -0.14733995966E+02  0.55903837821E+02  0.12700000000E+01 0. -1.
         -4    1    3    3    0  501  0.83687511659E+02 -0.62999100695E+02 -0.83921494216E+02  0.13422710750E+03  0.12700000000E+01 0. -1.
          2    1    1    2  502    0  0.60981974851E+01 -0.38333165248E+02  0.79788619582E+03  0.79882976976E+03  0.00000000000E+00 0. -1.
          1    1    1    2  503    0 -0.46829632433E+02  0.13391003474E+03 -0.15755643835E+04  0.15819380640E+04  0.00000000000E+00 0. -1.
<mgrwt>
<rscale>  0 0.73551787E+02</rscale>
<asrwt>0</asrwt>
<pdfrwt beam="2">  1        2 0.26517173E+00 0.13937493E+03</pdfrwt>
<pdfrwt beam="1">  1        1 0.13035116E+00 0.38815198E+02</pdfrwt>
<totfact> 0.35413656E+01</totfact>
</mgrwt>
</event>
<event>
 7    1  0.6493044E-004  0.8893792E+02  0.7546771E-02  0.1421013E+00
         -2   -1    0    0    0  501 -0.00000000000E+00  0.00000000000E+00  0.61484787613E+02  0.61484787613E+02  0.00000000000E+00 0.  1.
          2   -1    0    0  503    0  0.00000000000E+00 -0.00000000000E+00 -0.14482665721E+04  0.14482665721E+04  0.00000000000E+00 0. -1.
         25    2    1    2    0    0  0.45336967542E+02  0.59913037140E+02 -0.17441152737E+03  0.22735319274E+03  0.12500032290E+03 0.  0.
          4    1    3    3  502    0  0.66508785471E+02 -0.13784047204E+02 -0.96662598482E+02  0.11814689732E+03  0.12700000000E+01 0.  1.
         -4    1    3    3    0  502 -0.21171817930E+02  0.73697084344E+02 -0.77748928888E+02  0.10920629542E+03  0.12700000000E+01 0.  1.
          1    1    1    2  503    0 -0.15943745040E+02  0.29774322267E+02 -0.11831007570E+04  0.11835827451E+04  0.00000000000E+00 0. -1.
         -1    1    1    2    0  501 -0.29393222502E+02 -0.89687359408E+02 -0.29269500139E+02  0.98815421899E+02  0.00000000000E+00 0.  1.
<mgrwt>
<rscale>  0 0.54807199E+02</rscale>
<asrwt>0</asrwt>
<pdfrwt beam="2">  1        2 0.22281022E+00 0.33774447E+02</pdfrwt>
<pdfrwt beam="1">  1       -2 0.94591992E-02 0.88937920E+02</pdfrwt>
<totfact> 0.11632930E+03</totfact>
</mgrwt>
</event>
<event>
 7    1  0.6493044E-004  0.1187728E+03  0.7546771E-02  0.1331506E+00
          2   -1    0    0  503    0  0.00000000000E+00  0.00000000000E+00  0.14429268626E+04  0.14429268626E+04  0.00000000000E+00 0. -1.
          1   -1    0    0  502    0 -0.00000000000E+00 -0.00000000000E+00 -0.19458730575E+04  0.19458730575E+04  0.00000000000E+00 0. -1.
         25    2    1    2    0    0  0.98890394146E+02  0.11891460650E+03 -0.11698216097E+04  0.11866038261E+04  0.12500419098E+03 0.  0.
          4    1    3    3  501    0  0.11925152923E+03  0.12850209913E+03 -0.10701390476E+04  0.10844044037E+04  0.12700000000E+01 0. -1.
         -4    1    3    3    0  501 -0.20361135080E+02 -0.95874926321E+01 -0.99682562126E+02  0.10219942235E+03  0.12700000000E+01 0. -1.
          2    1    1    2  502    0 -0.33968955636E+00 -0.52732559939E+02 -0.76429435366E+03  0.76611141312E+03  0.00000000000E+00 0. -1.
          1    1    1    2  503    0 -0.98550704590E+02 -0.66182046563E+02  0.14311697685E+04  0.14360846810E+04  0.00000000000E+00 0. -1.
<mgrwt>
<rscale>  0 0.79141172E+02</rscale>
<asrwt>0</asrwt>
<pdfrwt beam="1">  1        2 0.22198875E+00 0.11877283E+03</pdfrwt>
<pdfrwt beam="2">  1        1 0.29936508E+00 0.52733654E+02</pdfrwt>
<totfact> 0.95416873E+00</totfact>
</mgrwt>
</event>
<event>
 7    1  0.6493044E-004  0.1177183E+03  0.7546771E-02  0.1334766E+00
          2   -1    0    0  503    0  0.00000000000E+00  0.00000000000E+00  0.48511110070E+03  0.48511110070E+03  0.00000000000E+00 0. -1.
          1   -1    0    0  502    0 -0.00000000000E+00 -0.00000000000E+00 -0.65533369057E+03  0.65533369057E+03  0.00000000000E+00 0. -1.
         25    2    1    2    0    0 -0.95299248264E+02 -0.13677948974E+03 -0.25047844192E+03  0.32581990333E+03  0.12501433522E+03 0.  0.
          4    1    3    3  501    0  0.22437462451E+02  0.56355918315E+01 -0.34808492963E+02  0.41814395833E+02  0.12700000000E+01 0.  1.
         -4    1    3    3    0  501 -0.11773671071E+03 -0.14241508157E+03 -0.21566994895E+03  0.28400550750E+03  0.12700000000E+01 0.  1.
          2    1    1    2  502    0  0.20669155835E+02  0.47398862831E+02 -0.35771826011E+03  0.36143632885E+03  0.00000000000E+00 0. -1.
          1    1    1    2  503    0  0.74630092429E+02  0.89380626904E+02  0.43797411215E+03  0.45318855908E+03  0.00000000000E+00 0. -1.
<mgrwt>
<rscale>  0 0.78020185E+02</rscale>
<asrwt>0</asrwt>
<pdfrwt beam="1">  1        2 0.74632477E-01 0.11771834E+03</pdfrwt>
<pdfrwt beam="2">  1        1 0.10082057E+00 0.51709440E+02</pdfrwt>
<totfact> 0.29425677E+02</totfact>
</mgrwt>
</event>
<event>
 7    1  0.6493044E-004  0.1304686E+03  0.7546771E-02  0.1352169E+00
          1   -1    0    0  502    0 -0.00000000000E+00  0.00000000000E+00  0.85903891031E+03  0.85903891031E+03  0.00000000000E+00 0. -1.
          2   -1    0    0  503    0  0.00000000000E+00 -0.00000000000E+00 -0.82808827437E+03  0.82808827437E+03  0.00000000000E+00 0. -1.
         25    2    1    2    0    0  0.90575862499E+02 -0.14098448670E+02 -0.27022610146E+03  0.31152931885E+03  0.12500246985E+03 0.  0.
          4    1    3    3  501    0  0.56885320568E+02  0.50012935782E+02 -0.18356310685E+03  0.19858061471E+03  0.12700000000E+01 0. -1.
         -4    1    3    3    0  501  0.33690541931E+02 -0.64111384453E+02 -0.86662994608E+02  0.11294870414E+03  0.12700000000E+01 0. -1.
          2    1    1    2  502    0 -0.12796812855E+03  0.28745617929E+02  0.83249537606E+03  0.84276372943E+03  0.00000000000E+00 0. -1.
          1    1    1    2  503    0  0.37392266049E+02 -0.14647169258E+02 -0.53131863866E+03  0.53283413640E+03  0.00000000000E+00 0. -1.
<mgrwt>
<rscale>  0 0.72384029E+02</rscale>
<asrwt>0</asrwt>
<pdfrwt beam="2">  1        2 0.12739820E+00 0.40158699E+02</pdfrwt>
<pdfrwt beam="1">  1        1 0.13215983E+00 0.13046856E+03</pdfrwt>
<totfact> 0.10750708E+02</totfact>
</mgrwt>
</event>
<event>
 7    1  0.6493044E-004  0.4357469E+02  0.7546771E-02  0.1554924E+00
         -2   -1    0    0    0  501  0.00000000000E+00  0.00000000000E+00  0.26767382615E+02  0.26767382615E+02  0.00000000000E+00 0.  1.
         -1   -1    0    0    0  502 -0.00000000000E+00 -0.00000000000E+00 -0.10156882847E+04  0.10156882847E+04  0.00000000000E+00 0.  1.
         25    2    1    2    0    0 -0.77308184091E+01 -0.61766251272E+02 -0.50199956931E+03  0.52106018338E+03  0.12500124708E+03 0.  0.
          4    1    3    3  503    0 -0.79216952916E+01 -0.74863654471E+02 -0.50228507609E+03  0.50789687002E+03  0.12700000000E+01 0.  1.
         -4    1    3    3    0  503  0.19087688249E+00  0.13097403199E+02  0.28550677861E+00  0.13163313362E+02  0.12700000000E+01 0.  1.
         -2    1    1    2    0  502  0.19376340623E+02  0.37410836468E+02 -0.49210562954E+03  0.49390582491E+03  0.00000000000E+00 0.  1.
         -1    1    1    2    0  501 -0.11645522214E+02  0.24355414803E+02  0.51842967940E+01  0.27489658985E+02  0.00000000000E+00 0.  1.
<mgrwt>
<rscale>  0 0.34298086E+02</rscale>
<asrwt>0</asrwt>
<pdfrwt beam="1">  1       -2 0.41180593E-02 0.26996378E+02</pdfrwt>
<pdfrwt beam="2">  1       -1 0.15625972E+00 0.43574687E+02</pdfrwt>
<totfact> 0.58062529E+02</totfact>
</mgrwt>
</event>
<event>
 7    1  0.6493044E-004  0.2121159E+03  0.7546771E-02  0.1215724E+00
          1   -1    0    0  503    0  0.00000000000E+00  0.00000000000E+00  0.51100813859E+03  0.51100813859E+03  0.00000000000E+00 0. -1.
         -3   -1    0    0    0  501 -0.00000000000E+00 -0.00000000000E+00 -0.51426647848E+03  0.51426647848E+03  0.00000000000E+00 0.  1.
         25    2    1    2    0    0  0.17755189261E+03  0.31527142484E+02 -0.21428264652E+03  0.30669362594E+03  0.12500116924E+03 0.  0.
          4    1    3    3  502    0  0.13022753707E+02  0.15933718379E+02  0.13958432718E+02  0.24898318004E+02  0.12700000000E+01 0.  1.
         -4    1    3    3    0  502  0.16452913891E+03  0.15593424105E+02 -0.22824107923E+03  0.28179530794E+03  0.12700000000E+01 0.  1.
          2    1    1    2  503    0 -0.17936234275E+03 -0.12159548000E+03  0.43015618178E+03  0.48165407865E+03  0.00000000000E+00 0. -1.
         -2    1    1    2    0  501  0.18104501327E+01  0.90068337519E+02 -0.21913187515E+03  0.23692691249E+03  0.00000000000E+00 0.  1.
<mgrwt>
<rscale>  0 0.13823454E+03</rscale>
<asrwt>0</asrwt>
<pdfrwt beam="1">  1        1 0.78616637E-01 0.21211593E+03</pdfrwt>
<pdfrwt beam="2">  1       -3 0.79117919E-01 0.90086531E+02</pdfrwt>
<totfact> 0.35875922E+01</totfact>
</mgrwt>
</event>
<event>
 7    1  0.6493044E-004  0.6034238E+02  0.7546771E-02  0.1456783E+00
          2   -1    0    0  503    0  0.00000000000E+00  0.00000000000E+00  0.13129833771E+02  0.13129833771E+02  0.00000000000E+00 0. -1.
          1   -1    0    0  502    0 -0.00000000000E+00 -0.00000000000E+00 -0.24535727409E+04  0.24535727409E+04  0.00000000000E+00 0. -1.
         25    2    1    2    0    0 -0.71473529125E+02 -0.30868487644E+02 -0.71462081926E+03  0.72963624782E+03  0.12499923969E+03 0.  0.
          4    1    3    3  501    0  0.18036074453E+02 -0.21638635214E+02 -0.43450953475E+03  0.43542356298E+03  0.12700000000E+01 0. -1.
         -4    1    3    3    0  501 -0.89509603578E+02 -0.92298524300E+01 -0.28011128451E+03  0.29421268484E+03  0.12700000000E+01 0. -1.
          2    1    1    2  502    0  0.13569819375E+02  0.35586652063E+02 -0.15747235942E+04  0.15751840997E+04  0.00000000000E+00 0. -1.
          1    1    1    2  503    0  0.57903709750E+02 -0.47181644192E+01 -0.15109849363E+03  0.16188222711E+03  0.00000000000E+00 0. -1.
<mgrwt>
<rscale>  0 0.47939596E+02</rscale>
<asrwt>0</asrwt>
<pdfrwt beam="1">  1        2 0.20199760E-02 0.60342377E+02</pdfrwt>
<pdfrwt beam="2">  1        1 0.37747244E+00 0.38086084E+02</pdfrwt>
<totfact> 0.13883971E+03</totfact>
</mgrwt>
</event>
<event>
 7    1  0.6493044E-004  0.8383757E+02  0.7546771E-02  0.1376673E+00
          2   -1    0    0  503    0  0.00000000000E+00  0.00000000000E+00  0.29495044829E+03  0.29495044829E+03  0.00000000000E+00 0. -1.
          1   -1    0    0  502    0 -0.00000000000E+00 -0.00000000000E+00 -0.34454528149E+03  0.34454528149E+03  0.00000000000E+00 0. -1.
         25    2    1    2    0    0  0.65620855490E+02  0.64907468184E+02  0.38551926244E+00  0.15539238580E+03  0.12501027494E+03 0.  0.
          4    1    3    3  501    0 -0.31199981354E+02  0.11012824039E+01 -0.20767214495E+02  0.37517219477E+02  0.12700000000E+01 0.  1.
         -4    1    3    3    0  501  0.96820836844E+02  0.63806185780E+02  0.21152733757E+02  0.11787516633E+03  0.12700000000E+01 0.  1.
          2    1    1    2  502    0 -0.82590716415E+02 -0.16884007500E+02 -0.25722783122E+03  0.27068884960E+03  0.00000000000E+00 0. -1.
          1    1    1    2  503    0  0.16969860925E+02 -0.48023460684E+02  0.20724747875E+03  0.21341449437E+03  0.00000000000E+00 0. -1.
<mgrwt>
<rscale>  0 0.65346361E+02</rscale>
<asrwt>0</asrwt>
<pdfrwt beam="1">  1        2 0.45376992E-01 0.50933574E+02</pdfrwt>
<pdfrwt beam="2">  1        1 0.53006966E-01 0.83837566E+02</pdfrwt>
<totfact> 0.11073316E+03</totfact>
</mgrwt>
</event>
<event>
 7    1  0.6493044E-004  0.1454133E+03  0.7546771E-02  0.1331032E+00
         -2   -1    0    0    0  501 -0.00000000000E+00  0.00000000000E+00  0.26399257231E+03  0.26399257231E+03  0.00000000000E+00 0.  1.
          2   -1    0    0  503    0  0.00000000000E+00 -0.00000000000E+00 -0.36343319677E+04  0.36343319677E+04  0.00000000000E+00 0. -1.
         25    2    1    2    0    0 -0.18451881801E+03 -0.23822299161E+02 -0.35499694988E+03  0.41983524478E+03  0.12499640875E+03 0.  0.
          4    1    3    3  502    0 -0.12877684692E+03  0.74590032853E+01 -0.11960195964E+03  0.17591291790E+03  0.12700000000E+01 0. -1.
         -4    1    3    3    0  502 -0.55741971089E+02 -0.31281302446E+02 -0.23539499024E+03  0.24392232689E+03  0.12700000000E+01 0. -1.
          1    1    1    2  503    0  0.14294004703E+03  0.11907677210E+02 -0.32432972563E+04  0.32464674251E+04  0.00000000000E+00 0. -1.
         -1    1    1    2    0  501  0.41578770976E+02  0.11914621951E+02  0.22795481081E+03  0.23202187006E+03  0.00000000000E+00 0.  1.
<mgrwt>
<rscale>  0 0.79306015E+02</rscale>
<asrwt>0</asrwt>
<pdfrwt beam="2">  1        2 0.55912795E+00 0.14541329E+03</pdfrwt>
<pdfrwt beam="1">  1       -2 0.40614245E-01 0.43252195E+02</pdfrwt>
<totfact> 0.53120526E+00</totfact>
</mgrwt>
</event>
<event>
 7    1  0.6493044E-004  0.4266474E+02  0.7546771E-02  0.1564293E+00
          2   -1    0    0  503    0  0.00000000000E+00  0.00000000000E+00  0.16792613471E+04  0.16792613471E+04  0.00000000000E+00 0. -1.
         -2   -1    0    0    0  501 -0.00000000000E+00 -0.00000000000E+00 -0.15061345269E+02  0.15061345269E+02  0.00000000000E+00 0.  1.
         25    2    1    2    0    0  0.40832653555E+02  0.35213025600E+02  0.35989419355E+03  0.38478040969E+03  0.12499948143E+03 0.  0.
          4    1    3    3  502    0  0.61537717507E+02 -0.28531184232E+02  0.15492868009E+03  0.16913139261E+03  0.12700000000E+01 0.  1.
         -4    1    3    3    0  502 -0.20705063952E+02  0.63744209831E+02  0.20496551346E+03  0.21564901708E+03  0.12700000000E+01 0.  1.
          1    1    1    2  503    0 -0.15239764085E+02 -0.39690258677E+02  0.12316003285E+04  0.12323339386E+04  0.00000000000E+00 0. -1.
         -1    1    1    2    0  501 -0.25592889470E+02  0.44772330772E+01  0.72705479800E+02  0.77208344111E+02  0.00000000000E+00 0.  1.
<mgrwt>
<rscale>  0 0.33294094E+02</rscale>
<asrwt>0</asrwt>
<pdfrwt beam="1">  1        2 0.25834775E+00 0.42664743E+02</pdfrwt>
<pdfrwt beam="2">  1       -2 0.23171314E-02 0.25981563E+02</pdfrwt>
<totfact> 0.58860726E+03</totfact>
</mgrwt>
</event>
<event>
 7    1  0.6493044E-004  0.9535751E+02  0.7546771E-02  0.1295909E+00
          1   -1    0    0  502    0 -0.00000000000E+00  0.00000000000E+00  0.15163952594E+03  0.15163952594E+03  0.00000000000E+00 0. -1.
          2   -1    0    0  503    0  0.00000000000E+00 -0.00000000000E+00 -0.10360956737E+04  0.10360956737E+04  0.00000000000E+00 0. -1.
         25    2    1    2    0    0  0.26922382909E+02 -0.96296699583E+02 -0.59884068671E+02  0.17090590800E+03  0.12499943463E+03 0.  0.
          4    1    3    3  501    0  0.39107041264E+02  0.82388791317E+01  0.13939626804E+02  0.42345789651E+02  0.12700000000E+01 0.  1.
         -4    1    3    3    0  501 -0.12184658354E+02 -0.10453557871E+03 -0.73823695476E+02  0.12856011835E+03  0.12700000000E+01 0.  1.
          2    1    1    2  502    0  0.65278009027E+02  0.71962731537E+02  0.68374050588E+02  0.11880599306E+03  0.00000000000E+00 0. -1.
          1    1    1    2  503    0 -0.92200391936E+02  0.24333968046E+02 -0.89294612964E+03  0.89802329854E+03  0.00000000000E+00 0. -1.
<mgrwt>
<rscale>  0 0.92929412E+02</rscale>
<asrwt>0</asrwt>
<pdfrwt beam="2">  1        2 0.15939934E+00 0.95357508E+02</pdfrwt>
<pdfrwt beam="1">  1        1 0.23329157E-01 0.90563142E+02</pdfrwt>
<totfact> 0.72963895E+02</totfact>
</mgrwt>
</event>
<event>
 7    1  0.6493044E-004  0.7769659E+02  0.7546771E-02  0.1380020E+00
         -2   -1    0    0    0  501 -0.00000000000E+00  0.00000000000E+00  0.12804994787E+03  0.12804994787E+03  0.00000000000E+00 0.  1.
          2   -1    0    0  503    0  0.00000000000E+00 -0.00000000000E+00 -0.14489261796E+04  0.14489261796E+04  0.00000000000E+00 0. -1.
         25    2    1    2    0    0  0.46625984091E+02 -0.83229438592E+02 -0.53858613811E+03  0.56107196487E+03  0.12500239902E+03 0.  0.
          4    1    3    3  502    0 -0.10970031309E+02  0.25529122367E+02 -0.49928607486E+02  0.57153796211E+02  0.12700000000E+01 0.  1.
         -4    1    3    3    0  502  0.57596015401E+02 -0.10875856096E+03 -0.48865753063E+03  0.50391816866E+03  0.12700000000E+01 0.  1.
          1    1    1    2  503    0  0.64711911411E+01  0.76875432335E+02 -0.89122159635E+03  0.89455443781E+03  0.00000000000E+00 0. -1.
         -1    1    1    2    0  501 -0.53097175233E+02  0.63540062566E+01  0.10893150275E+03  0.12134972478E+03  0.00000000000E+00 0.  1.
<mgrwt>
<rscale>  0 0.64458542E+02</rscale>
<asrwt>0</asrwt>
<pdfrwt beam="2">  1        2 0.22291172E+00 0.77696592E+02</pdfrwt>
<pdfrwt beam="1">  1       -2 0.19699992E-01 0.53476008E+02</pdfrwt>
<totfact> 0.32689608E+02</totfact>
</mgrwt>
</event>
<event>
 7    1  0.6493044E-004  0.9526151E+02  0.7546771E-02  0.1345041E+00
          1   -1    0    0  502    0 -0.00000000000E+00  0.00000000000E+00  0.16655015647E+04  0.16655015647E+04  0.00000000000E+00 0. -1.
          2   -1    0    0  503    0  0.00000000000E+00 -0.00000000000E+00 -0.18447816831E+03  0.18447816831E+03  0.00000000000E+00 0. -1.
         25    2    1    2    0    0  0.13680908275E+02 -0.13168505766E+03  0.85888444280E+03  0.87797219187E+03  0.12499824775E+03 0.  0.
          4    1    3    3  501    0  0.16146109503E+02 -0.58162660721E+02  0.70309992034E+03  0.70568739739E+03  0.12700000000E+01 0. -1.
         -4    1    3    3    0  501 -0.24652012277E+01 -0.73522396940E+02  0.15578452246E+03  0.17228479448E+03  0.12700000000E+01 0. -1.
          2    1    1    2  502    0  0.21163752745E+02  0.84748770623E+02  0.78971341199E+03  0.79452975503E+03  0.00000000000E+00 0. -1.
          1    1    1    2  503    0 -0.34844661020E+02  0.46936287038E+02 -0.16757445842E+03  0.17747778610E+03  0.00000000000E+00 0. -1.
<mgrwt>
<rscale>  0 0.74623433E+02</rscale>
<asrwt>0</asrwt>
<pdfrwt beam="2">  1        2 0.28381258E-01 0.58456526E+02</pdfrwt>
<pdfrwt beam="1">  1        1 0.25623100E+00 0.95261507E+02</pdfrwt>
<totfact> 0.15196960E+02</totfact>
</mgrwt>
</event>
<event>
 7    1  0.6493044E-004  0.3097176E+02  0.7546771E-02  0.1595981E+00
          1   -1    0    0  502    0 -0.00000000000E+00  0.00000000000E+00  0.17141256874E+03  0.17141256874E+03  0.00000000000E+00 0. -1.
          2   -1    0    0  503    0  0.00000000000E+00 -0.00000000000E+00 -0.17865982083E+03  0.17865982083E+03  0.00000000000E+00 0. -1.
         25    2    1    2    0    0  0.86005796475E+01 -0.14656439190E+02 -0.15175436030E+01  0.12616132295E+03  0.12500238113E+03 0.  0.
          4    1    3    3  501    0  0.62123314081E+02  0.69642943854E+01  0.18247071524E+02  0.65133524915E+02  0.12700000000E+01 0.  1.
         -4    1    3    3    0  501 -0.53522734433E+02 -0.21620733575E+02 -0.19764615127E+02  0.61027798032E+02  0.12700000000E+01 0.  1.
          2    1    1    2  502    0  0.23022650104E+02  0.18334221496E+02  0.10481744834E+03  0.10887094916E+03  0.00000000000E+00 0. -1.
          1    1    1    2  503    0 -0.31623229751E+02 -0.36777823063E+01 -0.11054715682E+03  0.11504011746E+03  0.00000000000E+00 0. -1.
<mgrwt>
<rscale>  0 0.30191575E+02</rscale>
<asrwt>0</asrwt>
<pdfrwt beam="2">  1        2 0.27486126E-01 0.30971764E+02</pdfrwt>
<pdfrwt beam="1">  1        1 0.26371165E-01 0.29431040E+02</pdfrwt>
<totfact> 0.41483729E+03</totfact>
</mgrwt>
</event>
<event>
 7    1  0.6493044E-004  0.5707689E+02  0.7546771E-02  0.1449135E+00
         -1   -1    0    0    0  501 -0.00000000000E+00  0.00000000000E+00  0.33860093197E+02  0.33860093197E+02  0.00000000000E+00 0.  1.
          1   -1    0    0  503    0  0.00000000000E+00 -0.00000000000E+00 -0.35752339848E+04  0.35752339848E+04  0.00000000000E+00 0. -1.
         25    2    1    2    0    0 -0.66599154804E+02  0.26026834099E+02 -0.46597577180E+03  0.48772024690E+03  0.12499910325E+03 0.  0.
          4    1    3    3  502    0 -0.97550678799E+02  0.22493704874E+02 -0.42262441550E+03  0.43432143761E+03  0.12700000000E+01 0. -1.
         -4    1    3    3    0  502  0.30951523995E+02  0.35331292251E+01 -0.43351356305E+02  0.53398809287E+02  0.12700000000E+01 0. -1.
          2    1    1    2  503    0  0.11626416196E+02 -0.40970957133E+02 -0.30627152048E+04  0.30630112991E+04  0.00000000000E+00 0. -1.
         -2    1    1    2    0  501  0.54972738608E+02  0.14944123034E+02 -0.12682914979E+02  0.58362531950E+02  0.00000000000E+00 0.  1.
<mgrwt>
<rscale>  0 0.49303424E+02</rscale>
<asrwt>0</asrwt>
<pdfrwt beam="2">  1        1 0.55003562E+00 0.42588647E+02</pdfrwt>
<pdfrwt beam="1">  1       -1 0.52092487E-02 0.57076892E+02</pdfrwt>
<totfact> 0.57298952E+01</totfact>
</mgrwt>
</event>
<event>
 7    1  0.6493044E-004  0.9806136E+02  0.7546771E-02  0.1320932E+00
          2   -1    0    0  503    0  0.00000000000E+00  0.00000000000E+00  0.21080216721E+03  0.21080216721E+03  0.00000000000E+00 0. -1.
          1   -1    0    0  502    0 -0.00000000000E+00 -0.00000000000E+00 -0.19318656217E+03  0.19318656217E+03  0.00000000000E+00 0. -1.
         25    2    1    2    0    0 -0.67419068670E+02 -0.77244609399E+02  0.95631306781E+02  0.18783344136E+03  0.12499597735E+03 0.  0.
          4    1    3    3  501    0 -0.58226749953E+02 -0.35548734287E+02 -0.14457913598E+02  0.69747480851E+02  0.12700000000E+01 0.  1.
         -4    1    3    3    0  501 -0.91923187168E+01 -0.41695875112E+02  0.11008922038E+03  0.11808596050E+03  0.12700000000E+01 0.  1.
          2    1    1    2  502    0  0.64067351486E+02 -0.28539465520E+02 -0.84865518909E+02  0.11009669804E+03  0.00000000000E+00 0. -1.
          1    1    1    2  503    0  0.33517171839E+01  0.10578407492E+03  0.68498171753E+01  0.10605858999E+03  0.00000000000E+00 0. -1.
<mgrwt>
<rscale>  0 0.82931774E+02</rscale>
<asrwt>0</asrwt>
<pdfrwt beam="1">  1        2 0.32431103E-01 0.98061359E+02</pdfrwt>
<pdfrwt beam="2">  1        1 0.29721009E-01 0.70136486E+02</pdfrwt>
<totfact> 0.32032937E+03</totfact>
</mgrwt>
</event>
<event>
 7    1  0.6493044E-004  0.6249972E+02  0.7546771E-02  0.1482956E+00
         -1   -1    0    0    0  501 -0.00000000000E+00  0.00000000000E+00  0.27857754140E+03  0.27857754140E+03  0.00000000000E+00 0.  1.
          1   -1    0    0  503    0  0.00000000000E+00 -0.00000000000E+00 -0.65266046982E+03  0.65266046982E+03  0.00000000000E+00 0. -1.
         25    2    1    2    0    0  0.20157790030E+02  0.32242129935E+02  0.12624195186E+03  0.18168177027E+03  0.12500137517E+03 0.  0.
          4    1    3    3  502    0  0.71927718722E+02  0.10284455835E+02  0.85600285624E+02  0.11228708096E+03  0.12700000000E+01 0. -1.
         -4    1    3    3    0  502 -0.51769928691E+02  0.21957674101E+02  0.40641666240E+02  0.69394689302E+02  0.12700000000E+01 0. -1.
          2    1    1    2  503    0 -0.50133996098E+02 -0.37782449401E+02 -0.62147103199E+03  0.62463363234E+03  0.00000000000E+00 0. -1.
         -2    1    1    2    0  501  0.29976206067E+02  0.55403194657E+01  0.12114615171E+03  0.12492260862E+03  0.00000000000E+00 0.  1.
<mgrwt>
<rscale>  0 0.43648998E+02</rscale>
<asrwt>0</asrwt>
<pdfrwt beam="2">  1        1 0.10040930E+00 0.62499716E+02</pdfrwt>
<pdfrwt beam="1">  1       -1 0.42858084E-01 0.30483899E+02</pdfrwt>
<totfact> 0.18052461E+02</totfact>
</mgrwt>
</event>
<event>
 7    1  0.6493044E-004  0.1470786E+03  0.7546771E-02  0.1310964E+00
          1   -1    0    0  502    0 -0.00000000000E+00  0.00000000000E+00  0.10364604571E+03  0.10364604571E+03  0.00000000000E+00 0. -1.
          2   -1    0    0  503    0  0.00000000000E+00 -0.00000000000E+00 -0.70728548700E+03  0.70728548700E+03  0.00000000000E+00 0. -1.
         25    2    1    2    0    0 -0.10514467035E+03 -0.38883164245E+02 -0.12032173383E+03  0.20656498293E+03  0.12499788149E+03 0.  0.
          4    1    3    3  501    0 -0.10627129397E+03 -0.47611248361E+02 -0.36168632682E+02  0.12194343682E+03  0.12700000000E+01 0.  1.
         -4    1    3    3    0  501  0.11266236279E+01  0.87280841160E+01 -0.84153101149E+02  0.84621546111E+02  0.12700000000E+01 0.  1.
          2    1    1    2  502    0 -0.29440153703E+02 -0.41823400739E+02  0.35549678008E+02  0.62287230681E+02  0.00000000000E+00 0. -1.
          1    1    1    2  503    0  0.13458482405E+03  0.80706564984E+02 -0.51886738546E+03  0.54207931910E+03  0.00000000000E+00 0. -1.
<mgrwt>
<rscale>  0 0.86732302E+02</rscale>
<asrwt>0</asrwt>
<pdfrwt beam="2">  1        2 0.10881316E+00 0.14707862E+03</pdfrwt>
<pdfrwt beam="1">  1        1 0.15945545E-01 0.51146060E+02</pdfrwt>
<totfact> 0.18315342E+03</totfact>
</mgrwt>
</event>
<event>
 7    1  0.6493044E-004  0.8343422E+02  0.7546771E-02  0.1449460E+00
          1   -1    0    0  502    0 -0.00000000000E+00  0.00000000000E+00  0.15135134499E+04  0.15135134499E+04  0.00000000000E+00 0. -1.
          2   -1    0    0  503    0  0.00000000000E+00 -0.00000000000E+00 -0.27763118383E+04  0.27763118383E+04  0.00000000000E+00 0. -1.
         25    2    1    2    0    0 -0.13396988564E+02  0.10871351783E+03 -0.81141375814E+03  0.82825897721E+03  0.12499015226E+03 0.  0.
          4    1    3    3  501    0  0.24450300494E+02  0.54665448241E+02 -0.12425580048E+03  0.13793928113E+03  0.12700000000E+01 0.  1.
         -4    1    3    3    0  501 -0.37847289059E+02  0.54048069584E+02 -0.68715795767E+03  0.69031969608E+03  0.12700000000E+01 0.  1.
          2    1    1    2  502    0  0.21095492925E+02 -0.80686672857E+02  0.15038274426E+04  0.15061382195E+04  0.00000000000E+00 0. -1.
          1    1    1    2  503    0 -0.76985043609E+01 -0.28026844968E+02 -0.19552120729E+04  0.19554280915E+04  0.00000000000E+00 0. -1.
<mgrwt>
<rscale>  0 0.49244400E+02</rscale>
<asrwt>0</asrwt>
<pdfrwt beam="2">  1        2 0.42712489E+00 0.29064945E+02</pdfrwt>
<pdfrwt beam="1">  1        1 0.23284823E+00 0.83434217E+02</pdfrwt>
<totfact> 0.42743450E+00</totfact>
</mgrwt>
</event>
<event>
 7    1  0.6493044E-004  0.4458507E+02  0.7546771E-02  0.1522244E+00
          2   -1    0    0  503    0  0.00000000000E+00  0.00000000000E+00  0.15105104164E+04  0.15105104164E+04  0.00000000000E+00 0. -1.
         -2   -1    0    0    0  501 -0.00000000000E+00 -0.00000000000E+00 -0.14447660684E+03  0.14447660684E+03  0.00000000000E+00 0.  1.
         25    2    1    2    0    0  0.19605796843E+02  0.45284052244E+02 -0.88510612016E+02  0.16091256145E+03  0.12499476523E+03 0.  0.
          4    1    3    3  502    0 -0.46876307448E+02 -0.87510440616E+01 -0.41231540990E+02  0.63052532420E+02  0.12700000000E+01 0. -1.
         -4    1    3    3    0  502  0.66482104291E+02  0.54035096306E+02 -0.47279071026E+02  0.97860029026E+02  0.12700000000E+01 0. -1.
          1    1    1    2  503    0 -0.39983071470E+02 -0.19770308478E+02  0.14602467393E+04  0.14609278048E+04  0.00000000000E+00 0. -1.
         -3    1    1    2    0  501  0.20377274628E+02 -0.25513743766E+02 -0.57023177590E+01  0.33146656996E+02  0.00000000000E+00 0.  1.
<mgrwt>
<rscale>  0 0.38155121E+02</rscale>
<asrwt>0</asrwt>
<pdfrwt beam="1">  1        2 0.23238621E+00 0.44585074E+02</pdfrwt>
<pdfrwt beam="2">  1       -2 0.22227171E-01 0.32652480E+02</pdfrwt>
<totfact> 0.25488548E+02</totfact>
</mgrwt>
</event>
<event>
 7    1  0.6493044E-004  0.2440430E+02  0.7546771E-02  0.1694667E+00
          1   -1    0    0  502    0 -0.00000000000E+00  0.00000000000E+00  0.59404400395E+03  0.59404400395E+03  0.00000000000E+00 0. -1.
          2   -1    0    0  503    0  0.00000000000E+00 -0.00000000000E+00 -0.66602445931E+03  0.66602445931E+03  0.00000000000E+00 0. -1.
         25    2    1    2    0    0  0.99202046874E+01 -0.32228127367E+02 -0.44787055175E+03  0.46620674052E+03  0.12499452442E+03 0.  0.
          4    1    3    3  501    0 -0.38672470573E+02 -0.61014865939E+02 -0.27540322834E+03  0.28472254025E+03  0.12700000000E+01 0.  1.
         -4    1    3    3    0  501  0.48592675261E+02  0.28786738572E+02 -0.17246732340E+03  0.18148420027E+03  0.12700000000E+01 0.  1.
          2    1    1    2  502    0 -0.20266061123E+02  0.13594402956E+02  0.58407705805E+03  0.58458663239E+03  0.00000000000E+00 0. -1.
          1    1    1    2  503    0  0.10345856436E+02  0.18633724411E+02 -0.20818696166E+03  0.20927509034E+03  0.00000000000E+00 0. -1.
<mgrwt>
<rscale>  0 0.22806439E+02</rscale>
<asrwt>0</asrwt>
<pdfrwt beam="2">  1        2 0.10246530E+00 0.21313199E+02</pdfrwt>
<pdfrwt beam="1">  1        1 0.91391385E-01 0.24404299E+02</pdfrwt>
<totfact> 0.25185082E+02</totfact>
</mgrwt>
</event>
<event>
 7    1  0.6493044E-004  0.4093583E+03  0.7546771E-02  0.1266558E+00
          2   -1    0    0  503    0  0.00000000000E+00  0.00000000000E+00  0.64840383783E+03  0.64840383783E+03  0.00000000000E+00 0. -1.
          1   -1    0    0  502    0 -0.00000000000E+00 -0.00000000000E+00 -0.15191441753E+04  0.15191441753E+04  0.00000000000E+00 0. -1.
         25    2    1    2    0    0 -0.39997834284E+03 -0.14974403498E+03 -0.35584110008E+02  0.44642681702E+03  0.12499889327E+03 0.  0.
          4    1    3    3  501    0 -0.10779321611E+02  0.11848591495E+02  0.15007677170E+02  0.21986954515E+02  0.12700000000E+01 0. -1.
         -4    1    3    3    0  501 -0.38919902123E+03 -0.16159262647E+03 -0.50591787178E+02  0.42443986250E+03  0.12700000000E+01 0. -1.
          2    1    1    2  502    0  0.37394462233E+03  0.15971688108E+03 -0.12453127612E+04  0.13100182961E+04  0.00000000000E+00 0. -1.
          1    1    1    2  503    0  0.26033720510E+02 -0.99728461024E+01  0.41015653376E+03  0.41110290007E+03  0.00000000000E+00 0. -1.
<mgrwt>
<rscale>  0 0.10682840E+03</rscale>
<asrwt>0</asrwt>
<pdfrwt beam="1">  1        2 0.99754437E-01 0.27878527E+02</pdfrwt>
<pdfrwt beam="2">  1        1 0.23371449E+00 0.40935831E+03</pdfrwt>
<totfact> 0.45046863E+01</totfact>
</mgrwt>
</event>
<event>
 7    1  0.6493044E-004  0.9698670E+02  0.7546771E-02  0.1462321E+00
          1   -1    0    0  503    0  0.00000000000E+00  0.00000000000E+00  0.15628449840E+03  0.15628449840E+03  0.00000000000E+00 0. -1.
         -1   -1    0    0    0  501 -0.00000000000E+00 -0.00000000000E+00 -0.42464876142E+03  0.42464876142E+03  0.00000000000E+00 0.  1.
         25    2    1    2    0    0 -0.55602876859E+02  0.95281872220E+02  0.27765032328E+02  0.16901851700E+03  0.12500418786E+03 0.  0.
          4    1    3    3  502    0  0.16742869293E+02  0.30636411503E+02 -0.38141303884E+02  0.51723160615E+02  0.12700000000E+01 0.  1.
         -4    1    3    3    0  502 -0.72345746152E+02  0.64645460717E+02  0.65906336212E+02  0.11729535639E+03  0.12700000000E+01 0.  1.
          2    1    1    2  503    0  0.36605375705E+02 -0.82745428284E+02  0.21882682352E+02  0.93089264791E+02  0.00000000000E+00 0. -1.
         -2    1    1    2    0  501  0.18997501154E+02 -0.12536443935E+02 -0.31801197770E+03  0.31882547802E+03  0.00000000000E+00 0.  1.
<mgrwt>
<rscale>  0 0.46984291E+02</rscale>
<asrwt>0</asrwt>
<pdfrwt beam="1">  1        1 0.24043769E-01 0.96986703E+02</pdfrwt>
<pdfrwt beam="2">  1       -1 0.65330578E-01 0.22761096E+02</pdfrwt>
<totfact> 0.50696986E+02</totfact>
</mgrwt>
</event>
<event>
 7    1  0.6493044E-004  0.6999931E+02  0.7546771E-02  0.1413552E+00
          1   -1    0    0  502    0 -0.00000000000E+00  0.00000000000E+00  0.45697537711E+03  0.45697537711E+03  0.00000000000E+00 0. -1.
          2   -1    0    0  503    0  0.00000000000E+00 -0.00000000000E+00 -0.22884967356E+04  0.22884967356E+04  0.00000000000E+00 0. -1.
         25    2    1    2    0    0  0.14338213197E+02  0.71396684799E+02 -0.13663723810E+04  0.13740094161E+04  0.12500128365E+03 0.  0.
          4    1    3    3  501    0 -0.58179288668E+01  0.79251443400E+02 -0.42377418722E+03  0.43116216698E+03  0.12700000000E+01 0.  1.
         -4    1    3    3    0  501  0.20156142064E+02 -0.78547586009E+01 -0.94259819378E+03  0.94284724908E+03  0.12700000000E+01 0.  1.
          2    1    1    2  502    0  0.39590789566E+02 -0.22335923706E+02  0.45056439962E+03  0.45285163388E+03  0.00000000000E+00 0. -1.
          1    1    1    2  503    0 -0.53929002762E+02 -0.49060761094E+02 -0.91571337711E+03  0.91861106276E+03  0.00000000000E+00 0. -1.
<mgrwt>
<rscale>  0 0.56408752E+02</rscale>
<asrwt>0</asrwt>
<pdfrwt beam="2">  1        2 0.35207642E+00 0.69999311E+02</pdfrwt>
<pdfrwt beam="1">  1        1 0.70303905E-01 0.45456838E+02</pdfrwt>
<totfact> 0.44407716E+01</totfact>
</mgrwt>
</event>
<event>
 7    1  0.6493044E-004  0.5535352E+02  0.7546771E-02  0.1494240E+00
         -2   -1    0    0    0  501  0.00000000000E+00  0.00000000000E+00  0.14784944091E+04  0.14784944091E+04  0.00000000000E+00 0.  1.
         -1   -1    0    0    0  502 -0.00000000000E+00 -0.00000000000E+00 -0.20250215816E+02  0.20250215816E+02  0.00000000000E+00 0.  1.
         25    2    1    2    0    0 -0.42331491891E+02  0.39894103970E+01  0.85736341866E+03  0.86746992244E+03  0.12499665625E+03 0.  0.
          4    1    3    3  503    0  0.23804321068E+02  0.41802026249E+02  0.48562880849E+03  0.48800717990E+03  0.12700000000E+01 0. -1.
         -4    1    3    3    0  503 -0.66135812959E+02 -0.37812615852E+02  0.37173461018E+03  0.37946274254E+03  0.12700000000E+01 0. -1.
         -2    1    1    2    0  502  0.43862349672E+02 -0.35765158677E+02  0.39554994823E+02  0.69048170934E+02  0.00000000000E+00 0.  1.
         -1    1    1    2    0  501 -0.15308577810E+01  0.31775748280E+02  0.56132577979E+03  0.56222653153E+03  0.00000000000E+00 0.  1.
<mgrwt>
<rscale>  0 0.41963550E+02</rscale>
<asrwt>0</asrwt>
<pdfrwt beam="1">  1       -2 0.22746059E+00 0.31812603E+02</pdfrwt>
<pdfrwt beam="2">  1       -1 0.31154190E-02 0.55353518E+02</pdfrwt>
<totfact> 0.25648985E+02</totfact>
</mgrwt>
</event>
<event>
 7    1  0.6493044E-004  0.1088779E+03  0.7546771E-02  0.1461262E+00
          1   -1    0    0  502    0 -0.00000000000E+00  0.00000000000E+00  0.12358435593E+02  0.12358435593E+02  0.00000000000E+00 0. -1.
          2   -1    0    0  503    0  0.00000000000E+00 -0.00000000000E+00 -0.26312101425E+04  0.26312101425E+04  0.00000000000E+00 0. -1.
         25    2    1    2    0    0  0.35820010753E+02  0.10349452112E+03 -0.90575359464E+03  0.92087431659E+03  0.12500297469E+03 0.  0.
          4    1    3    3  501    0  0.71649535779E+02  0.10791374173E+03 -0.73698777831E+03  0.74828579427E+03  0.12700000000E+01 0.  1.
         -4    1    3    3    0  501 -0.35829525026E+02 -0.44192206090E+01 -0.16876581634E+03  0.17258852232E+03  0.12700000000E+01 0.  1.
          2    1    1    2  502    0  0.18418777543E+02 -0.88426493721E+01 -0.31403149219E+02  0.37464671291E+02  0.00000000000E+00 0. -1.
          1    1    1    2  503    0 -0.54238788296E+02 -0.94651871750E+02 -0.16816949631E+04  0.16852295903E+04  0.00000000000E+00 0. -1.
<mgrwt>
<rscale>  0 0.47164958E+02</rscale>
<asrwt>0</asrwt>
<pdfrwt beam="2">  1        2 0.40480144E+00 0.10887794E+03</pdfrwt>
<pdfrwt beam="1">  1        1 0.19012983E-02 0.20431442E+02</pdfrwt>
<totfact> 0.23252872E+03</totfact>
</mgrwt>
</event>
<event>
 7    1  0.6493044E-004  0.7272475E+02  0.7546771E-02  0.1443013E+00
          1   -1    0    0  502    0 -0.00000000000E+00  0.00000000000E+00  0.28234560916E+02  0.28234560916E+02  0.00000000000E+00 0. -1.
          2   -1    0    0  503    0  0.00000000000E+00 -0.00000000000E+00 -0.19340824541E+04  0.19340824541E+04  0.00000000000E+00 0. -1.
         25    2    1    2    0    0  0.22253615412E+02  0.40233781838E+02 -0.25613238638E+03  0.28869178427E+03  0.12500066543E+03 0.  0.
          4    1    3    3  501    0 -0.22584867124E+02  0.43285814007E+02 -0.23312627491E+03  0.23818734406E+03  0.12700000000E+01 0.  1.
         -4    1    3    3    0  501  0.44838482536E+02 -0.30520321691E+01 -0.23006111466E+02  0.50504440214E+02  0.12700000000E+01 0.  1.
          2    1    1    2  502    0  0.33989846814E+02  0.82463887600E+01 -0.16412573789E+02  0.38635284293E+02  0.00000000000E+00 0. -1.
          1    1    1    2  503    0 -0.56243462226E+02 -0.48480170598E+02 -0.16333029330E+04  0.16349899464E+04  0.00000000000E+00 0. -1.
<mgrwt>
<rscale>  0 0.50434241E+02</rscale>
<asrwt>0</asrwt>
<pdfrwt beam="2">  1        2 0.29755122E+00 0.72724752E+02</pdfrwt>
<pdfrwt beam="1">  1        1 0.43437775E-02 0.34975886E+02</pdfrwt>
<totfact> 0.20609178E+03</totfact>
</mgrwt>
</event>
<event>
 7    1  0.6493044E-004  0.6679714E+02  0.7546771E-02  0.1374682E+00
          1   -1    0    0  502    0 -0.00000000000E+00  0.00000000000E+00  0.21427019881E+03  0.21427019881E+03  0.00000000000E+00 0. -1.
          2   -1    0    0  503    0  0.00000000000E+00 -0.00000000000E+00 -0.19781354696E+04  0.19781354696E+04  0.00000000000E+00 0. -1.
         25    2    1    2    0    0  0.37242491732E+02  0.11499539958E+03  0.54781358633E+02  0.18230993004E+03  0.12499987289E+03 0.  0.
          4    1    3    3  501    0 -0.23341914844E+02  0.61560935385E+02 -0.23399787036E+02  0.69883880026E+02  0.12700000000E+01 0. -1.
         -4    1    3    3    0  501  0.60584406576E+02  0.53434464199E+02  0.78181145668E+02  0.11242605002E+03  0.12700000000E+01 0. -1.
          2    1    1    2  502    0 -0.43052995638E+02 -0.48671297722E+02  0.84047210845E+02  0.10623741952E+03  0.00000000000E+00 0. -1.
          1    1    1    2  503    0  0.58105039057E+01 -0.66324101863E+02 -0.19026938402E+04  0.19038583188E+04  0.00000000000E+00 0. -1.
<mgrwt>
<rscale>  0 0.65882523E+02</rscale>
<asrwt>0</asrwt>
<pdfrwt beam="2">  1        2 0.30432854E+00 0.66797145E+02</pdfrwt>
<pdfrwt beam="1">  1        1 0.32964646E-01 0.64980425E+02</pdfrwt>
<totfact> 0.15918282E+02</totfact>
</mgrwt>
</event>
<event>
 7    1  0.6493044E-004  0.7416039E+02  0.7546771E-02  0.1448801E+00
          2   -1    0    0  503    0  0.00000000000E+00  0.00000000000E+00  0.22455603965E+04  0.22455603965E+04  0.00000000000E+00 0. -1.
         -2   -1    0    0    0  501 -0.00000000000E+00 -0.00000000000E+00 -0.22115162446E+03  0.22115162446E+03  0.00000000000E+00 0.  1.
         25    2    1    2    0    0  0.12366543337E+02 -0.64766408055E+02  0.11342036125E+04  0.11429745033E+04  0.12500104604E+03 0.  0.
          4    1    3    3  502    0 -0.42739238329E+02 -0.73391084905E+02  0.73487526117E+03  0.73976763663E+03  0.12700000000E+01 0.  1.
         -4    1    3    3    0  502  0.55105781666E+02  0.86246768500E+01  0.39932835137E+03  0.40320686667E+03  0.12700000000E+01 0.  1.
          1    1    1    2  503    0  0.32390358677E+02  0.55293852773E+01  0.11003615675E+04  0.11008520740E+04  0.00000000000E+00 0. -1.
         -1    1    1    2    0  501 -0.44756902015E+02  0.59237022778E+02 -0.21015640806E+03  0.22288544366E+03  0.00000000000E+00 0.  1.
<mgrwt>
<rscale>  0 0.49364270E+02</rscale>
<asrwt>0</asrwt>
<pdfrwt beam="1">  1        2 0.34547081E+00 0.32858932E+02</pdfrwt>
<pdfrwt beam="2">  1       -2 0.34023328E-01 0.74160387E+02</pdfrwt>
<totfact> 0.57557543E+01</totfact>
</mgrwt>
</event>
<event>
 7    1  0.6493044E-004  0.9940468E+02  0.7546771E-02  0.1302824E+00
          2   -1    0    0  503    0  0.00000000000E+00  0.00000000000E+00  0.18857404758E+04  0.18857404758E+04  0.00000000000E+00 0. -1.
         -2   -1    0    0    0  501 -0.00000000000E+00 -0.00000000000E+00 -0.55168535096E+02  0.55168535096E+02  0.00000000000E+00 0.  1.
         25    2    1    2    0    0  0.27939970715E+02 -0.24294742370E+02  0.33934516691E+03  0.36352534414E+03  0.12499862823E+03 0.  0.
          4    1    3    3  502    0 -0.74397188632E+01 -0.29437411906E+02  0.32259646294E+03  0.32402469264E+03  0.12700000000E+01 0.  1.
         -4    1    3    3    0  502  0.35379689578E+02  0.51426695357E+01  0.16748703961E+02  0.39500651500E+02  0.12700000000E+01 0.  1.
          1    1    1    2  503    0  0.81087006628E+02 -0.82541419960E+01  0.14559913634E+04  0.14582709227E+04  0.00000000000E+00 0. -1.
         -1    1    1    2    0  501 -0.10902697734E+03  0.32548884366E+02  0.35235410373E+02  0.11911274410E+03  0.00000000000E+00 0.  1.
<mgrwt>
<rscale>  0 0.90011563E+02</rscale>
<asrwt>0</asrwt>
<pdfrwt beam="1">  1        2 0.29011387E+00 0.81506034E+02</pdfrwt>
<pdfrwt beam="2">  1       -2 0.84874684E-02 0.99404684E+02</pdfrwt>
<totfact> 0.77653180E+02</totfact>
</mgrwt>
</event>
<event>
 7    1  0.6493044E-004  0.5742657E+02  0.7546771E-02  0.1430068E+00
          2   -1    0    0  503    0  0.00000000000E+00  0.00000000000E+00  0.10611191897E+04  0.10611191897E+04  0.00000000000E+00 0. -1.
         -2   -1    0    0    0  501 -0.00000000000E+00 -0.00000000000E+00 -0.55104902226E+03  0.55104902226E+03  0.00000000000E+00 0.  1.
         25    2    1    2    0    0  0.22672219220E+02  0.71716402697E+02  0.17140466265E+03  0.22507962998E+03  0.12499603799E+03 0.  0.
          4    1    3    3  502    0  0.30022695358E+02  0.61827070718E+02  0.17845002414E+02  0.71021165305E+02  0.12700000000E+01 0. -1.
         -4    1    3    3    0  502 -0.73504761384E+01  0.98893319794E+01  0.15355966024E+03  0.15405846468E+03  0.12700000000E+01 0. -1.
          1    1    1    2  503    0 -0.48690899087E+02 -0.30412581458E+02  0.86078238105E+03  0.86269463676E+03  0.00000000000E+00 0. -1.
         -1    1    1    2    0  501  0.26018679868E+02 -0.41303821239E+02 -0.52211687624E+03  0.52439394524E+03  0.00000000000E+00 0.  1.
<mgrwt>
<rscale>  0 0.52946400E+02</rscale>
<asrwt>0</asrwt>
<pdfrwt beam="1">  1        2 0.16324911E+00 0.57426575E+02</pdfrwt>
<pdfrwt beam="2">  1       -2 0.84776773E-01 0.48815749E+02</pdfrwt>
<totfact> 0.34515579E+01</totfact>
</mgrwt>
</event>
<event>
 7    1  0.6493044E-004  0.1291385E+03  0.7546771E-02  0.1231309E+00
          2   -1    0    0  503    0  0.00000000000E+00  0.00000000000E+00  0.14459056762E+04  0.14459056762E+04  0.00000000000E+00 0. -1.
          1   -1    0    0  502    0 -0.00000000000E+00 -0.00000000000E+00 -0.20714424380E+03  0.20714424380E+03  0.00000000000E+00 0. -1.
         25    2    1    2    0    0 -0.11277879704E+03 -0.61450258889E+02  0.12795690709E+03  0.22021198140E+03  0.12500062121E+03 0.  0.
          4    1    3    3  501    0  0.20813963194E+02 -0.23461687266E+02  0.54987968758E+02  0.63316359982E+02  0.12700000000E+01 0. -1.
         -4    1    3    3    0  501 -0.13359276023E+03 -0.37988571622E+02  0.72968938329E+02  0.15689562142E+03  0.12700000000E+01 0. -1.
          2    1    1    2  502    0  0.61117283409E+01  0.13424374359E+03 -0.12902806332E+03  0.18629808652E+03  0.00000000000E+00 0. -1.
          1    1    1    2  503    0  0.10666706870E+03 -0.72793484699E+02  0.12398325887E+04  0.12465398521E+04  0.00000000000E+00 0. -1.
<mgrwt>
<rscale>  0 0.12743682E+03</rscale>
<asrwt>0</asrwt>
<pdfrwt beam="1">  1        2 0.22244702E+00 0.12913851E+03</pdfrwt>
<pdfrwt beam="2">  1        1 0.31868346E-01 0.12575755E+03</pdfrwt>
<totfact> 0.29255517E+02</totfact>
</mgrwt>
</event>
<event>
 7    1  0.6493044E-004  0.9494344E+02  0.7546771E-02  0.1445605E+00
          1   -1    0    0  502    0 -0.00000000000E+00  0.00000000000E+00  0.12165996739E+04  0.12165996739E+04  0.00000000000E+00 0. -1.
          2   -1    0    0  503    0  0.00000000000E+00 -0.00000000000E+00 -0.14446123891E+03  0.14446123891E+03  0.00000000000E+00 0. -1.
         25    2    1    2    0    0  0.11152288441E+03 -0.12626852670E+02 -0.25019010189E+02  0.16984806905E+03  0.12500249811E+03 0.  0.
          4    1    3    3  501    0  0.29366718094E+02  0.51312705667E+02  0.10058274348E+02  0.59984828727E+02  0.12700000000E+01 0. -1.
         -4    1    3    3    0  501  0.82156166317E+02 -0.63939558337E+02 -0.35077284537E+02  0.10986324033E+03  0.12700000000E+01 0. -1.
          2    1    1    2  502    0 -0.94354904832E+02 -0.72705136284E+01  0.11383903453E+04  0.11423170692E+04  0.00000000000E+00 0. -1.
          1    1    1    2  503    0 -0.17167979580E+02  0.19897366298E+02 -0.41232900141E+02  0.48895774485E+02  0.00000000000E+00 0. -1.
<mgrwt>
<rscale>  0 0.49951227E+02</rscale>
<asrwt>0</asrwt>
<pdfrwt beam="2">  1        2 0.22224807E-01 0.26280120E+02</pdfrwt>
<pdfrwt beam="1">  1        1 0.18716917E+00 0.94943442E+02</pdfrwt>
<totfact> 0.37154469E+02</totfact>
</mgrwt>
</event>
<event>
 7    1  0.6493044E-004  0.4905657E+02  0.7546771E-02  0.1451667E+00
         -1   -1    0    0    0  501 -0.00000000000E+00  0.00000000000E+00  0.53406150621E+03  0.53406150621E+03  0.00000000000E+00 0.  1.
          1   -1    0    0  503    0  0.00000000000E+00 -0.00000000000E+00 -0.94505171121E+02  0.94505171121E+02  0.00000000000E+00 0. -1.
         25    2    1    2    0    0  0.27986055817E+02  0.97218399166E+00  0.31200334313E+03  0.33727670894E+03  0.12500131121E+03 0.  0.
          4    1    3    3  502    0  0.56469065658E+02 -0.27138070423E+02  0.78888152731E+02  0.10074812050E+03  0.12700000000E+01 0. -1.
         -4    1    3    3    0  502 -0.28483009841E+02  0.28110254414E+02  0.23311519040E+03  0.23652858844E+03  0.12700000000E+01 0. -1.
          2    1    1    2  503    0  0.96093870465E+01 -0.47677579179E+02 -0.69775637706E+02  0.85053697704E+02  0.00000000000E+00 0. -1.
         -2    1    1    2    0  501 -0.37595442863E+02  0.46705395187E+02  0.19732862967E+03  0.20623627069E+03  0.00000000000E+00 0.  1.
<mgrwt>
<rscale>  0 0.48845997E+02</rscale>
<asrwt>0</asrwt>
<pdfrwt beam="2">  1        1 0.14539257E-01 0.48636323E+02</pdfrwt>
<pdfrwt beam="1">  1       -1 0.82163307E-01 0.49056575E+02</pdfrwt>
<totfact> 0.58542272E+02</totfact>
</mgrwt>
</event>
<event>
 7    1  0.6493044E-004  0.9168156E+02  0.7546771E-02  0.1309019E+00
         -2   -1    0    0    0  501 -0.00000000000E+00  0.00000000000E+00  0.41655076894E+02  0.41655076894E+02  0.00000000000E+00 0.  1.
          2   -1    0    0  503    0  0.00000000000E+00 -0.00000000000E+00 -0.13222041935E+04  0.13222041935E+04  0.00000000000E+00 0. -1.
         25    2    1    2    0    0  0.42392367037E+02  0.32976283201E+02 -0.31201341510E+03  0.34038546748E+03  0.12500138893E+03 0.  0.
          4    1    3    3  502    0  0.14140023833E+02  0.78084822849E+02 -0.22255425445E+03  0.23628201139E+03  0.12700000000E+01 0.  1.
         -4    1    3    3    0  502  0.28252343204E+02 -0.45108539649E+02 -0.89459160651E+02  0.10410345609E+03  0.12700000000E+01 0.  1.
          1    1    1    2  503    0 -0.99724102296E+02  0.27745627864E+02 -0.92215739802E+03  0.92794880418E+03  0.00000000000E+00 0. -1.
         -1    1    1    2    0  501  0.57331735259E+02 -0.60721911065E+02 -0.46378303500E+02  0.95524998753E+02  0.00000000000E+00 0.  1.
<mgrwt>
<rscale>  0 0.87500938E+02</rscale>
<asrwt>0</asrwt>
<pdfrwt beam="2">  1        2 0.20341601E+00 0.91681562E+02</pdfrwt>
<pdfrwt beam="1">  1       -2 0.64084740E-02 0.83510947E+02</pdfrwt>
<totfact> 0.22428274E+03</totfact>
</mgrwt>
</event>
<event>
 7    1  0.6493044E-004  0.7550526E+02  0.7546771E-02  0.1365978E+00
          2   -1    0    0  503    0  0.00000000000E+00  0.00000000000E+00  0.79916989193E+02  0.79916989193E+02  0.00000000000E+00 0. -1.
         -2   -1    0    0    0  501 -0.00000000000E+00 -0.00000000000E+00 -0.13037871025E+04  0.13037871025E+04  0.00000000000E+00 0.  1.
         25    2    1    2    0    0  0.12084066796E+03 -0.46570792886E+02 -0.26329258348E+03  0.31893344066E+03  0.12499699706E+03 0.  0.
          4    1    3    3  502    0 -0.78974048795E+01  0.24195386183E+02 -0.80406510820E+02  0.84348121489E+02  0.12700000000E+01 0.  1.
         -4    1    3    3    0  502  0.12873807284E+03 -0.70766179069E+02 -0.18288607266E+03  0.23458531917E+03  0.12700000000E+01 0.  1.
          1    1    1    2  503    0 -0.48178568820E+02  0.38671073906E+02  0.31952697155E+02  0.69552866987E+02  0.00000000000E+00 0. -1.
         -1    1    1    2    0  501 -0.72662099137E+02  0.78997189799E+01 -0.99253022700E+03  0.99521778407E+03  0.00000000000E+00 0.  1.
<mgrwt>
<rscale>  0 0.68298084E+02</rscale>
<asrwt>0</asrwt>
<pdfrwt beam="1">  1        2 0.12294921E-01 0.61778851E+02</pdfrwt>
<pdfrwt beam="2">  1       -2 0.20058264E+00 0.75505261E+02</pdfrwt>
<totfact> 0.71868178E+01</totfact>
</mgrwt>
</event>
<event>
 7    1  0.6493044E-004  0.6675825E+02  0.7546771E-02  0.1429264E+00
          2   -1    0    0  503    0  0.00000000000E+00  0.00000000000E+00  0.11951842049E+04  0.11951842049E+04  0.00000000000E+00 0. -1.
          1   -1    0    0  502    0 -0.00000000000E+00 -0.00000000000E+00 -0.53227404551E+03  0.53227404551E+03  0.00000000000E+00 0. -1.
         25    2    1    2    0    0  0.17788119782E+02  0.28009777944E+02 -0.60954094466E+01  0.12947274544E+03  0.12500029172E+03 0.  0.
          4    1    3    3  501    0 -0.34696657337E+02  0.14654459011E+02  0.42426579086E+02  0.56747147172E+02  0.12700000000E+01 0. -1.
         -4    1    3    3    0  501  0.52484777118E+02  0.13355318933E+02 -0.48521988532E+02  0.72725598272E+02  0.12700000000E+01 0. -1.
          2    1    1    2  502    0 -0.15570804340E+02  0.39274967062E+02 -0.46252673126E+03  0.46445231199E+03  0.00000000000E+00 0. -1.
          1    1    1    2  503    0 -0.22173154415E+01 -0.67284745006E+02  0.11315323001E+04  0.11335331930E+04  0.00000000000E+00 0. -1.
<mgrwt>
<rscale>  0 0.53108053E+02</rscale>
<asrwt>0</asrwt>
<pdfrwt beam="1">  1        2 0.18387449E+00 0.66758249E+02</pdfrwt>
<pdfrwt beam="2">  1        1 0.81888315E-01 0.42248941E+02</pdfrwt>
<totfact> 0.13120185E+02</totfact>
</mgrwt>
</event>
<event>
 7    1  0.6493044E-004  0.3889333E+02  0.7546771E-02  0.1603969E+00
          1   -1    0    0  502    0 -0.00000000000E+00  0.00000000000E+00  0.91158274682E+03  0.91158274682E+03  0.00000000000E+00 0. -1.
          2   -1    0    0  503    0  0.00000000000E+00 -0.00000000000E+00 -0.10415085663E+04  0.10415085663E+04  0.00000000000E+00 0. -1.
         25    2    1    2    0    0 -0.96241451096E+01  0.55770992948E+02 -0.33633260792E+03  0.36324739775E+03  0.12500408393E+03 0.  0.
          4    1    3    3  501    0  0.26824111985E+02  0.23370594644E+02 -0.30078884259E+03  0.30288819456E+03  0.12700000000E+01 0.  1.
         -4    1    3    3    0  501 -0.36448257094E+02  0.32400398304E+02 -0.35543765325E+02  0.60359203184E+02  0.12700000000E+01 0.  1.
          2    1    1    2  502    0  0.17321882101E+02 -0.34802441185E+02  0.89752416310E+03  0.89836567213E+03  0.00000000000E+00 0. -1.
          1    1    1    2  503    0 -0.76977369914E+01 -0.20968551763E+02 -0.69111737463E+03  0.69147824321E+03  0.00000000000E+00 0. -1.
<mgrwt>
<rscale>  0 0.29474649E+02</rscale>
<asrwt>0</asrwt>
<pdfrwt beam="2">  1        2 0.16023209E+00 0.22336860E+02</pdfrwt>
<pdfrwt beam="1">  1        1 0.14024350E+00 0.38893333E+02</pdfrwt>
<totfact> 0.81720128E+01</totfact>
</mgrwt>
</event>
<event>
 7    1  0.6493044E-004  0.1251114E+03  0.7546771E-02  0.1324328E+00
          1   -1    0    0  503    0  0.00000000000E+00  0.00000000000E+00  0.18332825176E+04  0.18332825176E+04  0.00000000000E+00 0. -1.
         -1   -1    0    0    0  501 -0.00000000000E+00 -0.00000000000E+00 -0.11872578178E+03  0.11872578178E+03  0.00000000000E+00 0.  1.
         25    2    1    2    0    0 -0.34835288084E+02  0.73304165463E+02  0.18941941080E+02  0.15021286631E+03  0.12497243738E+03 0.  0.
          4    1    3    3  502    0 -0.78155237435E+02  0.70966739417E+02  0.14942404046E+02  0.10662742415E+03  0.12700000000E+01 0. -1.
         -4    1    3    3    0  502  0.43319949351E+02  0.23374260455E+01  0.39995370340E+01  0.43585442165E+02  0.12700000000E+01 0. -1.
          2    1    1    2  503    0  0.21462340829E+02 -0.12493630896E+03  0.17323825546E+04  0.17370144009E+04  0.00000000000E+00 0. -1.
         -2    1    1    2    0  501  0.13372947255E+02  0.51632143493E+02 -0.36767759895E+02  0.64781032159E+02  0.00000000000E+00 0.  1.
<mgrwt>
<rscale>  0 0.81687983E+02</rscale>
<asrwt>0</asrwt>
<pdfrwt beam="1">  1        1 0.28204344E+00 0.12511144E+03</pdfrwt>
<pdfrwt beam="2">  1       -1 0.18265506E-01 0.53335860E+02</pdfrwt>
<totfact> 0.10410221E+02</totfact>
</mgrwt>
</event>
<event>
 7    1  0.6493044E-004  0.1360918E+03  0.7546771E-02  0.1359081E+00
          2   -1    0    0  503    0  0.00000000000E+00  0.00000000000E+00  0.18794520983E+04  0.18794520983E+04  0.00000000000E+00 0. -1.
          1   -1    0    0  502    0 -0.00000000000E+00 -0.00000000000E+00 -0.13751340374E+03  0.13751340374E+03  0.00000000000E+00 0. -1.
         25    2    1    2    0    0 -0.11465421683E+03  0.19102720796E+02  0.35200624661E+02  0.17428481742E+03  0.12500244088E+03 0.  0.
          4    1    3    3  501    0 -0.33560206012E+02 -0.21924859745E+02 -0.39756446093E+02  0.56472779357E+02  0.12700000000E+01 0.  1.
         -4    1    3    3    0  501 -0.81094010818E+02  0.41027580541E+02  0.74957070754E+02  0.11781203806E+03  0.12700000000E+01 0.  1.
          2    1    1    2  502    0  0.14949384366E+03 -0.29340378927E+02  0.17833874829E+02  0.15338616045E+03  0.00000000000E+00 0. -1.
          1    1    1    2  503    0 -0.34839626829E+02  0.10237658131E+02  0.16889041950E+04  0.16892945241E+04  0.00000000000E+00 0. -1.
<mgrwt>
<rscale>  0 0.70298335E+02</rscale>
<asrwt>0</asrwt>
<pdfrwt beam="1">  1        2 0.28914646E+00 0.36312660E+02</pdfrwt>
<pdfrwt beam="2">  1        1 0.21155910E-01 0.13609182E+03</pdfrwt>
<totfact> 0.33562318E+02</totfact>
</mgrwt>
</event>
<event>
 7    1  0.6493044E-004  0.9627511E+02  0.7546771E-02  0.1452871E+00
          2   -1    0    0  503    0  0.00000000000E+00  0.00000000000E+00  0.80643911862E+03  0.80643911862E+03  0.00000000000E+00 0. -1.
          1   -1    0    0  502    0 -0.00000000000E+00 -0.00000000000E+00 -0.58811837927E+03  0.58811837927E+03  0.00000000000E+00 0. -1.
         25    2    1    2    0    0 -0.74244737998E+02 -0.22527577127E+02  0.57474366967E+02  0.15794780896E+03  0.12499773857E+03 0.  0.
          4    1    3    3  501    0 -0.70533950195E+02  0.11557189321E+02 -0.19138397380E+02  0.74003364176E+02  0.12700000000E+01 0.  1.
         -4    1    3    3    0  501 -0.37107878030E+01 -0.34084766448E+02  0.76612764347E+02  0.83944444788E+02  0.12700000000E+01 0.  1.
          2    1    1    2  502    0 -0.13293734576E+02 -0.20656216022E+02 -0.53418904911E+03  0.53475353466E+03  0.00000000000E+00 0. -1.
          1    1    1    2  503    0  0.87538472573E+02  0.43183793149E+02  0.69503542149E+03  0.70185615428E+03  0.00000000000E+00 0. -1.
<mgrwt>
<rscale>  0 0.48630508E+02</rscale>
<asrwt>0</asrwt>
<pdfrwt beam="1">  1        2 0.12406756E+00 0.96275105E+02</pdfrwt>
<pdfrwt beam="2">  1        1 0.90479751E-01 0.24564255E+02</pdfrwt>
<totfact> 0.19513988E+02</totfact>
</mgrwt>
</event>
<event>
 7    1  0.6493044E-004  0.4348358E+02  0.7546771E-02  0.1593814E+00
          1   -1    0    0  502    0 -0.00000000000E+00  0.00000000000E+00  0.59025845739E+03  0.59025845739E+03  0.00000000000E+00 0. -1.
          2   -1    0    0  503    0  0.00000000000E+00 -0.00000000000E+00 -0.10911244317E+03  0.10911244317E+03  0.00000000000E+00 0. -1.
         25    2    1    2    0    0  0.58814571598E+02 -0.93150756887E+01  0.48263041959E+03  0.50209908267E+03  0.12500176974E+03 0.  0.
          4    1    3    3  501    0  0.23594417735E+02 -0.66893301628E+02  0.25015568129E+03  0.26002093787E+03  0.12700000000E+01 0. -1.
         -4    1    3    3    0  501  0.35220153863E+02  0.57578225940E+02  0.23247473830E+03  0.24207814480E+03  0.12700000000E+01 0. -1.
          2    1    1    2  502    0 -0.19381392421E+02 -0.86877559720E+01  0.91897022636E+02  0.94319553887E+02  0.00000000000E+00 0. -1.
          3    1    1    2  503    0 -0.39433179177E+02  0.18002831661E+02 -0.93381428001E+02  0.10295226400E+03  0.00000000000E+00 0. -1.
<mgrwt>
<rscale>  0 0.30390271E+02</rscale>
<asrwt>0</asrwt>
<pdfrwt beam="2">  1        2 0.16786530E-01 0.43483579E+02</pdfrwt>
<pdfrwt beam="1">  1        1 0.90808992E-01 0.21239479E+02</pdfrwt>
<totfact> 0.16661357E+03</totfact>
</mgrwt>
</event>
<event>
 7    1  0.6493044E-004  0.6442428E+02  0.7546771E-02  0.1510038E+00
          2   -1    0    0  503    0  0.00000000000E+00  0.00000000000E+00  0.37285727237E+03  0.37285727237E+03  0.00000000000E+00 0. -1.
         -2   -1    0    0    0  501 -0.00000000000E+00 -0.00000000000E+00 -0.38456481303E+03  0.38456481303E+03  0.00000000000E+00 0.  1.
         25    2    1    2    0    0 -0.41853681938E+02  0.68089815388E+02 -0.68131949744E+02  0.16326059511E+03  0.12499642270E+03 0.  0.
          4    1    3    3  502    0 -0.69137732770E+02  0.88790489689E+02 -0.61854462495E+02  0.12841870807E+03  0.12700000000E+01 0. -1.
         -4    1    3    3    0  502  0.27284050833E+02 -0.20700674301E+02 -0.62774872487E+01  0.34841887040E+02  0.12700000000E+01 0. -1.
          1    1    1    2  503    0 -0.39011939918E+01 -0.24217206805E+02  0.32108231250E+03  0.32201792469E+03  0.00000000000E+00 0. -1.
         -1    1    1    2    0  501  0.45754875929E+02 -0.43872608583E+02 -0.26465790342E+03  0.27214356560E+03  0.00000000000E+00 0.  1.
<mgrwt>
<rscale>  0 0.39752863E+02</rscale>
<asrwt>0</asrwt>
<pdfrwt beam="1">  1        2 0.57362657E-01 0.24529419E+02</pdfrwt>
<pdfrwt beam="2">  1       -2 0.59163817E-01 0.64424275E+02</pdfrwt>
<totfact> 0.23917900E+02</totfact>
</mgrwt>
</event>
<event>
 7    1  0.6493044E-004  0.1093738E+03  0.7546771E-02  0.1269268E+00
          1   -1    0    0  502    0 -0.00000000000E+00  0.00000000000E+00  0.23638472506E+04  0.23638472506E+04  0.00000000000E+00 0. -1.
          2   -1    0    0  503    0  0.00000000000E+00 -0.00000000000E+00 -0.48166572033E+03  0.48166572033E+03  0.00000000000E+00 0. -1.
         25    2    1    2    0    0 -0.86196907054E+02  0.11640054424E+02  0.26052775757E+03  0.30176226546E+03  0.12498141756E+03 0.  0.
          4    1    3    3  501    0  0.88359656453E+01  0.10430151362E+02 -0.86970850291E+01  0.16251600977E+02  0.12700000000E+01 0.  1.
         -4    1    3    3    0  501 -0.95032872699E+02  0.12099030622E+01  0.26922484260E+03  0.28551066448E+03  0.12700000000E+01 0.  1.
          2    1    1    2  502    0  0.45388965997E+02 -0.10472324792E+03  0.20755139280E+04  0.20786498460E+04  0.00000000000E+00 0. -1.
          1    1    1    2  503    0  0.40807941057E+02  0.93083193497E+02 -0.45386015528E+03  0.46510085951E+03  0.00000000000E+00 0. -1.
<mgrwt>
<rscale>  0 0.10543369E+03</rscale>
<asrwt>0</asrwt>
<pdfrwt beam="2">  1        2 0.74102420E-01 0.10163547E+03</pdfrwt>
<pdfrwt beam="1">  1        1 0.36366880E+00 0.10937384E+03</pdfrwt>
<totfact> 0.19868123E+01</totfact>
</mgrwt>
</event>
<event>
 7    1  0.6493044E-004  0.4938097E+02  0.7546771E-02  0.1477550E+00
         -2   -1    0    0    0  501 -0.00000000000E+00  0.00000000000E+00  0.69420113230E+01  0.69420113230E+01  0.00000000000E+00 0.  1.
          2   -1    0    0  503    0  0.00000000000E+00 -0.00000000000E+00 -0.19206716267E+04  0.19206716267E+04  0.00000000000E+00 0. -1.
         25    2    1    2    0    0 -0.38954816934E+02 -0.18198928105E+00 -0.98327653455E+03  0.99195610786E+03  0.12500666239E+03 0.  0.
          4    1    3    3  502    0 -0.48702406753E+02  0.31780036698E+02 -0.90459842851E+03  0.90646667061E+03  0.12700000000E+01 0. -1.
         -4    1    3    3    0  502  0.97475898193E+01 -0.31962025979E+02 -0.78678106042E+02  0.85489437256E+02  0.12700000000E+01 0. -1.
          1    1    1    2  503    0  0.37790120114E+02 -0.39884732874E+02 -0.65540483070E+03  0.65770386741E+03  0.00000000000E+00 0. -1.
         -1    1    1    2    0  501  0.11646968202E+01  0.40066722155E+02 -0.27504825015E+03  0.27795366278E+03  0.00000000000E+00 0.  1.
<mgrwt>
<rscale>  0 0.44490103E+02</rscale>
<asrwt>0</asrwt>
<pdfrwt beam="2">  1        2 0.29548812E+00 0.49380968E+02</pdfrwt>
<pdfrwt beam="1">  1       -2 0.10680011E-02 0.40083647E+02</pdfrwt>
<totfact> 0.14012096E+04</totfact>
</mgrwt>
</event>
<event>
 7    1  0.6493044E-004  0.1249552E+03  0.7546771E-02  0.1257734E+00
          2   -1    0    0  503    0  0.00000000000E+00  0.00000000000E+00  0.40493567477E+03  0.40493567477E+03  0.00000000000E+00 0. -1.
          1   -1    0    0  502    0 -0.00000000000E+00 -0.00000000000E+00 -0.12524753711E+04  0.12524753711E+04  0.00000000000E+00 0. -1.
         25    2    1    2    0    0  0.17582900608E+03  0.70054849531E+02  0.13522304708E+03  0.26407132246E+03  0.12499947824E+03 0.  0.
          4    1    3    3  501    0  0.16198692476E+03  0.72285627459E+01  0.90362720977E+02  0.18563149020E+03  0.12700000000E+01 0.  1.
         -4    1    3    3    0  501  0.13842081324E+02  0.62826286785E+02  0.44860326107E+02  0.78439832260E+02  0.12700000000E+01 0.  1.
          2    1    1    2  502    0 -0.63515909792E+02 -0.76687284280E+02 -0.11703615061E+04  0.11745898285E+04  0.00000000000E+00 0. -1.
          1    1    1    2  503    0 -0.11231309629E+03  0.66324347490E+01  0.18759876263E+03  0.21874989492E+03  0.00000000000E+00 0. -1.
<mgrwt>
<rscale>  0 0.11154565E+03</rscale>
<asrwt>0</asrwt>
<pdfrwt beam="1">  1        2 0.62297797E-01 0.12495519E+03</pdfrwt>
<pdfrwt beam="2">  1        1 0.19268851E+00 0.99575149E+02</pdfrwt>
<totfact> 0.12340842E+02</totfact>
</mgrwt>
</event>
<event>
 7    1  0.6493044E-004  0.4961074E+02  0.7546771E-02  0.1512286E+00
          1   -1    0    0  502    0 -0.00000000000E+00  0.00000000000E+00  0.17948961547E+04  0.17948961547E+04  0.00000000000E+00 0. -1.
          2   -1    0    0  503    0  0.00000000000E+00 -0.00000000000E+00 -0.25214504120E+04  0.25214504120E+04  0.00000000000E+00 0. -1.
         25    2    1    2    0    0 -0.16816096716E+02  0.67544500206E+02  0.35989998824E+03  0.38729499025E+03  0.12499746925E+03 0.  0.
          4    1    3    3  501    0 -0.34420245782E+01  0.57449729880E+01  0.30035232628E+03  0.30042966740E+03  0.12700000000E+01 0. -1.
         -4    1    3    3    0  501 -0.13374072138E+02  0.61799527218E+02  0.59547661959E+02  0.86865322855E+02  0.12700000000E+01 0. -1.
          2    1    1    2  502    0 -0.13527141170E+02 -0.28306832450E+02  0.14208802217E+04  0.14212265353E+04  0.00000000000E+00 0. -1.
          1    1    1    2  503    0  0.30343237886E+02 -0.39237667756E+02 -0.25073344672E+04  0.25078250411E+04  0.00000000000E+00 0. -1.
<mgrwt>
<rscale>  0 0.39451668E+02</rscale>
<asrwt>0</asrwt>
<pdfrwt beam="2">  1        2 0.38791545E+00 0.49610744E+02</pdfrwt>
<pdfrwt beam="1">  1        1 0.27613787E+00 0.31372923E+02</pdfrwt>
<totfact> 0.39730244E+00</totfact>
</mgrwt>
</event>
<event>
 7    1  0.6493044E-004  0.7119409E+02  0.7546771E-02  0.1385226E+00
         -2   -1    0    0    0  501 -0.00000000000E+00  0.00000000000E+00  0.10323710362E+03  0.10323710362E+03  0.00000000000E+00 0.  1.
          2   -1    0    0  503    0  0.00000000000E+00 -0.00000000000E+00 -0.15835389000E+04  0.15835389000E+04  0.00000000000E+00 0. -1.
         25    2    1    2    0    0  0.97736905929E+02 -0.30356913474E+02 -0.43098621632E+03  0.46027019260E+03  0.12500194624E+03 0.  0.
          4    1    3    3  502    0  0.10197238730E+03  0.40173733458E+01 -0.18015038236E+03  0.20705139512E+03  0.12700000000E+01 0.  1.
         -4    1    3    3    0  502 -0.42354813667E+01 -0.34374286820E+02 -0.25083583396E+03  0.25321879748E+03  0.12700000000E+01 0.  1.
          1    1    1    2  503    0 -0.67812946468E+02 -0.16911029823E+02 -0.11278884219E+04  0.11300517116E+04  0.00000000000E+00 0. -1.
         -1    1    1    2    0  501 -0.29923959461E+02  0.47267943297E+02  0.78572841862E+02  0.96454099403E+02  0.00000000000E+00 0.  1.
<mgrwt>
<rscale>  0 0.63109933E+02</rscale>
<asrwt>0</asrwt>
<pdfrwt beam="2">  1        2 0.24362138E+00 0.71194092E+02</pdfrwt>
<pdfrwt beam="1">  1       -2 0.15882631E-01 0.55943738E+02</pdfrwt>
<totfact> 0.40078648E+02</totfact>
</mgrwt>
</event>
<event>
 7    1  0.6493044E-004  0.9648161E+02  0.7546771E-02  0.1308858E+00
          1   -1    0    0  502    0 -0.00000000000E+00  0.00000000000E+00  0.28238211695E+03  0.28238211695E+03  0.00000000000E+00 0. -1.
          2   -1    0    0  503    0  0.00000000000E+00 -0.00000000000E+00 -0.12545959768E+04  0.12545959768E+04  0.00000000000E+00 0. -1.
         25    2    1    2    0    0 -0.21760041853E+02 -0.60638805944E+01 -0.51403673085E+03  0.52950041264E+03  0.12500662486E+03 0.  0.
          4    1    3    3  501    0  0.51946306243E+02 -0.11108605354E+02 -0.21746426065E+03  0.22386187126E+03  0.12700000000E+01 0. -1.
         -4    1    3    3    0  501 -0.73706348096E+02  0.50447247594E+01 -0.29657247020E+03  0.30563854138E+03  0.12700000000E+01 0. -1.
          2    1    1    2  502    0  0.93896229355E+02 -0.27286698415E+02  0.26369693904E+03  0.28124214026E+03  0.00000000000E+00 0. -1.
          1    1    1    2  503    0 -0.72136187503E+02  0.33350579010E+02 -0.72187406801E+03  0.72623554081E+03  0.00000000000E+00 0. -1.
<mgrwt>
<rscale>  0 0.87565076E+02</rscale>
<asrwt>0</asrwt>
<pdfrwt beam="2">  1        2 0.19301477E+00 0.79472578E+02</pdfrwt>
<pdfrwt beam="1">  1        1 0.43443402E-01 0.96481612E+02</pdfrwt>
<totfact> 0.26049523E+02</totfact>
</mgrwt>
</event>
<event>
 7    1  0.6493044E-004  0.3052018E+02  0.7546771E-02  0.1594175E+00
          2   -1    0    0  503    0  0.00000000000E+00  0.00000000000E+00  0.92855057546E+03  0.92855057546E+03  0.00000000000E+00 0. -1.
          1   -1    0    0  502    0 -0.00000000000E+00 -0.00000000000E+00 -0.38747615793E+03  0.38747615793E+03  0.00000000000E+00 0. -1.
         25    2    1    2    0    0 -0.32741724103E+02 -0.45508834559E+01  0.27987823252E+03  0.30830075170E+03  0.12499918969E+03 0.  0.
          4    1    3    3  501    0 -0.36918903627E+01  0.58512243186E+02  0.14932372939E+03  0.16042600075E+03  0.12700000000E+01 0. -1.
         -4    1    3    3    0  501 -0.29049833740E+02 -0.63063126642E+02  0.13055450313E+03  0.14787475095E+03  0.12700000000E+01 0. -1.
          2    1    1    2  502    0  0.12257022760E+02  0.27595204638E+02 -0.37227868273E+03  0.37350120152E+03  0.00000000000E+00 0. -1.
          1    1    1    2  503    0  0.20484701342E+02 -0.23044321182E+02  0.63347486773E+03  0.63422478017E+03  0.00000000000E+00 0. -1.
<mgrwt>
<rscale>  0 0.30357085E+02</rscale>
<asrwt>0</asrwt>
<pdfrwt beam="1">  1        2 0.14285393E+00 0.30520175E+02</pdfrwt>
<pdfrwt beam="2">  1        1 0.59611717E-01 0.30194866E+02</pdfrwt>
<totfact> 0.28468457E+02</totfact>
</mgrwt>
</event>
<event>
 7    1  0.6493044E-004  0.6039877E+02  0.7546771E-02  0.1496607E+00
          2   -1    0    0  503    0  0.00000000000E+00  0.00000000000E+00  0.14034316422E+03  0.14034316422E+03  0.00000000000E+00 0. -1.
          1   -1    0    0  502    0 -0.00000000000E+00 -0.00000000000E+00 -0.32072931652E+04  0.32072931652E+04  0.00000000000E+00 0. -1.
         25    2    1    2    0    0 -0.30417421516E+02  0.73512340628E+02 -0.60476522745E+03  0.62265084776E+03  0.12499525644E+03 0.  0.
          4    1    3    3  501    0  0.22926395275E+02  0.23421560206E+02 -0.34108153462E+02  0.47319849063E+02  0.12700000000E+01 0. -1.
         -4    1    3    3    0  501 -0.53343816791E+02  0.50090780423E+02 -0.57065707398E+03  0.57533099870E+03  0.12700000000E+01 0. -1.
          2    1    1    2  502    0  0.38283168777E+02 -0.45930011185E+02 -0.25916710158E+04  0.25923606657E+04  0.00000000000E+00 0. -1.
          1    1    1    2  503    0 -0.78657472605E+01 -0.27582329443E+02  0.12948624225E+03  0.13262481597E+03  0.00000000000E+00 0. -1.
<mgrwt>
<rscale>  0 0.41621569E+02</rscale>
<asrwt>0</asrwt>
<pdfrwt beam="1">  1        2 0.21591258E-01 0.28681961E+02</pdfrwt>
<pdfrwt beam="2">  1        1 0.49342967E+00 0.60398766E+02</pdfrwt>
<totfact> 0.21451675E+01</totfact>
</mgrwt>
</event>
<event>
 7    1  0.6493044E-004  0.8139682E+02  0.7546771E-02  0.1350300E+00
         -1   -1    0    0    0  501 -0.00000000000E+00  0.00000000000E+00  0.41379938250E+03  0.41379938250E+03  0.00000000000E+00 0.  1.
          1   -1    0    0  503    0  0.00000000000E+00 -0.00000000000E+00 -0.19890631424E+03  0.19890631424E+03  0.00000000000E+00 0. -1.
         25    2    1    2    0    0 -0.68839626293E+02  0.15044561428E+02  0.16011952658E+02  0.14437555489E+03  0.12499074064E+03 0.  0.
          4    1    3    3  502    0 -0.56785386541E+02  0.66780934410E+02  0.23371644291E+02  0.90731030977E+02  0.12700000000E+01 0. -1.
         -4    1    3    3    0  502 -0.12054239752E+02 -0.51736372983E+02 -0.73596916328E+01  0.53644523918E+02  0.12700000000E+01 0. -1.
          2    1    1    2  503    0  0.71017316820E+02  0.50320990932E+02 -0.11695813282E+03  0.14579048751E+03  0.00000000000E+00 0. -1.
         -2    1    1    2    0  501 -0.21776905272E+01 -0.65365552359E+02  0.31583924842E+03  0.32253965433E+03  0.00000000000E+00 0.  1.
<mgrwt>
<rscale>  0 0.72962320E+02</rscale>
<asrwt>0</asrwt>
<pdfrwt beam="2">  1        1 0.30600972E-01 0.81396823E+02</pdfrwt>
<pdfrwt beam="1">  1       -1 0.63661443E-01 0.65401818E+02</pdfrwt>
<totfact> 0.38811434E+02</totfact>
</mgrwt>
</event>
<event>
 7    1  0.6493044E-004  0.8519978E+02  0.7546771E-02  0.1340612E+00
          2   -1    0    0  503    0  0.00000000000E+00  0.00000000000E+00  0.46608580217E+03  0.46608580217E+03  0.00000000000E+00 0. -1.
          1   -1    0    0  502    0 -0.00000000000E+00 -0.00000000000E+00 -0.54302130883E+03  0.54302130883E+03  0.00000000000E+00 0. -1.
         25    2    1    2    0    0  0.11422991257E+03 -0.20452850085E+02  0.26082932131E+03  0.31164657170E+03  0.12499943518E+03 0.  0.
          4    1    3    3  501    0  0.15283575851E+01 -0.10077032307E+01  0.15748022821E+03  0.15749598890E+03  0.12700000000E+01 0.  1.
         -4    1    3    3    0  501  0.11270155499E+03 -0.19445146854E+02  0.10334909310E+03  0.15415058280E+03  0.12700000000E+01 0.  1.
          2    1    1    2  502    0 -0.76946505752E+02 -0.36301377443E+02 -0.50753338547E+03  0.51461509123E+03  0.00000000000E+00 0. -1.
          1    1    1    2  503    0 -0.37283406821E+02  0.56754227528E+02  0.16976855750E+03  0.18284544808E+03  0.00000000000E+00 0. -1.
<mgrwt>
<rscale>  0 0.76062441E+02</rscale>
<asrwt>0</asrwt>
<pdfrwt beam="1">  1        2 0.71705508E-01 0.67905042E+02</pdfrwt>
<pdfrwt beam="2">  1        1 0.83541740E-01 0.85199785E+02</pdfrwt>
<totfact> 0.38984762E+02</totfact>
</mgrwt>
</event>
<event>
 7    1  0.6493044E-004  0.4373650E+02  0.7546771E-02  0.1501371E+00
         -1   -1    0    0    0  501 -0.00000000000E+00  0.00000000000E+00  0.23303057365E+03  0.23303057365E+03  0.00000000000E+00 0.  1.
          1   -1    0    0  503    0  0.00000000000E+00 -0.00000000000E+00 -0.11137808007E+03  0.11137808007E+03  0.00000000000E+00 0. -1.
         25    2    1    2    0    0  0.90900719274E+01  0.66895887103E+01  0.84332639993E+02  0.15121225417E+03  0.12500308651E+03 0.  0.
          4    1    3    3  502    0  0.58268433587E+02 -0.25168399488E+02  0.26249040853E+02  0.68697043104E+02  0.12700000000E+01 0.  1.
         -4    1    3    3    0  502 -0.49178361660E+02  0.31857988198E+02  0.58083599140E+02  0.82515211063E+02  0.12700000000E+01 0.  1.
          2    1    1    2  503    0  0.21447370307E+02  0.31769550077E+02 -0.67397825518E+02  0.77535545975E+02  0.00000000000E+00 0. -1.
         -2    1    1    2    0  501 -0.30537442235E+02 -0.38459138787E+02  0.10471767910E+03  0.11566085358E+03  0.00000000000E+00 0.  1.
<mgrwt>
<rscale>  0 0.40944839E+02</rscale>
<asrwt>0</asrwt>
<pdfrwt beam="2">  1        1 0.17135089E-01 0.38331371E+02</pdfrwt>
<pdfrwt beam="1">  1       -1 0.35850857E-01 0.43736496E+02</pdfrwt>
<totfact> 0.21205362E+03</totfact>
</mgrwt>
</event>
<event>
 7    1  0.6493044E-004  0.7846511E+02  0.7546771E-02  0.1355496E+00
          1   -1    0    0  502    0 -0.00000000000E+00  0.00000000000E+00  0.13728739710E+04  0.13728739710E+04  0.00000000000E+00 0. -1.
          2   -1    0    0  503    0  0.00000000000E+00 -0.00000000000E+00 -0.34132406095E+02  0.34132406095E+02  0.00000000000E+00 0. -1.
         25    2    1    2    0    0  0.10675096528E+03 -0.20518568337E+02  0.31283243097E+03  0.35398611706E+03  0.12500104389E+03 0.  0.
          4    1    3    3  501    0  0.90394994670E+02  0.31046201792E+02  0.11842315858E+03  0.15218665873E+03  0.12700000000E+01 0.  1.
         -4    1    3    3    0  501  0.16355970610E+02 -0.51564770130E+02  0.19440927239E+03  0.20179945833E+03  0.12700000000E+01 0.  1.
          2    1    1    2  502    0 -0.52904398542E+02  0.56776420601E+02  0.94989211998E+03  0.95305691169E+03  0.00000000000E+00 0. -1.
          1    1    1    2  503    0 -0.53846566739E+02 -0.36257852263E+02  0.76017013948E+02  0.99963348332E+02  0.00000000000E+00 0. -1.
<mgrwt>
<rscale>  0 0.71369738E+02</rscale>
<asrwt>0</asrwt>
<pdfrwt beam="2">  1        2 0.52511405E-02 0.64915981E+02</pdfrwt>
<pdfrwt beam="1">  1        1 0.21121134E+00 0.78465109E+02</pdfrwt>
<totfact> 0.17168905E+03</totfact>
</mgrwt>
</event>
<event>
 7    1  0.6493044E-004  0.6381389E+02  0.7546771E-02  0.1511609E+00
         -1   -1    0    0    0  502 -0.00000000000E+00  0.00000000000E+00  0.22596396345E+03  0.22596396345E+03  0.00000000000E+00 0.  1.
         -2   -1    0    0    0  501  0.00000000000E+00 -0.00000000000E+00 -0.13596873432E+03  0.13596873432E+03  0.00000000000E+00 0.  1.
         25    2    1    2    0    0 -0.48855081707E+02 -0.51915119474E+02  0.62714951028E+02  0.15697370336E+03  0.12500231928E+03 0.  0.
          4    1    3    3  503    0 -0.35228898022E+02 -0.11051742884E+02 -0.34554817413E+02  0.50585220994E+02  0.12700000000E+01 0. -1.
         -4    1    3    3    0  503 -0.13626183685E+02 -0.40863376590E+02  0.97269768441E+02  0.10638848237E+03  0.12700000000E+01 0. -1.
         -2    1    1    2    0  502  0.23677352011E+02 -0.63037422855E+01  0.10317707852E+03  0.10604651667E+03  0.00000000000E+00 0.  1.
         -1    1    1    2    0  501  0.25177729695E+02  0.58218861760E+02 -0.75896800428E+02  0.98912477739E+02  0.00000000000E+00 0.  1.
<mgrwt>
<rscale>  0 0.39542078E+02</rscale>
<asrwt>0</asrwt>
<pdfrwt beam="2">  1       -2 0.20918267E-01 0.63813890E+02</pdfrwt>
<pdfrwt beam="1">  1       -1 0.34763687E-01 0.24502126E+02</pdfrwt>
<totfact> 0.10469329E+03</totfact>
</mgrwt>
</event>
<event>
 7    1  0.6493044E-004  0.1066100E+03  0.7546771E-02  0.1297700E+00
          1   -1    0    0  502    0 -0.00000000000E+00  0.00000000000E+00  0.26271901865E+04  0.26271901865E+04  0.00000000000E+00 0. -1.
          2   -1    0    0  503    0  0.00000000000E+00 -0.00000000000E+00 -0.24291260476E+03  0.24291260476E+03  0.00000000000E+00 0. -1.
         25    2    1    2    0    0 -0.12600505646E+02  0.63627364029E+02 -0.17511852397E+03  0.22472703963E+03  0.12501412203E+03 0.  0.
          4    1    3    3  501    0  0.41415594322E+02  0.74927079612E+02 -0.10468583363E+03  0.13524073120E+03  0.12700000000E+01 0. -1.
         -4    1    3    3    0  501 -0.54016099968E+02 -0.11299715583E+02 -0.70432690340E+02  0.89486308430E+02  0.12700000000E+01 0. -1.
          2    1    1    2  502    0 -0.63937801998E+02 -0.85748461784E+02  0.25633749147E+04  0.25656055415E+04  0.00000000000E+00 0. -1.
          1    1    1    2  503    0  0.76538307644E+02  0.22121097755E+02 -0.39788089980E+01  0.79770210129E+02  0.00000000000E+00 0. -1.
<mgrwt>
<rscale>  0 0.92161362E+02</rscale>
<asrwt>0</asrwt>
<pdfrwt beam="2">  1        2 0.37371172E-01 0.79670920E+02</pdfrwt>
<pdfrwt beam="1">  1        1 0.40418309E+00 0.10661000E+03</pdfrwt>
<totfact> 0.27646356E+01</totfact>
</mgrwt>
</event>
<event>
 7    1  0.6493044E-004  0.1383290E+03  0.7546771E-02  0.1391176E+00
          1   -1    0    0  502    0 -0.00000000000E+00  0.00000000000E+00  0.32082482895E+02  0.32082482895E+02  0.00000000000E+00 0. -1.
          2   -1    0    0  503    0  0.00000000000E+00 -0.00000000000E+00 -0.38447195481E+04  0.38447195481E+04  0.00000000000E+00 0. -1.
         25    2    1    2    0    0 -0.12437352046E+03  0.87112394094E+02 -0.54324541701E+03  0.57775249513E+03  0.12500008291E+03 0.  0.
          4    1    3    3  501    0 -0.90040161817E+02  0.69916128640E+00 -0.37351205606E+03  0.38421424816E+03  0.12700000000E+01 0.  1.
         -4    1    3    3    0  501 -0.34333358646E+02  0.86413232808E+02 -0.16973336095E+03  0.19353824697E+03  0.12700000000E+01 0.  1.
          2    1    1    2  502    0  0.26011893037E+02  0.87527537328E+01 -0.67999964604E+00  0.27453445627E+02  0.00000000000E+00 0. -1.
          1    1    1    2  503    0  0.98361627427E+02 -0.95865147827E+02 -0.32687116486E+04  0.32715960903E+04  0.00000000000E+00 0. -1.
<mgrwt>
<rscale>  0 0.61615274E+02</rscale>
<asrwt>0</asrwt>
<pdfrwt beam="2">  1        2 0.59149517E+00 0.13832898E+03</pdfrwt>
<pdfrwt beam="1">  1        1 0.49357678E-02 0.27445023E+02</pdfrwt>
<totfact> 0.12231954E+02</totfact>
</mgrwt>
</event>
<event>
 7    1  0.6493044E-004  0.7848232E+02  0.7546771E-02  0.1417987E+00
          1   -1    0    0  502    0 -0.00000000000E+00  0.00000000000E+00  0.24543774617E+03  0.24543774617E+03  0.00000000000E+00 0. -1.
          2   -1    0    0  503    0  0.00000000000E+00 -0.00000000000E+00 -0.89855073498E+03  0.89855073498E+03  0.00000000000E+00 0. -1.
         25    2    1    2    0    0  0.73507372329E+02 -0.42142887985E+02 -0.14704021928E+03  0.21077098728E+03  0.12499690475E+03 0.  0.
          4    1    3    3  501    0  0.95033041864E+02  0.60697660135E+01 -0.11369026800E+03  0.14830782530E+03  0.12700000000E+01 0. -1.
         -4    1    3    3    0  501 -0.21525669535E+02 -0.48212653999E+02 -0.33349951272E+02  0.62463161979E+02  0.12700000000E+01 0. -1.
          2    1    1    2  502    0  0.50854888397E+01  0.38844187243E+02  0.20960254009E+03  0.21323216899E+03  0.00000000000E+00 0. -1.
          1    1    1    2  503    0 -0.78592861169E+02  0.32987007420E+01 -0.71567530962E+03  0.71998532489E+03  0.00000000000E+00 0. -1.
<mgrwt>
<rscale>  0 0.55449054E+02</rscale>
<asrwt>0</asrwt>
<pdfrwt beam="2">  1        2 0.13823858E+00 0.78482325E+02</pdfrwt>
<pdfrwt beam="1">  1        1 0.37759653E-01 0.39175669E+02</pdfrwt>
<totfact> 0.48673591E+02</totfact>
</mgrwt>
</event>
<event>
 7    1  0.6493044E-004  0.4532295E+02  0.7546771E-02  0.1532045E+00
          2   -1    0    0  503    0  0.00000000000E+00  0.00000000000E+00  0.26532276676E+04  0.26532276676E+04  0.00000000000E+00 0. -1.
          1   -1    0    0  502    0 -0.00000000000E+00 -0.00000000000E+00 -0.17893943781E+02  0.17893943781E+02  0.00000000000E+00 0. -1.
         25    2    1    2    0    0 -0.35151996158E+02 -0.34242189925E+02  0.70523819779E+03  0.71790996323E+03  0.12500243708E+03 0.  0.
          4    1    3    3  501    0 -0.10114717916E+02 -0.37942487404E+02  0.57294713633E+02  0.69471123348E+02  0.12700000000E+01 0. -1.
         -4    1    3    3    0  501 -0.25037278241E+02  0.37002974787E+01  0.64794348416E+03  0.64843883988E+03  0.12700000000E+01 0. -1.
          2    1    1    2  502    0  0.70840506133E+01  0.45120572175E+02  0.34153815625E+02  0.57030982178E+02  0.00000000000E+00 0. -1.
          1    1    1    2  503    0  0.28067945544E+02 -0.10878382250E+02  0.18959417104E+04  0.18961806660E+04  0.00000000000E+00 0. -1.
<mgrwt>
<rscale>  0 0.36936773E+02</rscale>
<asrwt>0</asrwt>
<pdfrwt beam="1">  1        2 0.40818856E+00 0.30102305E+02</pdfrwt>
<pdfrwt beam="2">  1        1 0.27529165E-02 0.45322947E+02</pdfrwt>
<totfact> 0.19328988E+03</totfact>
</mgrwt>
</event>
<event>
 7    1  0.6493044E-004  0.4985630E+02  0.7546771E-02  0.1498417E+00
         -2   -1    0    0    0  501 -0.00000000000E+00  0.00000000000E+00  0.20647489199E+03  0.20647489199E+03  0.00000000000E+00 0.  1.
          2   -1    0    0  503    0  0.00000000000E+00 -0.00000000000E+00 -0.92496623433E+03  0.92496623433E+03  0.00000000000E+00 0. -1.
         25    2    1    2    0    0  0.14108154062E+02 -0.26823745203E+02 -0.71875305760E+03  0.73017064076E+03  0.12499861396E+03 0.  0.
          4    1    3    3  502    0  0.21726375863E+02 -0.65324542581E+02 -0.62130016257E+03  0.62510386031E+03  0.12700000000E+01 0.  1.
         -4    1    3    3    0  502 -0.76182218008E+01  0.38500797378E+02 -0.97452895037E+02  0.10506678045E+03  0.12700000000E+01 0.  1.
          1    1    1    2  503    0 -0.26718077047E+02 -0.21534183470E+02 -0.19587956885E+03  0.19886272198E+03  0.00000000000E+00 0. -1.
         -1    1    1    2    0  501  0.12609922985E+02  0.48357928673E+02  0.19614128412E+03  0.20240776358E+03  0.00000000000E+00 0.  1.
<mgrwt>
<rscale>  0 0.41362553E+02</rscale>
<asrwt>0</asrwt>
<pdfrwt beam="2">  1        2 0.14230250E+00 0.34315837E+02</pdfrwt>
<pdfrwt beam="1">  1       -2 0.31765368E-01 0.49856302E+02</pdfrwt>
<totfact> 0.28975727E+02</totfact>
</mgrwt>
</event>
<event>
 7    1  0.6493044E-004  0.4820329E+02  0.7546771E-02  0.1580419E+00
          2   -1    0    0  503    0  0.00000000000E+00  0.00000000000E+00  0.37676214625E+03  0.37676214625E+03  0.00000000000E+00 0. -1.
         -2   -1    0    0    0  501 -0.00000000000E+00 -0.00000000000E+00 -0.34036124833E+02  0.34036124833E+02  0.00000000000E+00 0.  1.
         25    2    1    2    0    0  0.28854754120E+02 -0.18525122792E+02  0.20084075153E+03  0.23903555031E+03  0.12500083931E+03 0.  0.
          4    1    3    3  502    0  0.68122457028E+02 -0.45328324874E+02  0.12016178286E+03  0.14538154335E+03  0.12700000000E+01 0. -1.
         -4    1    3    3    0  502 -0.39267702908E+02  0.26803202082E+02  0.80678968671E+02  0.93654006958E+02  0.12700000000E+01 0. -1.
          1    1    1    2  503    0  0.20448181574E+02  0.37882884268E+01  0.10838159570E+03  0.11035873117E+03  0.00000000000E+00 0. -1.
         -1    1    1    2    0  501 -0.49302935694E+02  0.14736834366E+02  0.33503674184E+02  0.61403989602E+02  0.00000000000E+00 0.  1.
<mgrwt>
<rscale>  0 0.31661367E+02</rscale>
<asrwt>0</asrwt>
<pdfrwt beam="1">  1        2 0.57963404E-01 0.20796136E+02</pdfrwt>
<pdfrwt beam="2">  1       -2 0.52363272E-02 0.48203289E+02</pdfrwt>
<totfact> 0.13189046E+04</totfact>
</mgrwt>
</event>
<event>
 7    1  0.6493044E-004  0.5340819E+02  0.7546771E-02  0.1496445E+00
         -2   -1    0    0    0  501 -0.00000000000E+00  0.00000000000E+00  0.97094587157E+02  0.97094587157E+02  0.00000000000E+00 0.  1.
          2   -1    0    0  503    0  0.00000000000E+00 -0.00000000000E+00 -0.12797036112E+04  0.12797036112E+04  0.00000000000E+00 0. -1.
         25    2    1    2    0    0 -0.70609912887E+01  0.39873324858E+02 -0.13981488966E+03  0.19186492037E+03  0.12499681862E+03 0.  0.
          4    1    3    3  502    0  0.41948622690E+02  0.50105033034E+02 -0.31546327806E+02  0.72573996575E+02  0.12700000000E+01 0. -1.
         -4    1    3    3    0  502 -0.49009613978E+02 -0.10231708176E+02 -0.10826856185E+03  0.11929092380E+03  0.12700000000E+01 0. -1.
          1    1    1    2  503    0 -0.32411002852E+02 -0.19948076816E+01 -0.11030614778E+04  0.11035393405E+04  0.00000000000E+00 0. -1.
         -1    1    1    2    0  501  0.39471994141E+02 -0.37878517176E+02  0.60267343352E+02  0.81393937487E+02  0.00000000000E+00 0.  1.
<mgrwt>
<rscale>  0 0.41644789E+02</rscale>
<asrwt>0</asrwt>
<pdfrwt beam="2">  1        2 0.19687746E+00 0.32472332E+02</pdfrwt>
<pdfrwt beam="1">  1       -2 0.14937631E-01 0.53408189E+02</pdfrwt>
<totfact> 0.66729415E+02</totfact>
</mgrwt>
</event>
<event>
 7    1  0.6493044E-004  0.1855096E+03  0.7546771E-02  0.1272252E+00
          2   -1    0    0  503    0  0.00000000000E+00  0.00000000000E+00  0.36739069837E+03  0.36739069837E+03  0.00000000000E+00 0. -1.
         -2   -1    0    0    0  501 -0.00000000000E+00 -0.00000000000E+00 -0.13726525372E+04  0.13726525372E+04  0.00000000000E+00 0.  1.
         25    2    1    2    0    0  0.11828769008E+03  0.62466092061E+02 -0.65466191312E+03  0.67978253032E+03  0.12501231045E+03 0.  0.
          4    1    3    3  502    0  0.20943307393E+02  0.64552581106E+02 -0.42415784809E+03  0.42955459589E+03  0.12700000000E+01 0.  1.
         -4    1    3    3    0  502  0.97344382687E+02 -0.20864890442E+01 -0.23050406502E+03  0.25022793443E+03  0.12700000000E+01 0.  1.
          1    1    1    2  503    0 -0.15174181506E+03 -0.11011489452E+03  0.32873209879E+03  0.37843845101E+03  0.00000000000E+00 0. -1.
         -1    1    1    2    0  501  0.33454124979E+02  0.47648802458E+02 -0.67933202451E+03  0.68182225424E+03  0.00000000000E+00 0.  1.
<mgrwt>
<rscale>  0 0.10392496E+03</rscale>
<asrwt>0</asrwt>
<pdfrwt beam="1">  1        2 0.56521645E-01 0.18550958E+03</pdfrwt>
<pdfrwt beam="2">  1       -2 0.21117732E+00 0.58220158E+02</pdfrwt>
<totfact> 0.12172331E+01</totfact>
</mgrwt>
</event>
<event>
 7    1  0.6493044E-004  0.5374720E+02  0.7546771E-02  0.1493768E+00
          2   -1    0    0  503    0  0.00000000000E+00  0.00000000000E+00  0.14191608217E+04  0.14191608217E+04  0.00000000000E+00 0. -1.
          1   -1    0    0  502    0 -0.00000000000E+00 -0.00000000000E+00 -0.43719767469E+03  0.43719767469E+03  0.00000000000E+00 0. -1.
         25    2    1    2    0    0 -0.20776215636E+02 -0.72371851248E+02 -0.83506001803E+02  0.16812934485E+03  0.12499955309E+03 0.  0.
          4    1    3    3  501    0  0.15221347153E+02 -0.54819742004E+02  0.17441229517E+02  0.59520609117E+02  0.12700000000E+01 0.  1.
         -4    1    3    3    0  501 -0.35997562790E+02 -0.17552109244E+02 -0.10094723132E+03  0.10860873573E+03  0.12700000000E+01 0.  1.
          2    1    1    2  502    0 -0.12626408384E+02  0.30348849570E+02 -0.30998748170E+03  0.31172538823E+03  0.00000000000E+00 0. -1.
          1    1    1    2  503    0  0.33402624020E+02  0.42023001678E+02  0.13754566305E+04  0.13765037633E+04  0.00000000000E+00 0. -1.
<mgrwt>
<rscale>  0 0.42032186E+02</rscale>
<asrwt>0</asrwt>
<pdfrwt beam="1">  1        2 0.21833243E+00 0.53747197E+02</pdfrwt>
<pdfrwt beam="2">  1        1 0.67261181E-01 0.32870638E+02</pdfrwt>
<totfact> 0.13061159E+02</totfact>
</mgrwt>
</event>
<event>
 7    1  0.6493044E-004  0.9117001E+02  0.7546771E-02  0.1379841E+00
          1   -1    0    0  502    0 -0.00000000000E+00  0.00000000000E+00  0.15480066727E+04  0.15480066727E+04  0.00000000000E+00 0. -1.
          2   -1    0    0  503    0  0.00000000000E+00 -0.00000000000E+00 -0.14986300069E+04  0.14986300069E+04  0.00000000000E+00 0. -1.
         25    2    1    2    0    0 -0.37952264979E+02  0.10749099514E+03  0.11613850214E+03  0.20519967595E+03  0.12499626745E+03 0.  0.
          4    1    3    3  501    0  0.26737392070E+02  0.46377918661E+02 -0.62068229695E+01  0.53906743784E+02  0.12700000000E+01 0.  1.
         -4    1    3    3    0  501 -0.64689657049E+02  0.61113076479E+02  0.12234532511E+03  0.15129293216E+03  0.12700000000E+01 0.  1.
          2    1    1    2  502    0  0.60321420082E+02 -0.67709156222E+02  0.13854968825E+04  0.13884613120E+04  0.00000000000E+00 0. -1.
          1    1    1    2  503    0 -0.22369155103E+02 -0.39781838918E+02 -0.14522587189E+04  0.14529756916E+04  0.00000000000E+00 0. -1.
<mgrwt>
<rscale>  0 0.64505530E+02</rscale>
<asrwt>0</asrwt>
<pdfrwt beam="2">  1        2 0.23055846E+00 0.45639608E+02</pdfrwt>
<pdfrwt beam="1">  1        1 0.23815487E+00 0.91170008E+02</pdfrwt>
<totfact> 0.16052883E+01</totfact>
</mgrwt>
</event>
<event>
 7    1  0.6493044E-004  0.7344559E+02  0.7546771E-02  0.1462745E+00
          1   -1    0    0  503    0  0.00000000000E+00  0.00000000000E+00  0.13989771519E+03  0.13989771519E+03  0.00000000000E+00 0. -1.
         -1   -1    0    0    0  501 -0.00000000000E+00 -0.00000000000E+00 -0.17416664615E+03  0.17416664615E+03  0.00000000000E+00 0.  1.
         25    2    1    2    0    0  0.25863564997E+02 -0.91971020566E+02 -0.27447835784E+02  0.15970572875E+03  0.12499977396E+03 0.  0.
          4    1    3    3  502    0  0.49096343909E+02 -0.50069652598E+02  0.37073122500E+02  0.79331270054E+02  0.12700000000E+01 0. -1.
         -4    1    3    3    0  502 -0.23232778912E+02 -0.41901367968E+02 -0.64520958284E+02  0.80374458701E+02  0.12700000000E+01 0. -1.
          2    1    1    2  503    0 -0.30816757060E+02  0.62418736113E+02  0.52973940619E+02  0.87475765320E+02  0.00000000000E+00 0. -1.
         -2    1    1    2    0  501  0.49531920626E+01  0.29552284453E+02 -0.59795035792E+02  0.66882867263E+02  0.00000000000E+00 0.  1.
<mgrwt>
<rscale>  0 0.46912268E+02</rscale>
<asrwt>0</asrwt>
<pdfrwt beam="1">  1        1 0.21522725E-01 0.73445591E+02</pdfrwt>
<pdfrwt beam="2">  1       -1 0.26794869E-01 0.29964506E+02</pdfrwt>
<totfact> 0.26128902E+03</totfact>
</mgrwt>
</event>
<event>
 7    1  0.6493044E-004  0.9847010E+02  0.7546771E-02  0.1350166E+00
          1   -1    0    0  502    0 -0.00000000000E+00  0.00000000000E+00  0.15801598212E+04  0.15801598212E+04  0.00000000000E+00 0. -1.
          2   -1    0    0  503    0  0.00000000000E+00 -0.00000000000E+00 -0.14556793191E+03  0.14556793191E+03  0.00000000000E+00 0. -1.
         25    2    1    2    0    0 -0.71616438435E+02 -0.11915249855E+03  0.59486577811E+03  0.62355095914E+03  0.12499709005E+03 0.  0.
          4    1    3    3  501    0 -0.96997409901E+02 -0.44006167404E+02  0.30698667767E+03  0.32494226174E+03  0.12700000000E+01 0. -1.
         -4    1    3    3    0  501  0.25380971466E+02 -0.75146331145E+02  0.28787910044E+03  0.29860869740E+03  0.12700000000E+01 0. -1.
          2    1    1    2  502    0  0.26845649567E+02  0.88738928048E+02  0.96304814386E+03  0.96750039465E+03  0.00000000000E+00 0. -1.
          1    1    1    2  503    0  0.44770788868E+02  0.30413570501E+02 -0.12332203264E+03  0.13467639935E+03  0.00000000000E+00 0. -1.
<mgrwt>
<rscale>  0 0.73004087E+02</rscale>
<asrwt>0</asrwt>
<pdfrwt beam="2">  1        2 0.22395068E-01 0.54124013E+02</pdfrwt>
<pdfrwt beam="1">  1        1 0.24310150E+00 0.98470096E+02</pdfrwt>
<totfact> 0.22042939E+02</totfact>
</mgrwt>
</event>
<event>
 7    1  0.6493044E-004  0.4697402E+02  0.7546771E-02  0.1580822E+00
         -2   -1    0    0    0  501 -0.00000000000E+00  0.00000000000E+00  0.12828142937E+02  0.12828142937E+02  0.00000000000E+00 0.  1.
          2   -1    0    0  503    0  0.00000000000E+00 -0.00000000000E+00 -0.10031493456E+04  0.10031493456E+04  0.00000000000E+00 0. -1.
         25    2    1    2    0    0 -0.17764259185E+02  0.24888004954E+02 -0.60695096495E+03  0.62044445895E+03  0.12500748417E+03 0.  0.
          4    1    3    3  502    0 -0.38424800031E+02  0.23647045864E+02 -0.71257729361E+02  0.84350014400E+02  0.12700000000E+01 0. -1.
         -4    1    3    3    0  502  0.20660540846E+02  0.12409590900E+01 -0.53569323559E+03  0.53609444455E+03  0.12700000000E+01 0. -1.
          1    1    1    2  503    0  0.34150751445E+02 -0.38475885074E+02 -0.36102144222E+03  0.36466854717E+03  0.00000000000E+00 0. -1.
         -1    1    1    2    0  501 -0.16386492260E+02  0.13587880120E+02 -0.22348795520E+02  0.30864482435E+02  0.00000000000E+00 0.  1.
<mgrwt>
<rscale>  0 0.31621962E+02</rscale>
<asrwt>0</asrwt>
<pdfrwt beam="2">  1        2 0.15433070E+00 0.46974024E+02</pdfrwt>
<pdfrwt beam="1">  1       -2 0.19735600E-02 0.21287264E+02</pdfrwt>
<totfact> 0.15550058E+04</totfact>
</mgrwt>
</event>
<event>
 7    1  0.6493044E-004  0.4992226E+02  0.7546771E-02  0.1501042E+00
          1   -1    0    0  502    0 -0.00000000000E+00  0.00000000000E+00  0.52451578901E+03  0.52451578901E+03  0.00000000000E+00 0. -1.
          2   -1    0    0  503    0  0.00000000000E+00 -0.00000000000E+00 -0.10057548594E+04  0.10057548594E+04  0.00000000000E+00 0. -1.
         25    2    1    2    0    0  0.60669990566E+02 -0.16169577190E+01 -0.22619888519E+02  0.14076604338E+03  0.12497982759E+03 0.  0.
          4    1    3    3  501    0 -0.28945150260E+02 -0.29948367722E+02 -0.21217087562E+02  0.46760070118E+02  0.12700000000E+01 0. -1.
         -4    1    3    3    0  501  0.89615140827E+02  0.28331410003E+02 -0.14028009568E+01  0.94005973261E+02  0.12700000000E+01 0. -1.
          2    1    1    2  502    0 -0.42257082830E+02 -0.26557758527E+02  0.46379693719E+03  0.46647462367E+03  0.00000000000E+00 0. -1.
          1    1    1    2  503    0 -0.18412907737E+02  0.28174716246E+02 -0.92241611910E+03  0.92302998141E+03  0.00000000000E+00 0. -1.
<mgrwt>
<rscale>  0 0.40991158E+02</rscale>
<asrwt>0</asrwt>
<pdfrwt beam="2">  1        2 0.15473152E+00 0.33657834E+02</pdfrwt>
<pdfrwt beam="1">  1        1 0.80694737E-01 0.49922257E+02</pdfrwt>
<totfact> 0.17580239E+02</totfact>
</mgrwt>
</event>
<event>
 7    1  0.6493044E-004  0.7038331E+02  0.7546771E-02  0.1437717E+00
          1   -1    0    0  503    0  0.00000000000E+00  0.00000000000E+00  0.28288343491E+03  0.28288343491E+03  0.00000000000E+00 0. -1.
         -1   -1    0    0    0  501 -0.00000000000E+00 -0.00000000000E+00 -0.21089356927E+03  0.21089356927E+03  0.00000000000E+00 0.  1.
         25    2    1    2    0    0 -0.39393473344E+02 -0.78984792611E+02 -0.11126616326E+03  0.18919607187E+03  0.12499820527E+03 0.  0.
          4    1    3    3  502    0 -0.63319677019E+02 -0.55828218151E+02 -0.12687698399E+03  0.15239932219E+03  0.12700000000E+01 0.  1.
         -4    1    3    3    0  502  0.23926203676E+02 -0.23156574461E+02  0.15610820728E+02  0.36796749678E+02  0.12700000000E+01 0.  1.
          2    1    1    2  503    0 -0.87874142658E+01  0.36556252256E+02  0.22492398495E+03  0.22804468254E+03  0.00000000000E+00 0. -1.
         -2    1    1    2    0  501  0.48180887609E+02  0.42428540356E+02 -0.41667956049E+02  0.76536249770E+02  0.00000000000E+00 0.  1.
<mgrwt>
<rscale>  0 0.51441641E+02</rscale>
<asrwt>0</asrwt>
<pdfrwt beam="1">  1        1 0.43520529E-01 0.37597583E+02</pdfrwt>
<pdfrwt beam="2">  1       -1 0.32445164E-01 0.70383314E+02</pdfrwt>
<totfact> 0.82667310E+02</totfact>
</mgrwt>
</event>
<event>
 7    1  0.6493044E-004  0.8146369E+02  0.7546771E-02  0.1399162E+00
          2   -1    0    0  503    0  0.00000000000E+00  0.00000000000E+00  0.11353019797E+04  0.11353019797E+04  0.00000000000E+00 0. -1.
          1   -1    0    0  502    0 -0.00000000000E+00 -0.00000000000E+00 -0.10496294938E+03  0.10496294938E+03  0.00000000000E+00 0. -1.
         25    2    1    2    0    0  0.40331588523E+02  0.28999564371E+01  0.28892088692E+03  0.31738842182E+03  0.12500033852E+03 0.  0.
          4    1    3    3  501    0 -0.44601152758E+02  0.10867736470E+02  0.94229084885E+02  0.10482415686E+03  0.12700000000E+01 0. -1.
         -4    1    3    3    0  501  0.84932741281E+02 -0.79677800333E+01  0.19469180203E+03  0.21256426496E+03  0.12700000000E+01 0. -1.
          2    1    1    2  502    0 -0.83660872764E+02 -0.87880227109E+01 -0.70514990833E+02  0.10976672951E+03  0.00000000000E+00 0. -1.
          1    1    1    2  503    0  0.43329284241E+02  0.58880662738E+01  0.81193313426E+03  0.81310977777E+03  0.00000000000E+00 0. -1.
<mgrwt>
<rscale>  0 0.59684215E+02</rscale>
<asrwt>0</asrwt>
<pdfrwt beam="1">  1        2 0.17466183E+00 0.43727522E+02</pdfrwt>
<pdfrwt beam="2">  1        1 0.16148147E-01 0.81463694E+02</pdfrwt>
<totfact> 0.10632796E+03</totfact>
</mgrwt>
</event>
<event>
 7    1  0.6493044E-004  0.1204644E+03  0.7546771E-02  0.1389484E+00
          2   -1    0    0  503    0  0.00000000000E+00  0.00000000000E+00  0.31377295875E+04  0.31377295875E+04  0.00000000000E+00 0. -1.
         -2   -1    0    0    0  501 -0.00000000000E+00 -0.00000000000E+00 -0.26892305160E+02  0.26892305160E+02  0.00000000000E+00 0.  1.
         25    2    1    2    0    0 -0.13125858637E+03  0.18324781163E+02  0.12212115358E+04  0.12347260535E+04  0.12500479095E+03 0.  0.
          4    1    3    3  502    0 -0.13836963622E+03 -0.20355591202E+02  0.10345912643E+04  0.10440024920E+04  0.12700000000E+01 0.  1.
         -4    1    3    3    0  502  0.71110498558E+01  0.38680372365E+02  0.18662027152E+03  0.19072356142E+03  0.12700000000E+01 0.  1.
          1    1    1    2  503    0  0.11007752151E+03 -0.42239451787E+02  0.18939871754E+04  0.18976534596E+04  0.00000000000E+00 0. -1.
         -1    1    1    2    0  501  0.21181064859E+02  0.23914670624E+02 -0.43614289230E+01  0.32242379594E+02  0.00000000000E+00 0.  1.
<mgrwt>
<rscale>  0 0.62035147E+02</rscale>
<asrwt>0</asrwt>
<pdfrwt beam="1">  1        2 0.48272734E+00 0.12046439E+03</pdfrwt>
<pdfrwt beam="2">  1       -2 0.41372802E-02 0.31946032E+02</pdfrwt>
<totfact> 0.40715359E+02</totfact>
</mgrwt>
</event>
<event>
 7    1  0.6493044E-004  0.2142091E+03  0.7546771E-02  0.1281697E+00
          1   -1    0    0  502    0 -0.00000000000E+00  0.00000000000E+00  0.17441953339E+04  0.17441953339E+04  0.00000000000E+00 0. -1.
          2   -1    0    0  503    0  0.00000000000E+00 -0.00000000000E+00 -0.56638254568E+03  0.56638254568E+03  0.00000000000E+00 0. -1.
         25    2    1    2    0    0 -0.12707337320E+03  0.11982852815E+03  0.70625110725E+03  0.73819221308E+03  0.12502239249E+03 0.  0.
          4    1    3    3  501    0 -0.23988315168E+02  0.13016418899E+02  0.36536836428E+03  0.36638848364E+03  0.12700000000E+01 0.  1.
         -4    1    3    3    0  501 -0.10308505803E+03  0.10681210925E+03  0.34088274297E+03  0.37180372944E+03  0.12700000000E+01 0.  1.
          2    1    1    2  502    0 -0.12305298528E+02  0.44392375246E+02  0.10003504870E+04  0.10014106052E+04  0.00000000000E+00 0. -1.
          1    1    1    2  503    0  0.13937867172E+03 -0.16422090339E+03 -0.52878880603E+03  0.57097506130E+03  0.00000000000E+00 0. -1.
<mgrwt>
<rscale>  0 0.99336899E+02</rscale>
<asrwt>0</asrwt>
<pdfrwt beam="2">  1        2 0.87135777E-01 0.21420911E+03</pdfrwt>
<pdfrwt beam="1">  1        1 0.26833774E+00 0.46066293E+02</pdfrwt>
<totfact> 0.44670123E+01</totfact>
</mgrwt>
</event>
<event>
 7    1  0.6493044E-004  0.1401248E+03  0.7546771E-02  0.1225722E+00
          2   -1    0    0  503    0  0.00000000000E+00  0.00000000000E+00  0.46952735308E+03  0.46952735308E+03  0.00000000000E+00 0. -1.
          1   -1    0    0  502    0 -0.00000000000E+00 -0.00000000000E+00 -0.10477808145E+04  0.10477808145E+04  0.00000000000E+00 0. -1.
         25    2    1    2    0    0 -0.31448776731E+02 -0.64956987787E+01  0.14942217804E+02  0.12991917826E+03  0.12499801337E+03 0.  0.
          4    1    3    3  501    0  0.33610981010E+02  0.54730417911E+01  0.45658313164E+02  0.56973210300E+02  0.12700000000E+01 0.  1.
         -4    1    3    3    0  501 -0.65059757741E+02 -0.11968740570E+02 -0.30716095360E+02  0.72945967965E+02  0.12700000000E+01 0.  1.
          2    1    1    2  502    0 -0.36686433917E+00 -0.14012434414E+03 -0.97090936335E+03  0.98096888751E+03  0.00000000000E+00 0. -1.
          1    1    1    2  503    0  0.31815641070E+02  0.14662004292E+03  0.37771368411E+03  0.40642010183E+03  0.00000000000E+00 0. -1.
<mgrwt>
<rscale>  0 0.13117573E+03</rscale>
<asrwt>0</asrwt>
<pdfrwt beam="1">  1        2 0.72234978E-01 0.12279818E+03</pdfrwt>
<pdfrwt beam="2">  1        1 0.16119705E+00 0.14012482E+03</pdfrwt>
<totfact> 0.14221529E+02</totfact>
</mgrwt>
</event>
<event>
 7    1  0.6493044E-004  0.6117375E+02  0.7546771E-02  0.1417510E+00
          2   -1    0    0  503    0  0.00000000000E+00  0.00000000000E+00  0.14425380356E+03  0.14425380356E+03  0.00000000000E+00 0. -1.
          1   -1    0    0  502    0 -0.00000000000E+00 -0.00000000000E+00 -0.11357990902E+04  0.11357990902E+04  0.00000000000E+00 0. -1.
         25    2    1    2    0    0  0.66748833387E+02  0.82455649345E+02 -0.47521047909E+03  0.50269616746E+03  0.12499638585E+03 0.  0.
          4    1    3    3  501    0 -0.34176776181E+02  0.80036989038E+01 -0.15195549343E+03  0.15596216243E+03  0.12700000000E+01 0.  1.
         -4    1    3    3    0  501  0.10092560957E+03  0.74451950441E+02 -0.32325498565E+03  0.34673400503E+03  0.12700000000E+01 0.  1.
          2    1    1    2  502    0 -0.42703777198E+02 -0.26853724620E+02 -0.63876782798E+03  0.64075664115E+03  0.00000000000E+00 0. -1.
          1    1    1    2  503    0 -0.24045056189E+02 -0.55601924725E+02  0.12243302045E+03  0.13660008513E+03  0.00000000000E+00 0. -1.
<mgrwt>
<rscale>  0 0.55551171E+02</rscale>
<asrwt>0</asrwt>
<pdfrwt beam="1">  1        2 0.22192894E-01 0.61173755E+02</pdfrwt>
<pdfrwt beam="2">  1        1 0.17473831E+00 0.50445368E+02</pdfrwt>
<totfact> 0.46024755E+02</totfact>
</mgrwt>
</event>
<event>
 7    1  0.6493044E-004  0.9766297E+02  0.7546771E-02  0.1294969E+00
          2   -1    0    0  503    0  0.00000000000E+00  0.00000000000E+00  0.15903802349E+04  0.15903802349E+04  0.00000000000E+00 0. -1.
          1   -1    0    0  502    0 -0.00000000000E+00 -0.00000000000E+00 -0.26339981034E+03  0.26339981034E+03  0.00000000000E+00 0. -1.
         25    2    1    2    0    0  0.68238229963E+02 -0.11205675887E+02  0.81034632670E+02  0.16424532720E+03  0.12501156992E+03 0.  0.
          4    1    3    3  501    0  0.98304267457E+02  0.20585844683E+01  0.28701752982E+02  0.10243715290E+03  0.12700000000E+01 0. -1.
         -4    1    3    3    0  501 -0.30066037493E+02 -0.13264260356E+02  0.52332879688E+02  0.61808174296E+02  0.12700000000E+01 0. -1.
          2    1    1    2  502    0 -0.50668314593E+01  0.89056143821E+02 -0.21103309501E+03  0.22911053385E+03  0.00000000000E+00 0. -1.
          1    1    1    2  503    0 -0.63171398504E+02 -0.77850467934E+02  0.14569788869E+04  0.14604241842E+04  0.00000000000E+00 0. -1.
<mgrwt>
<rscale>  0 0.93335702E+02</rscale>
<asrwt>0</asrwt>
<pdfrwt beam="1">  1        2 0.24467388E+00 0.97662971E+02</pdfrwt>
<pdfrwt beam="2">  1        1 0.40523049E-01 0.89200166E+02</pdfrwt>
<totfact> 0.18706140E+02</totfact>
</mgrwt>
</event>
<event>
 7    1  0.6493044E-004  0.4639004E+02  0.7546771E-02  0.1527968E+00
          1   -1    0    0  502    0 -0.00000000000E+00  0.00000000000E+00  0.15638106332E+02  0.15638106332E+02  0.00000000000E+00 0. -1.
          2   -1    0    0  503    0  0.00000000000E+00 -0.00000000000E+00 -0.20856146527E+04  0.20856146527E+04  0.00000000000E+00 0. -1.
         25    2    1    2    0    0  0.21571114448E+02 -0.44532844763E+02 -0.10948584223E+04  0.11030814865E+04  0.12500125463E+03 0.  0.
          4    1    3    3  501    0  0.61507758156E+02  0.46230701071E+01 -0.74374046810E+03  0.74629489740E+03  0.12700000000E+01 0. -1.
         -4    1    3    3    0  501 -0.39936643709E+02 -0.49155914870E+02 -0.35111795421E+03  0.35678658908E+03  0.12700000000E+01 0. -1.
          2    1    1    2  502    0  0.86112413031E+01  0.45861226396E+02 -0.36960103156E+02  0.59526924905E+02  0.00000000000E+00 0. -1.
          1    1    1    2  503    0 -0.30182355751E+02 -0.13283816331E+01 -0.93815802090E+03  0.93864434765E+03  0.00000000000E+00 0. -1.
<mgrwt>
<rscale>  0 0.37436830E+02</rscale>
<asrwt>0</asrwt>
<pdfrwt beam="2">  1        2 0.32086371E+00 0.30211574E+02</pdfrwt>
<pdfrwt beam="1">  1        1 0.24058631E-02 0.46390044E+02</pdfrwt>
<totfact> 0.44054372E+03</totfact>
</mgrwt>
</event>
<event>
 7    1  0.6493044E-004  0.1109479E+03  0.7546771E-02  0.1369410E+00
          1   -1    0    0  502    0 -0.00000000000E+00  0.00000000000E+00  0.83743740302E+02  0.83743740302E+02  0.00000000000E+00 0. -1.
          2   -1    0    0  503    0  0.00000000000E+00 -0.00000000000E+00 -0.82293311133E+03  0.82293311133E+03  0.00000000000E+00 0. -1.
         25    2    1    2    0    0 -0.56794780686E+02 -0.59378264448E+02 -0.12439829846E+03  0.19455333289E+03  0.12499854910E+03 0.  0.
          4    1    3    3  501    0 -0.88438089196E+01  0.38993301002E+02 -0.29638380327E+02  0.49786915627E+02  0.12700000000E+01 0.  1.
         -4    1    3    3    0  501 -0.47950971767E+02 -0.98371565450E+02 -0.94759918135E+02  0.14476641726E+03  0.12700000000E+01 0.  1.
          2    1    1    2  502    0 -0.48702267064E+00 -0.40858981729E+02  0.33989709073E+02  0.53150671698E+02  0.00000000000E+00 0. -1.
          1    1    1    2  503    0  0.57281803357E+02  0.10023724618E+03 -0.64878078164E+03  0.65897284705E+03  0.00000000000E+00 0. -1.
<mgrwt>
<rscale>  0 0.67331581E+02</rscale>
<asrwt>0</asrwt>
<pdfrwt beam="2">  1        2 0.12660509E+00 0.11094794E+03</pdfrwt>
<pdfrwt beam="1">  1        1 0.12883653E-01 0.40861884E+02</pdfrwt>
<totfact> 0.19808335E+03</totfact>
</mgrwt>
</event>
<event>
 7    1  0.6493044E-004  0.8157194E+02  0.7546771E-02  0.1388966E+00
         -2   -1    0    0    0  501 -0.00000000000E+00  0.00000000000E+00  0.40584339822E+02  0.40584339822E+02  0.00000000000E+00 0.  1.
          2   -1    0    0  503    0  0.00000000000E+00 -0.00000000000E+00 -0.69515435552E+03  0.69515435552E+03  0.00000000000E+00 0. -1.
         25    2    1    2    0    0 -0.39110870547E+02  0.42369117564E+02 -0.29755874079E+03  0.32785971995E+03  0.12500395764E+03 0.  0.
          4    1    3    3  502    0 -0.67243396699E+02  0.65158420789E+02 -0.15790306342E+03  0.18358181974E+03  0.12700000000E+01 0. -1.
         -4    1    3    3    0  502  0.28132526151E+02 -0.22789303225E+02 -0.13965567736E+03  0.14427790021E+03  0.12700000000E+01 0. -1.
          1    1    1    2  503    0  0.85968149939E+02 -0.35386992043E+02 -0.34728915723E+03  0.35951706599E+03  0.00000000000E+00 0. -1.
         -1    1    1    2    0  501 -0.46857279392E+02 -0.69821255209E+01 -0.97221176783E+01  0.48361909402E+02  0.00000000000E+00 0.  1.
<mgrwt>
<rscale>  0 0.62164616E+02</rscale>
<asrwt>0</asrwt>
<pdfrwt beam="2">  1        2 0.10694683E+00 0.81571936E+02</pdfrwt>
<pdfrwt beam="1">  1       -2 0.62437445E-02 0.47374621E+02</pdfrwt>
<totfact> 0.52497798E+03</totfact>
</mgrwt>
</event>
<event>
 7    1  0.6493044E-004  0.1361224E+03  0.7546771E-02  0.1419539E+00
         -1   -1    0    0    0  501 -0.00000000000E+00  0.00000000000E+00  0.20603502574E+04  0.20603502574E+04  0.00000000000E+00 0.  1.
          1   -1    0    0  503    0  0.00000000000E+00 -0.00000000000E+00 -0.12326844341E+04  0.12326844341E+04  0.00000000000E+00 0. -1.
         25    2    1    2    0    0  0.27488467426E+02 -0.13789389763E+03 -0.85977708812E+02  0.20685190205E+03  0.12500080050E+03 0.  0.
          4    1    3    3  502    0  0.42821313347E+02 -0.90135631481E+02  0.82076180940E+01  0.10013528266E+03  0.12700000000E+01 0. -1.
         -4    1    3    3    0  502 -0.15332845921E+02 -0.47758266148E+02 -0.94185326906E+02  0.10671661939E+03  0.12700000000E+01 0. -1.
          2    1    1    2  503    0  0.19801511517E+02  0.10296519850E+02 -0.10838398316E+04  0.10840696005E+04  0.00000000000E+00 0. -1.
         -2    1    1    2    0  501 -0.47289978943E+02  0.12759737778E+03  0.19974833638E+04  0.20021131890E+04  0.00000000000E+00 0.  1.
<mgrwt>
<rscale>  0 0.55118560E+02</rscale>
<asrwt>0</asrwt>
<pdfrwt beam="2">  1        1 0.18964376E+00 0.22318561E+02</pdfrwt>
<pdfrwt beam="1">  1       -1 0.31697696E+00 0.13612238E+03</pdfrwt>
<totfact> 0.44861321E-01</totfact>
</mgrwt>
</event>
<event>
 7    1  0.6493044E-004  0.1343898E+03  0.7546771E-02  0.1285679E+00
          2   -1    0    0  503    0  0.00000000000E+00  0.00000000000E+00  0.21801204642E+04  0.21801204642E+04  0.00000000000E+00 0. -1.
         -2   -1    0    0    0  501 -0.00000000000E+00 -0.00000000000E+00 -0.45621033664E+03  0.45621033664E+03  0.00000000000E+00 0.  1.
         25    2    1    2    0    0  0.63740612549E+02 -0.17748600577E+03  0.83298806956E+03  0.86316686566E+03  0.12499506395E+03 0.  0.
          4    1    3    3  502    0 -0.15117004089E+02 -0.12265539353E+03  0.56843768405E+03  0.58171804417E+03  0.12700000000E+01 0. -1.
         -4    1    3    3    0  502  0.78857616638E+02 -0.54830612244E+02  0.26455038551E+03  0.28144882149E+03  0.12700000000E+01 0. -1.
          1    1    1    2  503    0  0.14818654110E+02  0.69142210701E+02  0.13209252739E+04  0.13228166226E+04  0.00000000000E+00 0. -1.
         -1    1    1    2    0  501 -0.78559266659E+02  0.10834379507E+03 -0.43000321587E+03  0.45034731260E+03  0.00000000000E+00 0.  1.
<mgrwt>
<rscale>  0 0.97483429E+02</rscale>
<asrwt>0</asrwt>
<pdfrwt beam="1">  1        2 0.33540314E+00 0.70712360E+02</pdfrwt>
<pdfrwt beam="2">  1       -2 0.70186207E-01 0.13438979E+03</pdfrwt>
<totfact> 0.13570530E+01</totfact>
</mgrwt>
</event>
<event>
 7    1  0.6493044E-004  0.1252966E+03  0.7546771E-02  0.1428492E+00
          1   -1    0    0  502    0 -0.00000000000E+00  0.00000000000E+00  0.12174943566E+03  0.12174943566E+03  0.00000000000E+00 0. -1.
          2   -1    0    0  503    0  0.00000000000E+00 -0.00000000000E+00 -0.70429877487E+03  0.70429877487E+03  0.00000000000E+00 0. -1.
         25    2    1    2    0    0 -0.24341276395E+02  0.14026227339E+03 -0.44130483826E+03  0.48025260301E+03  0.12500639725E+03 0.  0.
          4    1    3    3  501    0  0.50854156512E+02  0.70002853091E+02 -0.20128241056E+03  0.21909533627E+03  0.12700000000E+01 0. -1.
         -4    1    3    3    0  501 -0.75195432907E+02  0.70259420298E+02 -0.24002242770E+03  0.26115726674E+03  0.12700000000E+01 0. -1.
          2    1    1    2  502    0  0.89836488627E+01 -0.12362401675E+03  0.63867962660E+02  0.13943715473E+03  0.00000000000E+00 0. -1.
          1    1    1    2  503    0  0.15357627532E+02 -0.16638256637E+02 -0.20511246362E+03  0.20635845279E+03  0.00000000000E+00 0. -1.
<mgrwt>
<rscale>  0 0.53263898E+02</rscale>
<asrwt>0</asrwt>
<pdfrwt beam="2">  1        2 0.10835366E+00 0.22642621E+02</pdfrwt>
<pdfrwt beam="1">  1        1 0.18730682E-01 0.12529657E+03</pdfrwt>
<totfact> 0.16517098E+03</totfact>
</mgrwt>
</event>
<event>
 7    1  0.6493044E-004  0.1456888E+03  0.7546771E-02  0.1358030E+00
          2   -1    0    0  503    0  0.00000000000E+00  0.00000000000E+00  0.17770524466E+03  0.17770524466E+03  0.00000000000E+00 0. -1.
          1   -1    0    0  502    0 -0.00000000000E+00 -0.00000000000E+00 -0.14483602366E+04  0.14483602366E+04  0.00000000000E+00 0. -1.
         25    2    1    2    0    0  0.75751146447E+02  0.92400538128E+02 -0.44067965602E+03  0.47339107587E+03  0.12499782337E+03 0.  0.
          4    1    3    3  501    0  0.96731169596E+02  0.24582773986E+02 -0.22031629219E+03  0.24187210143E+03  0.12700000000E+01 0.  1.
         -4    1    3    3    0  501 -0.20980023149E+02  0.67817764142E+02 -0.22036336383E+03  0.23151897444E+03  0.12700000000E+01 0.  1.
          2    1    1    2  502    0  0.32882068528E+00  0.34220626376E+02 -0.95714460482E+03  0.95775620798E+03  0.00000000000E+00 0. -1.
          1    1    1    2  503    0 -0.76079967132E+02 -0.12662116450E+03  0.12716926895E+03  0.19491819736E+03  0.00000000000E+00 0. -1.
<mgrwt>
<rscale>  0 0.70610131E+02</rscale>
<asrwt>0</asrwt>
<pdfrwt beam="1">  1        2 0.27339268E-01 0.14568875E+03</pdfrwt>
<pdfrwt beam="2">  1        1 0.22282466E+00 0.34222206E+02</pdfrwt>
<totfact> 0.24629870E+02</totfact>
</mgrwt>
</event>
<event>
 7    1  0.6493044E-004  0.1571339E+03  0.7546771E-02  0.1229413E+00
          1   -1    0    0  502    0 -0.00000000000E+00  0.00000000000E+00  0.71129536235E+03  0.71129536235E+03  0.00000000000E+00 0. -1.
          2   -1    0    0  503    0  0.00000000000E+00 -0.00000000000E+00 -0.73393707854E+03  0.73393707854E+03  0.00000000000E+00 0. -1.
         25    2    1    2    0    0  0.78493793275E+02 -0.76574042914E+02 -0.28357109135E+03  0.32873002344E+03  0.12500401927E+03 0.  0.
          4    1    3    3  501    0  0.85321843186E+01 -0.28728425385E+02 -0.22186160670E+03  0.22388011529E+03  0.12700000000E+01 0.  1.
         -4    1    3    3    0  501  0.69961608957E+02 -0.47845617528E+02 -0.61709484655E+02  0.10484990816E+03  0.12700000000E+01 0.  1.
          2    1    1    2  502    0  0.85817561483E+02 -0.61183232835E+02  0.65738398887E+03  0.66577905544E+03  0.00000000000E+00 0. -1.
          1    1    1    2  503    0 -0.16431135476E+03  0.13775727575E+03 -0.39645461371E+03  0.45072336201E+03  0.00000000000E+00 0. -1.
<mgrwt>
<rscale>  0 0.12868986E+03</rscale>
<asrwt>0</asrwt>
<pdfrwt beam="2">  1        2 0.11291340E+00 0.15713390E+03</pdfrwt>
<pdfrwt beam="1">  1        1 0.10943006E+00 0.10539470E+03</pdfrwt>
<totfact> 0.15815122E+02</totfact>
</mgrwt>
</event>
<event>
 7    1  0.6493044E-004  0.3332542E+02  0.7546771E-02  0.1606998E+00
          1   -1    0    0  502    0 -0.00000000000E+00  0.00000000000E+00  0.49213260395E+03  0.49213260395E+03  0.00000000000E+00 0. -1.
          2   -1    0    0  503    0  0.00000000000E+00 -0.00000000000E+00 -0.11362525303E+04  0.11362525303E+04  0.00000000000E+00 0. -1.
         25    2    1    2    0    0  0.23112107635E+02 -0.44961540918E+02 -0.37137486333E+03  0.39509962477E+03  0.12501485789E+03 0.  0.
          4    1    3    3  501    0 -0.25848190707E+02 -0.83855303595E+01 -0.10621345396E+02  0.29203971652E+02  0.12700000000E+01 0.  1.
         -4    1    3    3    0  501  0.48960298343E+02 -0.36576010558E+02 -0.36075351794E+03  0.36589565311E+03  0.12700000000E+01 0.  1.
          2    1    1    2  502    0 -0.22608987980E+02  0.12011131036E+02  0.47956807896E+03  0.48025095103E+03  0.00000000000E+00 0. -1.
          1    1    1    2  503    0 -0.50311965489E+00  0.32950409882E+02 -0.75231314200E+03  0.75303455848E+03  0.00000000000E+00 0. -1.
<mgrwt>
<rscale>  0 0.29209222E+02</rscale>
<asrwt>0</asrwt>
<pdfrwt beam="2">  1        2 0.17480808E+00 0.33325419E+02</pdfrwt>
<pdfrwt beam="1">  1        1 0.75712708E-01 0.25601438E+02</pdfrwt>
<totfact> 0.16429307E+02</totfact>
</mgrwt>
</event>
<event>
 7    1  0.6493044E-004  0.1037461E+03  0.7546771E-02  0.1426245E+00
          2   -1    0    0  503    0  0.00000000000E+00  0.00000000000E+00  0.63332425458E+03  0.63332425458E+03  0.00000000000E+00 0. -1.
          1   -1    0    0  502    0 -0.00000000000E+00 -0.00000000000E+00 -0.10118441911E+03  0.10118441911E+03  0.00000000000E+00 0. -1.
         25    2    1    2    0    0  0.44607071534E+02 -0.12159729855E+03  0.43064646229E+02  0.18508229033E+03  0.12500078636E+03 0.  0.
          4    1    3    3  501    0  0.41224951030E+02 -0.12367367766E+03 -0.11022430153E+02  0.13083494181E+03  0.12700000000E+01 0.  1.
         -4    1    3    3    0  501  0.33821205041E+01  0.20763791015E+01  0.54087076382E+02  0.54247348514E+02  0.12700000000E+01 0.  1.
          2    1    1    2  502    0 -0.67239486984E+01  0.26992821621E+02 -0.17392855976E+02  0.32807550109E+02  0.00000000000E+00 0. -1.
          1    1    1    2  503    0 -0.37883122836E+02  0.94604476933E+02  0.50646804521E+03  0.51661883325E+03  0.00000000000E+00 0. -1.
<mgrwt>
<rscale>  0 0.53721298E+02</rscale>
<asrwt>0</asrwt>
<pdfrwt beam="1">  1        2 0.97434498E-01 0.10374613E+03</pdfrwt>
<pdfrwt beam="2">  1        1 0.15566834E-01 0.27817691E+02</pdfrwt>
<totfact> 0.20892346E+03</totfact>
</mgrwt>
</event>
<event>
 7    1  0.6493044E-004  0.9562227E+02  0.7546771E-02  0.1326565E+00
          1   -1    0    0  502    0 -0.00000000000E+00  0.00000000000E+00  0.98797634087E+03  0.98797634087E+03  0.00000000000E+00 0. -1.
          2   -1    0    0  503    0  0.00000000000E+00 -0.00000000000E+00 -0.36971242448E+03  0.36971242448E+03  0.00000000000E+00 0. -1.
         25    2    1    2    0    0 -0.22771024196E+02 -0.13674451704E+03  0.95533193605E+02  0.20968956095E+03  0.12500215362E+03 0.  0.
          4    1    3    3  501    0  0.13772666616E+01  0.54135858278E+01 -0.22577319734E+02  0.23292746539E+02  0.12700000000E+01 0. -1.
         -4    1    3    3    0  501 -0.24148290857E+02 -0.14215810287E+03  0.11811051334E+03  0.18639681442E+03  0.12700000000E+01 0. -1.
          2    1    1    2  502    0 -0.27356406299E+02  0.90184077376E+02  0.82891977428E+03  0.83425987137E+03  0.00000000000E+00 0. -1.
          1    1    1    2  503    0  0.50127430495E+02  0.46560439666E+02 -0.30618905150E+03  0.31373933303E+03  0.00000000000E+00 0. -1.
<mgrwt>
<rscale>  0 0.80882710E+02</rscale>
<asrwt>0</asrwt>
<pdfrwt beam="2">  1        2 0.56878835E-01 0.68415158E+02</pdfrwt>
<pdfrwt beam="1">  1        1 0.15199636E+00 0.95622272E+02</pdfrwt>
<totfact> 0.20800449E+02</totfact>
</mgrwt>
</event>
<event>
 7    1  0.6493044E-004  0.5839151E+02  0.7546771E-02  0.1419908E+00
          2   -1    0    0  503    0  0.00000000000E+00  0.00000000000E+00  0.75302293807E+02  0.75302293807E+02  0.00000000000E+00 0. -1.
          1   -1    0    0  502    0 -0.00000000000E+00 -0.00000000000E+00 -0.11796577301E+04  0.11796577301E+04  0.00000000000E+00 0. -1.
         25    2    1    2    0    0 -0.25885823735E+02 -0.98450465664E+02 -0.16918963271E+03  0.23368478102E+03  0.12498349891E+03 0.  0.
          4    1    3    3  501    0 -0.25237480939E+01 -0.10896317909E+03 -0.17611448999E+03  0.20711656184E+03  0.12700000000E+01 0.  1.
         -4    1    3    3    0  501 -0.23362075641E+02  0.10512713430E+02  0.69248572776E+01  0.26568219176E+02  0.12700000000E+01 0.  1.
          2    1    1    2  502    0 -0.30444488727E+01  0.51792373601E+02 -0.95972973355E+03  0.96113104211E+03  0.00000000000E+00 0. -1.
          1    1    1    2  503    0  0.28930272607E+02  0.46658092063E+02  0.24563930001E+02  0.60144200761E+02  0.00000000000E+00 0. -1.
<mgrwt>
<rscale>  0 0.55040488E+02</rscale>
<asrwt>0</asrwt>
<pdfrwt beam="1">  1        2 0.11584969E-01 0.58391513E+02</pdfrwt>
<pdfrwt beam="2">  1        1 0.18148580E+00 0.51881776E+02</pdfrwt>
<totfact> 0.89370120E+02</totfact>
</mgrwt>
</event>
<event>
 7    1  0.6493044E-004  0.1016793E+03  0.7546771E-02  0.1306696E+00
         -1   -1    0    0    0  501 -0.00000000000E+00  0.00000000000E+00  0.25636571359E+02  0.25636571359E+02  0.00000000000E+00 0.  1.
          1   -1    0    0  503    0  0.00000000000E+00 -0.00000000000E+00 -0.22885982343E+04  0.22885982343E+04  0.00000000000E+00 0. -1.
         25    2    1    2    0    0 -0.36485017213E+02  0.85954553399E+02 -0.41099569967E+03  0.43961422310E+03  0.12499543298E+03 0.  0.
          4    1    3    3  502    0 -0.27765118564E+02  0.24572019289E+02 -0.35223808416E+03  0.35418634470E+03  0.12700000000E+01 0.  1.
         -4    1    3    3    0  502 -0.87198986491E+01  0.61382534110E+02 -0.58757615518E+02  0.85427878398E+02  0.12700000000E+01 0.  1.
          2    1    1    2  503    0  0.71466272532E+02  0.28418443773E+02 -0.15168933918E+04  0.15188418608E+04  0.00000000000E+00 0. -1.
         -2    1    1    2    0  501 -0.34981255319E+02 -0.11437299717E+03 -0.33507257151E+03  0.35577872180E+03  0.00000000000E+00 0.  1.
<mgrwt>
<rscale>  0 0.88431213E+02</rscale>
<asrwt>0</asrwt>
<pdfrwt beam="2">  1        1 0.35209208E+00 0.76909272E+02</pdfrwt>
<pdfrwt beam="1">  1       -1 0.39440874E-02 0.10167928E+03</pdfrwt>
<totfact> 0.59257411E+02</totfact>
</mgrwt>
</event>
<event>
 7    1  0.6493044E-004  0.4463333E+02  0.7546771E-02  0.1517853E+00
          2   -1    0    0  503    0  0.00000000000E+00  0.00000000000E+00  0.12580594228E+04  0.12580594228E+04  0.00000000000E+00 0. -1.
         -2   -1    0    0    0  501 -0.00000000000E+00 -0.00000000000E+00 -0.22027218141E+02  0.22027218141E+02  0.00000000000E+00 0.  1.
         25    2    1    2    0    0 -0.53960054181E+02  0.47623094085E+02  0.86011408514E+03  0.87212474490E+03  0.12500273867E+03 0.  0.
          4    1    3    3  502    0 -0.64006494397E+02  0.62117595765E+02  0.33378851952E+03  0.34550226582E+03  0.12700000000E+01 0. -1.
         -4    1    3    3    0  502  0.10046440216E+02 -0.14494501680E+02  0.52632556562E+03  0.52662247908E+03  0.12700000000E+01 0. -1.
          1    1    1    2  503    0  0.13583827592E+02 -0.30719558095E+02  0.35972669108E+03  0.36129143900E+03  0.00000000000E+00 0. -1.
         -1    1    1    2    0  501  0.40376226589E+02 -0.16903535990E+02  0.16191428396E+02  0.46670456994E+02  0.00000000000E+00 0.  1.
<mgrwt>
<rscale>  0 0.38719279E+02</rscale>
<asrwt>0</asrwt>
<pdfrwt beam="1">  1        2 0.19354755E+00 0.33588862E+02</pdfrwt>
<pdfrwt beam="2">  1       -2 0.33888038E-02 0.44633325E+02</pdfrwt>
<totfact> 0.61715277E+03</totfact>
</mgrwt>
</event>
<event>
 7    1  0.6493044E-004  0.5175708E+02  0.7546771E-02  0.1479935E+00
          1   -1    0    0  502    0 -0.00000000000E+00  0.00000000000E+00  0.20014161403E+03  0.20014161403E+03  0.00000000000E+00 0. -1.
          2   -1    0    0  503    0  0.00000000000E+00 -0.00000000000E+00 -0.15699934437E+04  0.15699934437E+04  0.00000000000E+00 0. -1.
         25    2    1    2    0    0  0.12959739833E+02  0.41801627404E+02 -0.29316668668E+03  0.32169360332E+03  0.12499894932E+03 0.  0.
          4    1    3    3  501    0 -0.54173472282E+02  0.24759836855E+02 -0.17322662631E+03  0.18318540221E+03  0.12700000000E+01 0.  1.
         -4    1    3    3    0  501  0.67133212114E+02  0.17041790549E+02 -0.11994006036E+03  0.13850820111E+03  0.12700000000E+01 0.  1.
          2    1    1    2  502    0 -0.37301337544E+02  0.47584931394E+01  0.18342330528E+03  0.18723819578E+03  0.00000000000E+00 0. -1.
          1    1    1    2  503    0  0.24341597712E+02 -0.46560120543E+02 -0.12601084482E+04  0.12612032586E+04  0.00000000000E+00 0. -1.
<mgrwt>
<rscale>  0 0.44116371E+02</rscale>
<asrwt>0</asrwt>
<pdfrwt beam="2">  1        2 0.24153745E+00 0.51757083E+02</pdfrwt>
<pdfrwt beam="1">  1        1 0.30791018E-01 0.37603631E+02</pdfrwt>
<totfact> 0.27799243E+02</totfact>
</mgrwt>
</event>
<event>
 7    1  0.6493044E-004  0.7561219E+02  0.7546771E-02  0.1495211E+00
          1   -1    0    0  503    0  0.00000000000E+00  0.00000000000E+00  0.10724006269E+03  0.10724006269E+03  0.00000000000E+00 0. -1.
         -1   -1    0    0    0  501 -0.00000000000E+00 -0.00000000000E+00 -0.45745661503E+03  0.45745661503E+03  0.00000000000E+00 0.  1.
         25    2    1    2    0    0 -0.78142357970E+02  0.22467675340E+02 -0.24811458111E+03  0.28947626401E+03  0.12499855008E+03 0.  0.
          4    1    3    3  502    0 -0.82026092422E+02  0.63492193747E+02 -0.14381671997E+03  0.17732569004E+03  0.12700000000E+01 0. -1.
         -4    1    3    3    0  502  0.38837344520E+01 -0.41024518406E+02 -0.10429786114E+03  0.11215057397E+03  0.12700000000E+01 0. -1.
          2    1    1    2  503    0  0.63658766551E+02 -0.40505598867E+02  0.69189767159E+02  0.10237365861E+03  0.00000000000E+00 0. -1.
         -2    1    1    2    0  501  0.14483591418E+02  0.18037923527E+02 -0.17129173839E+03  0.17284675509E+03  0.00000000000E+00 0.  1.
<mgrwt>
<rscale>  0 0.41822788E+02</rscale>
<asrwt>0</asrwt>
<pdfrwt beam="1">  1        1 0.16498471E-01 0.75612187E+02</pdfrwt>
<pdfrwt beam="2">  1       -1 0.70377942E-01 0.23133117E+02</pdfrwt>
<totfact> 0.70162314E+02</totfact>
</mgrwt>
</event>
<event>
 7    1  0.6493044E-004  0.4161660E+03  0.7546771E-02  0.1038321E+00
         -2   -1    0    0    0  501 -0.00000000000E+00  0.00000000000E+00  0.48982764786E+02  0.48982764786E+02  0.00000000000E+00 0.  1.
          2   -1    0    0  503    0  0.00000000000E+00 -0.00000000000E+00 -0.88395457196E+03  0.88395457196E+03  0.00000000000E+00 0. -1.
         25    2    1    2    0    0  0.16565585659E+03 -0.14878442680E+02 -0.57555366068E+03  0.61200575240E+03  0.12500317501E+03 0.  0.
          4    1    3    3  502    0  0.81870094373E+02 -0.28108493779E+02 -0.46320908510E+03  0.47122931699E+03  0.12700000000E+01 0. -1.
         -4    1    3    3    0  502  0.83785762213E+02  0.13230051099E+02 -0.11234457558E+03  0.14077643540E+03  0.12700000000E+01 0. -1.
          1    1    1    2  503    0 -0.62335434954E+02  0.49898326238E+02 -0.10898682582E+03  0.13510617164E+03  0.00000000000E+00 0. -1.
         -1    1    1    2    0  501 -0.10332042163E+03 -0.35019883558E+02 -0.15043132067E+03  0.18582541271E+03  0.00000000000E+00 0.  1.
<mgrwt>
<rscale>  0 0.41616602E+03</rscale>
<asrwt>0</asrwt>
<pdfrwt beam="2">  1        2 0.13599301E+00 0.41616602E+03</pdfrwt>
<pdfrwt beam="1">  1       -2 0.75358100E-02 0.41616602E+03</pdfrwt>
<totfact> 0.32468677E+03</totfact>
</mgrwt>
</event>
<event>
 7    1  0.6493044E-004  0.1448371E+03  0.7546771E-02  0.1358699E+00
         -2   -1    0    0    0  501 -0.00000000000E+00  0.00000000000E+00  0.40798691897E+03  0.40798691897E+03  0.00000000000E+00 0.  1.
          2   -1    0    0  503    0  0.00000000000E+00 -0.00000000000E+00 -0.20343599566E+03  0.20343599566E+03  0.00000000000E+00 0. -1.
         25    2    1    2    0    0 -0.10748306650E+03 -0.12181650065E+03  0.11118702711E+03  0.23319500023E+03  0.12500193486E+03 0.  0.
          4    1    3    3  502    0 -0.12553528039E+03 -0.11087434600E+03  0.60177059901E+02  0.17797505067E+03  0.12700000000E+01 0.  1.
         -4    1    3    3    0  502  0.18052213890E+02 -0.10942154654E+02  0.51009967205E+02  0.55219949557E+02  0.12700000000E+01 0.  1.
          1    1    1    2  503    0  0.34067725617E+02  0.33302029177E+01 -0.11921172033E+03  0.12402876458E+03  0.00000000000E+00 0. -1.
         -1    1    1    2    0  501  0.73415340881E+02  0.11848629773E+03  0.21257561653E+03  0.25419914983E+03  0.00000000000E+00 0.  1.
<mgrwt>
<rscale>  0 0.70411582E+02</rscale>
<asrwt>0</asrwt>
<pdfrwt beam="2">  1        2 0.31297846E-01 0.34230106E+02</pdfrwt>
<pdfrwt beam="1">  1       -2 0.62767218E-01 0.14483714E+03</pdfrwt>
<totfact> 0.38954971E+02</totfact>
</mgrwt>
</event>
<event>
 7    1  0.6493044E-004  0.2524757E+02  0.7546771E-02  0.1672100E+00
          2   -1    0    0  503    0  0.00000000000E+00  0.00000000000E+00  0.16834581982E+04  0.16834581982E+04  0.00000000000E+00 0. -1.
         -2   -1    0    0    0  501 -0.00000000000E+00 -0.00000000000E+00 -0.55283203260E+03  0.55283203260E+03  0.00000000000E+00 0.  1.
         25    2    1    2    0    0  0.32881467999E+02  0.29961394925E+02  0.15959451940E+03  0.20754111883E+03  0.12499611697E+03 0.  0.
          4    1    3    3  502    0  0.42110456329E+02  0.71246949438E+02  0.13566407044E+03  0.15892064449E+03  0.12700000000E+01 0.  1.
         -4    1    3    3    0  502 -0.92289883302E+01 -0.41285554514E+02  0.23930448961E+02  0.48620474335E+02  0.12700000000E+01 0.  1.
          1    1    1    2  503    0 -0.10738286444E+02 -0.22772667394E+02  0.14995284399E+04  0.14997397932E+04  0.00000000000E+00 0. -1.
         -1    1    1    2    0  501 -0.22143181555E+02 -0.71887275309E+01 -0.52849679377E+03  0.52900931874E+03  0.00000000000E+00 0.  1.
<mgrwt>
<rscale>  0 0.24244278E+02</rscale>
<asrwt>0</asrwt>
<pdfrwt beam="1">  1        2 0.25899357E+00 0.25247567E+02</pdfrwt>
<pdfrwt beam="2">  1       -2 0.85051083E-01 0.23280857E+02</pdfrwt>
<totfact> 0.18003895E+01</totfact>
</mgrwt>
</event>
<event>
 7    1  0.6493044E-004  0.6064137E+02  0.7546771E-02  0.1537905E+00
          1   -1    0    0  502    0 -0.00000000000E+00  0.00000000000E+00  0.43187264641E+03  0.43187264641E+03  0.00000000000E+00 0. -1.
          2   -1    0    0  503    0  0.00000000000E+00 -0.00000000000E+00 -0.13196960014E+04  0.13196960014E+04  0.00000000000E+00 0. -1.
         25    2    1    2    0    0 -0.35461414589E+02 -0.70427829562E+02 -0.91803959509E+03  0.92985980824E+03  0.12499989485E+03 0.  0.
          4    1    3    3  501    0  0.25163507107E+02 -0.78987824260E+02 -0.42316637161E+03  0.43121186142E+03  0.12700000000E+01 0. -1.
         -4    1    3    3    0  501 -0.60624921696E+02  0.85599946975E+01 -0.49487322348E+03  0.49864794681E+03  0.12700000000E+01 0. -1.
          2    1    1    2  502    0  0.17778665481E+02  0.57934932522E+02  0.42350785585E+03  0.42782174012E+03  0.00000000000E+00 0. -1.
          1    1    1    2  503    0  0.17682749108E+02  0.12492897040E+02 -0.39329161573E+03  0.39388709942E+03  0.00000000000E+00 0. -1.
<mgrwt>
<rscale>  0 0.36234336E+02</rscale>
<asrwt>0</asrwt>
<pdfrwt beam="2">  1        2 0.20303015E+00 0.21650683E+02</pdfrwt>
<pdfrwt beam="1">  1        1 0.66441947E-01 0.60641369E+02</pdfrwt>
<totfact> 0.15854867E+02</totfact>
</mgrwt>
</event>
<event>
 7    1  0.6493044E-004  0.1889630E+03  0.7546771E-02  0.1262998E+00
          1   -1    0    0  502    0 -0.00000000000E+00  0.00000000000E+00  0.19686011332E+04  0.19686011332E+04  0.00000000000E+00 0. -1.
          2   -1    0    0  503    0  0.00000000000E+00 -0.00000000000E+00 -0.99813898929E+03  0.99813898929E+03  0.00000000000E+00 0. -1.
         25    2    1    2    0    0  0.13440715105E+03 -0.36088818766E+02 -0.43750866179E+01  0.18711916408E+03  0.12500702017E+03 0.  0.
          4    1    3    3  501    0  0.10320976902E+02  0.12132591235E+02  0.42949306912E+02  0.45825519075E+02  0.12700000000E+01 0.  1.
         -4    1    3    3    0  501  0.12408617414E+03 -0.48221410001E+02 -0.47324393530E+02  0.14129364501E+03  0.12700000000E+01 0.  1.
          2    1    1    2  502    0  0.59721573921E+02  0.18524006420E+02  0.18661733078E+04  0.18672205600E+04  0.00000000000E+00 0. -1.
          1    1    1    2  503    0 -0.19412872497E+03  0.17564812345E+02 -0.89133607720E+03  0.91240039841E+03  0.00000000000E+00 0. -1.
<mgrwt>
<rscale>  0 0.10869940E+03</rscale>
<asrwt>0</asrwt>
<pdfrwt beam="2">  1        2 0.15355984E+00 0.18896299E+03</pdfrwt>
<pdfrwt beam="1">  1        1 0.30286171E+00 0.62528435E+02</pdfrwt>
<totfact> 0.15519625E+01</totfact>
</mgrwt>
</event>
<event>
 7    1  0.6493044E-004  0.5094942E+02  0.7546771E-02  0.1471504E+00
          2   -1    0    0  503    0  0.00000000000E+00  0.00000000000E+00  0.12727277503E+03  0.12727277503E+03  0.00000000000E+00 0. -1.
          1   -1    0    0  502    0 -0.00000000000E+00 -0.00000000000E+00 -0.53042505713E+03  0.53042505713E+03  0.00000000000E+00 0. -1.
         25    2    1    2    0    0 -0.45513796931E+00  0.22298686182E+02  0.64251434341E+00  0.12697433100E+03  0.12499851740E+03 0.  0.
          4    1    3    3  501    0  0.23921076870E+02  0.60131065971E+02 -0.31174794743E+02  0.71843188547E+02  0.12700000000E+01 0. -1.
         -4    1    3    3    0  501 -0.24376214839E+02 -0.37832379789E+02  0.31817309086E+02  0.55131142450E+02  0.12700000000E+01 0. -1.
          2    1    1    2  502    0 -0.31271589452E+02  0.25827172791E+02 -0.45307499301E+03  0.45488669408E+03  0.00000000000E+00 0. -1.
          1    1    1    2  503    0  0.31726727421E+02 -0.48125858974E+02  0.49280196563E+02  0.75836807080E+02  0.00000000000E+00 0. -1.
<mgrwt>
<rscale>  0 0.45457772E+02</rscale>
<asrwt>0</asrwt>
<pdfrwt beam="1">  1        2 0.19580427E-01 0.50949422E+02</pdfrwt>
<pdfrwt beam="2">  1        1 0.81603855E-01 0.40558047E+02</pdfrwt>
<totfact> 0.15907679E+03</totfact>
</mgrwt>
</event>
<event>
 7    1  0.6493044E-004  0.7171712E+02  0.7546771E-02  0.1456378E+00
          2   -1    0    0  503    0  0.00000000000E+00  0.00000000000E+00  0.89561747357E+03  0.89561747357E+03  0.00000000000E+00 0. -1.
          1   -1    0    0  502    0 -0.00000000000E+00 -0.00000000000E+00 -0.10560290924E+04  0.10560290924E+04  0.00000000000E+00 0. -1.
         25    2    1    2    0    0  0.23055911126E+02 -0.39434928594E+02 -0.21038992531E+03  0.24894753896E+03  0.12499707137E+03 0.  0.
          4    1    3    3  501    0 -0.11204595607E+02  0.39990384481E+02 -0.10288471398E+03  0.11095787978E+03  0.12700000000E+01 0. -1.
         -4    1    3    3    0  501  0.34260506733E+02 -0.79425313074E+02 -0.10750521133E+03  0.13798965918E+03  0.12700000000E+01 0. -1.
          2    1    1    2  502    0 -0.52537478245E+02  0.52234728006E+02 -0.82440402545E+03  0.82772619302E+03  0.00000000000E+00 0. -1.
          1    1    1    2  503    0  0.29481567119E+02 -0.12799799412E+02  0.87438233198E+03  0.87497283394E+03  0.00000000000E+00 0. -1.
<mgrwt>
<rscale>  0 0.48010501E+02</rscale>
<asrwt>0</asrwt>
<pdfrwt beam="1">  1        2 0.13778730E+00 0.32140281E+02</pdfrwt>
<pdfrwt beam="2">  1        1 0.16246601E+00 0.71717115E+02</pdfrwt>
<totfact> 0.73349973E+01</totfact>
</mgrwt>
</event>
<event>
 7    1  0.6493044E-004  0.6497959E+02  0.7546771E-02  0.1399936E+00
          2   -1    0    0  503    0  0.00000000000E+00  0.00000000000E+00  0.26475329889E+03  0.26475329889E+03  0.00000000000E+00 0. -1.
          1   -1    0    0  502    0 -0.00000000000E+00 -0.00000000000E+00 -0.77729175081E+03  0.77729175081E+03  0.00000000000E+00 0. -1.
         25    2    1    2    0    0 -0.55275063669E+02  0.48398282960E+02  0.36801896762E+02  0.14958697017E+03  0.12499662228E+03 0.  0.
          4    1    3    3  501    0 -0.15717490114E+02  0.71967998345E+02 -0.20108278359E+02  0.76370072934E+02  0.12700000000E+01 0. -1.
         -4    1    3    3    0  501 -0.39557573555E+02 -0.23569715385E+02  0.56910175120E+02  0.73216897238E+02  0.12700000000E+01 0. -1.
          2    1    1    2  502    0  0.34140299401E+01 -0.65103648952E+02 -0.71505264473E+03  0.71801840188E+03  0.00000000000E+00 0. -1.
          1    1    1    2  503    0  0.51861033728E+02  0.16705365992E+02  0.16571229606E+03  0.17443967764E+03  0.00000000000E+00 0. -1.
<mgrwt>
<rscale>  0 0.59501473E+02</rscale>
<asrwt>0</asrwt>
<pdfrwt beam="1">  1        2 0.40731277E-01 0.54485191E+02</pdfrwt>
<pdfrwt beam="2">  1        1 0.11958335E+00 0.64979588E+02</pdfrwt>
<totfact> 0.43295874E+02</totfact>
</mgrwt>
</event>
<event>
 7    1  0.6493044E-004  0.8973382E+02  0.7546771E-02  0.1352685E+00
          1   -1    0    0  502    0 -0.00000000000E+00  0.00000000000E+00  0.10299904687E+04  0.10299904687E+04  0.00000000000E+00 0. -1.
          2   -1    0    0  503    0  0.00000000000E+00 -0.00000000000E+00 -0.13811508715E+03  0.13811508715E+03  0.00000000000E+00 0. -1.
         25    2    1    2    0    0 -0.58829659816E+02  0.41856640173E+02  0.62805310606E+03  0.64442855147E+03  0.12499818687E+03 0.  0.
          4    1    3    3  501    0 -0.73367183527E+02  0.11984809981E+02  0.17476803392E+03  0.18992592732E+03  0.12700000000E+01 0.  1.
         -4    1    3    3    0  501  0.14537523711E+02  0.29871830192E+02  0.45328507214E+03  0.45450262415E+03  0.12700000000E+01 0.  1.
          2    1    1    2  502    0  0.51403493357E+02 -0.99513498005E+02  0.37870618030E+03  0.39492230427E+03  0.00000000000E+00 0. -1.
          3    1    1    2  503    0  0.74261664591E+01  0.57656857832E+02 -0.11488390483E+03  0.12875470008E+03  0.00000000000E+00 0. -1.
<mgrwt>
<rscale>  0 0.72225397E+02</rscale>
<asrwt>0</asrwt>
<pdfrwt beam="2">  1        2 0.21248476E-01 0.58133133E+02</pdfrwt>
<pdfrwt beam="1">  1        1 0.15846007E+00 0.89733818E+02</pdfrwt>
<totfact> 0.54631421E+02</totfact>
</mgrwt>
</event>
<event>
 7    1  0.6493044E-004  0.8251086E+02  0.7546771E-02  0.1372680E+00
          2   -1    0    0  503    0  0.00000000000E+00  0.00000000000E+00  0.64876362797E+03  0.64876362797E+03  0.00000000000E+00 0. -1.
          1   -1    0    0  502    0 -0.00000000000E+00 -0.00000000000E+00 -0.15384772938E+04  0.15384772938E+04  0.00000000000E+00 0. -1.
         25    2    1    2    0    0  0.94134323297E+02  0.15899751404E+02  0.12774778741E+03  0.20262714172E+03  0.12499675378E+03 0.  0.
          4    1    3    3  501    0  0.51164145950E+02  0.38763861592E+02  0.13859405173E+03  0.15274269499E+03  0.12700000000E+01 0. -1.
         -4    1    3    3    0  501  0.42970177347E+02 -0.22864110188E+02 -0.10846264326E+02  0.49884446732E+02  0.12700000000E+01 0. -1.
          2    1    1    2  502    0 -0.34226630796E+02  0.41092626160E+02 -0.14970220135E+04  0.14979769608E+04  0.00000000000E+00 0. -1.
          1    1    1    2  503    0 -0.59907692502E+02 -0.56992377564E+02  0.47956056035E+03  0.48663681916E+03  0.00000000000E+00 0. -1.
<mgrwt>
<rscale>  0 0.66427755E+02</rscale>
<asrwt>0</asrwt>
<pdfrwt beam="1">  1        2 0.99809789E-01 0.82510860E+02</pdfrwt>
<pdfrwt beam="2">  1        1 0.23668881E+00 0.53479587E+02</pdfrwt>
<totfact> 0.51481377E+01</totfact>
</mgrwt>
</event>
<event>
 7    1  0.6493044E-004  0.1135396E+03  0.7546771E-02  0.1338234E+00
         -2   -1    0    0    0  501 -0.00000000000E+00  0.00000000000E+00  0.73607075319E+03  0.73607075319E+03  0.00000000000E+00 0.  1.
          2   -1    0    0  503    0  0.00000000000E+00 -0.00000000000E+00 -0.30264047513E+03  0.30264047513E+03  0.00000000000E+00 0. -1.
         25    2    1    2    0    0 -0.31999141278E+02 -0.82685867370E+02  0.90909949840E+02  0.17818321686E+03  0.12499496824E+03 0.  0.
          4    1    3    3  502    0 -0.70870951522E+02 -0.13572117879E+02  0.56856143620E+02  0.91875612219E+02  0.12700000000E+01 0.  1.
         -4    1    3    3    0  502  0.38871810244E+02 -0.69113749490E+02  0.34053806221E+02  0.86307604638E+02  0.12700000000E+01 0.  1.
          1    1    1    2  503    0 -0.52017416393E+02  0.11870502956E+00 -0.25053953620E+03  0.25588256076E+03  0.00000000000E+00 0. -1.
         -1    1    1    2    0  501  0.84016557671E+02  0.82567162340E+02  0.59305986442E+03  0.60464545070E+03  0.00000000000E+00 0.  1.
<mgrwt>
<rscale>  0 0.76850832E+02</rscale>
<asrwt>0</asrwt>
<pdfrwt beam="2">  1        2 0.46560073E-01 0.52017552E+02</pdfrwt>
<pdfrwt beam="1">  1       -2 0.11324165E+00 0.11353957E+03</pdfrwt>
<totfact> 0.71304175E+01</totfact>
</mgrwt>
</event>
<event>
 7    1  0.6493044E-004  0.3312498E+02  0.7546771E-02  0.1581377E+00
          2   -1    0    0  503    0  0.00000000000E+00  0.00000000000E+00  0.16375940612E+03  0.16375940612E+03  0.00000000000E+00 0. -1.
          1   -1    0    0  502    0 -0.00000000000E+00 -0.00000000000E+00 -0.19251264388E+03  0.19251264388E+03  0.00000000000E+00 0. -1.
         25    2    1    2    0    0 -0.68569831332E+01  0.41906058532E+01  0.17032527458E+02  0.12640833097E+03  0.12499751898E+03 0.  0.
          4    1    3    3  501    0 -0.27665245057E+02 -0.55075156897E+02  0.15496948762E+02  0.63564195993E+02  0.12700000000E+01 0.  1.
         -4    1    3    3    0  501  0.20808261923E+02  0.59265762750E+02  0.15355786962E+01  0.62844134973E+02  0.12700000000E+01 0.  1.
          2    1    1    2  502    0  0.31151578169E+02  0.13552813265E+02 -0.13317573067E+03  0.13744044095E+03  0.00000000000E+00 0. -1.
          1    1    1    2  503    0 -0.24294595036E+02 -0.17743419118E+02  0.87389965454E+02  0.92423278085E+02  0.00000000000E+00 0. -1.
<mgrwt>
<rscale>  0 0.31567976E+02</rscale>
<asrwt>0</asrwt>
<pdfrwt beam="1">  1        2 0.25193755E-01 0.30084153E+02</pdfrwt>
<pdfrwt beam="2">  1        1 0.29617330E-01 0.33124984E+02</pdfrwt>
<totfact> 0.39699286E+03</totfact>
</mgrwt>
</event>
<event>
 7    1  0.6493044E-004  0.5525001E+02  0.7546771E-02  0.1543862E+00
          1   -1    0    0  502    0 -0.00000000000E+00  0.00000000000E+00  0.58833353280E+03  0.58833353280E+03  0.00000000000E+00 0. -1.
          2   -1    0    0  503    0  0.00000000000E+00 -0.00000000000E+00 -0.23992839358E+04  0.23992839358E+04  0.00000000000E+00 0. -1.
         25    2    1    2    0    0 -0.17413850937E+02 -0.35095315352E+02 -0.35086621255E+02  0.13561821210E+03  0.12500522029E+03 0.  0.
          4    1    3    3  501    0 -0.42166346616E+02 -0.72280998687E+02 -0.97765892640E+01  0.84259943958E+02  0.12700000000E+01 0.  1.
         -4    1    3    3    0  501  0.24752495679E+02  0.37185683335E+02 -0.25310031991E+02  0.51358268144E+02  0.12700000000E+01 0.  1.
          2    1    1    2  502    0  0.11204255225E+02 -0.19926763461E+02  0.53749348134E+03  0.53797941757E+03  0.00000000000E+00 0. -1.
          1    1    1    2  503    0  0.62095957122E+01  0.55022078813E+02 -0.23133572631E+04  0.23140198389E+04  0.00000000000E+00 0. -1.
<mgrwt>
<rscale>  0 0.35539465E+02</rscale>
<asrwt>0</asrwt>
<pdfrwt beam="2">  1        2 0.36912060E+00 0.55250014E+02</pdfrwt>
<pdfrwt beam="1">  1        1 0.90512851E-01 0.22860692E+02</pdfrwt>
<totfact> 0.29953688E+01</totfact>
</mgrwt>
</event>
<event>
 7    1  0.6493044E-004  0.6296364E+02  0.7546771E-02  0.1500055E+00
          2   -1    0    0  503    0  0.00000000000E+00  0.00000000000E+00  0.64849561156E+03  0.64849561156E+03  0.00000000000E+00 0. -1.
         -2   -1    0    0    0  501 -0.00000000000E+00 -0.00000000000E+00 -0.23985005485E+03  0.23985005485E+03  0.00000000000E+00 0.  1.
         25    2    1    2    0    0  0.75481634043E+02 -0.43031936632E+02 -0.17045594175E+02  0.15317045036E+03  0.12498563891E+03 0.  0.
          4    1    3    3  502    0  0.20361897417E+02 -0.27056742842E+02 -0.68281815092E+02  0.76227904155E+02  0.12700000000E+01 0.  1.
         -4    1    3    3    0  502  0.55119736626E+02 -0.15975193790E+02  0.51236220917E+02  0.76942546203E+02  0.12700000000E+01 0.  1.
          1    1    1    2  503    0 -0.25619576141E+02  0.80945715435E+01  0.57411807837E+03  0.57474642468E+03  0.00000000000E+00 0. -1.
         -1    1    1    2    0  501 -0.49862057902E+02  0.34937365088E+02 -0.14842692749E+03  0.16042879137E+03  0.00000000000E+00 0.  1.
<mgrwt>
<rscale>  0 0.41130299E+02</rscale>
<asrwt>0</asrwt>
<pdfrwt beam="1">  1        2 0.99768555E-01 0.26867913E+02</pdfrwt>
<pdfrwt beam="2">  1       -2 0.36900009E-01 0.62963636E+02</pdfrwt>
<totfact> 0.33674973E+02</totfact>
</mgrwt>
</event>
<event>
 7    1  0.6493044E-004  0.1883941E+03  0.7546771E-02  0.1212009E+00
          2   -1    0    0  503    0  0.00000000000E+00  0.00000000000E+00  0.32045629627E+04  0.32045629627E+04  0.00000000000E+00 0. -1.
          1   -1    0    0  502    0 -0.00000000000E+00 -0.00000000000E+00 -0.10297412533E+04  0.10297412533E+04  0.00000000000E+00 0. -1.
         25    2    1    2    0    0 -0.12250162654E+03 -0.85350605598E+01  0.64699315938E+03  0.67030084829E+03  0.12499433256E+03 0.  0.
          4    1    3    3  501    0 -0.56457667020E+01  0.31988702679E+02  0.43737274367E+02  0.54495080969E+02  0.12700000000E+01 0.  1.
         -4    1    3    3    0  501 -0.11685585984E+03 -0.40523763239E+02  0.60325588501E+03  0.61580576732E+03  0.12700000000E+01 0.  1.
          2    1    1    2  502    0  0.15510957579E+03  0.10887695690E+03 -0.10081622082E+04  0.10258187999E+04  0.00000000000E+00 0. -1.
          1    1    1    2  503    0 -0.32607949252E+02 -0.10034189634E+03  0.25359907582E+04  0.25381845678E+04  0.00000000000E+00 0. -1.
<mgrwt>
<rscale>  0 0.14098559E+03</rscale>
<asrwt>0</asrwt>
<pdfrwt beam="1">  1        2 0.49300968E+00 0.10550722E+03</pdfrwt>
<pdfrwt beam="2">  1        1 0.15842173E+00 0.18839409E+03</pdfrwt>
<totfact> 0.39163337E+00</totfact>
</mgrwt>
</event>
<event>
 7    1  0.6493044E-004  0.7151650E+02  0.7546771E-02  0.1424861E+00
          2   -1    0    0  503    0  0.00000000000E+00  0.00000000000E+00  0.18253308244E+04  0.18253308244E+04  0.00000000000E+00 0. -1.
          1   -1    0    0  502    0 -0.00000000000E+00 -0.00000000000E+00 -0.25483314274E+02  0.25483314274E+02  0.00000000000E+00 0. -1.
         25    2    1    2    0    0  0.31851627794E+02  0.10584626619E+03  0.14078478223E+04  0.14177018492E+04  0.12500033728E+03 0.  0.
          4    1    3    3  501    0  0.43464147161E+02  0.12724737070E+03  0.98300967429E+03  0.99216463255E+03  0.12700000000E+01 0.  1.
         -4    1    3    3    0  501 -0.11612519368E+02 -0.21401104514E+02  0.42483814802E+03  0.42553721669E+03  0.12700000000E+01 0.  1.
          2    1    1    2  502    0 -0.18947264501E+02 -0.67159647067E+02  0.43488878794E+02  0.82223473565E+02  0.00000000000E+00 0. -1.
          1    1    1    2  503    0 -0.12904363293E+02 -0.38686619120E+02  0.34851080899E+03  0.35088881583E+03  0.00000000000E+00 0. -1.
<mgrwt>
<rscale>  0 0.54005469E+02</rscale>
<asrwt>0</asrwt>
<pdfrwt beam="1">  1        2 0.28082002E+00 0.40782068E+02</pdfrwt>
<pdfrwt beam="2">  1        1 0.39205113E-02 0.71516497E+02</pdfrwt>
<totfact> 0.30949456E+03</totfact>
</mgrwt>
</event>
<event>
 7    1  0.6493044E-004  0.1003440E+03  0.7546771E-02  0.1366717E+00
         -2   -1    0    0    0  501 -0.00000000000E+00  0.00000000000E+00  0.41861260009E+02  0.41861260009E+02  0.00000000000E+00 0.  1.
          2   -1    0    0  503    0  0.00000000000E+00 -0.00000000000E+00 -0.24849721172E+04  0.24849721172E+04  0.00000000000E+00 0. -1.
         25    2    1    2    0    0 -0.61615855287E+02  0.72180800258E+01 -0.14380847100E+03  0.20038366164E+03  0.12499648482E+03 0.  0.
          4    1    3    3  502    0 -0.80699102958E+01  0.46466455545E+02 -0.61906476763E+01  0.47583526159E+02  0.12700000000E+01 0.  1.
         -4    1    3    3    0  502 -0.53545944991E+02 -0.39248375519E+02 -0.13761782332E+03  0.15280013548E+03  0.12700000000E+01 0.  1.
          1    1    1    2  503    0  0.93582041547E+02 -0.40575774878E+02 -0.22687907933E+04  0.22710824855E+04  0.00000000000E+00 0. -1.
         -1    1    1    2    0  501 -0.31966186260E+02  0.33357694852E+02 -0.30511592900E+02  0.55367230119E+02  0.00000000000E+00 0.  1.
<mgrwt>
<rscale>  0 0.68088465E+02</rscale>
<asrwt>0</asrwt>
<pdfrwt beam="2">  1        2 0.38230346E+00 0.10034404E+03</pdfrwt>
<pdfrwt beam="1">  1       -2 0.64401929E-02 0.46201438E+02</pdfrwt>
<totfact> 0.53139187E+02</totfact>
</mgrwt>
</event>
<event>
 7    1  0.6493044E-004  0.5765120E+02  0.7546771E-02  0.1460503E+00
          1   -1    0    0  502    0 -0.00000000000E+00  0.00000000000E+00  0.20069526580E+03  0.20069526580E+03  0.00000000000E+00 0. -1.
          2   -1    0    0  503    0  0.00000000000E+00 -0.00000000000E+00 -0.47984257926E+04  0.47984257926E+04  0.00000000000E+00 0. -1.
         25    2    1    2    0    0 -0.18413508730E+02 -0.54605980799E+02 -0.77771183742E+03  0.78979901571E+03  0.12500365083E+03 0.  0.
          4    1    3    3  501    0 -0.18396145054E+01 -0.42355147684E+02 -0.70425763788E+02  0.82211579610E+02  0.12700000000E+01 0. -1.
         -4    1    3    3    0  501 -0.16573894225E+02 -0.12250833115E+02 -0.70728607363E+03  0.70758743610E+03  0.12700000000E+01 0. -1.
          2    1    1    2  502    0  0.38798399027E+02  0.21096391522E+00  0.19250595533E+03  0.19637694139E+03  0.00000000000E+00 0. -1.
          1    1    1    2  503    0 -0.20384890297E+02  0.54395016884E+02 -0.40125246447E+04  0.40129451013E+04  0.00000000000E+00 0. -1.
<mgrwt>
<rscale>  0 0.47294896E+02</rscale>
<asrwt>0</asrwt>
<pdfrwt beam="2">  1        2 0.73821927E+00 0.57651196E+02</pdfrwt>
<pdfrwt beam="1">  1        1 0.30876198E-01 0.38798973E+02</pdfrwt>
<totfact> 0.24900129E+00</totfact>
</mgrwt>
</event>
<event>
 7    1  0.6493044E-004  0.7880015E+02  0.7546771E-02  0.1359624E+00
          2   -1    0    0  503    0  0.00000000000E+00  0.00000000000E+00  0.32411173322E+04  0.32411173322E+04  0.00000000000E+00 0. -1.
         -2   -1    0    0    0  501 -0.00000000000E+00 -0.00000000000E+00 -0.58720401006E+03  0.58720401006E+03  0.00000000000E+00 0.  1.
         25    2    1    2    0    0  0.11666838586E+02  0.15068247640E+02  0.74640059168E+01  0.12666158707E+03  0.12499711615E+03 0.  0.
          4    1    3    3  502    0 -0.45653705156E+02 -0.28549840569E+02 -0.25916104269E+01  0.53922940717E+02  0.12700000000E+01 0.  1.
         -4    1    3    3    0  502  0.57320543742E+02  0.43618088209E+02  0.10055616344E+02  0.72738646357E+02  0.12700000000E+01 0.  1.
          1    1    1    2  503    0 -0.70026987004E+02 -0.37235224823E+02  0.31717103836E+04  0.31727018451E+04  0.00000000000E+00 0. -1.
         -1    1    1    2    0  501  0.58360148418E+02  0.22166977183E+02 -0.52526106732E+03  0.52895791009E+03  0.00000000000E+00 0.  1.
<mgrwt>
<rscale>  0 0.70138095E+02</rscale>
<asrwt>0</asrwt>
<pdfrwt beam="1">  1        2 0.49863342E+00 0.78800147E+02</pdfrwt>
<pdfrwt beam="2">  1       -2 0.90339081E-01 0.62428213E+02</pdfrwt>
<totfact> 0.20887474E+00</totfact>
</mgrwt>
</event>
<event>
 7    1  0.6493044E-004  0.7984981E+02  0.7546771E-02  0.1432007E+00
         -2   -1    0    0    0  501 -0.00000000000E+00  0.00000000000E+00  0.84149206930E+02  0.84149206930E+02  0.00000000000E+00 0.  1.
          2   -1    0    0  503    0  0.00000000000E+00 -0.00000000000E+00 -0.51231077861E+03  0.51231077861E+03  0.00000000000E+00 0. -1.
         25    2    1    2    0    0 -0.77382476133E+02 -0.45276813229E+02 -0.12438178246E+03  0.19782081775E+03  0.12499684275E+03 0.  0.
          4    1    3    3  502    0 -0.76821054264E+02  0.43083900296E+01 -0.12661550834E+03  0.14816590854E+03  0.12700000000E+01 0.  1.
         -4    1    3    3    0  502 -0.56142186952E+00 -0.49585203258E+02  0.22337258812E+01  0.49654909203E+02  0.12700000000E+01 0.  1.
          1    1    1    2  503    0 -0.86020585142E+00  0.34585276655E+02 -0.31673064918E+03  0.31861447778E+03  0.00000000000E+00 0. -1.
         -1    1    1    2    0  501  0.78242681985E+02  0.10691536574E+02  0.12950859962E+02  0.80024690016E+02  0.00000000000E+00 0.  1.
<mgrwt>
<rscale>  0 0.52559316E+02</rscale>
<asrwt>0</asrwt>
<pdfrwt beam="2">  1        2 0.78817044E-01 0.34595973E+02</pdfrwt>
<pdfrwt beam="1">  1       -2 0.12946032E-01 0.79849807E+02</pdfrwt>
<totfact> 0.25572343E+03</totfact>
</mgrwt>
</event>
<event>
 7    1  0.6493044E-004  0.4827138E+02  0.7546771E-02  0.1519433E+00
         -2   -1    0    0    0  501 -0.00000000000E+00  0.00000000000E+00  0.36550854178E+01  0.36550854178E+01  0.00000000000E+00 0.  1.
          2   -1    0    0  503    0  0.00000000000E+00 -0.00000000000E+00 -0.36559741607E+04  0.36559741607E+04  0.00000000000E+00 0. -1.
         25    2    1    2    0    0  0.28953933791E+02 -0.46246818965E+01 -0.16266909622E+04  0.16317497599E+04  0.12499629788E+03 0.  0.
          4    1    3    3  502    0  0.44092731714E+02 -0.21553498306E+02 -0.24495113570E+03  0.24982272527E+03  0.12700000000E+01 0. -1.
         -4    1    3    3    0  502 -0.15138797922E+02  0.16928816409E+02 -0.13817398265E+04  0.13819270346E+04  0.12700000000E+01 0. -1.
          1    1    1    2  503    0  0.29757440375E+02 -0.76716043107E+01 -0.10208336621E+04  0.10212961003E+04  0.00000000000E+00 0. -1.
         -1    1    1    2    0  501 -0.58711374166E+02  0.12296286207E+02 -0.10047944510E+04  0.10065833860E+04  0.00000000000E+00 0.  1.
<mgrwt>
<rscale>  0 0.38514928E+02</rscale>
<asrwt>0</asrwt>
<pdfrwt beam="2">  1        2 0.56245564E+00 0.30730421E+02</pdfrwt>
<pdfrwt beam="1">  1       -2 0.56232275E-03 0.48271376E+02</pdfrwt>
<totfact> 0.44624024E+03</totfact>
</mgrwt>
</event>
<event>
 7    1  0.6493044E-004  0.1394728E+03  0.7546771E-02  0.1242155E+00
          1   -1    0    0  503    0  0.00000000000E+00  0.00000000000E+00  0.73596982886E+03  0.73596982886E+03  0.00000000000E+00 0. -1.
         -1   -1    0    0    0  501 -0.00000000000E+00 -0.00000000000E+00 -0.19519312653E+03  0.19519312653E+03  0.00000000000E+00 0.  1.
         25    2    1    2    0    0 -0.53481240352E+02  0.14498390132E+02  0.36167979720E+03  0.38666412072E+03  0.12500568054E+03 0.  0.
          4    1    3    3  502    0 -0.56591807145E+02  0.55776210405E+02  0.31212265083E+03  0.32208039422E+03  0.12700000000E+01 0. -1.
         -4    1    3    3    0  502  0.31105667934E+01 -0.41277820273E+02  0.49557146369E+02  0.64583726499E+02  0.12700000000E+01 0. -1.
          2    1    1    2  503    0 -0.46799793185E+02  0.93137088749E+02  0.32257959305E+03  0.33900196429E+03  0.00000000000E+00 0. -1.
         -2    1    1    2    0  501  0.10028103354E+03 -0.10763547888E+03 -0.14348268792E+03  0.20549687037E+03  0.00000000000E+00 0.  1.
<mgrwt>
<rscale>  0 0.12057287E+03</rscale>
<asrwt>0</asrwt>
<pdfrwt beam="1">  1        1 0.11322613E+00 0.10423405E+03</pdfrwt>
<pdfrwt beam="2">  1       -1 0.30029712E-01 0.13947282E+03</pdfrwt>
<totfact> 0.27837670E+02</totfact>
</mgrwt>
</event>
<event>
 7    1  0.6493044E-004  0.6033125E+02  0.7546771E-02  0.1517171E+00
          1   -1    0    0  502    0 -0.00000000000E+00  0.00000000000E+00  0.25695502219E+03  0.25695502219E+03  0.00000000000E+00 0. -1.
          2   -1    0    0  503    0  0.00000000000E+00 -0.00000000000E+00 -0.58007443517E+03  0.58007443517E+03  0.00000000000E+00 0. -1.
         25    2    1    2    0    0  0.26355650078E+02  0.44027412020E+02 -0.19468506080E+03  0.23698042030E+03  0.12499765359E+03 0.  0.
          4    1    3    3  501    0 -0.86559764501E+01  0.19682528485E+02  0.12866457130E+02  0.25089569046E+02  0.12700000000E+01 0.  1.
         -4    1    3    3    0  501  0.35011626528E+02  0.24344883536E+02 -0.20755151793E+03  0.21189085125E+03  0.12700000000E+01 0.  1.
          2    1    1    2  502    0 -0.49560942930E+02 -0.34825336215E+02  0.23147793404E+03  0.23927207329E+03  0.00000000000E+00 0. -1.
          1    1    1    2  503    0  0.23205292852E+02 -0.92020758054E+01 -0.35991228622E+03  0.36077696377E+03  0.00000000000E+00 0. -1.
<mgrwt>
<rscale>  0 0.38808041E+02</rscale>
<asrwt>0</asrwt>
<pdfrwt beam="2">  1        2 0.89242220E-01 0.24963249E+02</pdfrwt>
<pdfrwt beam="1">  1        1 0.39531542E-01 0.60331249E+02</pdfrwt>
<totfact> 0.79245381E+02</totfact>
</mgrwt>
</event>
<event>
 7    1  0.6493044E-004  0.8032045E+02  0.7546771E-02  0.1367315E+00
          1   -1    0    0  502    0 -0.00000000000E+00  0.00000000000E+00  0.26807168330E+03  0.26807168330E+03  0.00000000000E+00 0. -1.
          2   -1    0    0  503    0  0.00000000000E+00 -0.00000000000E+00 -0.17764294207E+04  0.17764294207E+04  0.00000000000E+00 0. -1.
         25    2    1    2    0    0  0.32241551207E+02  0.13293856590E+03 -0.37757826599E+03  0.42059436492E+03  0.12498837116E+03 0.  0.
          4    1    3    3  501    0 -0.22240902093E+02  0.12566725416E+03 -0.22889622011E+03  0.26207252618E+03  0.12700000000E+01 0. -1.
         -4    1    3    3    0  501  0.54482453300E+02  0.72713117410E+01 -0.14868204588E+03  0.15852183874E+03  0.12700000000E+01 0. -1.
          2    1    1    2  502    0 -0.16862747566E+02 -0.77603046772E+02  0.23955200423E+03  0.25237224065E+03  0.00000000000E+00 0. -1.
          1    1    1    2  503    0 -0.15378803641E+02 -0.55335519132E+02 -0.13703314756E+04  0.13715344984E+04  0.00000000000E+00 0. -1.
<mgrwt>
<rscale>  0 0.67919282E+02</rscale>
<asrwt>0</asrwt>
<pdfrwt beam="2">  1        2 0.27329684E+00 0.57432807E+02</pdfrwt>
<pdfrwt beam="1">  1        1 0.41241797E-01 0.80320450E+02</pdfrwt>
<totfact> 0.15538768E+02</totfact>
</mgrwt>
</event>
<event>
 7    1  0.6493044E-004  0.1961681E+03  0.7546771E-02  0.1343605E+00
          1   -1    0    0  503    0  0.00000000000E+00  0.00000000000E+00  0.61809881320E+03  0.61809881320E+03  0.00000000000E+00 0. -1.
         -1   -1    0    0    0  501 -0.00000000000E+00 -0.00000000000E+00 -0.98496831597E+02  0.98496831597E+02  0.00000000000E+00 0.  1.
         25    2    1    2    0    0  0.82819023985E+02 -0.19495598811E+03  0.35980109706E+03  0.43583108613E+03  0.12500031266E+03 0.  0.
          4    1    3    3  502    0  0.60041530004E+02 -0.18120443987E+02  0.58770995526E+02  0.85959168392E+02  0.12700000000E+01 0. -1.
         -4    1    3    3    0  502  0.22777493981E+02 -0.17683554412E+03  0.30103010153E+03  0.34987191774E+03  0.12700000000E+01 0. -1.
          2    1    1    2  503    0 -0.25284442701E+02  0.13663614209E+02  0.58707472535E+02  0.65364858505E+02  0.00000000000E+00 0. -1.
         -2    1    1    2    0  501 -0.57534581284E+02  0.18129237390E+03  0.10109341201E+03  0.21539970016E+03  0.00000000000E+00 0.  1.
<mgrwt>
<rscale>  0 0.75085983E+02</rscale>
<asrwt>0</asrwt>
<pdfrwt beam="1">  1        1 0.95092123E-01 0.28740170E+02</pdfrwt>
<pdfrwt beam="2">  1       -1 0.15153359E-01 0.19616811E+03</pdfrwt>
<totfact> 0.11399526E+03</totfact>
</mgrwt>
</event>
<event>
 7    1  0.6493044E-004  0.1052511E+03  0.7546771E-02  0.1409433E+00
          2   -1    0    0  503    0  0.00000000000E+00  0.00000000000E+00  0.25392745105E+04  0.25392745105E+04  0.00000000000E+00 0. -1.
          1   -1    0    0  502    0 -0.00000000000E+00 -0.00000000000E+00 -0.84631911201E+02  0.84631911201E+02  0.00000000000E+00 0. -1.
         25    2    1    2    0    0 -0.50549586821E+02 -0.95753599604E+02  0.20820990726E+03  0.26589711622E+03  0.12500359341E+03 0.  0.
          4    1    3    3  501    0  0.15572158996E+01 -0.73132747152E+02  0.30392039170E+02  0.79221919772E+02  0.12700000000E+01 0.  1.
         -4    1    3    3    0  501 -0.52106802721E+02 -0.22620852452E+02  0.17781786809E+03  0.18667519644E+03  0.12700000000E+01 0.  1.
          2    1    1    2  502    0  0.30281476623E+02 -0.75860658644E+01 -0.50118142245E+02  0.59045274188E+02  0.00000000000E+00 0. -1.
          1    1    1    2  503    0  0.20268110198E+02  0.10333966547E+03  0.22965508343E+04  0.22989640313E+04  0.00000000000E+00 0. -1.
<mgrwt>
<rscale>  0 0.57320572E+02</rscale>
<asrwt>0</asrwt>
<pdfrwt beam="1">  1        2 0.39065756E+00 0.10525106E+03</pdfrwt>
<pdfrwt beam="2">  1        1 0.13020296E-01 0.31217242E+02</pdfrwt>
<totfact> 0.23449017E+02</totfact>
</mgrwt>
</event>
<event>
 7    1  0.6493044E-004  0.5811382E+02  0.7546771E-02  0.1451233E+00
          1   -1    0    0  502    0 -0.00000000000E+00  0.00000000000E+00  0.17304956294E+03  0.17304956294E+03  0.00000000000E+00 0. -1.
          2   -1    0    0  503    0  0.00000000000E+00 -0.00000000000E+00 -0.65187290321E+03  0.65187290321E+03  0.00000000000E+00 0. -1.
         25    2    1    2    0    0 -0.89520450042E+02 -0.38747552544E+02  0.57793225415E+02  0.16873859526E+03  0.12496948756E+03 0.  0.
          4    1    3    3  501    0 -0.53212333821E+02 -0.71193107363E+02 -0.52784685953E+01  0.89047662167E+02  0.12700000000E+01 0.  1.
         -4    1    3    3    0  501 -0.36308116221E+02  0.32445554820E+02  0.63071694011E+02  0.79690933088E+02  0.12700000000E+01 0.  1.
          2    1    1    2  502    0  0.40212611731E+02  0.89076655712E+01  0.51108881861E+02  0.65639305703E+02  0.00000000000E+00 0. -1.
          1    1    1    2  503    0  0.49307838311E+02  0.29839886973E+02 -0.58772544755E+03  0.59054456519E+03  0.00000000000E+00 0. -1.
<mgrwt>
<rscale>  0 0.48923986E+02</rscale>
<asrwt>0</asrwt>
<pdfrwt beam="2">  1        2 0.10028814E+00 0.58113823E+02</pdfrwt>
<pdfrwt beam="1">  1        1 0.26623010E-01 0.41187385E+02</pdfrwt>
<totfact> 0.10931927E+03</totfact>
</mgrwt>
</event>
<event>
 7    1  0.6493044E-004  0.2152495E+03  0.7546771E-02  0.1179754E+00
          1   -1    0    0  502    0 -0.00000000000E+00  0.00000000000E+00  0.17958624412E+04  0.17958624412E+04  0.00000000000E+00 0. -1.
          2   -1    0    0  503    0  0.00000000000E+00 -0.00000000000E+00 -0.68454203167E+03  0.68454203167E+03  0.00000000000E+00 0. -1.
         25    2    1    2    0    0 -0.10860881904E+03  0.14216709269E+03  0.34036298538E+03  0.40432002085E+03  0.12498143712E+03 0.  0.
          4    1    3    3  501    0 -0.98934160434E+02  0.45841399240E+02  0.24617321448E+03  0.26924387906E+03  0.12700000000E+01 0. -1.
         -4    1    3    3    0  501 -0.96746586047E+01  0.96325693448E+02  0.94189770901E+02  0.13507614179E+03  0.12700000000E+01 0. -1.
          2    1    1    2  502    0  0.22147255764E+03 -0.74856283401E+02  0.14071620841E+04  0.14264496794E+04  0.00000000000E+00 0. -1.
          1    1    1    2  503    0 -0.11286373860E+03 -0.67310809288E+02 -0.63620465991E+03  0.64963477265E+03  0.00000000000E+00 0. -1.
<mgrwt>
<rscale>  0 0.16818518E+03</rscale>
<asrwt>0</asrwt>
<pdfrwt beam="2">  1        2 0.10531416E+00 0.13141145E+03</pdfrwt>
<pdfrwt beam="1">  1        1 0.27628653E+00 0.21524954E+03</pdfrwt>
<totfact> 0.28381389E+01</totfact>
</mgrwt>
</event>
<event>
 7    1  0.6493044E-004  0.1252589E+03  0.7546771E-02  0.1310277E+00
          1   -1    0    0  503    0  0.00000000000E+00  0.00000000000E+00  0.10350113338E+04  0.10350113338E+04  0.00000000000E+00 0. -1.
         -1   -1    0    0    0  501 -0.00000000000E+00 -0.00000000000E+00 -0.18951063604E+03  0.18951063604E+03  0.00000000000E+00 0.  1.
         25    2    1    2    0    0  0.10415578483E+03 -0.13782297276E+03  0.36402382808E+03  0.42187904764E+03  0.12499993637E+03 0.  0.
          4    1    3    3  502    0 -0.25355734640E+02 -0.47043406411E+02  0.70751062079E+02  0.88675368909E+02  0.12700000000E+01 0. -1.
         -4    1    3    3    0  502  0.12951151947E+03 -0.90779566351E+02  0.29327276601E+03  0.33320367873E+03  0.12700000000E+01 0. -1.
          2    1    1    2  503    0 -0.84403422454E+02  0.80711773696E+02  0.63081883087E+03  0.64153778183E+03  0.00000000000E+00 0. -1.
         -2    1    1    2    0  501 -0.19752362375E+02  0.57111199066E+02 -0.14934196119E+03  0.16110514036E+03  0.00000000000E+00 0.  1.
<mgrwt>
<rscale>  0 0.87002645E+02</rscale>
<asrwt>0</asrwt>
<pdfrwt beam="1">  1        1 0.15923251E+00 0.12525895E+03</pdfrwt>
<pdfrwt beam="2">  1       -1 0.29155483E-01 0.60430496E+02</pdfrwt>
<totfact> 0.16706626E+02</totfact>
</mgrwt>
</event>
<event>
 7    1  0.6493044E-004  0.3480697E+02  0.7546771E-02  0.1612844E+00
          2   -1    0    0  503    0  0.00000000000E+00  0.00000000000E+00  0.36769125070E+03  0.36769125070E+03  0.00000000000E+00 0. -1.
         -2   -1    0    0    0  501 -0.00000000000E+00 -0.00000000000E+00 -0.73263089666E+03  0.73263089666E+03  0.00000000000E+00 0.  1.
         25    2    1    2    0    0  0.13412924957E+02 -0.25361268487E+02  0.13533594736E+03  0.18644934935E+03  0.12499776290E+03 0.  0.
          4    1    3    3  502    0 -0.17537750293E+02  0.31939255636E+02  0.22930572656E+00  0.36460310161E+02  0.12700000000E+01 0.  1.
         -4    1    3    3    0  502  0.30950675250E+02 -0.57300524123E+02  0.13510664163E+03  0.14998903919E+03  0.12700000000E+01 0.  1.
          1    1    1    2  503    0 -0.33309517300E+02  0.12530183195E+02  0.20506740562E+03  0.20813257861E+03  0.00000000000E+00 0. -1.
         -1    1    1    2    0  501  0.19896592343E+02  0.12831085292E+02 -0.70534299893E+03  0.70574021940E+03  0.00000000000E+00 0.  1.
<mgrwt>
<rscale>  0 0.28706429E+02</rscale>
<asrwt>0</asrwt>
<pdfrwt beam="1">  1        2 0.56567885E-01 0.34806971E+02</pdfrwt>
<pdfrwt beam="2">  1       -2 0.11271244E+00 0.23675116E+02</pdfrwt>
<totfact> 0.61658166E+01</totfact>
</mgrwt>
</event>
<event>
 7    1  0.6493044E-004  0.1009720E+03  0.7546771E-02  0.1434406E+00
          1   -1    0    0  502    0 -0.00000000000E+00  0.00000000000E+00  0.19008902170E+03  0.19008902170E+03  0.00000000000E+00 0. -1.
          2   -1    0    0  503    0  0.00000000000E+00 -0.00000000000E+00 -0.88312355485E+03  0.88312355485E+03  0.00000000000E+00 0. -1.
         25    2    1    2    0    0  0.89639225194E+02  0.47260469745E+02 -0.27674497917E+03  0.32012685204E+03  0.12499870082E+03 0.  0.
          4    1    3    3  501    0  0.52344116893E+02 -0.18339933295E+02 -0.32079654932E+02  0.64085699553E+02  0.12700000000E+01 0.  1.
         -4    1    3    3    0  501  0.37295108301E+02  0.65600403040E+02 -0.24466532424E+03  0.25604115249E+03  0.12700000000E+01 0.  1.
          2    1    1    2  502    0 -0.15433819255E+02  0.21992823495E+02  0.16288412433E+03  0.16508520534E+03  0.00000000000E+00 0. -1.
          1    1    1    2  503    0 -0.74205405939E+02 -0.69253293240E+02 -0.57917367831E+03  0.58800051917E+03  0.00000000000E+00 0. -1.
<mgrwt>
<rscale>  0 0.52085617E+02</rscale>
<asrwt>0</asrwt>
<pdfrwt beam="2">  1        2 0.13586516E+00 0.10097201E+03</pdfrwt>
<pdfrwt beam="1">  1        1 0.29244465E-01 0.26867956E+02</pdfrwt>
<totfact> 0.65845615E+02</totfact>
</mgrwt>
</event>
<event>
 7    1  0.6493044E-004  0.5284013E+02  0.7546771E-02  0.1459441E+00
          1   -1    0    0  502    0 -0.00000000000E+00  0.00000000000E+00  0.39105173976E+03  0.39105173976E+03  0.00000000000E+00 0. -1.
          2   -1    0    0  503    0  0.00000000000E+00 -0.00000000000E+00 -0.39903722717E+03  0.39903722717E+03  0.00000000000E+00 0. -1.
         25    2    1    2    0    0  0.48427942490E+01 -0.92651414770E+02 -0.44431188877E+02  0.16188640098E+03  0.12500135584E+03 0.  0.
          4    1    3    3  501    0  0.50809704693E+02 -0.25313946951E+01 -0.31600774725E+02  0.59902052664E+02  0.12700000000E+01 0. -1.
         -4    1    3    3    0  501 -0.45966910444E+02 -0.90120020075E+02 -0.12830414153E+02  0.10198434832E+03  0.12700000000E+01 0. -1.
          2    1    1    2  502    0 -0.97432079615E+01  0.41531985988E+02  0.32870710960E+03  0.33146372330E+03  0.00000000000E+00 0. -1.
          1    1    1    2  503    0  0.49004137125E+01  0.51119428782E+02 -0.29226140814E+03  0.29673884266E+03  0.00000000000E+00 0. -1.
<mgrwt>
<rscale>  0 0.47477737E+02</rscale>
<asrwt>0</asrwt>
<pdfrwt beam="2">  1        2 0.61390342E-01 0.52840133E+02</pdfrwt>
<pdfrwt beam="1">  1        1 0.60161806E-01 0.42659535E+02</pdfrwt>
<totfact> 0.70002633E+02</totfact>
</mgrwt>
</event>
<event>
 7    1  0.6493044E-004  0.5700763E+02  0.7546771E-02  0.1446220E+00
          1   -1    0    0  502    0 -0.00000000000E+00  0.00000000000E+00  0.18830137975E+04  0.18830137975E+04  0.00000000000E+00 0. -1.
          2   -1    0    0  503    0  0.00000000000E+00 -0.00000000000E+00 -0.81517172631E+03  0.81517172631E+03  0.00000000000E+00 0. -1.
         25    2    1    2    0    0  0.28753663988E+02 -0.22080408989E+01 -0.29046496033E+03  0.31753231466E+03  0.12500091615E+03 0.  0.
          4    1    3    3  501    0  0.14612527827E+02  0.54553405657E+02 -0.21352937939E+03  0.22087555049E+03  0.12700000000E+01 0. -1.
         -4    1    3    3    0  501  0.14141136161E+02 -0.56761446556E+02 -0.76935580935E+02  0.96656764176E+02  0.12700000000E+01 0. -1.
          2    1    1    2  502    0  0.21738121634E+02  0.37758761131E+02  0.18673601270E+04  0.18678683342E+04  0.00000000000E+00 0. -1.
          1    1    1    2  503    0 -0.50491785622E+02 -0.35550720232E+02 -0.50905309540E+03  0.51278487503E+03  0.00000000000E+00 0. -1.
<mgrwt>
<rscale>  0 0.49837469E+02</rscale>
<asrwt>0</asrwt>
<pdfrwt beam="2">  1        2 0.12541104E+00 0.57007628E+02</pdfrwt>
<pdfrwt beam="1">  1        1 0.28969443E+00 0.43569140E+02</pdfrwt>
<totfact> 0.25144592E+01</totfact>
</mgrwt>
</event>
<event>
 7    1  0.6493044E-004  0.1296608E+03  0.7546771E-02  0.1298691E+00
          2   -1    0    0  503    0  0.00000000000E+00  0.00000000000E+00  0.12186599698E+04  0.12186599698E+04  0.00000000000E+00 0. -1.
          1   -1    0    0  502    0 -0.00000000000E+00 -0.00000000000E+00 -0.40737129370E+02  0.40737129370E+02  0.00000000000E+00 0. -1.
         25    2    1    2    0    0  0.65705727402E+02  0.62040291295E+02  0.24052683646E+03  0.28573655695E+03  0.12500392218E+03 0.  0.
          4    1    3    3  501    0 -0.36179280024E+02  0.27774327115E+02  0.88103847175E+02  0.99218215751E+02  0.12700000000E+01 0. -1.
         -4    1    3    3    0  501  0.10188500743E+03  0.34265964180E+02  0.15242298929E+03  0.18651834120E+03  0.12700000000E+01 0. -1.
          2    1    1    2  502    0 -0.43919693593E+01  0.64761296178E+02  0.72254879148E+02  0.97129204867E+02  0.00000000000E+00 0. -1.
          1    1    1    2  503    0 -0.61313758043E+02 -0.12680158747E+03  0.86514112483E+03  0.87653133736E+03  0.00000000000E+00 0. -1.
<mgrwt>
<rscale>  0 0.91740334E+02</rscale>
<asrwt>0</asrwt>
<pdfrwt beam="1">  1        2 0.18748612E+00 0.12966079E+03</pdfrwt>
<pdfrwt beam="2">  1        1 0.62672516E-02 0.64910052E+02</pdfrwt>
<totfact> 0.30115036E+03</totfact>
</mgrwt>
</event>
<event>
 7    1  0.6493044E-004  0.1143068E+03  0.7546771E-02  0.1387213E+00
          1   -1    0    0  502    0 -0.00000000000E+00  0.00000000000E+00  0.87055701290E+03  0.87055701290E+03  0.00000000000E+00 0. -1.
          2   -1    0    0  503    0  0.00000000000E+00 -0.00000000000E+00 -0.55680932536E+03  0.55680932536E+03  0.00000000000E+00 0. -1.
         25    2    1    2    0    0  0.11019839122E+03  0.95178634527E+02  0.67986856700E+02  0.20359401223E+03  0.12500260491E+03 0.  0.
          4    1    3    3  501    0 -0.13691676277E+02  0.58981171449E+02  0.36577256936E+02  0.70751319491E+02  0.12700000000E+01 0. -1.
         -4    1    3    3    0  501  0.12389006749E+03  0.36197463078E+02  0.31409599764E+02  0.13284269274E+03  0.12700000000E+01 0. -1.
          2    1    1    2  502    0 -0.19302317617E+02 -0.28339395775E+02  0.72784971095E+03  0.72865691690E+03  0.00000000000E+00 0. -1.
          1    1    1    2  503    0 -0.90896073600E+02 -0.66839238752E+02 -0.48208888011E+03  0.49511540913E+03  0.00000000000E+00 0. -1.
<mgrwt>
<rscale>  0 0.62605176E+02</rscale>
<asrwt>0</asrwt>
<pdfrwt beam="2">  1        2 0.85662973E-01 0.11430680E+03</pdfrwt>
<pdfrwt beam="1">  1        1 0.13393185E+00 0.34288494E+02</pdfrwt>
<totfact> 0.17340584E+02</totfact>
</mgrwt>
</event>
<event>
 7    1  0.6493044E-004  0.5549990E+02  0.7546771E-02  0.1525096E+00
          2   -1    0    0  503    0  0.00000000000E+00  0.00000000000E+00  0.17908205820E+04  0.17908205820E+04  0.00000000000E+00 0. -1.
         -2   -1    0    0    0  501 -0.00000000000E+00 -0.00000000000E+00 -0.30622701338E+02  0.30622701338E+02  0.00000000000E+00 0.  1.
         25    2    1    2    0    0 -0.51371666499E+02 -0.50499668977E+01  0.23725312095E+03  0.27309182543E+03  0.12500220570E+03 0.  0.
          4    1    3    3  502    0 -0.92121801398E+02 -0.14671409531E+02  0.15994307761E+03  0.18516230049E+03  0.12700000000E+01 0. -1.
         -4    1    3    3    0  502  0.40750134899E+02  0.96214426338E+01  0.77310043347E+02  0.87929524933E+02  0.12700000000E+01 0. -1.
          1    1    1    2  503    0  0.51793902390E+02 -0.20684425557E+02  0.15215542818E+04  0.15225760692E+04  0.00000000000E+00 0. -1.
         -1    1    1    2    0  501 -0.42223589105E+00  0.25734392454E+02  0.13904778999E+01  0.25775388783E+02  0.00000000000E+00 0.  1.
<mgrwt>
<rscale>  0 0.37794821E+02</rscale>
<asrwt>0</asrwt>
<pdfrwt beam="1">  1        2 0.27551078E+00 0.55499902E+02</pdfrwt>
<pdfrwt beam="2">  1       -2 0.47111862E-02 0.25737856E+02</pdfrwt>
<totfact> 0.18680843E+03</totfact>
</mgrwt>
</event>
<event>
 7    1  0.6493044E-004  0.1531231E+03  0.7546771E-02  0.1395306E+00
          1   -1    0    0  502    0 -0.00000000000E+00  0.00000000000E+00  0.10971317321E+03  0.10971317321E+03  0.00000000000E+00 0. -1.
          2   -1    0    0  503    0  0.00000000000E+00 -0.00000000000E+00 -0.27398658225E+04  0.27398658225E+04  0.00000000000E+00 0. -1.
         25    2    1    2    0    0 -0.15477718936E+03 -0.32556504238E+01 -0.64558855116E+02  0.20918798282E+03  0.12500075510E+03 0.  0.
          4    1    3    3  501    0 -0.34777483991E+02 -0.54020680678E+02 -0.11344991224E+01  0.64269801010E+02  0.12700000000E+01 0. -1.
         -4    1    3    3    0  501 -0.11999970537E+03  0.50765030254E+02 -0.63424355994E+02  0.14491818181E+03  0.12700000000E+01 0. -1.
          2    1    1    2  502    0  0.40318926064E+01 -0.23646481714E+02  0.31049694219E+02  0.39236408685E+02  0.00000000000E+00 0. -1.
          1    1    1    2  503    0  0.15074529675E+03  0.26902132137E+02 -0.25966434884E+04  0.26011546042E+04  0.00000000000E+00 0. -1.
<mgrwt>
<rscale>  0 0.60605930E+02</rscale>
<asrwt>0</asrwt>
<pdfrwt beam="2">  1        2 0.42151778E+00 0.15312309E+03</pdfrwt>
<pdfrwt beam="1">  1        1 0.16878951E-01 0.23987752E+02</pdfrwt>
<totfact> 0.12381655E+02</totfact>
</mgrwt>
</event>
<event>
 7    1  0.6493044E-004  0.5154636E+02  0.7546771E-02  0.1504430E+00
         -1   -1    0    0    0  501 -0.00000000000E+00  0.00000000000E+00  0.22059214094E+02  0.22059214094E+02  0.00000000000E+00 0.  1.
          1   -1    0    0  503    0  0.00000000000E+00 -0.00000000000E+00 -0.79032971260E+03  0.79032971260E+03  0.00000000000E+00 0. -1.
         25    2    1    2    0    0  0.50492580694E+02  0.50736706127E+02 -0.34154505526E+03  0.37067076752E+03  0.12498031473E+03 0.  0.
          4    1    3    3  502    0 -0.23608830404E+02  0.13376305125E+02 -0.10082765917E+02  0.28975463419E+02  0.12700000000E+01 0.  1.
         -4    1    3    3    0  502  0.74101411098E+02  0.37360401002E+02 -0.33146228934E+03  0.34169530410E+03  0.12700000000E+01 0.  1.
          2    1    1    2  503    0 -0.71086658138E+01 -0.31046561979E+02 -0.34971038700E+03  0.35115776642E+03  0.00000000000E+00 0. -1.
         -2    1    1    2    0  501 -0.43383914880E+02 -0.19690144148E+02 -0.77015056243E+02  0.90560392750E+02  0.00000000000E+00 0.  1.
<mgrwt>
<rscale>  0 0.40518531E+02</rscale>
<asrwt>0</asrwt>
<pdfrwt beam="2">  1        1 0.12158920E+00 0.31849994E+02</pdfrwt>
<pdfrwt beam="1">  1       -1 0.33937248E-02 0.51546362E+02</pdfrwt>
<totfact> 0.68506352E+03</totfact>
</mgrwt>
</event>
<event>
 7    1  0.6493044E-004  0.3100756E+02  0.7546771E-02  0.1611311E+00
          1   -1    0    0  503    0  0.00000000000E+00  0.00000000000E+00  0.51962048067E+03  0.51962048067E+03  0.00000000000E+00 0. -1.
         -1   -1    0    0    0  501 -0.00000000000E+00 -0.00000000000E+00 -0.12360569510E+03  0.12360569510E+03  0.00000000000E+00 0.  1.
         25    2    1    2    0    0  0.18516231255E+01  0.17510076710E+02 -0.63463432784E+02  0.14128945811E+03  0.12500028951E+03 0.  0.
          4    1    3    3  502    0 -0.16454672596E+02  0.18094405381E+02  0.34116945315E+02  0.41996935769E+02  0.12700000000E+01 0.  1.
         -4    1    3    3    0  502  0.18306295721E+02 -0.58432867073E+00 -0.97580378100E+02  0.99292522342E+02  0.12700000000E+01 0.  1.
          2    1    1    2  503    0 -0.21983709848E+02  0.15360532332E+02  0.46249607172E+03  0.46327297116E+03  0.00000000000E+00 0. -1.
         -2    1    1    2    0  501  0.20132086723E+02 -0.32870609042E+02 -0.30178533683E+01  0.38663746502E+02  0.00000000000E+00 0.  1.
<mgrwt>
<rscale>  0 0.28837038E+02</rscale>
<asrwt>0</asrwt>
<pdfrwt beam="1">  1        1 0.79941611E-01 0.26818454E+02</pdfrwt>
<pdfrwt beam="2">  1       -1 0.19016261E-01 0.31007559E+02</pdfrwt>
<totfact> 0.91271993E+02</totfact>
</mgrwt>
</event>
<event>
 7    1  0.6493044E-004  0.7718555E+02  0.7546771E-02  0.1440822E+00
          1   -1    0    0  502    0 -0.00000000000E+00  0.00000000000E+00  0.13154299378E+04  0.13154299378E+04  0.00000000000E+00 0. -1.
          2   -1    0    0  503    0  0.00000000000E+00 -0.00000000000E+00 -0.79429377759E+03  0.79429377759E+03  0.00000000000E+00 0. -1.
         25    2    1    2    0    0  0.47325703854E+01 -0.82263984049E+02 -0.19963333030E+03  0.24952051108E+03  0.12496903052E+03 0.  0.
          4    1    3    3  501    0  0.17206145933E+01 -0.11015758145E+03 -0.19035772823E+03  0.21994392663E+03  0.12700000000E+01 0.  1.
         -4    1    3    3    0  501  0.30119557921E+01  0.27893597402E+02 -0.92756020662E+01  0.29576584444E+02  0.12700000000E+01 0.  1.
          2    1    1    2  502    0  0.27227533524E+02  0.72233863617E+02  0.12888381101E+04  0.12911478396E+04  0.00000000000E+00 0. -1.
          1    1    1    2  503    0 -0.31960103909E+02  0.10030120432E+02 -0.56806861959E+03  0.56905536472E+03  0.00000000000E+00 0. -1.
<mgrwt>
<rscale>  0 0.50847686E+02</rscale>
<asrwt>0</asrwt>
<pdfrwt beam="2">  1        2 0.12219904E+00 0.33497038E+02</pdfrwt>
<pdfrwt beam="1">  1        1 0.20237384E+00 0.77185545E+02</pdfrwt>
<totfact> 0.56192610E+01</totfact>
</mgrwt>
</event>
<event>
 7    1  0.6493044E-004  0.8281824E+02  0.7546771E-02  0.1368136E+00
         -2   -1    0    0    0  501 -0.00000000000E+00  0.00000000000E+00  0.22089624608E+03  0.22089624608E+03  0.00000000000E+00 0.  1.
          2   -1    0    0  503    0  0.00000000000E+00 -0.00000000000E+00 -0.93216410503E+03  0.93216410503E+03  0.00000000000E+00 0. -1.
         25    2    1    2    0    0 -0.51819024066E+02 -0.79059631713E+02 -0.70940726252E+03  0.72651206307E+03  0.12500190818E+03 0.  0.
          4    1    3    3  502    0  0.16549869419E+02  0.11969018746E+02 -0.32386458192E+03  0.32451045578E+03  0.12700000000E+01 0. -1.
         -4    1    3    3    0  502 -0.68368893485E+02 -0.91028650459E+02 -0.38554268060E+03  0.40200160729E+03  0.12700000000E+01 0. -1.
          1    1    1    2  503    0  0.74939283776E+02  0.28800663348E+02 -0.20281035922E+03  0.21812247997E+03  0.00000000000E+00 0. -1.
         -1    1    1    2    0  501 -0.23120259710E+02  0.50258968365E+02  0.20094976278E+03  0.20842580808E+03  0.00000000000E+00 0.  1.
<mgrwt>
<rscale>  0 0.67687966E+02</rscale>
<asrwt>0</asrwt>
<pdfrwt beam="2">  1        2 0.14340986E+00 0.82818242E+02</pdfrwt>
<pdfrwt beam="1">  1       -2 0.33984038E-01 0.55321879E+02</pdfrwt>
<totfact> 0.24452787E+02</totfact>
</mgrwt>
</event>
<event>
 7    1  0.6493044E-004  0.4402484E+02  0.7546771E-02  0.1564213E+00
         -1   -1    0    0    0  501 -0.00000000000E+00  0.00000000000E+00  0.32979638259E+03  0.32979638259E+03  0.00000000000E+00 0.  1.
          1   -1    0    0  503    0  0.00000000000E+00 -0.00000000000E+00 -0.40489842077E+02  0.40489842077E+02  0.00000000000E+00 0. -1.
         25    2    1    2    0    0  0.45959678156E+02  0.18179023908E+02  0.14511593683E+03  0.19780216802E+03  0.12499717448E+03 0.  0.
          4    1    3    3  502    0  0.61971489641E+02 -0.40001614011E+02  0.73374683190E+02  0.10404831419E+03  0.12700000000E+01 0. -1.
         -4    1    3    3    0  502 -0.16011811485E+02  0.58180637919E+02  0.71741253637E+02  0.93753853836E+02  0.12700000000E+01 0. -1.
          2    1    1    2  503    0 -0.18900437209E+02  0.16654971478E+02  0.39863613407E+01  0.25505012809E+02  0.00000000000E+00 0. -1.
         -2    1    1    2    0  501 -0.27059240946E+02 -0.34833995386E+02  0.14020424234E+03  0.14697904383E+03  0.00000000000E+00 0.  1.
<mgrwt>
<rscale>  0 0.33302468E+02</rscale>
<asrwt>0</asrwt>
<pdfrwt beam="2">  1        1 0.62292067E-02 0.25191558E+02</pdfrwt>
<pdfrwt beam="1">  1       -1 0.50737903E-01 0.44024843E+02</pdfrwt>
<totfact> 0.40145026E+03</totfact>
</mgrwt>
</event>
<event>
 7    1  0.6493044E-004  0.2185611E+03  0.7546771E-02  0.1273862E+00
          2   -1    0    0  503    0  0.00000000000E+00  0.00000000000E+00  0.20876607519E+04  0.20876607519E+04  0.00000000000E+00 0. -1.
         -2   -1    0    0    0  501 -0.00000000000E+00 -0.00000000000E+00 -0.75936192466E+02  0.75936192466E+02  0.00000000000E+00 0.  1.
         25    2    1    2    0    0 -0.18108776033E+03  0.18929092472E+02  0.67407811986E+03  0.70933637076E+03  0.12500275086E+03 0.  0.
          4    1    3    3  502    0 -0.17871537177E+03 -0.38911149790E+01  0.45189407653E+03  0.48596727687E+03  0.12700000000E+01 0. -1.
         -4    1    3    3    0  502 -0.23723885597E+01  0.22820207451E+02  0.22218404333E+03  0.22336909389E+03  0.12700000000E+01 0. -1.
          1    1    1    2  503    0 -0.48180744747E+02  0.67853942102E+01  0.11652300783E+04  0.11662454978E+04  0.00000000000E+00 0. -1.
         -3    1    1    2    0  501  0.22926850507E+03 -0.25714486682E+02  0.17241636119E+03  0.28801507573E+03  0.00000000000E+00 0.  1.
<mgrwt>
<rscale>  0 0.10312300E+03</rscale>
<asrwt>0</asrwt>
<pdfrwt beam="1">  1        2 0.32117853E+00 0.48656199E+02</pdfrwt>
<pdfrwt beam="2">  1       -2 0.11682493E-01 0.21856110E+03</pdfrwt>
<totfact> 0.41507040E+02</totfact>
</mgrwt>
</event>
<event>
 7    1  0.6493044E-004  0.6614790E+02  0.7546771E-02  0.1379926E+00
         -2   -1    0    0    0  501 -0.00000000000E+00  0.00000000000E+00  0.15775653134E+02  0.15775653134E+02  0.00000000000E+00 0.  1.
          2   -1    0    0  503    0  0.00000000000E+00 -0.00000000000E+00 -0.25975987268E+04  0.25975987268E+04  0.00000000000E+00 0. -1.
         25    2    1    2    0    0  0.44881202273E+01 -0.12052025049E+02 -0.80984812779E+03  0.81953899938E+03  0.12499914752E+03 0.  0.
          4    1    3    3  502    0  0.19559357908E+02  0.52999439996E+02 -0.29356886963E+03  0.29895786198E+03  0.12700000000E+01 0.  1.
         -4    1    3    3    0  502 -0.15071237680E+02 -0.65051465045E+02 -0.51627925816E+03  0.52058113740E+03  0.12700000000E+01 0.  1.
          1    1    1    2  503    0 -0.70632460670E+02  0.12738664079E+02 -0.16744863157E+04  0.16760237586E+04  0.00000000000E+00 0. -1.
         -1    1    1    2    0  501  0.66144340443E+02 -0.68663903055E+00 -0.97488630195E+02  0.11781162194E+03  0.00000000000E+00 0.  1.
<mgrwt>
<rscale>  0 0.64483259E+02</rscale>
<asrwt>0</asrwt>
<pdfrwt beam="2">  1        2 0.39963108E+00 0.62860504E+02</pdfrwt>
<pdfrwt beam="1">  1       -2 0.24270205E-02 0.66147904E+02</pdfrwt>
<totfact> 0.21304524E+03</totfact>
</mgrwt>
</event>
<event>
 7    1  0.6493044E-004  0.4746570E+02  0.7546771E-02  0.1514664E+00
          2   -1    0    0  503    0  0.00000000000E+00  0.00000000000E+00  0.30568670915E+03  0.30568670915E+03  0.00000000000E+00 0. -1.
         -2   -1    0    0    0  501 -0.00000000000E+00 -0.00000000000E+00 -0.12780923655E+04  0.12780923655E+04  0.00000000000E+00 0.  1.
         25    2    1    2    0    0  0.16508951364E+02  0.33745070393E+02 -0.36897520516E+03  0.39138372921E+03  0.12500898453E+03 0.  0.
          4    1    3    3  502    0 -0.81767538302E+01 -0.28232001020E+02 -0.18812206311E+02  0.34920154511E+02  0.12700000000E+01 0. -1.
         -4    1    3    3    0  502  0.24685705194E+02  0.61977071414E+02 -0.35016299885E+03  0.35646357470E+03  0.12700000000E+01 0. -1.
          1    1    1    2  503    0 -0.29505329877E+02  0.13065629580E+02  0.29293871132E+03  0.29471064412E+03  0.00000000000E+00 0. -1.
         -1    1    1    2    0  501  0.12996378514E+02 -0.46810699973E+02 -0.89636916252E+03  0.89768470133E+03  0.00000000000E+00 0.  1.
<mgrwt>
<rscale>  0 0.39136439E+02</rscale>
<asrwt>0</asrwt>
<pdfrwt beam="1">  1        2 0.47028725E-01 0.32268796E+02</pdfrwt>
<pdfrwt beam="2">  1       -2 0.19662959E+00 0.47465696E+02</pdfrwt>
<totfact> 0.18121764E+01</totfact>
</mgrwt>
</event>
<event>
 7    1  0.6493044E-004  0.1428883E+03  0.7546771E-02  0.1237537E+00
          1   -1    0    0  502    0 -0.00000000000E+00  0.00000000000E+00  0.61311340811E+03  0.61311340811E+03  0.00000000000E+00 0. -1.
          2   -1    0    0  503    0  0.00000000000E+00 -0.00000000000E+00 -0.22842635647E+03  0.22842635647E+03  0.00000000000E+00 0. -1.
         25    2    1    2    0    0  0.42310915215E+02  0.10461603876E+03  0.60189809737E+02  0.17883624781E+03  0.12499944489E+03 0.  0.
          4    1    3    3  501    0 -0.17608445958E+02  0.92812333549E+02  0.20383141507E+01  0.94498435186E+02  0.12700000000E+01 0. -1.
         -4    1    3    3    0  501  0.59919361173E+02  0.11803705213E+02  0.58151495587E+02  0.84337812629E+02  0.12700000000E+01 0. -1.
          2    1    1    2  502    0 -0.14107578896E+03 -0.64425720602E+02  0.46278463290E+03  0.48808059596E+03  0.00000000000E+00 0. -1.
          1    1    1    2  503    0  0.98764873740E+02 -0.40190318160E+02 -0.13828739100E+03  0.17462292080E+03  0.00000000000E+00 0. -1.
<mgrwt>
<rscale>  0 0.12343438E+03</rscale>
<asrwt>0</asrwt>
<pdfrwt beam="2">  1        2 0.35142517E-01 0.10662909E+03</pdfrwt>
<pdfrwt beam="1">  1        1 0.94325139E-01 0.14288828E+03</pdfrwt>
<totfact> 0.69004495E+02</totfact>
</mgrwt>
</event>
<event>
 7    1  0.6493044E-004  0.1396557E+03  0.7546771E-02  0.1335000E+00
          2   -1    0    0  503    0  0.00000000000E+00  0.00000000000E+00  0.64075916267E+03  0.64075916267E+03  0.00000000000E+00 0. -1.
          1   -1    0    0  502    0 -0.00000000000E+00 -0.00000000000E+00 -0.22481513609E+03  0.22481513609E+03  0.00000000000E+00 0. -1.
         25    2    1    2    0    0 -0.53237701092E+01  0.11463553817E+03  0.77465958329E+01  0.16987033895E+03  0.12500509257E+03 0.  0.
          4    1    3    3  501    0 -0.41484933292E+02 -0.56934245282E+01  0.13704467282E+02  0.44077659836E+02  0.12700000000E+01 0.  1.
         -4    1    3    3    0  501  0.36161163183E+02  0.12032896270E+03 -0.59578714496E+01  0.12579267911E+03  0.12700000000E+01 0.  1.
          2    1    1    2  502    0  0.33499932033E+02 -0.14777401283E+03 -0.10264210434E+03  0.18301586242E+03  0.00000000000E+00 0. -1.
          1    1    1    2  503    0 -0.28176161924E+02  0.33138474659E+02  0.51083953509E+03  0.51268809740E+03  0.00000000000E+00 0. -1.
<mgrwt>
<rscale>  0 0.77940425E+02</rscale>
<asrwt>0</asrwt>
<pdfrwt beam="1">  1        2 0.98578332E-01 0.43497754E+02</pdfrwt>
<pdfrwt beam="2">  1        1 0.34586944E-01 0.13965571E+03</pdfrwt>
<totfact> 0.83606669E+02</totfact>
</mgrwt>
</event>
<event>
 7    1  0.6493044E-004  0.1024359E+03  0.7546771E-02  0.1299310E+00
          2   -1    0    0  503    0  0.00000000000E+00  0.00000000000E+00  0.42278121356E+03  0.42278121356E+03  0.00000000000E+00 0. -1.
          1   -1    0    0  502    0 -0.00000000000E+00 -0.00000000000E+00 -0.51133745596E+03  0.51133745596E+03  0.00000000000E+00 0. -1.
         25    2    1    2    0    0 -0.12241071665E+03 -0.60907028005E+02 -0.28200601847E+03  0.33741207928E+03  0.12500186871E+03 0.  0.
          4    1    3    3  501    0 -0.50854996614E+02 -0.90332453842E+02 -0.19593306849E+03  0.22166994187E+03  0.12700000000E+01 0. -1.
         -4    1    3    3    0  501 -0.71555720038E+02  0.29425425837E+02 -0.86072949974E+02  0.11574213741E+03  0.12700000000E+01 0. -1.
          2    1    1    2  502    0  0.44133646938E+02  0.84284411875E+02 -0.18580843287E+03  0.20874964576E+03  0.00000000000E+00 0. -1.
          3    1    1    2  503    0  0.78277069714E+02 -0.23377383869E+02  0.37925820894E+03  0.38795694448E+03  0.00000000000E+00 0. -1.
<mgrwt>
<rscale>  0 0.91478563E+02</rscale>
<asrwt>0</asrwt>
<pdfrwt beam="1">  1        2 0.65043264E-01 0.81693340E+02</pdfrwt>
<pdfrwt beam="2">  1        1 0.78667300E-01 0.10243586E+03</pdfrwt>
<totfact> 0.46431075E+02</totfact>
</mgrwt>
</event>
<event>
 7    1  0.6493044E-004  0.9299628E+02  0.7546771E-02  0.1313597E+00
          1   -1    0    0  502    0 -0.00000000000E+00  0.00000000000E+00  0.59025389674E+03  0.59025389674E+03  0.00000000000E+00 0. -1.
          2   -1    0    0  503    0  0.00000000000E+00 -0.00000000000E+00 -0.23107560884E+04  0.23107560884E+04  0.00000000000E+00 0. -1.
         25    2    1    2    0    0  0.16082377484E+02 -0.88696248361E+02 -0.95970905053E+02  0.18155461164E+03  0.12500398014E+03 0.  0.
          4    1    3    3  501    0  0.14479102516E+02 -0.63502305061E+02 -0.12627735725E+03  0.14209071403E+03  0.12700000000E+01 0.  1.
         -4    1    3    3    0  501  0.16032749685E+01 -0.25193943300E+02  0.30306452202E+02  0.39463897611E+02  0.12700000000E+01 0.  1.
          2    1    1    2  502    0 -0.77053838334E+02  0.17368020921E+02  0.54359289219E+03  0.54930153340E+03  0.00000000000E+00 0. -1.
          1    1    1    2  503    0  0.60971460850E+02  0.71328227440E+02 -0.21681241788E+04  0.21701538402E+04  0.00000000000E+00 0. -1.
<mgrwt>
<rscale>  0 0.85705863E+02</rscale>
<asrwt>0</asrwt>
<pdfrwt beam="2">  1        2 0.35550093E+00 0.92996281E+02</pdfrwt>
<pdfrwt beam="1">  1        1 0.90808293E-01 0.78986975E+02</pdfrwt>
<totfact> 0.29704936E+01</totfact>
</mgrwt>
</event>
<event>
 7    1  0.6493044E-004  0.1599506E+03  0.7546771E-02  0.1300182E+00
          2   -1    0    0  503    0  0.00000000000E+00  0.00000000000E+00  0.49723921021E+03  0.49723921021E+03  0.00000000000E+00 0. -1.
          1   -1    0    0  502    0 -0.00000000000E+00 -0.00000000000E+00 -0.19615611845E+04  0.19615611845E+04  0.00000000000E+00 0. -1.
         25    2    1    2    0    0 -0.11110960963E+03  0.13359383730E+03 -0.66021458152E+03  0.69404549318E+03  0.12499277675E+03 0.  0.
          4    1    3    3  501    0 -0.73266323623E+02  0.23542989534E+01 -0.16953094207E+03  0.18470476474E+03  0.12700000000E+01 0.  1.
         -4    1    3    3    0  501 -0.37843286003E+02  0.13123953834E+03 -0.49068363945E+03  0.50934072844E+03  0.12700000000E+01 0.  1.
          2    1    1    2  502    0  0.13208664109E+03 -0.86122611436E+02 -0.12781700800E+04  0.12878597510E+04  0.00000000000E+00 0. -1.
          1    1    1    2  503    0 -0.20977031463E+02 -0.47471225859E+02  0.47406268723E+03  0.47689515049E+03  0.00000000000E+00 0. -1.
<mgrwt>
<rscale>  0 0.91111746E+02</rscale>
<asrwt>0</asrwt>
<pdfrwt beam="1">  1        2 0.76498339E-01 0.51899452E+02</pdfrwt>
<pdfrwt beam="2">  1        1 0.30177865E+00 0.15995064E+03</pdfrwt>
<totfact> 0.33341493E+01</totfact>
</mgrwt>
</event>
<event>
 7    1  0.6493044E-004  0.1919268E+03  0.7546771E-02  0.1274988E+00
          2   -1    0    0  503    0  0.00000000000E+00  0.00000000000E+00  0.46572883106E+03  0.46572883106E+03  0.00000000000E+00 0. -1.
          1   -1    0    0  502    0 -0.00000000000E+00 -0.00000000000E+00 -0.14015184122E+04  0.14015184122E+04  0.00000000000E+00 0. -1.
         25    2    1    2    0    0 -0.20542651568E+03  0.50331609337E+01 -0.31009540920E+02  0.24251462893E+03  0.12500547013E+03 0.  0.
          4    1    3    3  501    0 -0.20041797952E+03  0.19182944534E+02 -0.59791894380E+02  0.21002865378E+03  0.12700000000E+01 0. -1.
         -4    1    3    3    0  501 -0.50085361604E+01 -0.14149783600E+02  0.28782353460E+02  0.32485975145E+02  0.12700000000E+01 0. -1.
          2    1    1    2  502    0  0.18581941007E+03  0.46152908179E+02 -0.12553683583E+04  0.12698852936E+04  0.00000000000E+00 0. -1.
          1    1    1    2  503    0  0.19607105604E+02 -0.51186069113E+02  0.35058831803E+03  0.35484732069E+03  0.00000000000E+00 0. -1.
<mgrwt>
<rscale>  0 0.10256735E+03</rscale>
<asrwt>0</asrwt>
<pdfrwt beam="1">  1        2 0.71650589E-01 0.54812884E+02</pdfrwt>
<pdfrwt beam="2">  1        1 0.21561822E+00 0.19192678E+03</pdfrwt>
<totfact> 0.80746937E+01</totfact>
</mgrwt>
</event>
<event>
 7    1  0.6493044E-004  0.5579332E+02  0.7546771E-02  0.1483968E+00
          1   -1    0    0  502    0 -0.00000000000E+00  0.00000000000E+00  0.12574434003E+03  0.12574434003E+03  0.00000000000E+00 0. -1.
          2   -1    0    0  503    0  0.00000000000E+00 -0.00000000000E+00 -0.12449197962E+04  0.12449197962E+04  0.00000000000E+00 0. -1.
         25    2    1    2    0    0  0.51310829166E+02 -0.32852554636E+02 -0.16919271243E+03  0.21900212322E+03  0.12499465789E+03 0.  0.
          4    1    3    3  501    0  0.28292387595E+02 -0.22639965521E+02 -0.18547621245E+03  0.18898694537E+03  0.12700000000E+01 0. -1.
         -4    1    3    3    0  501  0.23018441571E+02 -0.10212589115E+02  0.16283500020E+02  0.30015177856E+02  0.12700000000E+01 0. -1.
          2    1    1    2  502    0  0.46162848290E+01  0.33590241970E+02  0.97221967978E+02  0.10296468083E+03  0.00000000000E+00 0. -1.
          1    1    1    2  503    0 -0.55927113995E+02 -0.73768733395E+00 -0.10472047117E+04  0.10486973322E+04  0.00000000000E+00 0. -1.
<mgrwt>
<rscale>  0 0.43493980E+02</rscale>
<asrwt>0</asrwt>
<pdfrwt beam="2">  1        2 0.19152613E+00 0.55793319E+02</pdfrwt>
<pdfrwt beam="1">  1        1 0.19345282E-01 0.33905965E+02</pdfrwt>
<totfact> 0.70140974E+02</totfact>
</mgrwt>
</event>
<event>
 7    1  0.6493044E-004  0.7426246E+02  0.7546771E-02  0.1360153E+00
         -1   -1    0    0    0  501 -0.00000000000E+00  0.00000000000E+00  0.32582313133E+03  0.32582313133E+03  0.00000000000E+00 0.  1.
          1   -1    0    0  503    0  0.00000000000E+00 -0.00000000000E+00 -0.21690408488E+03  0.21690408488E+03  0.00000000000E+00 0. -1.
         25    2    1    2    0    0 -0.33743063859E+02 -0.11454829633E+03 -0.17661726655E+02  0.17377414660E+03  0.12500244352E+03 0.  0.
          4    1    3    3  502    0 -0.60525727933E+02 -0.11274662618E+03  0.17881776507E+02  0.12921507763E+03  0.12700000000E+01 0. -1.
         -4    1    3    3    0  502  0.26782664074E+02 -0.18016701553E+01 -0.35543503162E+02  0.44559068968E+02  0.12700000000E+01 0. -1.
          2    1    1    2  503    0 -0.13384239618E+02  0.68415204253E+02 -0.10618574385E+03  0.12702436869E+03  0.00000000000E+00 0. -1.
         -2    1    1    2    0  501  0.47127303477E+02  0.46133092078E+02  0.23276651695E+03  0.24192870092E+03  0.00000000000E+00 0.  1.
<mgrwt>
<rscale>  0 0.69982286E+02</rscale>
<asrwt>0</asrwt>
<pdfrwt beam="2">  1        1 0.33369859E-01 0.74262459E+02</pdfrwt>
<pdfrwt beam="1">  1       -1 0.50126636E-01 0.65948805E+02</pdfrwt>
<totfact> 0.54098907E+02</totfact>
</mgrwt>
</event>
<event>
 7    1  0.7672043E-004  0.3148506E+02  0.7546771E-02  0.1586635E+00
          2   -1    0    0  503    0  0.00000000000E+00  0.00000000000E+00  0.20529847083E+04  0.20529847083E+04  0.00000000000E+00 0. -1.
          1   -1    0    0  502    0 -0.00000000000E+00 -0.00000000000E+00 -0.15326187221E+04  0.15326187221E+04  0.00000000000E+00 0. -1.
         25    2    1    2    0    0 -0.67960022665E+01  0.81228242120E+01 -0.43567966073E+03  0.45338237058E+03  0.12500656483E+03 0.  0.
          4    1    3    3  501    0 -0.16226337321E+00  0.36100777000E+02 -0.41809779376E+03  0.41965541874E+03  0.12700000000E+01 0.  1.
         -4    1    3    3    0  501 -0.66337388933E+01 -0.27977952788E+02 -0.17581866973E+02  0.33726951836E+02  0.12700000000E+01 0.  1.
          2    1    1    2  502    0  0.25207170011E+02  0.17427796605E+02 -0.10877505954E+04  0.10881821940E+04  0.00000000000E+00 0. -1.
          1    1    1    2  503    0 -0.18411167745E+02 -0.25550620817E+02  0.20437962423E+04  0.20440388659E+04  0.00000000000E+00 0. -1.
<mgrwt>
<rscale>  0 0.31062303E+02</rscale>
<asrwt>0</asrwt>
<pdfrwt beam="1">  1        2 0.31584380E+00 0.31485063E+02</pdfrwt>
<pdfrwt beam="2">  1        1 0.23578749E+00 0.30645220E+02</pdfrwt>
<totfact> 0.10382528E+01</totfact>
</mgrwt>
</event>
<event>
 7    1  0.6493044E-004  0.4611757E+02  0.7546771E-02  0.1537640E+00
          1   -1    0    0  503    0  0.00000000000E+00  0.00000000000E+00  0.58930973080E+03  0.58930973080E+03  0.00000000000E+00 0. -1.
         -1   -1    0    0    0  501 -0.00000000000E+00 -0.00000000000E+00 -0.48717267880E+02  0.48717267880E+02  0.00000000000E+00 0.  1.
         25    2    1    2    0    0  0.96986908916E+00 -0.19743933118E+02  0.21348121138E+03  0.24817383527E+03  0.12500104544E+03 0.  0.
          4    1    3    3  502    0  0.44712926056E+02 -0.31520587382E+02  0.37219031305E+02  0.66179017646E+02  0.12700000000E+01 0.  1.
         -4    1    3    3    0  502 -0.43743056966E+02  0.11776654264E+02  0.17626218008E+03  0.18199481763E+03  0.12700000000E+01 0.  1.
          2    1    1    2  503    0  0.23499754423E+01 -0.28421385079E+02  0.33894646671E+03  0.34014409418E+03  0.00000000000E+00 0. -1.
         -2    1    1    2    0  501 -0.33198445315E+01  0.48165318197E+02 -0.11835215169E+02  0.49709069221E+02  0.00000000000E+00 0.  1.
<mgrwt>
<rscale>  0 0.36265658E+02</rscale>
<asrwt>0</asrwt>
<pdfrwt beam="1">  1        1 0.90663031E-01 0.28518372E+02</pdfrwt>
<pdfrwt beam="2">  1       -1 0.74949647E-02 0.46117568E+02</pdfrwt>
<totfact> 0.32118493E+03</totfact>
</mgrwt>
</event>
<event>
 7    1  0.6493044E-004  0.4383113E+02  0.7546771E-02  0.1495704E+00
         -2   -1    0    0    0  501 -0.00000000000E+00  0.00000000000E+00  0.89865744484E+02  0.89865744484E+02  0.00000000000E+00 0.  1.
          2   -1    0    0  503    0  0.00000000000E+00 -0.00000000000E+00 -0.14314720118E+04  0.14314720118E+04  0.00000000000E+00 0. -1.
         25    2    1    2    0    0  0.33029035147E+02 -0.35543630693E+02 -0.11292255792E+03  0.17530398712E+03  0.12500286783E+03 0.  0.
          4    1    3    3  502    0  0.45241451369E+02 -0.15158620580E+02  0.11112374515E+02  0.49006841025E+02  0.12700000000E+01 0. -1.
         -4    1    3    3    0  502 -0.12212416222E+02 -0.20385010113E+02 -0.12403493244E+03  0.12629714609E+03  0.12700000000E+01 0. -1.
          1    1    1    2  503    0  0.59198387223E+01  0.43586747604E+02 -0.12801980769E+04  0.12809535374E+04  0.00000000000E+00 0. -1.
         -1    1    1    2    0  501 -0.38948873869E+02 -0.80431169104E+01  0.51514367474E+02  0.65080231726E+02  0.00000000000E+00 0.  1.
<mgrwt>
<rscale>  0 0.41751571E+02</rscale>
<asrwt>0</asrwt>
<pdfrwt beam="2">  1        2 0.22022645E+00 0.43831133E+02</pdfrwt>
<pdfrwt beam="1">  1       -2 0.13825500E-01 0.39770674E+02</pdfrwt>
<totfact> 0.60639735E+02</totfact>
</mgrwt>
</event>
<event>
 7    1  0.6493044E-004  0.1104074E+03  0.7546771E-02  0.1385555E+00
         -1   -1    0    0    0  501 -0.00000000000E+00  0.00000000000E+00  0.20544222649E+03  0.20544222649E+03  0.00000000000E+00 0.  1.
          1   -1    0    0  503    0  0.00000000000E+00 -0.00000000000E+00 -0.74442520065E+03  0.74442520065E+03  0.00000000000E+00 0. -1.
         25    2    1    2    0    0  0.53194537661E+02 -0.83587677520E+02  0.43111303285E+02  0.16522458247E+03  0.12499607799E+03 0.  0.
          4    1    3    3  502    0 -0.17007123480E+02 -0.87413170484E+02  0.27300665661E+02  0.93151724990E+02  0.12700000000E+01 0.  1.
         -4    1    3    3    0  502  0.70201661141E+02  0.38254929639E+01  0.15810637624E+02  0.72072857481E+02  0.12700000000E+01 0.  1.
          2    1    1    2  503    0 -0.86437270202E+02  0.69827330500E+02 -0.67548399386E+03  0.68456254917E+03  0.00000000000E+00 0. -1.
         -2    1    1    2    0  501  0.33242732540E+02  0.13760347020E+02  0.93389716406E+02  0.10008029550E+03  0.00000000000E+00 0.  1.
<mgrwt>
<rscale>  0 0.63025804E+02</rscale>
<asrwt>0</asrwt>
<pdfrwt beam="2">  1        1 0.11452696E+00 0.11040738E+03</pdfrwt>
<pdfrwt beam="1">  1       -1 0.31606496E-01 0.35978138E+02</pdfrwt>
<totfact> 0.24397788E+02</totfact>
</mgrwt>
</event>
<event>
 7    1  0.6493044E-004  0.8430909E+02  0.7546771E-02  0.1417123E+00
          1   -1    0    0  502    0 -0.00000000000E+00  0.00000000000E+00  0.62688150198E+03  0.62688150198E+03  0.00000000000E+00 0. -1.
          2   -1    0    0  503    0  0.00000000000E+00 -0.00000000000E+00 -0.28282678176E+03  0.28282678176E+03  0.00000000000E+00 0. -1.
         25    2    1    2    0    0 -0.88745481427E+02 -0.12570793086E+01 -0.11353040810E+03  0.19076494121E+03  0.12499907403E+03 0.  0.
          4    1    3    3  501    0 -0.10636297719E+03  0.31969350086E+02 -0.10350601112E+03  0.15182302033E+03  0.12700000000E+01 0.  1.
         -4    1    3    3    0  501  0.17617495764E+02 -0.33226429394E+02 -0.10024396978E+02  0.38941920883E+02  0.12700000000E+01 0.  1.
          2    1    1    2  502    0  0.77374059393E+02 -0.33649740602E+02  0.58258531326E+03  0.58866348395E+03  0.00000000000E+00 0. -1.
          1    1    1    2  503    0  0.11371422035E+02  0.34906819911E+02 -0.12500018494E+03  0.13027985858E+03  0.00000000000E+00 0. -1.
<mgrwt>
<rscale>  0 0.55634371E+02</rscale>
<asrwt>0</asrwt>
<pdfrwt beam="2">  1        2 0.43511813E-01 0.36712332E+02</pdfrwt>
<pdfrwt beam="1">  1        1 0.96443307E-01 0.84309089E+02</pdfrwt>
<totfact> 0.53694288E+02</totfact>
</mgrwt>
</event>
<event>
 7    1  0.6493044E-004  0.4101290E+02  0.7546771E-02  0.1527943E+00
          2   -1    0    0  503    0  0.00000000000E+00  0.00000000000E+00  0.45200456747E+03  0.45200456747E+03  0.00000000000E+00 0. -1.
          1   -1    0    0  502    0 -0.00000000000E+00 -0.00000000000E+00 -0.14858602799E+04  0.14858602799E+04  0.00000000000E+00 0. -1.
         25    2    1    2    0    0 -0.10954132426E+02  0.72430870610E+02 -0.35517339969E+03  0.38359320607E+03  0.12501751821E+03 0.  0.
          4    1    3    3  501    0  0.48893098544E+02  0.58309388507E+02 -0.25434160234E+03  0.26548405499E+03  0.12700000000E+01 0. -1.
         -4    1    3    3    0  501 -0.59847230970E+02  0.14121482103E+02 -0.10083179736E+03  0.11810915108E+03  0.12700000000E+01 0. -1.
          2    1    1    2  502    0 -0.45039709095E+00 -0.40211446024E+02 -0.11154470272E+04  0.11161716865E+04  0.00000000000E+00 0. -1.
          1    1    1    2  503    0  0.11404529517E+02 -0.32219424586E+02  0.43676471445E+03  0.43809995481E+03  0.00000000000E+00 0. -1.
<mgrwt>
<rscale>  0 0.37439956E+02</rscale>
<asrwt>0</asrwt>
<pdfrwt beam="1">  1        2 0.69539164E-01 0.34178277E+02</pdfrwt>
<pdfrwt beam="2">  1        1 0.22859389E+00 0.41012902E+02</pdfrwt>
<totfact> 0.85249032E+01</totfact>
</mgrwt>
</event>
<event>
 7    1  0.6493044E-004  0.7708288E+02  0.7546771E-02  0.1387681E+00
         -2   -1    0    0    0  501 -0.00000000000E+00  0.00000000000E+00  0.10593403169E+04  0.10593403169E+04  0.00000000000E+00 0.  1.
          2   -1    0    0  503    0  0.00000000000E+00 -0.00000000000E+00 -0.26810695944E+04  0.26810695944E+04  0.00000000000E+00 0. -1.
         25    2    1    2    0    0 -0.74254520642E+02 -0.73903508800E+02 -0.13573653308E+03  0.21219113224E+03  0.12500083095E+03 0.  0.
          4    1    3    3  502    0 -0.75169309827E+02 -0.23449095242E+02 -0.13445738509E+02  0.79891714161E+02  0.12700000000E+01 0. -1.
         -4    1    3    3    0  502  0.91478918516E+00 -0.50454413558E+02 -0.12229079457E+03  0.13229941807E+03  0.12700000000E+01 0. -1.
          1    1    1    2  503    0  0.73227029560E+02  0.23258620013E+02 -0.25058883823E+04  0.25070659636E+04  0.00000000000E+00 0. -1.
         -1    1    1    2    0  501  0.10274910816E+01  0.50644888787E+02  0.10198956378E+04  0.10211528155E+04  0.00000000000E+00 0.  1.
<mgrwt>
<rscale>  0 0.62487255E+02</rscale>
<asrwt>0</asrwt>
<pdfrwt beam="2">  1        2 0.41247224E+00 0.77082875E+02</pdfrwt>
<pdfrwt beam="1">  1       -2 0.16297543E+00 0.50655311E+02</pdfrwt>
<totfact> 0.10754865E+00</totfact>
</mgrwt>
</event>
<event>
 7    1  0.6493044E-004  0.4200633E+02  0.7546771E-02  0.1572591E+00
         -2   -1    0    0    0  501 -0.00000000000E+00  0.00000000000E+00  0.27185171241E+03  0.27185171241E+03  0.00000000000E+00 0.  1.
          2   -1    0    0  503    0  0.00000000000E+00 -0.00000000000E+00 -0.97413776493E+03  0.97413776493E+03  0.00000000000E+00 0. -1.
         25    2    1    2    0    0 -0.31397505057E+01  0.18108056958E+02 -0.34286129265E+02  0.13091096517E+03  0.12499752950E+03 0.  0.
          4    1    3    3  502    0 -0.16872984984E+02 -0.16488925071E+01  0.44968394312E+02  0.48074794391E+02  0.12700000000E+01 0. -1.
         -4    1    3    3    0  502  0.13733234478E+02  0.19756949465E+02 -0.79254523577E+02  0.82836170776E+02  0.12700000000E+01 0. -1.
          1    1    1    2  503    0  0.55853668566E+01  0.24420710856E+02 -0.88933175127E+03  0.88968451220E+03  0.00000000000E+00 0. -1.
         -1    1    1    2    0  501 -0.24456163509E+01 -0.42528767814E+02  0.22133182801E+03  0.22539399997E+03  0.00000000000E+00 0.  1.
<mgrwt>
<rscale>  0 0.32439374E+02</rscale>
<asrwt>0</asrwt>
<pdfrwt beam="2">  1        2 0.14986735E+00 0.25051296E+02</pdfrwt>
<pdfrwt beam="1">  1       -2 0.41823341E-01 0.42006328E+02</pdfrwt>
<totfact> 0.16696615E+02</totfact>
</mgrwt>
</event>
<event>
 7    1  0.6493044E-004  0.7185590E+02  0.7546771E-02  0.1493483E+00
          2   -1    0    0  503    0  0.00000000000E+00  0.00000000000E+00  0.24805151404E+04  0.24805151404E+04  0.00000000000E+00 0. -1.
          1   -1    0    0  502    0 -0.00000000000E+00 -0.00000000000E+00 -0.12236391718E+04  0.12236391718E+04  0.00000000000E+00 0. -1.
         25    2    1    2    0    0 -0.30105503501E+02 -0.82556847529E+02  0.18089099603E+04  0.18153488839E+04  0.12495739831E+03 0.  0.
          4    1    3    3  501    0  0.24062830093E+01  0.32568352036E+02  0.44811763124E+03  0.44930781440E+03  0.12700000000E+01 0.  1.
         -4    1    3    3    0  501 -0.32511786510E+02 -0.11512519957E+03  0.13607923291E+04  0.13660410695E+04  0.12700000000E+01 0.  1.
          2    1    1    2  502    0  0.81491959394E+01  0.71384325443E+02 -0.12191346992E+04  0.12212499933E+04  0.00000000000E+00 0. -1.
          3    1    1    2  503    0  0.21956307561E+02  0.11172522086E+02  0.66710070758E+03  0.66755543496E+03  0.00000000000E+00 0. -1.
<mgrwt>
<rscale>  0 0.42073762E+02</rscale>
<asrwt>0</asrwt>
<pdfrwt beam="1">  1        2 0.38161771E+00 0.24635436E+02</pdfrwt>
<pdfrwt beam="2">  1        1 0.18825218E+00 0.71855902E+02</pdfrwt>
<totfact> 0.96640527E+00</totfact>
</mgrwt>
</event>
<event>
 7    1  0.6493044E-004  0.5296724E+02  0.7546771E-02  0.1442084E+00
          2   -1    0    0  503    0  0.00000000000E+00  0.00000000000E+00  0.25815331109E+03  0.25815331109E+03  0.00000000000E+00 0. -1.
          1   -1    0    0  502    0 -0.00000000000E+00 -0.00000000000E+00 -0.71719331365E+03  0.71719331365E+03  0.00000000000E+00 0. -1.
         25    2    1    2    0    0  0.16851988816E+02 -0.71951198735E+02  0.72550780322E+01  0.14541837364E+03  0.12503160683E+03 0.  0.
          4    1    3    3  501    0  0.36865801666E+02 -0.35776186632E+01 -0.44086391675E+02  0.57594353184E+02  0.12700000000E+01 0.  1.
         -4    1    3    3    0  501 -0.20013812850E+02 -0.68373580072E+02  0.51341469708E+02  0.87824020452E+02  0.12700000000E+01 0.  1.
          2    1    1    2  502    0 -0.42788620208E+02  0.31139767824E+02 -0.64379149432E+03  0.64596287766E+03  0.00000000000E+00 0. -1.
          1    1    1    2  503    0  0.25936631392E+02  0.40811430911E+02  0.17749641373E+03  0.18396537345E+03  0.00000000000E+00 0. -1.
<mgrwt>
<rscale>  0 0.50609013E+02</rscale>
<asrwt>0</asrwt>
<pdfrwt beam="1">  1        2 0.39715893E-01 0.48355783E+02</pdfrwt>
<pdfrwt beam="2">  1        1 0.11033743E+00 0.52967237E+02</pdfrwt>
<totfact> 0.50152779E+02</totfact>
</mgrwt>
</event>
<event>
 7    1  0.6493044E-004  0.1180765E+03  0.7546771E-02  0.1341704E+00
          2   -1    0    0  503    0  0.00000000000E+00  0.00000000000E+00  0.81008651666E+03  0.81008651666E+03  0.00000000000E+00 0. -1.
          1   -1    0    0  502    0 -0.00000000000E+00 -0.00000000000E+00 -0.81955686513E+03  0.81955686513E+03  0.00000000000E+00 0. -1.
         25    2    1    2    0    0  0.24866388045E+02  0.11851140779E+03 -0.16011345545E+03  0.23648009158E+03  0.12499289607E+03 0.  0.
          4    1    3    3  501    0 -0.36430808877E+02  0.88495624623E+01 -0.77539900571E+02  0.86136912365E+02  0.12700000000E+01 0.  1.
         -4    1    3    3    0  501  0.61297196922E+02  0.10966184533E+03 -0.82573554880E+02  0.15034317921E+03  0.12700000000E+01 0.  1.
          2    1    1    2  502    0 -0.68481836382E+02 -0.97213936403E+02 -0.61479418194E+03  0.62618862772E+03  0.00000000000E+00 0. -1.
          1    1    1    2  503    0  0.43615448337E+02 -0.21297471385E+02  0.76543728892E+03  0.76697466248E+03  0.00000000000E+00 0. -1.
<mgrwt>
<rscale>  0 0.75704272E+02</rscale>
<asrwt>0</asrwt>
<pdfrwt beam="1">  1        2 0.12462869E+00 0.48537507E+02</pdfrwt>
<pdfrwt beam="2">  1        1 0.12608567E+00 0.11807645E+03</pdfrwt>
<totfact> 0.11833206E+02</totfact>
</mgrwt>
</event>
<event>
 7    1  0.6493044E-004  0.5089456E+02  0.7546771E-02  0.1474825E+00
         -1   -1    0    0    0  502 -0.00000000000E+00  0.00000000000E+00  0.98549440165E+03  0.98549440165E+03  0.00000000000E+00 0.  1.
         -2   -1    0    0    0  501  0.00000000000E+00 -0.00000000000E+00 -0.10453604360E+03  0.10453604360E+03  0.00000000000E+00 0.  1.
         25    2    1    2    0    0  0.42422376296E+02 -0.46384209875E+02  0.67043241443E+03  0.68487631249E+03  0.12499915261E+03 0.  0.
          4    1    3    3  503    0  0.32501300081E+02 -0.85342567921E+02  0.34180076784E+03  0.35379240552E+03  0.12700000000E+01 0. -1.
         -4    1    3    3    0  503  0.99210762156E+01  0.38958358046E+02  0.32863164659E+03  0.33108390697E+03  0.12700000000E+01 0. -1.
         -2    1    1    2    0  502 -0.49933167720E+02  0.74505567446E+01  0.30161388119E+03  0.30581001514E+03  0.00000000000E+00 0.  1.
         -1    1    1    2    0  501  0.75107914237E+01  0.38933653130E+02 -0.91087937574E+02  0.99344117618E+02  0.00000000000E+00 0.  1.
<mgrwt>
<rscale>  0 0.44922661E+02</rscale>
<asrwt>0</asrwt>
<pdfrwt beam="2">  1       -2 0.16082469E-01 0.39651499E+02</pdfrwt>
<pdfrwt beam="1">  1       -1 0.15161452E+00 0.50894558E+02</pdfrwt>
<totfact> 0.84784255E+01</totfact>
</mgrwt>
</event>
<event>
 7    1  0.6493044E-004  0.1922841E+03  0.7546771E-02  0.1200326E+00
          1   -1    0    0  502    0 -0.00000000000E+00  0.00000000000E+00  0.97565021357E+03  0.97565021357E+03  0.00000000000E+00 0. -1.
          2   -1    0    0  503    0  0.00000000000E+00 -0.00000000000E+00 -0.27306321925E+03  0.27306321925E+03  0.00000000000E+00 0. -1.
         25    2    1    2    0    0 -0.12989306035E+03 -0.14804208839E+03  0.25433364967E+02  0.23465006430E+03  0.12500051823E+03 0.  0.
          4    1    3    3  501    0 -0.14361239626E+02 -0.66549668476E+02  0.58130875085E+02  0.89531643099E+02  0.12700000000E+01 0.  1.
         -4    1    3    3    0  501 -0.11553182072E+03 -0.81492419919E+02 -0.32697510118E+02  0.14511842120E+03  0.12700000000E+01 0.  1.
          2    1    1    2  502    0 -0.64997498712E+02  0.97527261714E+02  0.77946551505E+03  0.78822758818E+03  0.00000000000E+00 0. -1.
          1    1    1    2  503    0  0.19489055906E+03  0.50514826680E+02 -0.10231188570E+03  0.22583578034E+03  0.00000000000E+00 0. -1.
<mgrwt>
<rscale>  0 0.15012004E+03</rscale>
<asrwt>0</asrwt>
<pdfrwt beam="2">  1        2 0.42009727E-01 0.19228410E+03</pdfrwt>
<pdfrwt beam="1">  1        1 0.15010003E+00 0.11720171E+03</pdfrwt>
<totfact> 0.28963626E+02</totfact>
</mgrwt>
</event>
<event>
 7    1  0.6493044E-004  0.3107453E+02  0.7546771E-02  0.1613147E+00
          1   -1    0    0  502    0 -0.00000000000E+00  0.00000000000E+00  0.39335297361E+03  0.39335297361E+03  0.00000000000E+00 0. -1.
          2   -1    0    0  503    0  0.00000000000E+00 -0.00000000000E+00 -0.25906491767E+03  0.25906491767E+03  0.00000000000E+00 0. -1.
         25    2    1    2    0    0 -0.43749498807E+02  0.31585781761E+02 -0.82356701090E+02  0.15911913848E+03  0.12499837503E+03 0.  0.
          4    1    3    3  501    0  0.16098954860E+02 -0.11615322148E+02 -0.82942074568E+02  0.85294153902E+02  0.12700000000E+01 0.  1.
         -4    1    3    3    0  501 -0.59848453667E+02  0.43201103909E+02  0.58537347783E+00  0.73824984574E+02  0.12700000000E+01 0.  1.
          2    1    1    2  502    0  0.18075660156E+02 -0.25137354825E+02  0.35302152204E+03  0.35437665149E+03  0.00000000000E+00 0. -1.
          1    1    1    2  503    0  0.25673838651E+02 -0.64484269363E+01 -0.13637676501E+03  0.13892210132E+03  0.00000000000E+00 0. -1.
<mgrwt>
<rscale>  0 0.28680697E+02</rscale>
<asrwt>0</asrwt>
<pdfrwt beam="2">  1        2 0.39856141E-01 0.26471271E+02</pdfrwt>
<pdfrwt beam="1">  1        1 0.60515842E-01 0.31074534E+02</pdfrwt>
<totfact> 0.10688869E+03</totfact>
</mgrwt>
</event>
<event>
 7    1  0.6493044E-004  0.6917369E+02  0.7546771E-02  0.1437235E+00
          1   -1    0    0  502    0 -0.00000000000E+00  0.00000000000E+00  0.10790504134E+04  0.10790504134E+04  0.00000000000E+00 0. -1.
          2   -1    0    0  503    0  0.00000000000E+00 -0.00000000000E+00 -0.41493066636E+02  0.41493066636E+02  0.00000000000E+00 0. -1.
         25    2    1    2    0    0  0.19219807201E+02  0.57480720823E+02  0.40814439616E+03  0.43113955624E+03  0.12500413824E+03 0.  0.
          4    1    3    3  501    0 -0.13877092722E+02  0.87632980558E+02  0.32256843006E+03  0.33455062091E+03  0.12700000000E+01 0.  1.
         -4    1    3    3    0  501  0.33096899923E+02 -0.30152259736E+02  0.85575966107E+02  0.96588935323E+02  0.12700000000E+01 0.  1.
          2    1    1    2  502    0 -0.55764240934E+02 -0.45708355923E+02  0.64422836018E+03  0.64825078822E+03  0.00000000000E+00 0. -1.
          1    1    1    2  503    0  0.36544433733E+02 -0.11772364900E+02 -0.14815409534E+02  0.41153135626E+02  0.00000000000E+00 0. -1.
<mgrwt>
<rscale>  0 0.51534854E+02</rscale>
<asrwt>0</asrwt>
<pdfrwt beam="2">  1        2 0.63835495E-02 0.38393804E+02</pdfrwt>
<pdfrwt beam="1">  1        1 0.16600773E+00 0.69173691E+02</pdfrwt>
<totfact> 0.20211521E+03</totfact>
</mgrwt>
</event>
<event>
 7    1  0.6493044E-004  0.5973421E+02  0.7546771E-02  0.1420941E+00
          2   -1    0    0  503    0  0.00000000000E+00  0.00000000000E+00  0.15195669480E+04  0.15195669480E+04  0.00000000000E+00 0. -1.
         -2   -1    0    0    0  501 -0.00000000000E+00 -0.00000000000E+00 -0.15363325293E+02  0.15363325293E+02  0.00000000000E+00 0.  1.
         25    2    1    2    0    0 -0.41292327748E+02  0.45874858655E+02  0.10334409124E+04  0.10427998574E+04  0.12498745559E+03 0.  0.
          4    1    3    3  502    0  0.12402238820E+02  0.57697933102E+02  0.82875308084E+03  0.83085266378E+03  0.12700000000E+01 0.  1.
         -4    1    3    3    0  502 -0.53694566568E+02 -0.11823074446E+02  0.20468783160E+03  0.21194719360E+03  0.12700000000E+01 0.  1.
          1    1    1    2  503    0 -0.48988358055E+01 -0.65822327147E+02  0.39938113301E+03  0.40479855082E+03  0.00000000000E+00 0. -1.
         -1    1    1    2    0  501  0.46191163553E+02  0.19947468491E+02  0.71381577280E+02  0.87331865116E+02  0.00000000000E+00 0.  1.
<mgrwt>
<rscale>  0 0.54822283E+02</rscale>
<asrwt>0</asrwt>
<pdfrwt beam="1">  1        2 0.23377941E+00 0.59734209E+02</pdfrwt>
<pdfrwt beam="2">  1       -2 0.23635897E-02 0.50314263E+02</pdfrwt>
<totfact> 0.74023172E+03</totfact>
</mgrwt>
</event>
<event>
 7    1  0.6493044E-004  0.6240886E+02  0.7546771E-02  0.1437401E+00
          2   -1    0    0  503    0  0.00000000000E+00  0.00000000000E+00  0.73560758848E+03  0.73560758848E+03  0.00000000000E+00 0. -1.
          1   -1    0    0  502    0 -0.00000000000E+00 -0.00000000000E+00 -0.14097345670E+03  0.14097345670E+03  0.00000000000E+00 0. -1.
         25    2    1    2    0    0 -0.28817983034E+02  0.81717705496E+02  0.19591744549E+03  0.24802434743E+03  0.12499668769E+03 0.  0.
          4    1    3    3  501    0  0.38738889205E+02  0.52633367512E+01  0.18296901702E+02  0.43183257895E+02  0.12700000000E+01 0.  1.
         -4    1    3    3    0  501 -0.67556872239E+02  0.76454368745E+02  0.17762054379E+03  0.20484108954E+03  0.12700000000E+01 0.  1.
          2    1    1    2  502    0  0.36977148247E+02 -0.20956080878E+02 -0.10908237772E+03  0.11707020094E+03  0.00000000000E+00 0. -1.
          1    1    1    2  503    0 -0.81591652125E+01 -0.60761624618E+02  0.50779906401E+03  0.51148649680E+03  0.00000000000E+00 0. -1.
<mgrwt>
<rscale>  0 0.51502775E+02</rscale>
<asrwt>0</asrwt>
<pdfrwt beam="1">  1        2 0.11317040E+00 0.62408861E+02</pdfrwt>
<pdfrwt beam="2">  1        1 0.21688225E-01 0.42502551E+02</pdfrwt>
<totfact> 0.12190282E+03</totfact>
</mgrwt>
</event>
<event>
 7    1  0.6493044E-004  0.5530242E+02  0.7546771E-02  0.1458335E+00
          2   -1    0    0  503    0  0.00000000000E+00  0.00000000000E+00  0.15016913489E+04  0.15016913489E+04  0.00000000000E+00 0. -1.
          1   -1    0    0  502    0 -0.00000000000E+00 -0.00000000000E+00 -0.14428818063E+03  0.14428818063E+03  0.00000000000E+00 0. -1.
         25    2    1    2    0    0  0.14064646825E+02  0.85563442977E+02  0.10212186382E+03  0.18322785386E+03  0.12499861717E+03 0.  0.
          4    1    3    3  501    0  0.54249151744E+02  0.35545589682E+01  0.64717776633E+02  0.84531703323E+02  0.12700000000E+01 0.  1.
         -4    1    3    3    0  501 -0.40184504919E+02  0.82008884009E+02  0.37404087183E+02  0.98696150533E+02  0.12700000000E+01 0.  1.
          2    1    1    2  502    0 -0.27237039718E+02 -0.46642739719E+02 -0.96370874608E+02  0.11047509662E+03  0.00000000000E+00 0. -1.
          1    1    1    2  503    0  0.13172392893E+02 -0.38920703259E+02  0.13516521791E+04  0.13522765790E+04  0.00000000000E+00 0. -1.
<mgrwt>
<rscale>  0 0.47669060E+02</rscale>
<asrwt>0</asrwt>
<pdfrwt beam="1">  1        2 0.23102943E+00 0.41089330E+02</pdfrwt>
<pdfrwt beam="2">  1        1 0.22198183E-01 0.55302416E+02</pdfrwt>
<totfact> 0.46079180E+02</totfact>
</mgrwt>
</event>
<event>
 7    1  0.6493044E-004  0.4827317E+02  0.7546771E-02  0.1470558E+00
          2   -1    0    0  503    0  0.00000000000E+00  0.00000000000E+00  0.89456053324E+03  0.89456053324E+03  0.00000000000E+00 0. -1.
          1   -1    0    0  502    0 -0.00000000000E+00 -0.00000000000E+00 -0.25949088528E+02  0.25949088528E+02  0.00000000000E+00 0. -1.
         25    2    1    2    0    0  0.96885727849E+01  0.52444640143E+01  0.16599104355E+03  0.20808504102E+03  0.12499993964E+03 0.  0.
          4    1    3    3  501    0 -0.37583193757E+02 -0.41283398652E+02  0.99858998359E+02  0.11441262129E+03  0.12700000000E+01 0.  1.
         -4    1    3    3    0  501  0.47271766541E+02  0.46527862666E+02  0.66132045191E+02  0.93672419726E+02  0.12700000000E+01 0.  1.
          2    1    1    2  502    0  0.55486483365E+01  0.42738577942E+02  0.11771014686E+03  0.12535171406E+03  0.00000000000E+00 0. -1.
          1    1    1    2  503    0 -0.15237221121E+02 -0.47983041956E+02  0.58491025430E+03  0.58707286669E+03  0.00000000000E+00 0. -1.
<mgrwt>
<rscale>  0 0.45611853E+02</rscale>
<asrwt>0</asrwt>
<pdfrwt beam="1">  1        2 0.13762467E+00 0.48273168E+02</pdfrwt>
<pdfrwt beam="2">  1        1 0.39921681E-02 0.43097257E+02</pdfrwt>
<totfact> 0.84682991E+03</totfact>
</mgrwt>
</event>
<event>
 7    1  0.6493044E-004  0.7493868E+02  0.7546771E-02  0.1350630E+00
          2   -1    0    0  503    0  0.00000000000E+00  0.00000000000E+00  0.30446105409E+04  0.30446105409E+04  0.00000000000E+00 0. -1.
          1   -1    0    0  502    0 -0.00000000000E+00 -0.00000000000E+00 -0.10786440925E+04  0.10786440925E+04  0.00000000000E+00 0. -1.
         25    2    1    2    0    0 -0.60112810468E+01 -0.51650401758E+01  0.24483481299E+03  0.27502576542E+03  0.12502908802E+03 0.  0.
          4    1    3    3  501    0  0.78300785401E+01 -0.35136420980E+02  0.23872593432E+03  0.24142817323E+03  0.12700000000E+01 0.  1.
         -4    1    3    3    0  501 -0.13841359587E+02  0.29971380804E+02  0.61088786719E+01  0.33597592193E+02  0.12700000000E+01 0.  1.
          2    1    1    2  502    0 -0.16005315179E+02 -0.69006603193E+02 -0.10618308116E+04  0.10641911266E+04  0.00000000000E+00 0. -1.
          1    1    1    2  503    0  0.22016596226E+02  0.74171643369E+02  0.27829624471E+04  0.27840377413E+04  0.00000000000E+00 0. -1.
<mgrwt>
<rscale>  0 0.72859711E+02</rscale>
<asrwt>0</asrwt>
<pdfrwt beam="1">  1        2 0.46840162E+00 0.74938681E+02</pdfrwt>
<pdfrwt beam="2">  1        1 0.16594525E+00 0.70838418E+02</pdfrwt>
<totfact> 0.50706771E+00</totfact>
</mgrwt>
</event>
<event>
 7    1  0.6493044E-004  0.6031558E+02  0.7546771E-02  0.1429089E+00
          1   -1    0    0  502    0 -0.00000000000E+00  0.00000000000E+00  0.37273739985E+03  0.37273739985E+03  0.00000000000E+00 0. -1.
          2   -1    0    0  503    0  0.00000000000E+00 -0.00000000000E+00 -0.29689433470E+04  0.29689433470E+04  0.00000000000E+00 0. -1.
         25    2    1    2    0    0  0.51094396607E+02 -0.11157176936E+01 -0.47841844157E+03  0.49711207833E+03  0.12499732399E+03 0.  0.
          4    1    3    3  501    0  0.44209993211E+02 -0.15685748250E+02 -0.47865092440E+03  0.48094582494E+03  0.12700000000E+01 0.  1.
         -4    1    3    3    0  501  0.68844033957E+01  0.14570030556E+02  0.23248283526E+00  0.16166253394E+02  0.12700000000E+01 0.  1.
          2    1    1    2  502    0 -0.40839740965E+02 -0.44571588342E+02  0.36065373877E+03  0.36568515176E+03  0.00000000000E+00 0. -1.
          1    1    1    2  503    0 -0.10254655641E+02  0.45687306036E+02 -0.24784412444E+04  0.24788835168E+04  0.00000000000E+00 0. -1.
<mgrwt>
<rscale>  0 0.53143364E+02</rscale>
<asrwt>0</asrwt>
<pdfrwt beam="2">  1        2 0.45676051E+00 0.46824010E+02</pdfrwt>
<pdfrwt beam="1">  1        1 0.57344216E-01 0.60315577E+02</pdfrwt>
<totfact> 0.26521509E+01</totfact>
</mgrwt>
</event>
<event>
 7    1  0.6493044E-004  0.2020581E+03  0.7546771E-02  0.1295480E+00
          2   -1    0    0  503    0  0.00000000000E+00  0.00000000000E+00  0.76089262075E+03  0.76089262075E+03  0.00000000000E+00 0. -1.
          1   -1    0    0  502    0 -0.00000000000E+00 -0.00000000000E+00 -0.18414316784E+03  0.18414316784E+03  0.00000000000E+00 0. -1.
         25    2    1    2    0    0  0.49865879128E+02 -0.16613687005E+03  0.83090155323E+02  0.22938539377E+03  0.12500247786E+03 0.  0.
          4    1    3    3  501    0  0.41943435857E+02 -0.16964016689E+03  0.10632401870E+03  0.20455671069E+03  0.12700000000E+01 0.  1.
         -4    1    3    3    0  501  0.79224432715E+01  0.35032968359E+01 -0.23233863379E+02  0.24828683083E+02  0.12700000000E+01 0.  1.
          2    1    1    2  502    0  0.34403486158E+02 -0.25645130219E+02 -0.87736483426E+02  0.97667615348E+02  0.00000000000E+00 0. -1.
          1    1    1    2  503    0 -0.84269365286E+02  0.19178200027E+03  0.58139578101E+03  0.61798277947E+03  0.00000000000E+00 0. -1.
<mgrwt>
<rscale>  0 0.93114574E+02</rscale>
<asrwt>0</asrwt>
<pdfrwt beam="1">  1        2 0.11706040E+00 0.20205811E+03</pdfrwt>
<pdfrwt beam="2">  1        1 0.28329719E-01 0.42910052E+02</pdfrwt>
<totfact> 0.81539115E+02</totfact>
</mgrwt>
</event>
<event>
 7    1  0.6493044E-004  0.6828261E+02  0.7546771E-02  0.1518870E+00
          1   -1    0    0  502    0 -0.00000000000E+00  0.00000000000E+00  0.18827399805E+04  0.18827399805E+04  0.00000000000E+00 0. -1.
          2   -1    0    0  503    0  0.00000000000E+00 -0.00000000000E+00 -0.13778613500E+04  0.13778613500E+04  0.00000000000E+00 0. -1.
         25    2    1    2    0    0  0.20387678566E+02  0.43222001141E+02 -0.20886231482E+03  0.24805870576E+03  0.12500342448E+03 0.  0.
          4    1    3    3  501    0  0.61127091463E+01 -0.43489238738E+02 -0.90845794655E+02  0.10091209246E+03  0.12700000000E+01 0.  1.
         -4    1    3    3    0  501  0.14274969419E+02  0.86711239879E+02 -0.11801652016E+03  0.14714661330E+03  0.12700000000E+01 0.  1.
          2    1    1    2  502    0 -0.36789391278E+02 -0.57592379490E+02  0.18624115896E+04  0.18636650103E+04  0.00000000000E+00 0. -1.
          1    1    1    2  503    0  0.16401712713E+02  0.14370378348E+02 -0.11486706442E+04  0.11488776144E+04  0.00000000000E+00 0. -1.
<mgrwt>
<rscale>  0 0.38587636E+02</rscale>
<asrwt>0</asrwt>
<pdfrwt beam="2">  1        2 0.21197867E+00 0.21806512E+02</pdfrwt>
<pdfrwt beam="1">  1        1 0.28965230E+00 0.68282614E+02</pdfrwt>
<totfact> 0.12494953E+01</totfact>
</mgrwt>
</event>
<event>
 7    1  0.6493044E-004  0.6901346E+02  0.7546771E-02  0.1472483E+00
          1   -1    0    0  502    0 -0.00000000000E+00  0.00000000000E+00  0.11888551417E+04  0.11888551417E+04  0.00000000000E+00 0. -1.
          2   -1    0    0  503    0  0.00000000000E+00 -0.00000000000E+00 -0.83341724262E+03  0.83341724262E+03  0.00000000000E+00 0. -1.
         25    2    1    2    0    0 -0.71764580646E+02  0.59172600768E+02  0.15823015948E+03  0.22205856205E+03  0.12498667887E+03 0.  0.
          4    1    3    3  501    0 -0.10577857735E+03  0.40448112181E+02  0.94883502868E+02  0.14774860142E+03  0.12700000000E+01 0.  1.
         -4    1    3    3    0  501  0.34013996707E+02  0.18724488587E+02  0.63346656611E+02  0.74309960628E+02  0.12700000000E+01 0.  1.
          2    1    1    2  502    0  0.42628171005E+02 -0.53243731151E+02  0.99726978469E+03  0.99959945945E+03  0.00000000000E+00 0. -1.
          1    1    1    2  503    0  0.29136409641E+02 -0.59288696171E+01 -0.80006204512E+03  0.80061436279E+03  0.00000000000E+00 0. -1.
<mgrwt>
<rscale>  0 0.45299146E+02</rscale>
<asrwt>0</asrwt>
<pdfrwt beam="2">  1        2 0.12821804E+00 0.29733514E+02</pdfrwt>
<pdfrwt beam="1">  1        1 0.18290079E+00 0.69013459E+02</pdfrwt>
<totfact> 0.65290873E+01</totfact>
</mgrwt>
</event>
<event>
 7    1  0.6493044E-004  0.7661301E+02  0.7546771E-02  0.1416683E+00
          2   -1    0    0  503    0  0.00000000000E+00  0.00000000000E+00  0.71101592691E+03  0.71101592691E+03  0.00000000000E+00 0. -1.
          1   -1    0    0  502    0 -0.00000000000E+00 -0.00000000000E+00 -0.30288144682E+04  0.30288144682E+04  0.00000000000E+00 0. -1.
         25    2    1    2    0    0 -0.13547880092E+02  0.11618656722E+03 -0.23151139587E+04  0.23214348777E+04  0.12499754357E+03 0.  0.
          4    1    3    3  501    0 -0.29172444287E+02  0.12394113674E+03 -0.22606166677E+04  0.22642000283E+04  0.12700000000E+01 0. -1.
         -4    1    3    3    0  501  0.15624564196E+02 -0.77545695274E+01 -0.54497291012E+02  0.57234849371E+02  0.12700000000E+01 0. -1.
          2    1    1    2  502    0  0.73979218134E+01 -0.39856934184E+02 -0.70788741530E+03  0.70904717557E+03  0.00000000000E+00 0. -1.
          1    1    1    2  503    0  0.61499582782E+01 -0.76329633032E+02  0.70520283272E+03  0.70934834189E+03  0.00000000000E+00 0. -1.
<mgrwt>
<rscale>  0 0.55728937E+02</rscale>
<asrwt>0</asrwt>
<pdfrwt beam="1">  1        2 0.10938707E+00 0.76613006E+02</pdfrwt>
<pdfrwt beam="2">  1        1 0.46597145E+00 0.40537692E+02</pdfrwt>
<totfact> 0.56524260E+00</totfact>
</mgrwt>
</event>
<event>
 7    1  0.6493044E-004  0.8414709E+02  0.7546771E-02  0.1328697E+00
         -2   -1    0    0    0  501 -0.00000000000E+00  0.00000000000E+00  0.11608297636E+03  0.11608297636E+03  0.00000000000E+00 0.  1.
          2   -1    0    0  503    0  0.00000000000E+00 -0.00000000000E+00 -0.14895817440E+04  0.14895817440E+04  0.00000000000E+00 0. -1.
         25    2    1    2    0    0  0.45847963408E+02 -0.23781801831E+02  0.12153919510E+02  0.13579356223E+03  0.12499825574E+03 0.  0.
          4    1    3    3  502    0  0.57651305428E+02 -0.66837440336E+02  0.19833229233E+02  0.90475888114E+02  0.12700000000E+01 0. -1.
         -4    1    3    3    0  502 -0.11803342020E+02  0.43055638504E+02 -0.76793097224E+01  0.45317674120E+02  0.12700000000E+01 0. -1.
          1    1    1    2  503    0 -0.69985000412E+02 -0.48594382316E+02 -0.13907957984E+04  0.13934031244E+04  0.00000000000E+00 0. -1.
         -1    1    1    2    0  501  0.24137037004E+02  0.72376184147E+02  0.51431112480E+01  0.76468033715E+02  0.00000000000E+00 0.  1.
<mgrwt>
<rscale>  0 0.80124854E+02</rscale>
<asrwt>0</asrwt>
<pdfrwt beam="2">  1        2 0.22916640E+00 0.84147093E+02</pdfrwt>
<pdfrwt beam="1">  1       -2 0.17858921E-01 0.76294879E+02</pdfrwt>
<totfact> 0.37022968E+02</totfact>
</mgrwt>
</event>
<event>
 7    1  0.6493044E-004  0.7826800E+02  0.7546771E-02  0.1433383E+00
          2   -1    0    0  503    0  0.00000000000E+00  0.00000000000E+00  0.20999845784E+04  0.20999845784E+04  0.00000000000E+00 0. -1.
         -2   -1    0    0    0  501 -0.00000000000E+00 -0.00000000000E+00 -0.44602974696E+03  0.44602974696E+03  0.00000000000E+00 0.  1.
         25    2    1    2    0    0 -0.27848580602E+02  0.35196954987E+02  0.18216017669E+03  0.22543465047E+03  0.12499633027E+03 0.  0.
          4    1    3    3  502    0 -0.10563716796E+02 -0.13461954926E+02  0.17192231853E+03  0.17277648235E+03  0.12700000000E+01 0. -1.
         -4    1    3    3    0  502 -0.17284863806E+02  0.48658909913E+02  0.10237858158E+02  0.52658168126E+02  0.12700000000E+01 0. -1.
          1    1    1    2  503    0  0.53611861553E+02 -0.58784506609E+02  0.18946321368E+04  0.18963018704E+04  0.00000000000E+00 0. -1.
         -1    1    1    2    0  501 -0.25763280950E+02  0.23587551621E+02 -0.42283748200E+03  0.42427780453E+03  0.00000000000E+00 0.  1.
<mgrwt>
<rscale>  0 0.52286874E+02</rscale>
<asrwt>0</asrwt>
<pdfrwt beam="1">  1        2 0.32307455E+00 0.78267998E+02</pdfrwt>
<pdfrwt beam="2">  1       -2 0.68619962E-01 0.34930205E+02</pdfrwt>
<totfact> 0.15604255E+01</totfact>
</mgrwt>
</event>
<event>
 7    1  0.6493044E-004  0.3952823E+02  0.7546771E-02  0.1592127E+00
         -2   -1    0    0    0  501  0.00000000000E+00  0.00000000000E+00  0.16506003101E+04  0.16506003101E+04  0.00000000000E+00 0.  1.
         -1   -1    0    0    0  502 -0.00000000000E+00 -0.00000000000E+00 -0.37857827282E+03  0.37857827282E+03  0.00000000000E+00 0.  1.
         25    2    1    2    0    0 -0.12914546017E+02 -0.20937112857E+02 -0.24896036472E+02  0.12980285134E+03  0.12499527747E+03 0.  0.
          4    1    3    3  503    0  0.32766274366E+02  0.16377273298E+02  0.31393697544E+02  0.48259931227E+02  0.12700000000E+01 0.  1.
         -4    1    3    3    0  503 -0.45680820384E+02 -0.37314386155E+02 -0.56289734016E+02  0.81542920114E+02  0.12700000000E+01 0.  1.
         -2    1    1    2    0  502  0.14509357458E+02 -0.18619608387E+02 -0.30052076151E+03  0.30144641210E+03  0.00000000000E+00 0.  1.
         -1    1    1    2    0  501 -0.15948114412E+01  0.39556721243E+02  0.15974388353E+04  0.15979293195E+04  0.00000000000E+00 0.  1.
<mgrwt>
<rscale>  0 0.30546304E+02</rscale>
<asrwt>0</asrwt>
<pdfrwt beam="1">  1       -2 0.25393851E+00 0.39528233E+02</pdfrwt>
<pdfrwt beam="2">  1       -1 0.58242812E-01 0.23605323E+02</pdfrwt>
<totfact> 0.19264030E+00</totfact>
</mgrwt>
</event>
<event>
 7    1  0.6493044E-004  0.4547695E+02  0.7546771E-02  0.1582490E+00
         -2   -1    0    0    0  501 -0.00000000000E+00  0.00000000000E+00  0.22789584773E+03  0.22789584773E+03  0.00000000000E+00 0.  1.
          2   -1    0    0  503    0  0.00000000000E+00 -0.00000000000E+00 -0.35733391545E+03  0.35733391545E+03  0.00000000000E+00 0. -1.
         25    2    1    2    0    0  0.58652908123E+02  0.17540868598E+02  0.11961136999E+03  0.18351824126E+03  0.12499687733E+03 0.  0.
          4    1    3    3  502    0 -0.33036304295E+02 -0.18921806070E+02  0.18917590510E+02  0.42531403423E+02  0.12700000000E+01 0. -1.
         -4    1    3    3    0  502  0.91689212417E+02  0.36462674668E+02  0.10069377948E+03  0.14098683784E+03  0.12700000000E+01 0. -1.
          1    1    1    2  503    0 -0.15999668873E+02 -0.14752930248E+02 -0.31899647056E+03  0.31973799678E+03  0.00000000000E+00 0. -1.
         -1    1    1    2    0  501 -0.42653239250E+02 -0.27879383501E+01  0.69947032843E+02  0.81973525131E+02  0.00000000000E+00 0.  1.
<mgrwt>
<rscale>  0 0.31459904E+02</rscale>
<asrwt>0</asrwt>
<pdfrwt beam="2">  1        2 0.54974448E-01 0.21763234E+02</pdfrwt>
<pdfrwt beam="1">  1       -2 0.35060900E-01 0.45476952E+02</pdfrwt>
<totfact> 0.67238424E+02</totfact>
</mgrwt>
</event>
<event>
 7    1  0.6493044E-004  0.6708471E+02  0.7546771E-02  0.1442137E+00
         -1   -1    0    0    0  501 -0.00000000000E+00  0.00000000000E+00  0.10709144743E+03  0.10709144743E+03  0.00000000000E+00 0.  1.
          1   -1    0    0  503    0  0.00000000000E+00 -0.00000000000E+00 -0.88091422863E+03  0.88091422863E+03  0.00000000000E+00 0. -1.
         25    2    1    2    0    0  0.33895044464E+02 -0.78359780882E+02 -0.22842529709E+03  0.27402949427E+03  0.12499967233E+03 0.  0.
          4    1    3    3  502    0 -0.27556611933E+02  0.15272895123E+02 -0.93497374674E+02  0.98671171867E+02  0.12700000000E+01 0. -1.
         -4    1    3    3    0  502  0.61451656397E+02 -0.93632676005E+02 -0.13492792242E+03  0.17535832241E+03  0.12700000000E+01 0. -1.
          2    1    1    2  503    0 -0.36271449397E+02  0.11870932377E+02 -0.61587487182E+03  0.61705623310E+03  0.00000000000E+00 0. -1.
         -2    1    1    2    0  501  0.23764049326E+01  0.66488848505E+02  0.70477387701E+02  0.96919948685E+02  0.00000000000E+00 0.  1.
<mgrwt>
<rscale>  0 0.50599025E+02</rscale>
<asrwt>0</asrwt>
<pdfrwt beam="2">  1        1 0.13552527E+00 0.38164605E+02</pdfrwt>
<pdfrwt beam="1">  1       -1 0.16475607E-01 0.67084706E+02</pdfrwt>
<totfact> 0.57866746E+02</totfact>
</mgrwt>
</event>
<event>
 7    1  0.6493044E-004  0.6857728E+02  0.7546771E-02  0.1458270E+00
          2   -1    0    0  503    0  0.00000000000E+00  0.00000000000E+00  0.66874771299E+03  0.66874771299E+03  0.00000000000E+00 0. -1.
         -2   -1    0    0    0  501 -0.00000000000E+00 -0.00000000000E+00 -0.22876676590E+02  0.22876676590E+02  0.00000000000E+00 0.  1.
         25    2    1    2    0    0 -0.32172321445E+02  0.52074582610E+02  0.35767695496E+03  0.38380359062E+03  0.12500228654E+03 0.  0.
          4    1    3    3  502    0 -0.39845633509E+01 -0.29248929165E+02  0.20877908989E+02  0.36178399442E+02  0.12700000000E+01 0. -1.
         -4    1    3    3    0  502 -0.28187758094E+02  0.81323511775E+02  0.33679904597E+03  0.34762519118E+03  0.12700000000E+01 0. -1.
          1    1    1    2  503    0 -0.30936523027E+02 -0.11913696569E+02  0.97368482986E+02  0.10285730942E+03  0.00000000000E+00 0. -1.
         -1    1    1    2    0  501  0.63108844472E+02 -0.40160886041E+02  0.19082559845E+03  0.20496348953E+03  0.00000000000E+00 0.  1.
<mgrwt>
<rscale>  0 0.47680412E+02</rscale>
<asrwt>0</asrwt>
<pdfrwt beam="1">  1        2 0.10288425E+00 0.33151239E+02</pdfrwt>
<pdfrwt beam="2">  1       -2 0.35194892E-02 0.68577278E+02</pdfrwt>
<totfact> 0.13556952E+04</totfact>
</mgrwt>
</event>
<event>
 7    1  0.6493044E-004  0.5211516E+02  0.7546771E-02  0.1525139E+00
          1   -1    0    0  502    0 -0.00000000000E+00  0.00000000000E+00  0.32316877567E+03  0.32316877567E+03  0.00000000000E+00 0. -1.
          2   -1    0    0  503    0  0.00000000000E+00 -0.00000000000E+00 -0.37178258297E+03  0.37178258297E+03  0.00000000000E+00 0. -1.
         25    2    1    2    0    0  0.83859775481E+01 -0.51065694817E+02  0.97259979972E+02  0.16662134120E+03  0.12500055133E+03 0.  0.
          4    1    3    3  501    0 -0.14763036411E+02 -0.53703454294E+02 -0.10218196440E+02  0.56639497576E+02  0.12700000000E+01 0.  1.
         -4    1    3    3    0  501  0.23149013959E+02  0.26377594766E+01  0.10747817641E+03  0.10998184363E+03  0.12700000000E+01 0.  1.
          2    1    1    2  502    0  0.18959833835E+02  0.49317393713E+02  0.18700471090E+03  0.19432560953E+03  0.00000000000E+00 0. -1.
          1    1    1    2  503    0 -0.27345811383E+02  0.17483011039E+01 -0.33287849817E+03  0.33400440790E+03  0.00000000000E+00 0. -1.
<mgrwt>
<rscale>  0 0.37789429E+02</rscale>
<asrwt>0</asrwt>
<pdfrwt beam="2">  1        2 0.57197320E-01 0.27401642E+02</pdfrwt>
<pdfrwt beam="1">  1        1 0.49718273E-01 0.52115161E+02</pdfrwt>
<totfact> 0.94290088E+02</totfact>
</mgrwt>
</event>
<event>
 7    1  0.6493044E-004  0.1252061E+03  0.7546771E-02  0.1410326E+00
          2   -1    0    0  503    0  0.00000000000E+00  0.00000000000E+00  0.72313045775E+03  0.72313045775E+03  0.00000000000E+00 0. -1.
         -2   -1    0    0    0  501 -0.00000000000E+00 -0.00000000000E+00 -0.24936000181E+03  0.24936000181E+03  0.00000000000E+00 0.  1.
         25    2    1    2    0    0  0.31748406740E+02  0.14243349510E+03  0.68937987916E+02  0.20413743608E+03  0.12499753908E+03 0.  0.
          4    1    3    3  502    0  0.10950812151E+02  0.10815336166E+03  0.10430367551E+03  0.15065835373E+03  0.12700000000E+01 0. -1.
         -4    1    3    3    0  502  0.20797594589E+02  0.34280133440E+02 -0.35365687598E+02  0.53479082347E+02  0.12700000000E+01 0. -1.
          1    1    1    2  503    0 -0.38238204935E+02 -0.11719495685E+03  0.57913666560E+03  0.59211155678E+03  0.00000000000E+00 0. -1.
         -1    1    1    2    0  501  0.64897981951E+01 -0.25238538250E+02 -0.17430419758E+03  0.17624146671E+03  0.00000000000E+00 0.  1.
<mgrwt>
<rscale>  0 0.57121079E+02</rscale>
<asrwt>0</asrwt>
<pdfrwt beam="1">  1        2 0.11125084E+00 0.12520611E+03</pdfrwt>
<pdfrwt beam="2">  1       -2 0.38363077E-01 0.26059572E+02</pdfrwt>
<totfact> 0.25985482E+02</totfact>
</mgrwt>
</event>
<event>
 7    1  0.6493044E-004  0.4405604E+02  0.7546771E-02  0.1527654E+00
          2   -1    0    0  503    0  0.00000000000E+00  0.00000000000E+00  0.19374377965E+03  0.19374377965E+03  0.00000000000E+00 0. -1.
         -2   -1    0    0    0  501 -0.00000000000E+00 -0.00000000000E+00 -0.84933028439E+02  0.84933028439E+02  0.00000000000E+00 0.  1.
         25    2    1    2    0    0  0.61233445600E+02  0.36774221299E+02  0.64891871460E+02  0.15791900547E+03  0.12500231635E+03 0.  0.
          4    1    3    3  502    0  0.70923374214E+02  0.53491917577E+02 -0.14024860637E+01  0.88854319665E+02  0.12700000000E+01 0.  1.
         -4    1    3    3    0  502 -0.96899286140E+01 -0.16717696278E+02  0.66294357523E+02  0.69064685801E+02  0.12700000000E+01 0.  1.
          1    1    1    2  503    0 -0.30453898348E+02 -0.94227312169E+01  0.66536278485E+02  0.73778751296E+02  0.00000000000E+00 0. -1.
         -1    1    1    2    0  501 -0.30779547252E+02 -0.27351490082E+02 -0.22617398729E+02  0.46979051331E+02  0.00000000000E+00 0.  1.
<mgrwt>
<rscale>  0 0.37475763E+02</rscale>
<asrwt>0</asrwt>
<pdfrwt beam="1">  1        2 0.29806735E-01 0.31878328E+02</pdfrwt>
<pdfrwt beam="2">  1       -2 0.13066620E-01 0.44056037E+02</pdfrwt>
<totfact> 0.64764576E+03</totfact>
</mgrwt>
</event>
<event>
 7    1  0.6493044E-004  0.8396493E+02  0.7546771E-02  0.1385886E+00
          2   -1    0    0  503    0  0.00000000000E+00  0.00000000000E+00  0.21879581714E+03  0.21879581714E+03  0.00000000000E+00 0. -1.
          1   -1    0    0  502    0 -0.00000000000E+00 -0.00000000000E+00 -0.62064471402E+03  0.62064471402E+03  0.00000000000E+00 0. -1.
         25    2    1    2    0    0 -0.37856868148E+02  0.76018763095E+02 -0.33705272052E+02  0.15483113583E+03  0.12499856179E+03 0.  0.
          4    1    3    3  501    0  0.11672058797E+01  0.10122396482E+03 -0.75904485231E+01  0.10152281138E+03  0.12700000000E+01 0. -1.
         -4    1    3    3    0  501 -0.39024074027E+02 -0.25205201721E+02 -0.26114823529E+02  0.53308324448E+02  0.12700000000E+01 0. -1.
          2    1    1    2  502    0 -0.34984064167E+02 -0.31658694205E+02 -0.51372443894E+03  0.51588657360E+03  0.00000000000E+00 0. -1.
          1    1    1    2  503    0  0.72840932314E+02 -0.44360068890E+02  0.14558081411E+03  0.16872282172E+03  0.00000000000E+00 0. -1.
<mgrwt>
<rscale>  0 0.62941626E+02</rscale>
<asrwt>0</asrwt>
<pdfrwt beam="1">  1        2 0.33660895E-01 0.83964935E+02</pdfrwt>
<pdfrwt beam="2">  1        1 0.95483802E-01 0.47182175E+02</pdfrwt>
<totfact> 0.73491954E+02</totfact>
</mgrwt>
</event>
<event>
 7    1  0.6493044E-004  0.9736865E+02  0.7546771E-02  0.1470873E+00
          2   -1    0    0  503    0  0.00000000000E+00  0.00000000000E+00  0.24250292760E+04  0.24250292760E+04  0.00000000000E+00 0. -1.
          1   -1    0    0  502    0 -0.00000000000E+00 -0.00000000000E+00 -0.27568923646E+03  0.27568923646E+03  0.00000000000E+00 0. -1.
         25    2    1    2    0    0  0.64283417217E+02 -0.71317868921E+02  0.24186857916E+03  0.28869150384E+03  0.12499511449E+03 0.  0.
          4    1    3    3  501    0  0.96206819269E+02 -0.21854821515E+02  0.14744479446E+03  0.17741185307E+03  0.12700000000E+01 0.  1.
         -4    1    3    3    0  501 -0.31923402053E+02 -0.49463047406E+02  0.94423784699E+02  0.11127965076E+03  0.12700000000E+01 0.  1.
          2    1    1    2  502    0 -0.16379835708E+02 -0.13644771402E+02 -0.25072397687E+03  0.25162867758E+03  0.00000000000E+00 0. -1.
          1    1    1    2  503    0 -0.47903581509E+02  0.84962640323E+02  0.21581954372E+04  0.21603983310E+04  0.00000000000E+00 0. -1.
<mgrwt>
<rscale>  0 0.45560447E+02</rscale>
<asrwt>0</asrwt>
<pdfrwt beam="1">  1        2 0.37308141E+00 0.97368645E+02</pdfrwt>
<pdfrwt beam="2">  1        1 0.42413730E-01 0.21318508E+02</pdfrwt>
<totfact> 0.65714215E+01</totfact>
</mgrwt>
</event>
<event>
 7    1  0.6493044E-004  0.9917107E+02  0.7546771E-02  0.1352745E+00
          1   -1    0    0  502    0 -0.00000000000E+00  0.00000000000E+00  0.25728050174E+03  0.25728050174E+03  0.00000000000E+00 0. -1.
          2   -1    0    0  503    0  0.00000000000E+00 -0.00000000000E+00 -0.37300679814E+04  0.37300679814E+04  0.00000000000E+00 0. -1.
         25    2    1    2    0    0 -0.12283251702E+03 -0.14853496174E+02 -0.14859612686E+03  0.23024746779E+03  0.12499853567E+03 0.  0.
          4    1    3    3  501    0  0.45134808596E+01  0.18638545562E+02 -0.79000869587E+02  0.81305087083E+02  0.12700000000E+01 0.  1.
         -4    1    3    3    0  501 -0.12734599788E+03 -0.33492041736E+02 -0.69595257275E+02  0.14894238071E+03  0.12700000000E+01 0.  1.
          2    1    1    2  502    0  0.84289380806E+02  0.50609115718E+02  0.20508497016E+03  0.22743312708E+03  0.00000000000E+00 0. -1.
          1    1    1    2  503    0  0.38543136213E+02 -0.35755619544E+02 -0.35292763229E+04  0.35296678882E+04  0.00000000000E+00 0. -1.
<mgrwt>
<rscale>  0 0.72206864E+02</rscale>
<asrwt>0</asrwt>
<pdfrwt beam="2">  1        2 0.57385655E+00 0.52574116E+02</pdfrwt>
<pdfrwt beam="1">  1        1 0.39581620E-01 0.99171067E+02</pdfrwt>
<totfact> 0.14168325E+01</totfact>
</mgrwt>
</event>
<event>
 7    1  0.6493044E-004  0.4499064E+02  0.7546771E-02  0.1562390E+00
         -1   -1    0    0    0  501 -0.00000000000E+00  0.00000000000E+00  0.17315368961E+04  0.17315368961E+04  0.00000000000E+00 0.  1.
          1   -1    0    0  503    0  0.00000000000E+00 -0.00000000000E+00 -0.13169988129E+04  0.13169988129E+04  0.00000000000E+00 0. -1.
         25    2    1    2    0    0  0.13041053320E+02 -0.20779197116E+02  0.17269719636E+03  0.21459618484E+03  0.12500142725E+03 0.  0.
          4    1    3    3  502    0 -0.44518817061E+02 -0.28316687393E+02  0.30395152830E+02  0.60903514455E+02  0.12700000000E+01 0. -1.
         -4    1    3    3    0  502  0.57559870381E+02  0.75374902775E+01  0.14230204353E+03  0.15369267039E+03  0.12700000000E+01 0. -1.
          2    1    1    2  503    0  0.24494740523E+02 -0.46705486401E+01 -0.12955949932E+04  0.12958349404E+04  0.00000000000E+00 0. -1.
         -2    1    1    2    0  501 -0.37535793843E+02  0.25449745756E+02  0.15374358801E+04  0.15381045838E+04  0.00000000000E+00 0.  1.
<mgrwt>
<rscale>  0 0.33494604E+02</rscale>
<asrwt>0</asrwt>
<pdfrwt beam="2">  1        1 0.20261520E+00 0.24936045E+02</pdfrwt>
<pdfrwt beam="1">  1       -1 0.26639029E+00 0.44990636E+02</pdfrwt>
<totfact> 0.91483131E-01</totfact>
</mgrwt>
</event>
<event>
 7    1  0.6493044E-004  0.3016426E+02  0.7546771E-02  0.1621973E+00
          1   -1    0    0  502    0 -0.00000000000E+00  0.00000000000E+00  0.16244059122E+03  0.16244059122E+03  0.00000000000E+00 0. -1.
          2   -1    0    0  503    0  0.00000000000E+00 -0.00000000000E+00 -0.27457834685E+03  0.27457834685E+03  0.00000000000E+00 0. -1.
         25    2    1    2    0    0 -0.17947773571E+02  0.17042796555E+02 -0.12651136418E+03  0.17955989635E+03  0.12499620641E+03 0.  0.
          4    1    3    3  501    0 -0.66104835446E+02  0.26587958044E+02 -0.10264481744E+03  0.12495735364E+03  0.12700000000E+01 0. -1.
         -4    1    3    3    0  501  0.48157061875E+02 -0.95451614890E+01 -0.23866546745E+02  0.54602542704E+02  0.12700000000E+01 0. -1.
          2    1    1    2  502    0 -0.12895522611E+02 -0.22450300073E+02  0.13262673986E+03  0.13513016911E+03  0.00000000000E+00 0. -1.
          1    1    1    2  503    0  0.30843296182E+02  0.54075035179E+01 -0.11825313131E+03  0.12232887262E+03  0.00000000000E+00 0. -1.
<mgrwt>
<rscale>  0 0.27945721E+02</rscale>
<asrwt>0</asrwt>
<pdfrwt beam="2">  1        2 0.42242822E-01 0.30164256E+02</pdfrwt>
<pdfrwt beam="1">  1        1 0.24990861E-01 0.25890355E+02</pdfrwt>
<totfact> 0.28397295E+03</totfact>
</mgrwt>
</event>
<event>
 7    1  0.6493044E-004  0.9759904E+02  0.7546771E-02  0.1361055E+00
          1   -1    0    0  503    0  0.00000000000E+00  0.00000000000E+00  0.29941814276E+03  0.29941814276E+03  0.00000000000E+00 0. -1.
         -3   -1    0    0    0  501 -0.00000000000E+00 -0.00000000000E+00 -0.13396894496E+03  0.13396894496E+03  0.00000000000E+00 0.  1.
         25    2    1    2    0    0 -0.18686099581E+02  0.83683561988E+02  0.14738473105E+03  0.21142210848E+03  0.12499976058E+03 0.  0.
          4    1    3    3  502    0 -0.12676263444E+02  0.64356689128E+02  0.16929788647E+03  0.18156502514E+03  0.12700000000E+01 0.  1.
         -4    1    3    3    0  502 -0.60098361363E+01  0.19326872860E+02 -0.21913155426E+02  0.29857083341E+02  0.12700000000E+01 0.  1.
          2    1    1    2  503    0  0.68181773007E+02 -0.89194441852E+02  0.83368531149E+02  0.13983817295E+03  0.00000000000E+00 0. -1.
         -2    1    1    2    0  501 -0.49495673427E+02  0.55108798636E+01 -0.65304064399E+02  0.82126806293E+02  0.00000000000E+00 0.  1.
<mgrwt>
<rscale>  0 0.69717865E+02</rscale>
<asrwt>0</asrwt>
<pdfrwt beam="1">  1        1 0.46064330E-01 0.97599042E+02</pdfrwt>
<pdfrwt beam="2">  1       -3 0.20610607E-01 0.49801521E+02</pdfrwt>
<totfact> 0.89103915E+02</totfact>
</mgrwt>
</event>
<event>
 7    1  0.6493044E-004  0.6526144E+02  0.7546771E-02  0.1398881E+00
          2   -1    0    0  503    0  0.00000000000E+00  0.00000000000E+00  0.12070289037E+03  0.12070289037E+03  0.00000000000E+00 0. -1.
          1   -1    0    0  502    0 -0.00000000000E+00 -0.00000000000E+00 -0.55096645863E+03  0.55096645863E+03  0.00000000000E+00 0. -1.
         25    2    1    2    0    0 -0.17103420728E+02 -0.62914356175E+01 -0.19778666712E+03  0.23468440883E+03  0.12500038759E+03 0.  0.
          4    1    3    3  501    0 -0.59291141644E+02  0.17404201174E+02 -0.51025141131E+02  0.80146887796E+02  0.12700000000E+01 0. -1.
         -4    1    3    3    0  501  0.42187720915E+02 -0.23695636791E+02 -0.14676152598E+03  0.15453752104E+03  0.12700000000E+01 0. -1.
          2    1    1    2  502    0 -0.19021163368E+02 -0.51291971558E+02 -0.32085669934E+03  0.32548685459E+03  0.00000000000E+00 0. -1.
          1    1    1    2  503    0  0.36124584096E+02  0.57583407176E+02  0.88379798189E+02  0.11149808557E+03  0.00000000000E+00 0. -1.
<mgrwt>
<rscale>  0 0.59750709E+02</rscale>
<asrwt>0</asrwt>
<pdfrwt beam="1">  1        2 0.18569676E-01 0.65261438E+02</pdfrwt>
<pdfrwt beam="2">  1        1 0.84764070E-01 0.54705311E+02</pdfrwt>
<totfact> 0.16128044E+03</totfact>
</mgrwt>
</event>
<event>
 7    1  0.6679988E-004  0.8421964E+02  0.7546771E-02  0.1384041E+00
         -2   -1    0    0    0  501 -0.00000000000E+00  0.00000000000E+00  0.26709121341E+02  0.26709121341E+02  0.00000000000E+00 0.  1.
          2   -1    0    0  503    0  0.00000000000E+00 -0.00000000000E+00 -0.78477412358E+03  0.78477412358E+03  0.00000000000E+00 0. -1.
         25    2    1    2    0    0  0.67924640317E+02  0.65595482329E+02 -0.35714536473E+03  0.38999037576E+03  0.12499263008E+03 0.  0.
          4    1    3    3  502    0  0.43212106968E+02  0.67882469576E+02 -0.35613938430E+03  0.36511941856E+03  0.12700000000E+01 0.  1.
         -4    1    3    3    0  502  0.24712533349E+02 -0.22869872464E+01 -0.10059804280E+01  0.24870957196E+02  0.12700000000E+01 0.  1.
          1    1    1    2  503    0  0.12048663002E+02 -0.46201958038E+02 -0.15210756378E+03  0.15942553800E+03  0.00000000000E+00 0. -1.
         -1    1    1    2    0  501 -0.79973303320E+02 -0.19393524291E+02 -0.24881207373E+03  0.26206733117E+03  0.00000000000E+00 0.  1.
<mgrwt>
<rscale>  0 0.63413316E+02</rscale>
<asrwt>0</asrwt>
<pdfrwt beam="2">  1        2 0.12073448E+00 0.47747159E+02</pdfrwt>
<pdfrwt beam="1">  1       -2 0.41090955E-02 0.84219641E+02</pdfrwt>
<totfact> 0.91281031E+03</totfact>
</mgrwt>
</event>
<event>
 7    1  0.6493044E-004  0.9024161E+02  0.7546771E-02  0.1406383E+00
         -1   -1    0    0    0  502 -0.00000000000E+00  0.00000000000E+00  0.60915433551E+03  0.60915433551E+03  0.00000000000E+00 0.  1.
         -2   -1    0    0    0  501  0.00000000000E+00 -0.00000000000E+00 -0.54279468392E+02  0.54279468392E+02  0.00000000000E+00 0.  1.
         25    2    1    2    0    0 -0.38175130282E+02 -0.63342382373E+02  0.18716451773E+03  0.23688716038E+03  0.12496148238E+03 0.  0.
          4    1    3    3  503    0 -0.42736106761E+02 -0.84256094707E+02  0.69517604778E+02  0.11730206558E+03  0.12700000000E+01 0. -1.
         -4    1    3    3    0  503  0.45609764798E+01  0.20913712334E+02  0.11764691295E+03  0.11958509479E+03  0.12700000000E+01 0. -1.
         -2    1    1    2    0  502  0.75126522792E+02  0.58335823836E+02  0.37642222057E+03  0.38825346220E+03  0.00000000000E+00 0.  1.
         -1    1    1    2    0  501 -0.36951392510E+02  0.50065585373E+01 -0.87118711771E+01  0.38293181328E+02  0.00000000000E+00 0.  1.
<mgrwt>
<rscale>  0 0.58008804E+02</rscale>
<asrwt>0</asrwt>
<pdfrwt beam="2">  1       -2 0.83506879E-02 0.37289020E+02</pdfrwt>
<pdfrwt beam="1">  1       -1 0.93716047E-01 0.90241612E+02</pdfrwt>
<totfact> 0.68280514E+02</totfact>
</mgrwt>
</event>
<event>
 7    1  0.6493044E-004  0.5003917E+02  0.7546771E-02  0.1484597E+00
          2   -1    0    0  503    0  0.00000000000E+00  0.00000000000E+00  0.26945589219E+02  0.26945589219E+02  0.00000000000E+00 0. -1.
          1   -1    0    0  502    0 -0.00000000000E+00 -0.00000000000E+00 -0.14500076175E+04  0.14500076175E+04  0.00000000000E+00 0. -1.
         25    2    1    2    0    0 -0.98582214478E+01 -0.32687917795E+02 -0.21975870717E+03  0.25511577289E+03  0.12499793479E+03 0.  0.
          4    1    3    3  501    0  0.22804967973E+02 -0.40702834054E+02 -0.21630465199E+03  0.22128285663E+03  0.12700000000E+01 0.  1.
         -4    1    3    3    0  501 -0.32663189421E+02  0.80149162595E+01 -0.34540551812E+01  0.33832916265E+02  0.12700000000E+01 0.  1.
          2    1    1    2  502    0  0.30176171111E+02 -0.22495362650E+02 -0.11156572372E+04  0.11162919481E+04  0.00000000000E+00 0. -1.
          1    1    1    2  503    0 -0.20317949663E+02  0.55183280445E+02 -0.87646083975E+02  0.10554548572E+03  0.00000000000E+00 0. -1.
<mgrwt>
<rscale>  0 0.43398043E+02</rscale>
<asrwt>0</asrwt>
<pdfrwt beam="1">  1        2 0.41454749E-02 0.50039174E+02</pdfrwt>
<pdfrwt beam="2">  1        1 0.22307811E+00 0.37638314E+02</pdfrwt>
<totfact> 0.21674121E+03</totfact>
</mgrwt>
</event>
<event>
 7    1  0.6493044E-004  0.3483354E+02  0.7546771E-02  0.1624264E+00
         -2   -1    0    0    0  501  0.00000000000E+00  0.00000000000E+00  0.18553623868E+02  0.18553623868E+02  0.00000000000E+00 0.  1.
         -1   -1    0    0    0  502 -0.00000000000E+00 -0.00000000000E+00 -0.14402355703E+04  0.14402355703E+04  0.00000000000E+00 0.  1.
         25    2    1    2    0    0 -0.22465865130E+02 -0.36042852615E+01 -0.10676401551E+04  0.10751732594E+04  0.12499732430E+03 0.  0.
          4    1    3    3  503    0  0.88337297072E+01  0.27298937676E+02 -0.93467297312E+03  0.93511413547E+03  0.12700000000E+01 0.  1.
         -4    1    3    3    0  503 -0.31299594837E+02 -0.30903222937E+02 -0.13296718195E+03  0.14005912395E+03  0.12700000000E+01 0.  1.
         -2    1    1    2    0  502 -0.15741779195E+01 -0.22065807648E+02 -0.34705506216E+03  0.34775939106E+03  0.00000000000E+00 0.  1.
         -1    1    1    2    0  501  0.24040043049E+02  0.25670092909E+02 -0.69867291978E+01  0.35856543680E+02  0.00000000000E+00 0.  1.
<mgrwt>
<rscale>  0 0.27759388E+02</rscale>
<asrwt>0</asrwt>
<pdfrwt beam="1">  1       -2 0.28544038E-02 0.34833538E+02</pdfrwt>
<pdfrwt beam="2">  1       -1 0.22157470E+00 0.22121887E+02</pdfrwt>
<totfact> 0.40478417E+02</totfact>
</mgrwt>
</event>
<event>
 7    1  0.6493044E-004  0.1683480E+03  0.7546771E-02  0.1216835E+00
         -2   -1    0    0    0  501 -0.00000000000E+00  0.00000000000E+00  0.99203701832E+03  0.99203701832E+03  0.00000000000E+00 0.  1.
          2   -1    0    0  503    0  0.00000000000E+00 -0.00000000000E+00 -0.14151359339E+04  0.14151359339E+04  0.00000000000E+00 0. -1.
         25    2    1    2    0    0  0.10849526306E+03 -0.91830466954E+02  0.40052908980E+03  0.44300173811E+03  0.12499172545E+03 0.  0.
          4    1    3    3  502    0  0.72975975558E+02 -0.92184649881E+02  0.15314077621E+03  0.19307307663E+03  0.12700000000E+01 0. -1.
         -4    1    3    3    0  502  0.35519287501E+02  0.35418292738E+00  0.24738831359E+03  0.24992866148E+03  0.12700000000E+01 0. -1.
          1    1    1    2  503    0 -0.16907227006E+03 -0.25925820769E+01 -0.13831834590E+04  0.13934807624E+04  0.00000000000E+00 0. -1.
         -3    1    1    2    0  501  0.60577007002E+02  0.94423049031E+02  0.55955545362E+03  0.57069045168E+03  0.00000000000E+00 0.  1.
<mgrwt>
<rscale>  0 0.13742626E+03</rscale>
<asrwt>0</asrwt>
<pdfrwt beam="2">  1        2 0.21771322E+00 0.16834798E+03</pdfrwt>
<pdfrwt beam="1">  1       -2 0.15262108E+00 0.11218416E+03</pdfrwt>
<totfact> 0.50636392E+00</totfact>
</mgrwt>
</event>
<event>
 7    1  0.6493044E-004  0.1437571E+03  0.7546771E-02  0.1352011E+00
          2   -1    0    0  503    0  0.00000000000E+00  0.00000000000E+00  0.19682570265E+03  0.19682570265E+03  0.00000000000E+00 0. -1.
         -2   -1    0    0    0  501 -0.00000000000E+00 -0.00000000000E+00 -0.46768465585E+03  0.46768465585E+03  0.00000000000E+00 0.  1.
         25    2    1    2    0    0  0.90424700603E+01  0.17181980757E+03 -0.12950044581E+03  0.24899549560E+03  0.12499831528E+03 0.  0.
          4    1    3    3  502    0 -0.28917468512E+02  0.13813559971E+03 -0.41003243215E+02  0.14697123102E+03  0.12700000000E+01 0. -1.
         -4    1    3    3    0  502  0.37959938572E+02  0.33684207861E+02 -0.88497202594E+02  0.10202426458E+03  0.12700000000E+01 0. -1.
          1    1    1    2  503    0  0.21232957833E+01 -0.36433758617E+02  0.11757557027E+03  0.12310947111E+03  0.00000000000E+00 0. -1.
         -3    1    1    2    0  501 -0.11165765844E+02 -0.13538604896E+03 -0.25893407766E+03  0.29240539180E+03  0.00000000000E+00 0.  1.
<mgrwt>
<rscale>  0 0.72432727E+02</rscale>
<asrwt>0</asrwt>
<pdfrwt beam="1">  1        2 0.30280878E-01 0.36495577E+02</pdfrwt>
<pdfrwt beam="2">  1       -2 0.71951484E-01 0.14375714E+03</pdfrwt>
<totfact> 0.30291250E+02</totfact>
</mgrwt>
</event>
<event>
 7    1  0.6493044E-004  0.1000027E+03  0.7546771E-02  0.1303117E+00
          1   -1    0    0  503    0  0.00000000000E+00  0.00000000000E+00  0.11863797629E+04  0.11863797629E+04  0.00000000000E+00 0. -1.
         -1   -1    0    0    0  501 -0.00000000000E+00 -0.00000000000E+00 -0.39242596294E+02  0.39242596294E+02  0.00000000000E+00 0.  1.
         25    2    1    2    0    0  0.21211582043E+02 -0.34919503459E+02  0.33692408642E+03  0.36167848708E+03  0.12499674026E+03 0.  0.
          4    1    3    3  502    0 -0.34257365157E+02 -0.18989748222E+02  0.27197764784E+03  0.27478651974E+03  0.12700000000E+01 0. -1.
         -4    1    3    3    0  502  0.55468947200E+02 -0.15929755237E+02  0.64946438575E+02  0.86891967344E+02  0.12700000000E+01 0. -1.
          2    1    1    2  503    0  0.72825863344E+02  0.68941472010E+02  0.72689756091E+03  0.73378239076E+03  0.00000000000E+00 0. -1.
         -2    1    1    2    0  501 -0.94037445387E+02 -0.34021968551E+02  0.83315519332E+02  0.13016148140E+03  0.00000000000E+00 0.  1.
<mgrwt>
<rscale>  0 0.89890640E+02</rscale>
<asrwt>0</asrwt>
<pdfrwt beam="1">  1        1 0.18251994E+00 0.80801108E+02</pdfrwt>
<pdfrwt beam="2">  1       -1 0.60373234E-02 0.10000268E+03</pdfrwt>
<totfact> 0.15706857E+03</totfact>
</mgrwt>
</event>
<event>
 7    1  0.6493044E-004  0.9904873E+02  0.7546771E-02  0.1319427E+00
          1   -1    0    0  503    0  0.00000000000E+00  0.00000000000E+00  0.43501954025E+03  0.43501954025E+03  0.00000000000E+00 0. -1.
         -1   -1    0    0    0  501 -0.00000000000E+00 -0.00000000000E+00 -0.50935932716E+03  0.50935932716E+03  0.00000000000E+00 0.  1.
         25    2    1    2    0    0  0.15293605892E+02  0.94216872297E+02 -0.30259513728E+03  0.34102809284E+03  0.12500251835E+03 0.  0.
          4    1    3    3  502    0  0.36348060568E+01 -0.30494588195E+02 -0.43758070451E+02  0.53474417752E+02  0.12700000000E+01 0. -1.
         -4    1    3    3    0  502  0.11658799835E+02  0.12471146049E+03 -0.25883706683E+03  0.28755367509E+03  0.12700000000E+01 0. -1.
          2    1    1    2  503    0 -0.77885194049E+02 -0.62042637107E+02  0.40291935746E+03  0.41504144478E+03  0.00000000000E+00 0. -1.
         -2    1    1    2    0  501  0.62591588157E+02 -0.32174235190E+02 -0.17466400707E+03  0.18830932979E+03  0.00000000000E+00 0.  1.
<mgrwt>
<rscale>  0 0.83490889E+02</rscale>
<asrwt>0</asrwt>
<pdfrwt beam="1">  1        1 0.66926083E-01 0.99048729E+02</pdfrwt>
<pdfrwt beam="2">  1       -1 0.78362974E-01 0.70376760E+02</pdfrwt>
<totfact> 0.99085470E+01</totfact>
</mgrwt>
</event>
<event>
 7    1  0.6493044E-004  0.2338189E+03  0.7546771E-02  0.1206520E+00
          2   -1    0    0  503    0  0.00000000000E+00  0.00000000000E+00  0.23257604010E+04  0.23257604010E+04  0.00000000000E+00 0. -1.
          1   -1    0    0  502    0 -0.00000000000E+00 -0.00000000000E+00 -0.86325835285E+03  0.86325835285E+03  0.00000000000E+00 0. -1.
         25    2    1    2    0    0 -0.22241345454E+03  0.14834096845E+03 -0.39032215624E+02  0.29769298939E+03  0.12499925757E+03 0.  0.
          4    1    3    3  501    0 -0.33197071681E+02 -0.17059720324E+02 -0.27002589742E+02  0.46085055913E+02  0.12700000000E+01 0.  1.
         -4    1    3    3    0  501 -0.18921638286E+03  0.16540068877E+03 -0.12029625881E+02  0.25160793347E+03  0.12700000000E+01 0.  1.
          2    1    1    2  502    0  0.81902169564E+02  0.37664790116E+02 -0.68575224806E+03  0.69165218680E+03  0.00000000000E+00 0. -1.
          1    1    1    2  503    0  0.14051128498E+03 -0.18600575856E+03  0.21872865119E+04  0.21996735777E+04  0.00000000000E+00 0. -1.
<mgrwt>
<rscale>  0 0.14518344E+03</rscale>
<asrwt>0</asrwt>
<pdfrwt beam="1">  1        2 0.35780929E+00 0.23381893E+03</pdfrwt>
<pdfrwt beam="2">  1        1 0.13280898E+00 0.90147667E+02</pdfrwt>
<totfact> 0.15146314E+01</totfact>
</mgrwt>
</event>
<event>
 7    1  0.6493044E-004  0.4418197E+02  0.7546771E-02  0.1564607E+00
          2   -1    0    0  503    0  0.00000000000E+00  0.00000000000E+00  0.23040707389E+04  0.23040707389E+04  0.00000000000E+00 0. -1.
          1   -1    0    0  502    0 -0.00000000000E+00 -0.00000000000E+00 -0.52487234299E+03  0.52487234299E+03  0.00000000000E+00 0. -1.
         25    2    1    2    0    0 -0.55421909191E+02  0.39105357681E+02  0.46026524677E+03  0.48173751334E+03  0.12500446936E+03 0.  0.
          4    1    3    3  501    0  0.37833719244E+02  0.29456880104E+02  0.13730170174E+03  0.14543888166E+03  0.12700000000E+01 0.  1.
         -4    1    3    3    0  501 -0.93255628435E+02  0.96484775773E+01  0.32296354503E+03  0.33629863168E+03  0.12700000000E+01 0.  1.
          2    1    1    2  502    0  0.39423985418E+02 -0.19842557546E+02 -0.51310328805E+03  0.51499802128E+03  0.00000000000E+00 0. -1.
          1    1    1    2  503    0  0.15997923774E+02 -0.19262800135E+02  0.18320364372E+04  0.18322075473E+04  0.00000000000E+00 0. -1.
<mgrwt>
<rscale>  0 0.33261172E+02</rscale>
<asrwt>0</asrwt>
<pdfrwt beam="1">  1        2 0.35447242E+00 0.25039749E+02</pdfrwt>
<pdfrwt beam="2">  1        1 0.80749593E-01 0.44181974E+02</pdfrwt>
<totfact> 0.42421912E+01</totfact>
</mgrwt>
</event>
<event>
 7    1  0.6493044E-004  0.1034929E+03  0.7546771E-02  0.1315175E+00
          1   -1    0    0  503    0  0.00000000000E+00  0.00000000000E+00  0.15065349947E+04  0.15065349947E+04  0.00000000000E+00 0. -1.
         -3   -1    0    0    0  501 -0.00000000000E+00 -0.00000000000E+00 -0.12009043211E+03  0.12009043211E+03  0.00000000000E+00 0.  1.
         25    2    1    2    0    0 -0.68515561393E+01 -0.56217351990E+02  0.50207759923E+03  0.52049358083E+03  0.12499727017E+03 0.  0.
          4    1    3    3  502    0 -0.14493624006E+02 -0.10943591819E+02  0.20045301903E+01  0.18315522925E+02  0.12700000000E+01 0. -1.
         -4    1    3    3    0  502  0.76420678670E+01 -0.45273760171E+02  0.50007306904E+03  0.50217805790E+03  0.12700000000E+01 0. -1.
          2    1    1    2  503    0 -0.66902947322E+02 -0.20499993781E+02  0.96815818086E+03  0.97068353096E+03  0.00000000000E+00 0. -1.
         -2    1    1    2    0  501  0.73754503461E+02  0.76717345770E+02 -0.83791217474E+02  0.13544831505E+03  0.00000000000E+00 0.  1.
<mgrwt>
<rscale>  0 0.85098370E+02</rscale>
<asrwt>0</asrwt>
<pdfrwt beam="1">  1        1 0.23177460E+00 0.69973238E+02</pdfrwt>
<pdfrwt beam="2">  1       -3 0.18475452E-01 0.10349289E+03</pdfrwt>
<totfact> 0.10702772E+02</totfact>
</mgrwt>
</event>
<event>
 7    1  0.6493044E-004  0.9055767E+02  0.7546771E-02  0.1437693E+00
          2   -1    0    0  503    0  0.00000000000E+00  0.00000000000E+00  0.15353204348E+04  0.15353204348E+04  0.00000000000E+00 0. -1.
          1   -1    0    0  502    0 -0.00000000000E+00 -0.00000000000E+00 -0.13798394463E+04  0.13798394463E+04  0.00000000000E+00 0. -1.
         25    2    1    2    0    0  0.71634777784E+01  0.61345079565E+02 -0.10885267940E+04  0.10974195132E+04  0.12499788994E+03 0.  0.
          4    1    3    3  501    0 -0.61671433262E+01  0.95608251054E+02 -0.60982838027E+03  0.61730967723E+03  0.12700000000E+01 0.  1.
         -4    1    3    3    0  501  0.13330621105E+02 -0.34263171489E+02 -0.47869841376E+03  0.48010983599E+03  0.12700000000E+01 0.  1.
          2    1    1    2  502    0 -0.24401281111E+01  0.29124862181E+02 -0.28477744058E+03  0.28627330033E+03  0.00000000000E+00 0. -1.
          1    1    1    2  503    0 -0.47233496674E+01 -0.90469941746E+02  0.15287852231E+04  0.15314670675E+04  0.00000000000E+00 0. -1.
<mgrwt>
<rscale>  0 0.51446286E+02</rscale>
<asrwt>0</asrwt>
<pdfrwt beam="1">  1        2 0.23620314E+00 0.90557675E+02</pdfrwt>
<pdfrwt beam="2">  1        1 0.21228299E+00 0.29226902E+02</pdfrwt>
<totfact> 0.20731472E+01</totfact>
</mgrwt>
</event>
<event>
 7    1  0.6493044E-004  0.1062733E+03  0.7546771E-02  0.1273078E+00
          2   -1    0    0  503    0  0.00000000000E+00  0.00000000000E+00  0.97527134742E+03  0.97527134742E+03  0.00000000000E+00 0. -1.
         -2   -1    0    0    0  501 -0.00000000000E+00 -0.00000000000E+00 -0.12181866607E+04  0.12181866607E+04  0.00000000000E+00 0.  1.
         25    2    1    2    0    0  0.14742029535E+03  0.86913822883E+02 -0.12981873627E+03  0.24852464357E+03  0.12499935233E+03 0.  0.
          4    1    3    3  502    0  0.85580565806E+01  0.71409410321E+02 -0.38327080359E+02  0.81505350767E+02  0.12700000000E+01 0.  1.
         -4    1    3    3    0  502  0.13886223877E+03  0.15504412562E+02 -0.91491655908E+02  0.16701929280E+03  0.12700000000E+01 0.  1.
          1    1    1    2  503    0 -0.10061196853E+03  0.65339974024E+01  0.91047457260E+03  0.91604006936E+03  0.00000000000E+00 0. -1.
         -1    1    1    2    0  501 -0.46808326828E+02 -0.93447820285E+02 -0.10235711496E+04  0.10288932952E+04  0.00000000000E+00 0.  1.
<mgrwt>
<rscale>  0 0.10351273E+03</rscale>
<asrwt>0</asrwt>
<pdfrwt beam="1">  1        2 0.15004175E+00 0.10082391E+03</pdfrwt>
<pdfrwt beam="2">  1       -2 0.18741333E+00 0.10627326E+03</pdfrwt>
<totfact> 0.53439095E+00</totfact>
</mgrwt>
</event>
<event>
 7    1  0.6493044E-004  0.8298569E+02  0.7546771E-02  0.1433173E+00
          2   -1    0    0  503    0  0.00000000000E+00  0.00000000000E+00  0.20996929861E+03  0.20996929861E+03  0.00000000000E+00 0. -1.
         -2   -1    0    0    0  501 -0.00000000000E+00 -0.00000000000E+00 -0.38927804547E+03  0.38927804547E+03  0.00000000000E+00 0.  1.
         25    2    1    2    0    0 -0.49845060143E+02  0.17682343188E+02 -0.15819870370E+03  0.20843937178E+03  0.12499178602E+03 0.  0.
          4    1    3    3  502    0 -0.34482639066E+02 -0.10707581371E+02  0.97422075948E+01  0.37419623256E+02  0.12700000000E+01 0.  1.
         -4    1    3    3    0  502 -0.15362421077E+02  0.28389924559E+02 -0.16794091130E+03  0.17101974853E+03  0.12700000000E+01 0.  1.
          1    1    1    2  503    0  0.82838715082E+02 -0.17234153453E+02  0.17370583906E+03  0.19321746113E+03  0.00000000000E+00 0. -1.
         -1    1    1    2    0  501 -0.32993654939E+02 -0.44818973481E+00 -0.19481588222E+03  0.19759051117E+03  0.00000000000E+00 0.  1.
<mgrwt>
<rscale>  0 0.52328326E+02</rscale>
<asrwt>0</asrwt>
<pdfrwt beam="1">  1        2 0.32302970E-01 0.82985687E+02</pdfrwt>
<pdfrwt beam="2">  1       -2 0.59888929E-01 0.32996699E+02</pdfrwt>
<totfact> 0.42691353E+02</totfact>
</mgrwt>
</event>
<event>
 7    1  0.6493044E-004  0.1076881E+03  0.7546771E-02  0.1349906E+00
          1   -1    0    0  502    0 -0.00000000000E+00  0.00000000000E+00  0.70550911583E+02  0.70550911583E+02  0.00000000000E+00 0. -1.
          2   -1    0    0  503    0  0.00000000000E+00 -0.00000000000E+00 -0.10059409748E+04  0.10059409748E+04  0.00000000000E+00 0. -1.
         25    2    1    2    0    0 -0.11674359852E+03  0.11543567551E+02 -0.43541546200E+03  0.46793570385E+03  0.12495950000E+03 0.  0.
          4    1    3    3  501    0 -0.88807010236E+02  0.25636448846E+02 -0.12254436185E+03  0.15350129022E+03  0.12700000000E+01 0.  1.
         -4    1    3    3    0  501 -0.27936588287E+02 -0.14092881296E+02 -0.31287110014E+03  0.31443441363E+03  0.12700000000E+01 0.  1.
          2    1    1    2  502    0  0.92659189243E+02 -0.54904649938E+02 -0.15968622290E+01  0.10771627502E+03  0.00000000000E+00 0. -1.
          1    1    1    2  503    0  0.24084409280E+02  0.43361082388E+02 -0.49837773897E+03  0.50083990749E+03  0.00000000000E+00 0. -1.
<mgrwt>
<rscale>  0 0.73085014E+02</rscale>
<asrwt>0</asrwt>
<pdfrwt beam="2">  1        2 0.15476016E+00 0.49600829E+02</pdfrwt>
<pdfrwt beam="1">  1        1 0.10853986E-01 0.10768810E+03</pdfrwt>
<totfact> 0.21047075E+03</totfact>
</mgrwt>
</event>
<event>
 7    1  0.6493044E-004  0.9106803E+02  0.7546771E-02  0.1436476E+00
          1   -1    0    0  503    0  0.00000000000E+00  0.00000000000E+00  0.20230863305E+03  0.20230863305E+03  0.00000000000E+00 0. -1.
         -1   -1    0    0    0  501 -0.00000000000E+00 -0.00000000000E+00 -0.14383694166E+03  0.14383694166E+03  0.00000000000E+00 0.  1.
         25    2    1    2    0    0  0.58848758122E+02  0.37115465496E+02  0.30994839871E+02  0.14637745583E+03  0.12499978146E+03 0.  0.
          4    1    3    3  502    0  0.36811461895E+02 -0.24857345359E+02 -0.32417649053E+02  0.55004438142E+02  0.12700000000E+01 0. -1.
         -4    1    3    3    0  502  0.22037296226E+02  0.61972810855E+02  0.63412488924E+02  0.91373017690E+02  0.12700000000E+01 0. -1.
          2    1    1    2  503    0  0.19541186991E+02  0.21871798999E+02  0.82310174405E+02  0.87379622287E+02  0.00000000000E+00 0. -1.
         -2    1    1    2    0  501 -0.78389945113E+02 -0.58987264496E+02 -0.54833322889E+02  0.11238849659E+03  0.00000000000E+00 0.  1.
<mgrwt>
<rscale>  0 0.51681734E+02</rscale>
<asrwt>0</asrwt>
<pdfrwt beam="1">  1        1 0.31124405E-01 0.29329739E+02</pdfrwt>
<pdfrwt beam="2">  1       -1 0.22128760E-01 0.91068035E+02</pdfrwt>
<totfact> 0.22943561E+03</totfact>
</mgrwt>
</event>
<event>
 7    1  0.6493044E-004  0.6987799E+02  0.7546771E-02  0.1452087E+00
          2   -1    0    0  503    0  0.00000000000E+00  0.00000000000E+00  0.87807105516E+03  0.87807105516E+03  0.00000000000E+00 0. -1.
          1   -1    0    0  502    0 -0.00000000000E+00 -0.00000000000E+00 -0.16954324236E+04  0.16954324236E+04  0.00000000000E+00 0. -1.
         25    2    1    2    0    0  0.69895633026E+02  0.75044892466E+02 -0.26862794135E+02  0.16389697496E+03  0.12499389301E+03 0.  0.
          4    1    3    3  501    0  0.18696379422E+02  0.72021296839E+02 -0.65920741750E+02  0.99417196172E+02  0.12700000000E+01 0. -1.
         -4    1    3    3    0  501  0.51199253604E+02  0.30235956268E+01  0.39057947615E+02  0.64479778784E+02  0.12700000000E+01 0. -1.
          2    1    1    2  502    0 -0.52109741418E+02 -0.46022036927E+02 -0.15989390242E+04  0.16004497668E+04  0.00000000000E+00 0. -1.
          3    1    1    2  503    0 -0.17785891608E+02 -0.29022855539E+02  0.80844044986E+03  0.80915673701E+03  0.00000000000E+00 0. -1.
<mgrwt>
<rscale>  0 0.48770767E+02</rscale>
<asrwt>0</asrwt>
<pdfrwt beam="1">  1        2 0.13508785E+00 0.34039155E+02</pdfrwt>
<pdfrwt beam="2">  1        1 0.26083576E+00 0.69877988E+02</pdfrwt>
<totfact> 0.28940504E+01</totfact>
</mgrwt>
</event>
<event>
 7    1  0.6493044E-004  0.4820750E+02  0.7546771E-02  0.1575284E+00
          2   -1    0    0  503    0  0.00000000000E+00  0.00000000000E+00  0.19066639482E+03  0.19066639482E+03  0.00000000000E+00 0. -1.
          1   -1    0    0  502    0 -0.00000000000E+00 -0.00000000000E+00 -0.38044781692E+03  0.38044781692E+03  0.00000000000E+00 0. -1.
         25    2    1    2    0    0  0.38130807718E+02  0.10938984035E+02 -0.71084184286E+02  0.14917235801E+03  0.12500324503E+03 0.  0.
          4    1    3    3  501    0 -0.21511735153E+02 -0.43794222723E+02 -0.37373063998E+02  0.61473957948E+02  0.12700000000E+01 0. -1.
         -4    1    3    3    0  501  0.59642542871E+02  0.54733206757E+02 -0.33711120288E+02  0.87698400060E+02  0.12700000000E+01 0. -1.
          2    1    1    2  502    0  0.98285321612E+01 -0.19083717493E+02 -0.26597411721E+03  0.26683893896E+03  0.00000000000E+00 0. -1.
          1    1    1    2  503    0 -0.47959339879E+02  0.81447334585E+01  0.14727687940E+03  0.15510291478E+03  0.00000000000E+00 0. -1.
<mgrwt>
<rscale>  0 0.32168639E+02</rscale>
<asrwt>0</asrwt>
<pdfrwt beam="1">  1        2 0.29333292E-01 0.48207504E+02</pdfrwt>
<pdfrwt beam="2">  1        1 0.58530433E-01 0.21465980E+02</pdfrwt>
<totfact> 0.15484533E+03</totfact>
</mgrwt>
</event>
<event>
 7    1  0.6493044E-004  0.6945007E+02  0.7546771E-02  0.1502204E+00
          2   -1    0    0  503    0  0.00000000000E+00  0.00000000000E+00  0.77027551171E+03  0.77027551171E+03  0.00000000000E+00 0. -1.
         -2   -1    0    0    0  501 -0.00000000000E+00 -0.00000000000E+00 -0.17118258677E+03  0.17118258677E+03  0.00000000000E+00 0.  1.
         25    2    1    2    0    0  0.41707253759E+02 -0.21118467849E+02  0.92300475349E+02  0.16226406850E+03  0.12499906190E+03 0.  0.
          4    1    3    3  502    0  0.53422647316E+02  0.22753974319E+02  0.10052564343E+03  0.11609797794E+03  0.12700000000E+01 0. -1.
         -4    1    3    3    0  502 -0.11715393557E+02 -0.43872442168E+02 -0.82251680812E+01  0.46166090564E+02  0.12700000000E+01 0. -1.
          1    1    1    2  503    0 -0.62335128527E+02  0.33389763764E+02  0.63997297170E+03  0.64386795935E+03  0.00000000000E+00 0. -1.
         -1    1    1    2    0  501  0.20627874768E+02 -0.12271295914E+02 -0.13318052212E+03  0.13532607063E+03  0.00000000000E+00 0.  1.
<mgrwt>
<rscale>  0 0.40828146E+02</rscale>
<asrwt>0</asrwt>
<pdfrwt beam="1">  1        2 0.11850392E+00 0.69450066E+02</pdfrwt>
<pdfrwt beam="2">  1       -2 0.26335783E-01 0.24001957E+02</pdfrwt>
<totfact> 0.47161796E+02</totfact>
</mgrwt>
</event>
<event>
 7    1  0.6493044E-004  0.5965623E+02  0.7546771E-02  0.1452313E+00
         -1   -1    0    0    0  501 -0.00000000000E+00  0.00000000000E+00  0.93121599034E+03  0.93121599034E+03  0.00000000000E+00 0.  1.
          1   -1    0    0  503    0  0.00000000000E+00 -0.00000000000E+00 -0.12446183140E+03  0.12446183140E+03  0.00000000000E+00 0. -1.
         25    2    1    2    0    0 -0.18261878524E+02  0.37349251861E+02  0.13973274919E+03  0.19204000217E+03  0.12500263363E+03 0.  0.
          4    1    3    3  502    0  0.49302882733E+02 -0.60989465192E+00  0.30120891471E+02  0.57792968606E+02  0.12700000000E+01 0. -1.
         -4    1    3    3    0  502 -0.67564761257E+02  0.37959146513E+02  0.10961185772E+03  0.13424703356E+03  0.12700000000E+01 0. -1.
          2    1    1    2  503    0  0.33371541543E+02  0.21697877478E+02 -0.93008272416E+02  0.10116815907E+03  0.00000000000E+00 0. -1.
         -2    1    1    2    0  501 -0.15109663020E+02 -0.59047129340E+02  0.76002968218E+03  0.76246966050E+03  0.00000000000E+00 0.  1.
<mgrwt>
<rscale>  0 0.48730187E+02</rscale>
<asrwt>0</asrwt>
<pdfrwt beam="2">  1        1 0.19147975E-01 0.39805247E+02</pdfrwt>
<pdfrwt beam="1">  1       -1 0.14326399E+00 0.59656234E+02</pdfrwt>
<totfact> 0.11873791E+02</totfact>
</mgrwt>
</event>
<event>
 7    1  0.6493044E-004  0.4632710E+02  0.7546771E-02  0.1485590E+00
         -2   -1    0    0    0  501 -0.00000000000E+00  0.00000000000E+00  0.19510331761E+03  0.19510331761E+03  0.00000000000E+00 0.  1.
          2   -1    0    0  503    0  0.00000000000E+00 -0.00000000000E+00 -0.35200542509E+04  0.35200542509E+04  0.00000000000E+00 0. -1.
         25    2    1    2    0    0 -0.45020346363E+02  0.62487256822E+02 -0.52864586731E+03  0.54865580163E+03  0.12500098718E+03 0.  0.
          4    1    3    3  502    0  0.12981705061E+01 -0.28373487486E+02 -0.25570479554E+03  0.25728057720E+03  0.12700000000E+01 0.  1.
         -4    1    3    3    0  502 -0.46318516870E+02  0.90860744308E+02 -0.27294107176E+03  0.29137522444E+03  0.12700000000E+01 0.  1.
          1    1    1    2  503    0  0.36589938803E+02 -0.17061091205E+02 -0.29783814059E+04  0.29786550159E+04  0.00000000000E+00 0. -1.
         -1    1    1    2    0  501  0.84304075607E+01 -0.45426165618E+02  0.18207633994E+03  0.18784675100E+03  0.00000000000E+00 0.  1.
<mgrwt>
<rscale>  0 0.43247208E+02</rscale>
<asrwt>0</asrwt>
<pdfrwt beam="2">  1        2 0.54154675E+00 0.40372075E+02</pdfrwt>
<pdfrwt beam="1">  1       -2 0.30015898E-01 0.46327096E+02</pdfrwt>
<totfact> 0.14047583E+01</totfact>
</mgrwt>
</event>
<event>
 7    1  0.6493044E-004  0.9830478E+02  0.7546771E-02  0.1316256E+00
          1   -1    0    0  502    0 -0.00000000000E+00  0.00000000000E+00  0.27054163180E+03  0.27054163180E+03  0.00000000000E+00 0. -1.
          2   -1    0    0  503    0  0.00000000000E+00 -0.00000000000E+00 -0.15291732112E+04  0.15291732112E+04  0.00000000000E+00 0. -1.
         25    2    1    2    0    0 -0.26115868211E+02 -0.15570904242E+03 -0.39619302093E+03  0.44443402565E+03  0.12500139543E+03 0.  0.
          4    1    3    3  501    0 -0.79122629463E+01 -0.59724468042E+02 -0.30462634317E+03  0.31052928660E+03  0.12700000000E+01 0.  1.
         -4    1    3    3    0  501 -0.18203605264E+02 -0.95984574374E+02 -0.91566677762E+02  0.13390473904E+03  0.12700000000E+01 0.  1.
          2    1    1    2  502    0  0.46031528616E+02  0.85526149350E+02  0.23559281197E+03  0.25482856374E+03  0.00000000000E+00 0. -1.
          3    1    1    2  503    0 -0.19915660405E+02  0.70182893066E+02 -0.10980313705E+04  0.11004522537E+04  0.00000000000E+00 0. -1.
<mgrwt>
<rscale>  0 0.84685994E+02</rscale>
<asrwt>0</asrwt>
<pdfrwt beam="2">  1        2 0.23525741E+00 0.72953903E+02</pdfrwt>
<pdfrwt beam="1">  1        1 0.41621790E-01 0.98304781E+02</pdfrwt>
<totfact> 0.19945720E+02</totfact>
</mgrwt>
</event>
<event>
 7    1  0.6493044E-004  0.5998839E+02  0.7546771E-02  0.1439002E+00
          1   -1    0    0  502    0 -0.00000000000E+00  0.00000000000E+00  0.37666477914E+03  0.37666477914E+03  0.00000000000E+00 0. -1.
          2   -1    0    0  503    0  0.00000000000E+00 -0.00000000000E+00 -0.47537114289E+03  0.47537114289E+03  0.00000000000E+00 0. -1.
         25    2    1    2    0    0 -0.43711724719E+02  0.55984959424E+02  0.24586397565E+03  0.28479862535E+03  0.12496452264E+03 0.  0.
          4    1    3    3  501    0 -0.45629319675E+02  0.83291336019E+02  0.23805732548E+03  0.25630525665E+03  0.12700000000E+01 0.  1.
         -4    1    3    3    0  501  0.19175949566E+01 -0.27306376595E+02  0.78066501697E+01  0.28493368703E+02  0.12700000000E+01 0.  1.
          2    1    1    2  502    0 -0.14461994168E+02 -0.41227132789E+02  0.10497474471E+03  0.11370366212E+03  0.00000000000E+00 0. -1.
          1    1    1    2  503    0  0.58173718887E+02 -0.14757826635E+02 -0.44954508412E+03  0.45353363455E+03  0.00000000000E+00 0. -1.
<mgrwt>
<rscale>  0 0.51194719E+02</rscale>
<asrwt>0</asrwt>
<pdfrwt beam="2">  1        2 0.73134022E-01 0.59988387E+02</pdfrwt>
<pdfrwt beam="1">  1        1 0.57948427E-01 0.43690110E+02</pdfrwt>
<totfact> 0.60977215E+02</totfact>
</mgrwt>
</event>
<event>
 7    1  0.6493044E-004  0.2032529E+03  0.7546771E-02  0.1241164E+00
         -2   -1    0    0    0  501 -0.00000000000E+00  0.00000000000E+00  0.85848533303E+03  0.85848533303E+03  0.00000000000E+00 0.  1.
          2   -1    0    0  503    0  0.00000000000E+00 -0.00000000000E+00 -0.15596815973E+04  0.15596815973E+04  0.00000000000E+00 0. -1.
         25    2    1    2    0    0 -0.72439204531E+02 -0.24369751673E+03  0.24962535783E+02  0.28440089425E+03  0.12499928978E+03 0.  0.
          4    1    3    3  502    0 -0.41824947981E+02 -0.22253570741E+03  0.58951271400E+02  0.23398361619E+03  0.12700000000E+01 0.  1.
         -4    1    3    3    0  502 -0.30614256550E+02 -0.21161809312E+02 -0.33988735617E+02  0.50417278053E+02  0.12700000000E+01 0.  1.
          1    1    1    2  503    0 -0.21340738295E+02  0.69023138437E+02 -0.14150606316E+04  0.14169037412E+04  0.00000000000E+00 0. -1.
         -1    1    1    2    0  501  0.93779942826E+02  0.17467437829E+03  0.68890183161E+03  0.71686229480E+03  0.00000000000E+00 0.  1.
<mgrwt>
<rscale>  0 0.12117920E+03</rscale>
<asrwt>0</asrwt>
<pdfrwt beam="2">  1        2 0.23995102E+00 0.72246943E+02</pdfrwt>
<pdfrwt beam="1">  1       -2 0.13207467E+00 0.20325287E+03</pdfrwt>
<totfact> 0.63905100E+00</totfact>
</mgrwt>
</event>
<event>
 7    1  0.6493044E-004  0.1471214E+03  0.7546771E-02  0.1264593E+00
          2   -1    0    0  503    0  0.00000000000E+00  0.00000000000E+00  0.44780938211E+03  0.44780938211E+03  0.00000000000E+00 0. -1.
          1   -1    0    0  502    0 -0.00000000000E+00 -0.00000000000E+00 -0.83374911704E+03  0.83374911704E+03  0.00000000000E+00 0. -1.
         25    2    1    2    0    0  0.12637896361E+03  0.39522906876E+02  0.25888297665E+02  0.18390975595E+03  0.12497556467E+03 0.  0.
          4    1    3    3  501    0  0.60588891173E+02  0.79466321056E+02  0.36101574132E+02  0.10625839482E+03  0.12700000000E+01 0. -1.
         -4    1    3    3    0  501  0.65790072442E+02 -0.39943414180E+02 -0.10213276467E+02  0.77651361124E+02  0.12700000000E+01 0. -1.
          2    1    1    2  502    0  0.23201140495E+02 -0.75589337457E+02 -0.73525098327E+03  0.73949039835E+03  0.00000000000E+00 0. -1.
          1    1    1    2  503    0 -0.14958010411E+03  0.36066430581E+02  0.32342295068E+03  0.35815834485E+03  0.00000000000E+00 0. -1.
<mgrwt>
<rscale>  0 0.10785576E+03</rscale>
<asrwt>0</asrwt>
<pdfrwt beam="1">  1        2 0.68893752E-01 0.14712138E+03</pdfrwt>
<pdfrwt beam="2">  1        1 0.12826909E+00 0.79069848E+02</pdfrwt>
<totfact> 0.22327632E+02</totfact>
</mgrwt>
</event>
<event>
 7    1  0.6493044E-004  0.7848117E+02  0.7546771E-02  0.1351484E+00
          2   -1    0    0  503    0  0.00000000000E+00  0.00000000000E+00  0.40484443966E+03  0.40484443966E+03  0.00000000000E+00 0. -1.
          1   -1    0    0  502    0 -0.00000000000E+00 -0.00000000000E+00 -0.48790585135E+03  0.48790585135E+03  0.00000000000E+00 0. -1.
         25    2    1    2    0    0  0.57142942315E+02 -0.45719164441E+02 -0.16651892345E+01  0.14486705641E+03  0.12501253267E+03 0.  0.
          4    1    3    3  501    0  0.23962238441E+02  0.43389843416E+02 -0.39964439014E+01  0.49743862402E+02  0.12700000000E+01 0.  1.
         -4    1    3    3    0  501  0.33180703873E+02 -0.89109007857E+02  0.23312546669E+01  0.95123194013E+02  0.12700000000E+01 0.  1.
          2    1    1    2  502    0 -0.78172638914E+02 -0.18053790786E+02 -0.40730336464E+03  0.41513001780E+03  0.00000000000E+00 0. -1.
          1    1    1    2  503    0  0.21029696599E+02  0.63772955227E+02  0.32590714219E+03  0.33275321679E+03  0.00000000000E+00 0. -1.
<mgrwt>
<rscale>  0 0.72595302E+02</rscale>
<asrwt>0</asrwt>
<pdfrwt beam="1">  1        2 0.62283760E-01 0.67150860E+02</pdfrwt>
<pdfrwt beam="2">  1        1 0.75062439E-01 0.78481167E+02</pdfrwt>
<totfact> 0.51969342E+02</totfact>
</mgrwt>
</event>
<event>
 7    1  0.6493044E-004  0.4456686E+02  0.7546771E-02  0.1510906E+00
          1   -1    0    0  502    0 -0.00000000000E+00  0.00000000000E+00  0.22803090942E+03  0.22803090942E+03  0.00000000000E+00 0. -1.
          2   -1    0    0  503    0  0.00000000000E+00 -0.00000000000E+00 -0.19653775015E+03  0.19653775015E+03  0.00000000000E+00 0. -1.
         25    2    1    2    0    0 -0.41140986311E+02 -0.58778998286E+02  0.30549646780E+02  0.14732683899E+03  0.12499746067E+03 0.  0.
          4    1    3    3  501    0 -0.44881052656E+02  0.11217434509E+02 -0.29613971060E+02  0.54943060584E+02  0.12700000000E+01 0. -1.
         -4    1    3    3    0  501  0.37400663449E+01 -0.69996432795E+02  0.60163617840E+02  0.92383778402E+02  0.12700000000E+01 0. -1.
          2    1    1    2  502    0  0.36037536698E+02  0.23899307424E+02  0.13336939428E+03  0.14020440891E+03  0.00000000000E+00 0. -1.
          3    1    1    2  503    0  0.51034496134E+01  0.34879690862E+02 -0.13242588178E+03  0.13703741167E+03  0.00000000000E+00 0. -1.
<mgrwt>
<rscale>  0 0.39636217E+02</rscale>
<asrwt>0</asrwt>
<pdfrwt beam="2">  1        2 0.30236577E-01 0.35251071E+02</pdfrwt>
<pdfrwt beam="1">  1        1 0.35081678E-01 0.44566864E+02</pdfrwt>
<totfact> 0.27243795E+03</totfact>
</mgrwt>
</event>
<event>
 7    1  0.6493044E-004  0.8265997E+02  0.7546771E-02  0.1416858E+00
          2   -1    0    0  503    0  0.00000000000E+00  0.00000000000E+00  0.67720958496E+03  0.67720958496E+03  0.00000000000E+00 0. -1.
         -2   -1    0    0    0  501 -0.00000000000E+00 -0.00000000000E+00 -0.13226421049E+03  0.13226421049E+03  0.00000000000E+00 0.  1.
         25    2    1    2    0    0  0.28561859216E+02 -0.83002514291E+02  0.14532734891E+03  0.21083261339E+03  0.12500062139E+03 0.  0.
          4    1    3    3  502    0  0.59544053205E+02 -0.96275310202E+02  0.13361912704E+03  0.17512884868E+03  0.12700000000E+01 0. -1.
         -4    1    3    3    0  502 -0.30982193989E+02  0.13272795911E+02  0.11708221861E+02  0.35703764714E+02  0.12700000000E+01 0. -1.
          1    1    1    2  503    0 -0.37516867421E+02  0.58570780648E+00  0.48100514307E+03  0.48246637816E+03  0.00000000000E+00 0. -1.
         -1    1    1    2    0  501  0.89550082048E+01  0.82416806485E+02 -0.81387117512E+02  0.11617480389E+03  0.00000000000E+00 0.  1.
<mgrwt>
<rscale>  0 0.55691300E+02</rscale>
<asrwt>0</asrwt>
<pdfrwt beam="1">  1        2 0.10418609E+00 0.37521439E+02</pdfrwt>
<pdfrwt beam="2">  1       -2 0.20348340E-01 0.82659967E+02</pdfrwt>
<totfact> 0.90898008E+02</totfact>
</mgrwt>
</event>
<event>
 7    1  0.6493044E-004  0.5674892E+02  0.7546771E-02  0.1459885E+00
          2   -1    0    0  503    0  0.00000000000E+00  0.00000000000E+00  0.58253251718E+03  0.58253251718E+03  0.00000000000E+00 0. -1.
          1   -1    0    0  502    0 -0.00000000000E+00 -0.00000000000E+00 -0.22090276594E+04  0.22090276594E+04  0.00000000000E+00 0. -1.
         25    2    1    2    0    0  0.89294738714E+02 -0.25939140677E+02 -0.21787365538E+02  0.15730293078E+03  0.12499253319E+03 0.  0.
          4    1    3    3  501    0  0.55132331349E+02  0.48346733476E+02 -0.30122410251E+01  0.73400729518E+02  0.12700000000E+01 0. -1.
         -4    1    3    3    0  501  0.34162407364E+02 -0.74285874154E+02 -0.18775124513E+02  0.83902201259E+02  0.12700000000E+01 0. -1.
          2    1    1    2  502    0 -0.39592777355E+02 -0.20816688934E+00 -0.21177651976E+04  0.21181352798E+04  0.00000000000E+00 0. -1.
          1    1    1    2  503    0 -0.49701961358E+02  0.26147307567E+02  0.51305742090E+03  0.51612196601E+03  0.00000000000E+00 0. -1.
<mgrwt>
<rscale>  0 0.47401251E+02</rscale>
<asrwt>0</asrwt>
<pdfrwt beam="1">  1        2 0.89620386E-01 0.56748925E+02</pdfrwt>
<pdfrwt beam="2">  1        1 0.33985041E+00 0.39593325E+02</pdfrwt>
<totfact> 0.23669356E+01</totfact>
</mgrwt>
</event>
<event>
 7    1  0.6493044E-004  0.6698769E+02  0.7546771E-02  0.1456013E+00
          1   -1    0    0  502    0 -0.00000000000E+00  0.00000000000E+00  0.56486464037E+03  0.56486464037E+03  0.00000000000E+00 0. -1.
          2   -1    0    0  503    0  0.00000000000E+00 -0.00000000000E+00 -0.36488436029E+03  0.36488436029E+03  0.00000000000E+00 0. -1.
         25    2    1    2    0    0 -0.87917894538E+02  0.47769568639E+02  0.20682504758E+03  0.26155950349E+03  0.12500114277E+03 0.  0.
          4    1    3    3  501    0  0.19604776336E+02  0.26842127333E+02  0.11146015330E+03  0.11631777907E+03  0.12700000000E+01 0.  1.
         -4    1    3    3    0  501 -0.10752267087E+03  0.20927441306E+02  0.95364894277E+02  0.14524172442E+03  0.12700000000E+01 0.  1.
          2    1    1    2  502    0  0.26585401438E+02 -0.21989552575E+02  0.32647598553E+03  0.32829391271E+03  0.00000000000E+00 0. -1.
          1    1    1    2  503    0  0.61332493100E+02 -0.25780016064E+02 -0.33332075303E+03  0.33989558446E+03  0.00000000000E+00 0. -1.
<mgrwt>
<rscale>  0 0.48074390E+02</rscale>
<asrwt>0</asrwt>
<pdfrwt beam="2">  1        2 0.56136055E-01 0.66987686E+02</pdfrwt>
<pdfrwt beam="1">  1        1 0.86902252E-01 0.34501072E+02</pdfrwt>
<totfact> 0.49078318E+02</totfact>
</mgrwt>
</event>
<event>
 7    1  0.6493044E-004  0.4704339E+02  0.7546771E-02  0.1516112E+00
          3   -1    0    0  502    0 -0.00000000000E+00  0.00000000000E+00  0.78687064961E+01  0.78687064961E+01  0.00000000000E+00 0. -1.
          2   -1    0    0  503    0  0.00000000000E+00 -0.00000000000E+00 -0.26261292579E+04  0.26261292579E+04  0.00000000000E+00 0. -1.
         25    2    1    2    0    0  0.48945252381E+02  0.46780102821E+02 -0.15237275718E+04  0.15303450345E+04  0.12500478247E+03 0.  0.
          4    1    3    3  501    0  0.59597129088E+01  0.77114307506E+02 -0.11882079718E+04  0.11907232809E+04  0.12700000000E+01 0.  1.
         -4    1    3    3    0  501  0.42985539473E+02 -0.30334204685E+02 -0.33551960003E+03  0.33962175355E+03  0.12700000000E+01 0.  1.
          2    1    1    2  502    0 -0.31771268541E+02 -0.54939042224E+01 -0.59667852907E+02  0.67822187806E+02  0.00000000000E+00 0. -1.
          1    1    1    2  503    0 -0.17173983841E+02 -0.41286198599E+02 -0.10348651267E+04  0.10358307421E+04  0.00000000000E+00 0. -1.
<mgrwt>
<rscale>  0 0.38946238E+02</rscale>
<asrwt>0</asrwt>
<pdfrwt beam="2">  1        2 0.40402060E+00 0.47043392E+02</pdfrwt>
<pdfrwt beam="1">  1        3 0.12105681E-02 0.32242774E+02</pdfrwt>
<totfact> 0.37728645E+03</totfact>
</mgrwt>
</event>
<event>
 7    1  0.6493044E-004  0.6310948E+02  0.7546771E-02  0.1422607E+00
         -1   -1    0    0    0  501 -0.00000000000E+00  0.00000000000E+00  0.31152321012E+02  0.31152321012E+02  0.00000000000E+00 0.  1.
          1   -1    0    0  503    0  0.00000000000E+00 -0.00000000000E+00 -0.61334882583E+03  0.61334882583E+03  0.00000000000E+00 0. -1.
         25    2    1    2    0    0  0.45181068860E+02  0.41396672518E+02 -0.18614751791E+03  0.23244307712E+03  0.12499548871E+03 0.  0.
          4    1    3    3  502    0  0.85183645584E+02  0.17561988228E+02 -0.87651071442E+02  0.12348684193E+03  0.12700000000E+01 0. -1.
         -4    1    3    3    0  502 -0.40002576724E+02  0.23834684290E+02 -0.98496446469E+02  0.10895623519E+03  0.12700000000E+01 0. -1.
          2    1    1    2  503    0 -0.50499866421E+01 -0.65896771123E+02 -0.25243301703E+03  0.26094120965E+03  0.00000000000E+00 0.  1.
         -2    1    1    2    0  501 -0.40131082218E+02  0.24500098605E+02 -0.14361596988E+03  0.15111686006E+03  0.00000000000E+00 0. -1.
<mgrwt>
<rscale>  0 0.54473168E+02</rscale>
<asrwt>0</asrwt>
<pdfrwt beam="2">  1        1 0.94361348E-01 0.63109480E+02</pdfrwt>
<pdfrwt beam="1">  1       -1 0.47926653E-02 0.47018705E+02</pdfrwt>
<totfact> 0.56792754E+03</totfact>
</mgrwt>
</event>
<event>
 7    1  0.6493044E-004  0.1167257E+03  0.7546771E-02  0.1329923E+00
          2   -1    0    0  503    0  0.00000000000E+00  0.00000000000E+00  0.11018151062E+04  0.11018151062E+04  0.00000000000E+00 0. -1.
          1   -1    0    0  502    0 -0.00000000000E+00 -0.00000000000E+00 -0.38893838331E+03  0.38893838331E+03  0.00000000000E+00 0. -1.
         25    2    1    2    0    0  0.38943730836E+01  0.14874933328E+03 -0.65440585752E+02  0.20504290399E+03  0.12497436505E+03 0.  0.
          4    1    3    3  501    0  0.50971320608E+01  0.16114974745E+03 -0.25568071437E+02  0.16324999552E+03  0.12700000000E+01 0. -1.
         -4    1    3    3    0  501 -0.12027589772E+01 -0.12400414171E+02 -0.39872514316E+02  0.41792908473E+02  0.12700000000E+01 0. -1.
          2    1    1    2  502    0  0.31602263733E+02 -0.10751225280E+03 -0.24056062324E+03  0.26538086033E+03  0.00000000000E+00 0. -1.
          1    1    1    2  503    0 -0.35496636817E+02 -0.41237080476E+02  0.10188779319E+04  0.10203297252E+04  0.00000000000E+00 0. -1.
<mgrwt>
<rscale>  0 0.79693840E+02</rscale>
<asrwt>0</asrwt>
<pdfrwt beam="1">  1        2 0.16951002E+00 0.54410551E+02</pdfrwt>
<pdfrwt beam="2">  1        1 0.59836675E-01 0.11672567E+03</pdfrwt>
<totfact> 0.21706414E+02</totfact>
</mgrwt>
</event>
<event>
 7    1  0.6493044E-004  0.9872658E+02  0.7546771E-02  0.1404574E+00
          2   -1    0    0  503    0  0.00000000000E+00  0.00000000000E+00  0.19318369185E+03  0.19318369185E+03  0.00000000000E+00 0. -1.
          1   -1    0    0  502    0 -0.00000000000E+00 -0.00000000000E+00 -0.18243627702E+04  0.18243627702E+04  0.00000000000E+00 0. -1.
         25    2    1    2    0    0  0.72883082610E+02  0.10924416264E+03  0.48631782015E+02  0.18771260578E+03  0.12499896537E+03 0.  0.
          4    1    3    3  501    0  0.77103644758E+02  0.13481652810E+03  0.40258673593E+02  0.16044576025E+03  0.12700000000E+01 0.  1.
         -4    1    3    3    0  501 -0.42205621485E+01 -0.25572365462E+02  0.83731084215E+01  0.27266845523E+02  0.12700000000E+01 0.  1.
          2    1    1    2  502    0 -0.61829022709E+02 -0.76487008532E+02 -0.17493828962E+04  0.17521454301E+04  0.00000000000E+00 0. -1.
          1    1    1    2  503    0 -0.11054059901E+02 -0.32757154104E+02  0.69572035882E+02  0.77688426179E+02  0.00000000000E+00 0. -1.
<mgrwt>
<rscale>  0 0.58422390E+02</rscale>
<asrwt>0</asrwt>
<pdfrwt beam="1">  1        2 0.29720569E-01 0.34572003E+02</pdfrwt>
<pdfrwt beam="2">  1        1 0.28067119E+00 0.98726580E+02</pdfrwt>
<totfact> 0.11267339E+02</totfact>
</mgrwt>
</event>
<event>
 7    1  0.6493044E-004  0.7154074E+02  0.7546771E-02  0.1434958E+00
          1   -1    0    0  502    0 -0.00000000000E+00  0.00000000000E+00  0.91603499659E+03  0.91603499659E+03  0.00000000000E+00 0. -1.
          2   -1    0    0  503    0  0.00000000000E+00 -0.00000000000E+00 -0.40053180204E+03  0.40053180204E+03  0.00000000000E+00 0. -1.
         25    2    1    2    0    0 -0.75049599252E+02  0.20759122719E+02  0.14015431555E+03  0.20329807432E+03  0.12499396519E+03 0.  0.
          4    1    3    3  501    0 -0.96265000581E+01  0.14890928334E+02 -0.22032584442E+02  0.28310014610E+02  0.12700000000E+01 0.  1.
         -4    1    3    3    0  501 -0.65423099194E+02  0.58681943848E+01  0.16218689999E+03  0.17498805971E+03  0.12700000000E+01 0.  1.
          2    1    1    2  502    0  0.53996258373E+01 -0.37376126220E+02  0.74034888354E+03  0.74131140563E+03  0.00000000000E+00 0. -1.
          1    1    1    2  503    0  0.69649973414E+02  0.16617003501E+02 -0.36500000454E+03  0.37195731867E+03  0.00000000000E+00 0. -1.
<mgrwt>
<rscale>  0 0.51977638E+02</rscale>
<asrwt>0</asrwt>
<pdfrwt beam="2">  1        2 0.61620277E-01 0.71540738E+02</pdfrwt>
<pdfrwt beam="1">  1        1 0.14092846E+00 0.37764147E+02</pdfrwt>
<totfact> 0.22873887E+02</totfact>
</mgrwt>
</event>
<event>
 7    1  0.6493044E-004  0.1186979E+03  0.7546771E-02  0.1272638E+00
          2   -1    0    0  503    0  0.00000000000E+00  0.00000000000E+00  0.34440757541E+03  0.34440757541E+03  0.00000000000E+00 0. -1.
          1   -1    0    0  502    0 -0.00000000000E+00 -0.00000000000E+00 -0.15050862174E+04  0.15050862174E+04  0.00000000000E+00 0. -1.
         25    2    1    2    0    0  0.10172774340E+03 -0.30938287977E+02 -0.59580667267E+02  0.17458582019E+03  0.12499856504E+03 0.  0.
          4    1    3    3  501    0  0.72053815373E+02 -0.73870861465E+02 -0.65213023384E+02  0.12207787597E+03  0.12700000000E+01 0. -1.
         -4    1    3    3    0  501  0.29673928025E+02  0.42932573488E+02  0.56323561174E+01  0.52507944220E+02  0.12700000000E+01 0. -1.
          2    1    1    2  502    0 -0.10496970859E+03 -0.59657183337E+02 -0.13781361446E+04  0.13834149241E+04  0.00000000000E+00 0. -1.
          1    1    1    2  503    0  0.32419651935E+01  0.90595471313E+02  0.27703816987E+03  0.29149304850E+03  0.00000000000E+00 0. -1.
<mgrwt>
<rscale>  0 0.10373224E+03</rscale>
<asrwt>0</asrwt>
<pdfrwt beam="1">  1        2 0.52985781E-01 0.90653460E+02</pdfrwt>
<pdfrwt beam="2">  1        1 0.23155173E+00 0.11869793E+03</pdfrwt>
<totfact> 0.98627563E+01</totfact>
</mgrwt>
</event>
<event>
 7    1  0.6493044E-004  0.1447820E+03  0.7546771E-02  0.1311790E+00
          2   -1    0    0  503    0  0.00000000000E+00  0.00000000000E+00  0.26173780619E+03  0.26173780619E+03  0.00000000000E+00 0. -1.
          1   -1    0    0  502    0 -0.00000000000E+00 -0.00000000000E+00 -0.57776509181E+03  0.57776509181E+03  0.00000000000E+00 0. -1.
         25    2    1    2    0    0 -0.54931649566E+02 -0.17154269854E+03 -0.17598473613E+03  0.28112976575E+03  0.12497573482E+03 0.  0.
          4    1    3    3  501    0 -0.57807472446E+02 -0.18979161373E+03 -0.17106832698E+03  0.26197050580E+03  0.12700000000E+01 0.  1.
         -4    1    3    3    0  501  0.28758228793E+01  0.18248915191E+02 -0.49164091468E+01  0.19159259949E+02  0.12700000000E+01 0.  1.
          2    1    1    2  502    0  0.63334266191E+02  0.12066195540E+03 -0.33238582881E+03  0.35923651812E+03  0.00000000000E+00 0. -1.
          1    1    1    2  503    0 -0.84026166250E+01  0.50880743137E+02  0.19234327932E+03  0.19913661413E+03  0.00000000000E+00 0. -1.
<mgrwt>
<rscale>  0 0.86408289E+02</rscale>
<asrwt>0</asrwt>
<pdfrwt beam="1">  1        2 0.40267355E-01 0.51569894E+02</pdfrwt>
<pdfrwt beam="2">  1        1 0.88886936E-01 0.14478200E+03</pdfrwt>
<totfact> 0.64100174E+02</totfact>
</mgrwt>
</event>
<event>
 7    1  0.6493044E-004  0.1859448E+03  0.7546771E-02  0.1202263E+00
          1   -1    0    0  503    0  0.00000000000E+00  0.00000000000E+00  0.12712455333E+03  0.12712455333E+03  0.00000000000E+00 0. -1.
         -1   -1    0    0    0  501 -0.00000000000E+00 -0.00000000000E+00 -0.14143559187E+04  0.14143559187E+04  0.00000000000E+00 0.  1.
         25    2    1    2    0    0  0.52596119878E+02 -0.80589012781E+02 -0.36105471488E+03  0.39401662276E+03  0.12501060381E+03 0.  0.
          4    1    3    3  502    0  0.84583702544E+02 -0.81926666305E+02 -0.22180632684E+03  0.25112953015E+03  0.12700000000E+01 0.  1.
         -4    1    3    3    0  502 -0.31987582666E+02  0.13376535237E+01 -0.13924838804E+03  0.14288709261E+03  0.12700000000E+01 0.  1.
          2    1    1    2  503    0 -0.14913581380E+03  0.14961649627E+03  0.24699570088E+01  0.21126449678E+03  0.00000000000E+00 0. -1.
         -2    1    1    2    0  501  0.96539693917E+02 -0.69027483488E+02 -0.92864660751E+03  0.93619935250E+03  0.00000000000E+00 0.  1.
<mgrwt>
<rscale>  0 0.14855217E+03</rscale>
<asrwt>0</asrwt>
<pdfrwt beam="1">  1        1 0.19557624E-01 0.18594483E+03</pdfrwt>
<pdfrwt beam="2">  1       -1 0.21759321E+00 0.11867900E+03</pdfrwt>
<totfact> 0.36040324E+01</totfact>
</mgrwt>
</event>
<event>
 7    1  0.6493044E-004  0.6224381E+02  0.7546771E-02  0.1542322E+00
          2   -1    0    0  503    0  0.00000000000E+00  0.00000000000E+00  0.24240562805E+03  0.24240562805E+03  0.00000000000E+00 0. -1.
         -2   -1    0    0    0  501 -0.00000000000E+00 -0.00000000000E+00 -0.15188144465E+03  0.15188144465E+03  0.00000000000E+00 0.  1.
         25    2    1    2    0    0  0.70007482828E+02  0.42320060382E+00  0.15300352861E+03  0.20960799331E+03  0.12499681734E+03 0.  0.
          4    1    3    3  502    0  0.57376442067E+02  0.37773284909E+02  0.15558008235E+03  0.17007543057E+03  0.12700000000E+01 0.  1.
         -4    1    3    3    0  502  0.12631040761E+02 -0.37350084305E+02 -0.25765537452E+01  0.39532562749E+02  0.12700000000E+01 0.  1.
          1    1    1    2  503    0 -0.56834674998E+02 -0.16124877718E+02  0.45627702044E+02  0.74646360644E+02  0.00000000000E+00 0. -1.
         -1    1    1    2    0  501 -0.13172807830E+02  0.15701677114E+02 -0.10810704725E+03  0.11003271875E+03  0.00000000000E+00 0.  1.
<mgrwt>
<rscale>  0 0.35717195E+02</rscale>
<asrwt>0</asrwt>
<pdfrwt beam="1">  1        2 0.37293173E-01 0.62243811E+02</pdfrwt>
<pdfrwt beam="2">  1       -2 0.23366376E-01 0.20495500E+02</pdfrwt>
<totfact> 0.19625118E+03</totfact>
</mgrwt>
</event>
<event>
 7    1  0.6493044E-004  0.4376705E+02  0.7546771E-02  0.1509193E+00
          2   -1    0    0  503    0  0.00000000000E+00  0.00000000000E+00  0.58419885336E+03  0.58419885336E+03  0.00000000000E+00 0. -1.
         -2   -1    0    0    0  501 -0.00000000000E+00 -0.00000000000E+00 -0.20943867424E+03  0.20943867424E+03  0.00000000000E+00 0.  1.
         25    2    1    2    0    0 -0.78788756345E+02 -0.98920846535E+01  0.26880474925E+03  0.30689999886E+03  0.12500437840E+03 0.  0.
          4    1    3    3  502    0 -0.97058571751E+02 -0.25955278178E+02  0.26344706500E+03  0.28195746447E+03  0.12700000000E+01 0.  1.
         -4    1    3    3    0  502  0.18269815406E+02  0.16063193524E+02  0.53576842462E+01  0.24942534387E+02  0.12700000000E+01 0.  1.
          1    1    1    2  503    0  0.35357948946E+02  0.82789002985E+01  0.29272963866E+03  0.29497350066E+03  0.00000000000E+00 0. -1.
         -1    1    1    2    0  501  0.43430807399E+02  0.16131843549E+01 -0.18677420878E+03  0.19176402807E+03  0.00000000000E+00 0.  1.
<mgrwt>
<rscale>  0 0.39866875E+02</rscale>
<asrwt>0</asrwt>
<pdfrwt beam="1">  1        2 0.89876746E-01 0.36314250E+02</pdfrwt>
<pdfrwt beam="2">  1       -2 0.32221335E-01 0.43767054E+02</pdfrwt>
<totfact> 0.47344996E+02</totfact>
</mgrwt>
</event>
<event>
 7    1  0.6493044E-004  0.7839900E+02  0.7546771E-02  0.1385839E+00
          2   -1    0    0  503    0  0.00000000000E+00  0.00000000000E+00  0.20015433954E+04  0.20015433954E+04  0.00000000000E+00 0. -1.
         -2   -1    0    0    0  501 -0.00000000000E+00 -0.00000000000E+00 -0.86174330041E+03  0.86174330041E+03  0.00000000000E+00 0.  1.
         25    2    1    2    0    0 -0.10621278185E+02  0.12783086333E+03  0.61271651127E+03  0.63835521502E+03  0.12498926428E+03 0.  0.
          4    1    3    3  502    0 -0.45876178877E+02  0.11594244647E+02  0.28389262541E+03  0.28781189336E+03  0.12700000000E+01 0. -1.
         -4    1    3    3    0  502  0.35254900691E+02  0.11623661868E+03  0.32882388586E+03  0.35054332166E+03  0.12700000000E+01 0. -1.
          1    1    1    2  503    0 -0.15507923598E+01 -0.50527164750E+02  0.13737381909E+04  0.13746679659E+04  0.00000000000E+00 0. -1.
         -3    1    1    2    0  501  0.12172070545E+02 -0.77303698578E+02 -0.84665460712E+03  0.85026351496E+03  0.00000000000E+00 0.  1.
<mgrwt>
<rscale>  0 0.62953511E+02</rscale>
<asrwt>0</asrwt>
<pdfrwt beam="1">  1        2 0.30792975E+00 0.50550958E+02</pdfrwt>
<pdfrwt beam="2">  1       -2 0.13257589E+00 0.78399001E+02</pdfrwt>
<totfact> 0.41368018E+00</totfact>
</mgrwt>
</event>
<event>
 7    1  0.6493044E-004  0.6365978E+02  0.7546771E-02  0.1473954E+00
         -2   -1    0    0    0  501  0.00000000000E+00  0.00000000000E+00  0.80306981503E+01  0.80306981503E+01  0.00000000000E+00 0.  1.
         -1   -1    0    0    0  502 -0.00000000000E+00 -0.00000000000E+00 -0.20018663592E+04  0.20018663592E+04  0.00000000000E+00 0.  1.
         25    2    1    2    0    0 -0.40336303176E+02  0.12978916828E+02 -0.10067222000E+04  0.10153365137E+04  0.12499271357E+03 0.  0.
          4    1    3    3  503    0  0.38852372732E+01 -0.51209473840E+02 -0.50315719728E+03  0.50577295633E+03  0.12700000000E+01 0.  1.
         -4    1    3    3    0  503 -0.44221540450E+02  0.64188390668E+02 -0.50356500274E+03  0.50956355739E+03  0.12700000000E+01 0.  1.
         -2    1    1    2    0  502  0.60166355081E+02 -0.37963549984E+02 -0.87807354418E+03  0.88095083313E+03  0.00000000000E+00 0.  1.
         -1    1    1    2    0  501 -0.19830051905E+02  0.24984633156E+02 -0.10903991687E+03  0.11360971051E+03  0.00000000000E+00 0.  1.
<mgrwt>
<rscale>  0 0.45062182E+02</rscale>
<asrwt>0</asrwt>
<pdfrwt beam="1">  1       -2 0.12354921E-02 0.31897694E+02</pdfrwt>
<pdfrwt beam="2">  1       -1 0.30797943E+00 0.63659783E+02</pdfrwt>
<totfact> 0.34360398E+02</totfact>
</mgrwt>
</event>
<event>
 7    1  0.6493044E-004  0.1277016E+03  0.7546771E-02  0.1334100E+00
         -1   -1    0    0    0  501 -0.00000000000E+00  0.00000000000E+00  0.54486309354E+02  0.54486309354E+02  0.00000000000E+00 0.  1.
          1   -1    0    0  503    0  0.00000000000E+00 -0.00000000000E+00 -0.18186753243E+04  0.18186753243E+04  0.00000000000E+00 0. -1.
         25    2    1    2    0    0 -0.62342114471E+02 -0.85168183227E+02 -0.10661907515E+04  0.10786692825E+04  0.12499817564E+03 0.  0.
          4    1    3    3  502    0  0.34941448133E+02 -0.33946326441E+02 -0.46127587686E+03  0.46384297489E+03  0.12700000000E+01 0.  1.
         -4    1    3    3    0  502 -0.97283562604E+02 -0.51221856786E+02 -0.60491487460E+03  0.61482630765E+03  0.12700000000E+01 0.  1.
          2    1    1    2  503    0  0.26609970635E+02 -0.39882491331E+02 -0.65610719186E+03  0.65785663398E+03  0.00000000000E+00 0. -1.
         -2    1    1    2    0  501  0.35732143836E+02  0.12505067456E+03 -0.41891071583E+02  0.13663571711E+03  0.00000000000E+00 0.  1.
<mgrwt>
<rscale>  0 0.78247231E+02</rscale>
<asrwt>0</asrwt>
<pdfrwt beam="2">  1        1 0.27979619E+00 0.47944798E+02</pdfrwt>
<pdfrwt beam="1">  1       -1 0.83825094E-02 0.12770164E+03</pdfrwt>
<totfact> 0.41168326E+02</totfact>
</mgrwt>
</event>
<event>
 7    1  0.6493044E-004  0.1178039E+03  0.7546771E-02  0.1426514E+00
          2   -1    0    0  503    0  0.00000000000E+00  0.00000000000E+00  0.85527987278E+03  0.85527987278E+03  0.00000000000E+00 0. -1.
          1   -1    0    0  502    0 -0.00000000000E+00 -0.00000000000E+00 -0.10977725733E+03  0.10977725733E+03  0.00000000000E+00 0. -1.
         25    2    1    2    0    0  0.10291886473E+03  0.71099120492E+02  0.34676433061E+03  0.38925395221E+03  0.12500304266E+03 0.  0.
          4    1    3    3  501    0  0.13199585045E+03  0.59619527786E+02  0.29765924269E+03  0.33102874541E+03  0.12700000000E+01 0.  1.
         -4    1    3    3    0  501 -0.29076985718E+02  0.11479592706E+02  0.49105087914E+02  0.58225206793E+02  0.12700000000E+01 0.  1.
          2    1    1    2  502    0 -0.82020843390E+02 -0.83786512722E+02 -0.49231638076E+02  0.12716663341E+03  0.00000000000E+00 0. -1.
          1    1    1    2  503    0 -0.20898021345E+02  0.12687392230E+02  0.44796992292E+03  0.44863654450E+03  0.00000000000E+00 0. -1.
<mgrwt>
<rscale>  0 0.53666105E+02</rscale>
<asrwt>0</asrwt>
<pdfrwt beam="1">  1        2 0.13158151E+00 0.24447847E+02</pdfrwt>
<pdfrwt beam="2">  1        1 0.16888809E-01 0.11780387E+03</pdfrwt>
<totfact> 0.15079363E+03</totfact>
</mgrwt>
</event>
<event>
 7    1  0.6493044E-004  0.8765600E+02  0.7546771E-02  0.1376795E+00
          1   -1    0    0  503    0  0.00000000000E+00  0.00000000000E+00  0.47208961505E+02  0.47208961505E+02  0.00000000000E+00 0. -1.
         -1   -1    0    0    0  501 -0.00000000000E+00 -0.00000000000E+00 -0.19270690690E+04  0.19270690690E+04  0.00000000000E+00 0.  1.
         25    2    1    2    0    0  0.81431700285E+02  0.10163622889E+03 -0.71651023532E+03  0.73890298964E+03  0.12501866243E+03 0.  0.
          4    1    3    3  502    0  0.95372108286E+02  0.12029709842E+03 -0.66276749380E+03  0.68031580510E+03  0.12700000000E+01 0. -1.
         -4    1    3    3    0  502 -0.13940408001E+02 -0.18660869537E+02 -0.53742741520E+02  0.58587184547E+02  0.12700000000E+01 0. -1.
          2    1    1    2  503    0 -0.63247665620E+02 -0.56494935484E+02 -0.15154445218E+02  0.86148721125E+02  0.00000000000E+00 0. -1.
         -2    1    1    2    0  501 -0.18184034666E+02 -0.45141293403E+02 -0.11481954269E+04  0.11492263197E+04  0.00000000000E+00 0.  1.
<mgrwt>
<rscale>  0 0.65313715E+02</rscale>
<asrwt>0</asrwt>
<pdfrwt beam="1">  1        1 0.72629188E-02 0.87656002E+02</pdfrwt>
<pdfrwt beam="2">  1       -1 0.29647210E+00 0.48666164E+02</pdfrwt>
<totfact> 0.46289038E+01</totfact>
</mgrwt>
</event>
<event>
 7    1  0.6493044E-004  0.1288505E+03  0.7546771E-02  0.1334292E+00
         -2   -1    0    0    0  501 -0.00000000000E+00  0.00000000000E+00  0.50390040313E+03  0.50390040313E+03  0.00000000000E+00 0.  1.
          2   -1    0    0  503    0  0.00000000000E+00 -0.00000000000E+00 -0.21800606597E+03  0.21800606597E+03  0.00000000000E+00 0. -1.
         25    2    1    2    0    0  0.15133345748E+03  0.26136156602E+02  0.15139418290E+03  0.24926963231E+03  0.12502094601E+03 0.  0.
          4    1    3    3  502    0  0.11480394632E+03 -0.54957092840E+01  0.30277713800E+02  0.11886337436E+03  0.12700000000E+01 0.  1.
         -4    1    3    3    0  502  0.36529511155E+02  0.31631865886E+02  0.12111646910E+03  0.13040625795E+03  0.12700000000E+01 0.  1.
          1    1    1    2  503    0 -0.12576493288E+03  0.13821114382E+02 -0.14310057882E+03  0.19101208653E+03  0.00000000000E+00 0. -1.
         -1    1    1    2    0  501 -0.25568524600E+02 -0.39957270984E+02  0.27760073308E+03  0.28162475026E+03  0.00000000000E+00 0.  1.
<mgrwt>
<rscale>  0 0.78181637E+02</rscale>
<asrwt>0</asrwt>
<pdfrwt beam="2">  1        2 0.33539395E-01 0.12885050E+03</pdfrwt>
<pdfrwt beam="1">  1       -2 0.77523139E-01 0.47437674E+02</pdfrwt>
<totfact> 0.24266933E+02</totfact>
</mgrwt>
</event>
<event>
 7    1  0.6493044E-004  0.6345727E+02  0.7546771E-02  0.1521187E+00
          2   -1    0    0  503    0  0.00000000000E+00  0.00000000000E+00  0.83340091558E+03  0.83340091558E+03  0.00000000000E+00 0. -1.
         -2   -1    0    0    0  501 -0.00000000000E+00 -0.00000000000E+00 -0.25048718255E+03  0.25048718255E+03  0.00000000000E+00 0.  1.
         25    2    1    2    0    0 -0.39765706007E+02 -0.22077179371E+02 -0.14873317473E+03  0.19954460830E+03  0.12501112035E+03 0.  0.
          4    1    3    3  502    0 -0.83294225042E+02 -0.12667881257E+02 -0.72082895995E+02  0.11088714955E+03  0.12700000000E+01 0. -1.
         -4    1    3    3    0  502  0.43528519034E+02 -0.94092981143E+01 -0.76650278739E+02  0.88657458745E+02  0.12700000000E+01 0. -1.
          3    1    1    2  503    0  0.61784585596E+02  0.15080137482E+02  0.80496389431E+03  0.80747236281E+03  0.00000000000E+00 0. -1.
         -1    1    1    2    0  501 -0.22018879588E+02  0.69970418888E+01 -0.73316986548E+02  0.76871127025E+02  0.00000000000E+00 0.  1.
<mgrwt>
<rscale>  0 0.38289812E+02</rscale>
<asrwt>0</asrwt>
<pdfrwt beam="1">  1        2 0.12821552E+00 0.63457270E+02</pdfrwt>
<pdfrwt beam="2">  1       -2 0.38536490E-01 0.23103888E+02</pdfrwt>
<totfact> 0.22168447E+02</totfact>
</mgrwt>
</event>
<event>
 7    1  0.6493044E-004  0.4897989E+02  0.7546771E-02  0.1552874E+00
          2   -1    0    0  503    0  0.00000000000E+00  0.00000000000E+00  0.53526245845E+02  0.53526245845E+02  0.00000000000E+00 0. -1.
         -2   -1    0    0    0  501 -0.00000000000E+00 -0.00000000000E+00 -0.10431202152E+04  0.10431202152E+04  0.00000000000E+00 0.  1.
         25    2    1    2    0    0  0.44904087013E+02  0.30239963535E+02 -0.31286008391E+03  0.34123414259E+03  0.12501390141E+03 0.  0.
          4    1    3    3  502    0  0.51067619657E+02  0.74192055833E+02 -0.18248861066E+03  0.20350938270E+03  0.12700000000E+01 0.  1.
         -4    1    3    3    0  502 -0.61635326442E+01 -0.43952092298E+02 -0.13037147324E+03  0.13772475989E+03  0.12700000000E+01 0.  1.
          1    1    1    2  503    0 -0.48603611065E+02 -0.61890554081E+01  0.23789728028E+02  0.54466196627E+02  0.00000000000E+00 0. -1.
         -1    1    1    2    0  501  0.36995240518E+01 -0.24050908127E+02 -0.70052361347E+03  0.70094612182E+03  0.00000000000E+00 0.  1.
<mgrwt>
<rscale>  0 0.34523409E+02</rscale>
<asrwt>0</asrwt>
<pdfrwt beam="1">  1        2 0.82348071E-02 0.48979894E+02</pdfrwt>
<pdfrwt beam="2">  1       -2 0.16048003E+00 0.24333776E+02</pdfrwt>
<totfact> 0.21891247E+02</totfact>
</mgrwt>
</event>
<event>
 7    1  0.6493044E-004  0.2944063E+03  0.7546771E-02  0.1240147E+00
          1   -1    0    0  502    0 -0.00000000000E+00  0.00000000000E+00  0.21666827944E+03  0.21666827944E+03  0.00000000000E+00 0. -1.
          2   -1    0    0  503    0  0.00000000000E+00 -0.00000000000E+00 -0.21149352808E+04  0.21149352808E+04  0.00000000000E+00 0. -1.
         25    2    1    2    0    0  0.28733805751E+03  0.53383102036E+02 -0.47944027462E+03  0.57523928162E+03  0.12499735724E+03 0.  0.
          4    1    3    3  501    0  0.11335979763E+03 -0.39644910956E+02 -0.16638742860E+03  0.20520368413E+03  0.12700000000E+01 0.  1.
         -4    1    3    3    0  501  0.17397825988E+03  0.93028012992E+02 -0.31305284602E+03  0.37003559749E+03  0.12700000000E+01 0.  1.
          2    1    1    2  502    0  0.86258593803E+01 -0.49651520335E+02  0.15083936500E+03  0.15903519407E+03  0.00000000000E+00 0. -1.
          1    1    1    2  503    0 -0.29596391689E+03 -0.37315817007E+01 -0.15696660917E+04  0.15973290845E+04  0.00000000000E+00 0. -1.
<mgrwt>
<rscale>  0 0.12180588E+03</rscale>
<asrwt>0</asrwt>
<pdfrwt beam="2">  1        2 0.32537466E+00 0.29440629E+03</pdfrwt>
<pdfrwt beam="1">  1        1 0.33333582E-01 0.50395227E+02</pdfrwt>
<totfact> 0.11344546E+02</totfact>
</mgrwt>
</event>
<event>
 7    1  0.6493044E-004  0.8155781E+02  0.7546771E-02  0.1474277E+00
          1   -1    0    0  502    0 -0.00000000000E+00  0.00000000000E+00  0.12878194289E+04  0.12878194289E+04  0.00000000000E+00 0. -1.
          2   -1    0    0  503    0  0.00000000000E+00 -0.00000000000E+00 -0.10866068859E+03  0.10866068859E+03  0.00000000000E+00 0. -1.
         25    2    1    2    0    0  0.66262353448E+02 -0.38168680768E+01  0.19649309144E+03  0.24215830471E+03  0.12500336632E+03 0.  0.
          4    1    3    3  501    0  0.67921878555E+02 -0.53770755651E+02  0.92310730484E+02  0.12659999847E+03  0.12700000000E+01 0. -1.
         -4    1    3    3    0  501 -0.16595251064E+01  0.49953887575E+02  0.10418236096E+03  0.11555830624E+03  0.12700000000E+01 0. -1.
          2    1    1    2  502    0 -0.78820372465E+02  0.25249222607E+02  0.10650566101E+04  0.10682676430E+04  0.00000000000E+00 0. -1.
          3    1    1    2  503    0  0.12558019017E+02 -0.21432354531E+02 -0.82390961179E+02  0.86054169837E+02  0.00000000000E+00 0. -1.
<mgrwt>
<rscale>  0 0.45010392E+02</rscale>
<asrwt>0</asrwt>
<pdfrwt beam="2">  1        2 0.16717030E-01 0.24840484E+02</pdfrwt>
<pdfrwt beam="1">  1        1 0.19812606E+00 0.81557806E+02</pdfrwt>
<totfact> 0.45594475E+02</totfact>
</mgrwt>
</event>
<event>
 7    1  0.6493044E-004  0.1309054E+03  0.7546771E-02  0.1264450E+00
          2   -1    0    0  503    0  0.00000000000E+00  0.00000000000E+00  0.25208151237E+04  0.25208151237E+04  0.00000000000E+00 0. -1.
          3   -1    0    0  502    0 -0.00000000000E+00 -0.00000000000E+00 -0.47129559639E+02  0.47129559639E+02  0.00000000000E+00 0. -1.
         25    2    1    2    0    0  0.15394627717E+03 -0.23990400385E+02  0.13493685407E+04  0.13640731175E+04  0.12500006238E+03 0.  0.
          4    1    3    3  501    0  0.63178863602E+02  0.21065245121E+02  0.21246858430E+03  0.22266527698E+03  0.12700000000E+01 0. -1.
         -4    1    3    3    0  501  0.90767413569E+02 -0.45055645506E+02  0.11368999564E+04  0.11414078405E+04  0.12700000000E+01 0. -1.
          2    1    1    2  502    0 -0.39461971801E+02  0.79760741349E+02  0.18684344886E+02  0.90929246246E+02  0.00000000000E+00 0. -1.
          1    1    1    2  503    0 -0.11448430537E+03 -0.55770340964E+02  0.11056326784E+04  0.11129423196E+04  0.00000000000E+00 0. -1.
<mgrwt>
<rscale>  0 0.10793112E+03</rscale>
<asrwt>0</asrwt>
<pdfrwt beam="1">  1        2 0.38781761E+00 0.13090539E+03</pdfrwt>
<pdfrwt beam="2">  1        3 0.72507034E-02 0.88988893E+02</pdfrwt>
<totfact> 0.30170445E+02</totfact>
</mgrwt>
</event>
<event>
 7    1  0.6493044E-004  0.5676333E+02  0.7546771E-02  0.1451892E+00
          2   -1    0    0  503    0  0.00000000000E+00  0.00000000000E+00  0.10759320000E+04  0.10759320000E+04  0.00000000000E+00 0. -1.
          1   -1    0    0  502    0 -0.00000000000E+00 -0.00000000000E+00 -0.41403067391E+03  0.41403067391E+03  0.00000000000E+00 0. -1.
         25    2    1    2    0    0  0.27326304012E+02 -0.28428569774E+02 -0.29913014254E+03  0.32659088161E+03  0.12501140470E+03 0.  0.
          4    1    3    3  501    0  0.96035280470E+01  0.47881313758E+02 -0.78475792366E+02  0.92438686953E+02  0.12700000000E+01 0.  1.
         -4    1    3    3    0  501  0.17722775965E+02 -0.76309883533E+02 -0.22065435017E+03  0.23415219466E+03  0.12700000000E+01 0.  1.
          2    1    1    2  502    0 -0.68897228760E+02  0.34156632279E+02 -0.86076176766E+02  0.11542361919E+03  0.00000000000E+00 0. -1.
          1    1    1    2  503    0  0.41570924748E+02 -0.57280625050E+01  0.10471076454E+04  0.10479481731E+04  0.00000000000E+00 0. -1.
<mgrwt>
<rscale>  0 0.48805735E+02</rscale>
<asrwt>0</asrwt>
<pdfrwt beam="1">  1        2 0.16552800E+00 0.41963704E+02</pdfrwt>
<pdfrwt beam="2">  1        1 0.63697027E-01 0.56763334E+02</pdfrwt>
<totfact> 0.21262504E+02</totfact>
</mgrwt>
</event>
<event>
 7    1  0.6493044E-004  0.1151639E+03  0.7546771E-02  0.1409824E+00
          2   -1    0    0  503    0  0.00000000000E+00  0.00000000000E+00  0.10393401624E+04  0.10393401624E+04  0.00000000000E+00 0. -1.
          1   -1    0    0  502    0 -0.00000000000E+00 -0.00000000000E+00 -0.13188895976E+04  0.13188895976E+04  0.00000000000E+00 0. -1.
         25    2    1    2    0    0  0.19062437985E+02 -0.85305770653E+02 -0.13381656747E+03  0.20290862864E+03  0.12499834719E+03 0.  0.
          4    1    3    3  501    0 -0.41758199246E+02  0.53584446688E+01 -0.26193319011E+02  0.49600030185E+02  0.12700000000E+01 0. -1.
         -4    1    3    3    0  501  0.60820637230E+02 -0.90664215322E+02 -0.10762324846E+03  0.15330859846E+03  0.12700000000E+01 0. -1.
          2    1    1    2  502    0  0.93155888502E+01 -0.26874344497E+02 -0.11470186617E+04  0.11473712655E+04  0.00000000000E+00 0. -1.
          1    1    1    2  503    0 -0.28378026835E+02  0.11218011515E+03  0.10012857940E+04  0.10079498658E+04  0.00000000000E+00 0. -1.
<mgrwt>
<rscale>  0 0.57233026E+02</rscale>
<asrwt>0</asrwt>
<pdfrwt beam="1">  1        2 0.15989849E+00 0.11516389E+03</pdfrwt>
<pdfrwt beam="2">  1        1 0.20290609E+00 0.28443111E+02</pdfrwt>
<totfact> 0.41202827E+01</totfact>
</mgrwt>
</event>
<event>
 7    1  0.6493044E-004  0.1252728E+03  0.7546771E-02  0.1388769E+00
          2   -1    0    0  503    0  0.00000000000E+00  0.00000000000E+00  0.12822954408E+04  0.12822954408E+04  0.00000000000E+00 0. -1.
          1   -1    0    0  502    0 -0.00000000000E+00 -0.00000000000E+00 -0.34939221862E+04  0.34939221862E+04  0.00000000000E+00 0. -1.
         25    2    1    2    0    0 -0.57657286010E+02  0.14467417979E+03 -0.28729245595E+04  0.28798589676E+04  0.12504866127E+03 0.  0.
          4    1    3    3  501    0 -0.49360588258E+02  0.16719309797E+03 -0.26207462403E+04  0.26265381148E+04  0.12700000000E+01 0. -1.
         -4    1    3    3    0  501 -0.82966977517E+01 -0.22518918181E+02 -0.25217831918E+03  0.25332085274E+03  0.12700000000E+01 0. -1.
          2    1    1    2  502    0  0.72053962739E+01 -0.30045314461E+02 -0.61407477077E+03  0.61485157782E+03  0.00000000000E+00 0. -1.
          1    1    1    2  503    0  0.50451889736E+02 -0.11462886533E+03  0.12753725849E+04  0.12815070816E+04  0.00000000000E+00 0. -1.
<mgrwt>
<rscale>  0 0.62214011E+02</rscale>
<asrwt>0</asrwt>
<pdfrwt beam="1">  1        2 0.19727622E+00 0.12527283E+03</pdfrwt>
<pdfrwt beam="2">  1        1 0.53752648E+00 0.30897227E+02</pdfrwt>
<totfact> 0.12749768E+00</totfact>
</mgrwt>
</event>
<event>
 7    1  0.6493044E-004  0.6211889E+02  0.7546771E-02  0.1395944E+00
          2   -1    0    0  503    0  0.00000000000E+00  0.00000000000E+00  0.10564665064E+04  0.10564665064E+04  0.00000000000E+00 0. -1.
          1   -1    0    0  502    0 -0.00000000000E+00 -0.00000000000E+00 -0.30094329881E+02  0.30094329881E+02  0.00000000000E+00 0. -1.
         25    2    1    2    0    0  0.13939924441E+02 -0.13958980331E+02  0.38649010135E+03  0.40668570361E+03  0.12501795253E+03 0.  0.
          4    1    3    3  501    0 -0.27042336879E+02  0.33773107170E+02  0.58826629393E+02  0.73034895616E+02  0.12700000000E+01 0.  1.
         -4    1    3    3    0  501  0.40982261320E+02 -0.47732087502E+02  0.32766347196E+03  0.33365080800E+03  0.12700000000E+01 0.  1.
          2    1    1    2  502    0 -0.35893775493E+02 -0.50699051041E+02  0.35298025483E+02  0.71447235766E+02  0.00000000000E+00 0. -1.
          1    1    1    2  503    0  0.21953851052E+02  0.64658031373E+02  0.60458404967E+03  0.60842789689E+03  0.00000000000E+00 0. -1.
<mgrwt>
<rscale>  0 0.60452087E+02</rscale>
<asrwt>0</asrwt>
<pdfrwt beam="1">  1        2 0.16253328E+00 0.58830006E+02</pdfrwt>
<pdfrwt beam="2">  1        1 0.46298977E-02 0.62118893E+02</pdfrwt>
<totfact> 0.57851055E+03</totfact>
</mgrwt>
</event>
<event>
 7    1  0.6493044E-004  0.6996059E+02  0.7546771E-02  0.1390268E+00
          2   -1    0    0  503    0  0.00000000000E+00  0.00000000000E+00  0.32857828961E+03  0.32857828961E+03  0.00000000000E+00 0. -1.
          1   -1    0    0  502    0 -0.00000000000E+00 -0.00000000000E+00 -0.51232089266E+03  0.51232089266E+03  0.00000000000E+00 0. -1.
         25    2    1    2    0    0 -0.56181592665E+01 -0.35471285127E+02 -0.25882426199E+03  0.28966316229E+03  0.12499989284E+03 0.  0.
          4    1    3    3  501    0  0.67652087356E+01 -0.59846603557E+02 -0.25500982687E+03  0.26202864100E+03  0.12700000000E+01 0. -1.
         -4    1    3    3    0  501 -0.12383368002E+02  0.24375318430E+02 -0.38144351270E+01  0.27634521291E+02  0.12700000000E+01 0. -1.
          2    1    1    2  502    0  0.51539006016E+02 -0.18211923489E+02 -0.23086053270E+03  0.23724360657E+03  0.00000000000E+00 0. -1.
          1    1    1    2  503    0 -0.45920846749E+02  0.53683208616E+02  0.30594219164E+03  0.31399241341E+03  0.00000000000E+00 0. -1.
<mgrwt>
<rscale>  0 0.61840048E+02</rscale>
<asrwt>0</asrwt>
<pdfrwt beam="1">  1        2 0.50550507E-01 0.69960590E+02</pdfrwt>
<pdfrwt beam="2">  1        1 0.78818598E-01 0.54662083E+02</pdfrwt>
<totfact> 0.61158138E+02</totfact>
</mgrwt>
</event>
<event>
 7    1  0.6493044E-004  0.4427290E+02  0.7546771E-02  0.1536805E+00
          2   -1    0    0  503    0  0.00000000000E+00  0.00000000000E+00  0.69537217845E+03  0.69537217845E+03  0.00000000000E+00 0. -1.
          1   -1    0    0  502    0 -0.00000000000E+00 -0.00000000000E+00 -0.85679041341E+02  0.85679041341E+02  0.00000000000E+00 0. -1.
         25    2    1    2    0    0 -0.37814769214E+02 -0.87324039030E+01  0.69373414565E-01  0.13088724272E+03  0.12500101537E+03 0.  0.
          4    1    3    3  501    0  0.32812926850E+02 -0.11301510779E+02  0.37326856554E+02  0.50983521206E+02  0.12700000000E+01 0.  1.
         -4    1    3    3    0  501 -0.70627696064E+02  0.25691068763E+01 -0.37257483139E+02  0.79903721511E+02  0.12700000000E+01 0.  1.
          2    1    1    2  502    0  0.45312983382E+02 -0.20180238464E+02  0.11016685933E+02  0.50812162485E+02  0.00000000000E+00 0. -1.
          1    1    1    2  503    0 -0.74982141680E+01  0.28912642367E+02  0.59860707776E+03  0.59935181459E+03  0.00000000000E+00 0. -1.
<mgrwt>
<rscale>  0 0.36364712E+02</rscale>
<asrwt>0</asrwt>
<pdfrwt beam="1">  1        2 0.10698033E+00 0.29869116E+02</pdfrwt>
<pdfrwt beam="2">  1        1 0.13181391E-01 0.44272896E+02</pdfrwt>
<totfact> 0.24656129E+03</totfact>
</mgrwt>
</event>
<event>
 7    1  0.6493044E-004  0.7498674E+02  0.7546771E-02  0.1366076E+00
          1   -1    0    0  502    0 -0.00000000000E+00  0.00000000000E+00  0.15718423072E+04  0.15718423072E+04  0.00000000000E+00 0. -1.
          2   -1    0    0  503    0  0.00000000000E+00 -0.00000000000E+00 -0.45473681547E+03  0.45473681547E+03  0.00000000000E+00 0. -1.
         25    2    1    2    0    0  0.43113582330E+02  0.66821815316E+02  0.87603079449E+03  0.88846985296E+03  0.12499916295E+03 0.  0.
          4    1    3    3  501    0  0.50880673194E+02  0.67293817254E+02  0.87651884783E+03  0.88057038574E+03  0.12700000000E+01 0. -1.
         -4    1    3    3    0  501 -0.77670908632E+01 -0.47200193787E+00 -0.48805333535E+00  0.78994672203E+01  0.12700000000E+01 0. -1.
          2    1    1    2  502    0 -0.61878552916E+02  0.58564451996E+01  0.68503462692E+03  0.68784859769E+03  0.00000000000E+00 0. -1.
          3    1    1    2  503    0  0.18764970586E+02 -0.72678260516E+02 -0.44395992965E+03  0.45026067206E+03  0.00000000000E+00 0. -1.
<mgrwt>
<rscale>  0 0.68270097E+02</rscale>
<asrwt>0</asrwt>
<pdfrwt beam="2">  1        2 0.69959511E-01 0.74986736E+02</pdfrwt>
<pdfrwt beam="1">  1        1 0.24182189E+00 0.62155074E+02</pdfrwt>
<totfact> 0.71315787E+01</totfact>
</mgrwt>
</event>
<event>
 7    1  0.6493044E-004  0.2711796E+02  0.7546771E-02  0.1661148E+00
         -2   -1    0    0    0  501 -0.00000000000E+00  0.00000000000E+00  0.28869312210E+03  0.28869312210E+03  0.00000000000E+00 0.  1.
          2   -1    0    0  503    0  0.00000000000E+00 -0.00000000000E+00 -0.47538474555E+02  0.47538474555E+02  0.00000000000E+00 0. -1.
         25    2    1    2    0    0 -0.94241526025E+01  0.87306305466E+01  0.74448225899E+02  0.14605622391E+03  0.12499937456E+03 0.  0.
          4    1    3    3  502    0 -0.38870519464E+02 -0.39816726993E+02  0.69510087303E+02  0.89048044160E+02  0.12700000000E+01 0.  1.
         -4    1    3    3    0  502  0.29446366862E+02  0.48547357540E+02  0.49381385961E+01  0.57008179749E+02  0.12700000000E+01 0.  1.
          1    1    1    2  503    0  0.16489356371E+02 -0.34912050057E+02  0.15651271337E+03  0.16120477523E+03  0.00000000000E+00 0. -1.
         -1    1    1    2    0  501 -0.70652037686E+01  0.26181419510E+02  0.10193708283E+02  0.28970597516E+02  0.00000000000E+00 0.  1.
<mgrwt>
<rscale>  0 0.24989835E+02</rscale>
<asrwt>0</asrwt>
<pdfrwt beam="2">  1        2 0.73136116E-02 0.23028716E+02</pdfrwt>
<pdfrwt beam="1">  1       -2 0.44414325E-01 0.27117961E+02</pdfrwt>
<totfact> 0.37102542E+03</totfact>
</mgrwt>
</event>
<event>
 7    1  0.6493044E-004  0.9741634E+02  0.7546771E-02  0.1326805E+00
          1   -1    0    0  503    0  0.00000000000E+00  0.00000000000E+00  0.12470912998E+04  0.12470912998E+04  0.00000000000E+00 0. -1.
         -1   -1    0    0    0  501 -0.00000000000E+00 -0.00000000000E+00 -0.13004117868E+04  0.13004117868E+04  0.00000000000E+00 0.  1.
         25    2    1    2    0    0  0.87830691251E+02  0.42542341459E+02  0.60768232039E+03  0.62803030189E+03  0.12498070429E+03 0.  0.
          4    1    3    3  502    0 -0.14297457496E+02 -0.27122758721E+02  0.18902663413E+03  0.19150128627E+03  0.12700000000E+01 0.  1.
         -4    1    3    3    0  502  0.10212814875E+03  0.69665100180E+02  0.41865568625E+03  0.43652901563E+03  0.12700000000E+01 0.  1.
          2    1    1    2  503    0 -0.48222655712E+02  0.46532945409E+02  0.62560161476E+03  0.62918051458E+03  0.00000000000E+00 0. -1.
         -2    1    1    2    0  501 -0.39608035539E+02 -0.89075286868E+02 -0.12866044222E+04  0.12902922702E+04  0.00000000000E+00 0.  1.
<mgrwt>
<rscale>  0 0.80797024E+02</rscale>
<asrwt>0</asrwt>
<pdfrwt beam="1">  1        1 0.19186020E+00 0.67012980E+02</pdfrwt>
<pdfrwt beam="2">  1       -1 0.20006335E+00 0.97416338E+02</pdfrwt>
<totfact> 0.21977170E+00</totfact>
</mgrwt>
</event>
<event>
 7    1  0.6493044E-004  0.4065972E+02  0.7546771E-02  0.1567598E+00
          1   -1    0    0  502    0 -0.00000000000E+00  0.00000000000E+00  0.16674955163E+03  0.16674955163E+03  0.00000000000E+00 0. -1.
          2   -1    0    0  503    0  0.00000000000E+00 -0.00000000000E+00 -0.10882643585E+04  0.10882643585E+04  0.00000000000E+00 0. -1.
         25    2    1    2    0    0  0.18533770169E+02  0.54260733554E+02 -0.88540430049E+02  0.16356046467E+03  0.12499956003E+03 0.  0.
          4    1    3    3  501    0 -0.24320939759E+01 -0.29636821864E+02 -0.68637636652E+02  0.74813062739E+02  0.12700000000E+01 0. -1.
         -4    1    3    3    0  501  0.20965864145E+02  0.83897555418E+02 -0.19902793397E+02  0.88747401931E+02  0.12700000000E+01 0. -1.
          2    1    1    2  502    0 -0.27840768411E+02 -0.29233330365E+02  0.12589666504E+03  0.13221068889E+03  0.00000000000E+00 0. -1.
          1    1    1    2  503    0  0.93069982424E+01 -0.25027403189E+02 -0.95887104183E+03  0.95924275655E+03  0.00000000000E+00 0. -1.
<mgrwt>
<rscale>  0 0.32949832E+02</rscale>
<asrwt>0</asrwt>
<pdfrwt beam="2">  1        2 0.16742529E+00 0.26701894E+02</pdfrwt>
<pdfrwt beam="1">  1        1 0.25653776E-01 0.40659715E+02</pdfrwt>
<totfact> 0.63769053E+02</totfact>
</mgrwt>
</event>
<event>
 7    1  0.6493044E-004  0.3236991E+02  0.7546771E-02  0.1645644E+00
         -2   -1    0    0    0  501 -0.00000000000E+00  0.00000000000E+00  0.28946921519E+03  0.28946921519E+03  0.00000000000E+00 0.  1.
          2   -1    0    0  503    0  0.00000000000E+00 -0.00000000000E+00 -0.85508409331E+03  0.85508409331E+03  0.00000000000E+00 0. -1.
         25    2    1    2    0    0 -0.30785546950E+01  0.19689937694E+02 -0.36613218902E+03  0.38739573857E+03  0.12500202910E+03 0.  0.
          4    1    3    3  502    0 -0.74726357686E+01 -0.16368573862E+02  0.13794591553E+01  0.18091055889E+02  0.12700000000E+01 0.  1.
         -4    1    3    3    0  502  0.43940810736E+01  0.36058511556E+02 -0.36751164817E+03  0.36930468268E+03  0.12700000000E+01 0.  1.
          1    1    1    2  503    0 -0.15616670900E+02 -0.29363373052E+02 -0.47734344850E+03  0.47850063313E+03  0.00000000000E+00 0. -1.
         -1    1    1    2    0  501  0.18695225595E+02  0.96734353582E+01  0.27786075940E+03  0.27865693680E+03  0.00000000000E+00 0.  1.
<mgrwt>
<rscale>  0 0.26103151E+02</rscale>
<asrwt>0</asrwt>
<pdfrwt beam="2">  1        2 0.13155140E+00 0.32369907E+02</pdfrwt>
<pdfrwt beam="1">  1       -2 0.44533726E-01 0.21049627E+02</pdfrwt>
<totfact> 0.16930505E+02</totfact>
</mgrwt>
</event>
<event>
 7    1  0.6493044E-004  0.1063852E+03  0.7546771E-02  0.1335660E+00
          2   -1    0    0  503    0  0.00000000000E+00  0.00000000000E+00  0.16919224072E+03  0.16919224072E+03  0.00000000000E+00 0. -1.
          1   -1    0    0  502    0 -0.00000000000E+00 -0.00000000000E+00 -0.38929599326E+03  0.38929599326E+03  0.00000000000E+00 0. -1.
         25    2    1    2    0    0  0.61179904235E+02 -0.32328640276E+02  0.45229263075E+02  0.14983640843E+03  0.12496856160E+03 0.  0.
          4    1    3    3  501    0  0.65481316234E+02 -0.72921119127E+02  0.15294591050E+02  0.99200956678E+02  0.12700000000E+01 0. -1.
         -4    1    3    3    0  501 -0.43014119986E+01  0.40592478851E+02  0.29934672025E+02  0.50635451748E+02  0.12700000000E+01 0. -1.
          2    1    1    2  502    0 -0.65789994158E+02  0.88914506201E+02 -0.31460301041E+03  0.33348038458E+03  0.00000000000E+00 0. -1.
          1    1    1    2  503    0  0.46100899224E+01 -0.56585865925E+02  0.49269994795E+02  0.75171440978E+02  0.00000000000E+00 0. -1.
<mgrwt>
<rscale>  0 0.77716423E+02</rscale>
<asrwt>0</asrwt>
<pdfrwt beam="1">  1        2 0.26029576E-01 0.56773349E+02</pdfrwt>
<pdfrwt beam="2">  1        1 0.59891691E-01 0.10638517E+03</pdfrwt>
<totfact> 0.16981392E+03</totfact>
</mgrwt>
</event>
<event>
 7    1  0.6493044E-004  0.4225307E+02  0.7546771E-02  0.1517808E+00
          1   -1    0    0  502    0 -0.00000000000E+00  0.00000000000E+00  0.10360654195E+03  0.10360654195E+03  0.00000000000E+00 0. -1.
          2   -1    0    0  503    0  0.00000000000E+00 -0.00000000000E+00 -0.16005302907E+03  0.16005302907E+03  0.00000000000E+00 0. -1.
         25    2    1    2    0    0 -0.72244394614E+01  0.10038648780E+02 -0.79317846428E+02  0.14856005189E+03  0.12500320500E+03 0.  0.
          4    1    3    3  501    0 -0.30254474625E+02 -0.32506820264E+02  0.11289859966E+02  0.45837762124E+02  0.12700000000E+01 0. -1.
         -4    1    3    3    0  501  0.23030035164E+02  0.42545469044E+02 -0.90607706394E+02  0.10272228976E+03  0.12700000000E+01 0. -1.
          2    1    1    2  502    0  0.24192769311E+02  0.34641474693E+02  0.45608681294E+02  0.62172933542E+02  0.00000000000E+00 0. -1.
          3    1    1    2  503    0 -0.16968329849E+02 -0.44680123473E+02 -0.22737321988E+02  0.52926585594E+02  0.00000000000E+00 0. -1.
<mgrwt>
<rscale>  0 0.38725133E+02</rscale>
<asrwt>0</asrwt>
<pdfrwt beam="2">  1        2 0.24623543E-01 0.35491764E+02</pdfrwt>
<pdfrwt beam="1">  1        1 0.15939468E-01 0.42253069E+02</pdfrwt>
<totfact> 0.87650730E+03</totfact>
</mgrwt>
</event>
<event>
 7    1  0.6493044E-004  0.6509396E+02  0.7546771E-02  0.1502590E+00
          1   -1    0    0  502    0 -0.00000000000E+00  0.00000000000E+00  0.22893211207E+04  0.22893211207E+04  0.00000000000E+00 0. -1.
          2   -1    0    0  503    0  0.00000000000E+00 -0.00000000000E+00 -0.34700361529E+02  0.34700361529E+02  0.00000000000E+00 0. -1.
         25    2    1    2    0    0  0.10111642011E+02 -0.45980391695E+02  0.21813026900E+03  0.25578181688E+03  0.12500832719E+03 0.  0.
          4    1    3    3  501    0  0.19204237465E+02 -0.22843203264E+02 -0.58373117648E+01  0.30435206269E+02  0.12700000000E+01 0. -1.
         -4    1    3    3    0  501 -0.90925954534E+01 -0.23137188431E+02  0.22396758076E+03  0.22534661061E+03  0.12700000000E+01 0. -1.
          2    1    1    2  502    0  0.65524804662E+01  0.65335700907E+02  0.20412106913E+04  0.20422665779E+04  0.00000000000E+00 0. -1.
          1    1    1    2  503    0 -0.16664122478E+02 -0.19355309212E+02 -0.47202011571E+01  0.25973087448E+02  0.00000000000E+00 0. -1.
<mgrwt>
<rscale>  0 0.40774223E+02</rscale>
<asrwt>0</asrwt>
<pdfrwt beam="2">  1        2 0.53385189E-02 0.25540575E+02</pdfrwt>
<pdfrwt beam="1">  1        1 0.35220313E+00 0.65093965E+02</pdfrwt>
<totfact> 0.41432421E+02</totfact>
</mgrwt>
</event>
<event>
 7    1  0.6493044E-004  0.7374470E+02  0.7546771E-02  0.1494378E+00
          1   -1    0    0  502    0 -0.00000000000E+00  0.00000000000E+00  0.13820728197E+03  0.13820728197E+03  0.00000000000E+00 0. -1.
          2   -1    0    0  503    0  0.00000000000E+00 -0.00000000000E+00 -0.51930677119E+03  0.51930677119E+03  0.00000000000E+00 0. -1.
         25    2    1    2    0    0 -0.66740015744E+01 -0.85122719617E+02 -0.20352853912E+03  0.25365259664E+03  0.12500141540E+03 0.  0.
          4    1    3    3  501    0 -0.59134186078E+02 -0.78343651495E+02 -0.12445982712E+03  0.15851322077E+03  0.12700000000E+01 0. -1.
         -4    1    3    3    0  501  0.52460184503E+02 -0.67790681227E+01 -0.79068711998E+02  0.95139375864E+02  0.12700000000E+01 0. -1.
          2    1    1    2  502    0  0.19201622242E+02  0.14156425085E+02  0.10734983419E+03  0.10996860265E+03  0.00000000000E+00 0. -1.
          1    1    1    2  503    0 -0.12527620668E+02  0.70966294532E+02 -0.28492078429E+03  0.29389285388E+03  0.00000000000E+00 0. -1.
<mgrwt>
<rscale>  0 0.41943420E+02</rscale>
<asrwt>0</asrwt>
<pdfrwt beam="2">  1        2 0.79893347E-01 0.73744703E+02</pdfrwt>
<pdfrwt beam="1">  1        1 0.21262659E-01 0.23855957E+02</pdfrwt>
<totfact> 0.17832220E+03</totfact>
</mgrwt>
</event>
<event>
 7    1  0.6493044E-004  0.8848269E+02  0.7546771E-02  0.1405369E+00
          1   -1    0    0  502    0 -0.00000000000E+00  0.00000000000E+00  0.24674122373E+04  0.24674122373E+04  0.00000000000E+00 0. -1.
          2   -1    0    0  503    0  0.00000000000E+00 -0.00000000000E+00 -0.17216118214E+03  0.17216118214E+03  0.00000000000E+00 0. -1.
         25    2    1    2    0    0  0.57344815593E+02  0.24056530673E+02  0.11385901021E+04  0.11471176464E+04  0.12499731824E+03 0.  0.
          4    1    3    3  501    0 -0.38909536370E+02 -0.38099106878E+01  0.35333411910E+03  0.35549272856E+03  0.12700000000E+01 0. -1.
         -4    1    3    3    0  501  0.96254351963E+02  0.27866441361E+02  0.78525598297E+03  0.79162491782E+03  0.12700000000E+01 0. -1.
          2    1    1    2  502    0 -0.89979557892E+02 -0.44168312145E+02  0.13204457211E+04  0.13242447141E+04  0.00000000000E+00 0. -1.
          1    1    1    2  503    0  0.32634742299E+02  0.20111781472E+02 -0.16378476792E+03  0.16821105897E+03  0.00000000000E+00 0. -1.
<mgrwt>
<rscale>  0 0.58240126E+02</rscale>
<asrwt>0</asrwt>
<pdfrwt beam="2">  1        2 0.26486338E-01 0.38334190E+02</pdfrwt>
<pdfrwt beam="1">  1        1 0.37960186E+00 0.88482690E+02</pdfrwt>
<totfact> 0.50753082E+01</totfact>
</mgrwt>
</event>
<event>
 7    1  0.6493044E-004  0.2476019E+03  0.7546771E-02  0.1257826E+00
         -2   -1    0    0    0  501 -0.00000000000E+00  0.00000000000E+00  0.52461463282E+03  0.52461463282E+03  0.00000000000E+00 0.  1.
          2   -1    0    0  503    0  0.00000000000E+00 -0.00000000000E+00 -0.30889187469E+03  0.30889187469E+03  0.00000000000E+00 0. -1.
         25    2    1    2    0    0  0.19291955061E+03  0.88150772544E+02  0.33124071335E+03  0.41271219949E+03  0.12498975045E+03 0.  0.
          4    1    3    3  502    0  0.20324480691E+03  0.53738062370E+02  0.28159309420E+03  0.35141501744E+03  0.12700000000E+01 0.  1.
         -4    1    3    3    0  502 -0.10325256301E+02  0.34412710174E+02  0.49647619156E+02  0.61297182048E+02  0.12700000000E+01 0.  1.
          1    1    1    2  503    0 -0.24181635414E+03 -0.76758916351E+02 -0.19963516696E+03  0.32283320811E+03  0.00000000000E+00 0. -1.
         -1    1    1    2    0  501  0.48896803534E+02 -0.11391856193E+02  0.84117211747E+02  0.97961099909E+02  0.00000000000E+00 0.  1.
<mgrwt>
<rscale>  0 0.11149516E+03</rscale>
<asrwt>0</asrwt>
<pdfrwt beam="2">  1        2 0.47521827E-01 0.24760187E+03</pdfrwt>
<pdfrwt beam="1">  1       -2 0.80709944E-01 0.50206292E+02</pdfrwt>
<totfact> 0.15386081E+02</totfact>
</mgrwt>
</event>
<event>
 7    1  0.6493044E-004  0.7065643E+02  0.7546771E-02  0.1390827E+00
          2   -1    0    0  503    0  0.00000000000E+00  0.00000000000E+00  0.15051911502E+03  0.15051911502E+03  0.00000000000E+00 0. -1.
          1   -1    0    0  502    0 -0.00000000000E+00 -0.00000000000E+00 -0.14342187105E+04  0.14342187105E+04  0.00000000000E+00 0. -1.
         25    2    1    2    0    0  0.64569331421E+02 -0.91172015750E+02 -0.12553135386E+03  0.20944446267E+03  0.12500930815E+03 0.  0.
          4    1    3    3  501    0  0.15729912267E+02  0.31527673691E+02 -0.31969015880E+02  0.47592596322E+02  0.12700000000E+01 0. -1.
         -4    1    3    3    0  501  0.48839419154E+02 -0.12269968944E+03 -0.93562337976E+02  0.16185186635E+03  0.12700000000E+01 0. -1.
          2    1    1    2  502    0 -0.75282124037E+01  0.53352854065E+02 -0.12553087994E+04  0.12564646365E+04  0.00000000000E+00 0. -1.
          1    1    1    2  503    0 -0.57041119017E+02  0.37819161684E+02  0.97140557737E+02  0.11882872635E+03  0.00000000000E+00 0. -1.
<mgrwt>
<rscale>  0 0.61701415E+02</rscale>
<asrwt>0</asrwt>
<pdfrwt beam="1">  1        2 0.23156787E-01 0.70656431E+02</pdfrwt>
<pdfrwt beam="2">  1        1 0.22064903E+00 0.53881361E+02</pdfrwt>
<totfact> 0.28191194E+02</totfact>
</mgrwt>
</event>
<event>
 7    1  0.6493044E-004  0.5033058E+02  0.7546771E-02  0.1483300E+00
          1   -1    0    0  503    0  0.00000000000E+00  0.00000000000E+00  0.24527345325E+04  0.24527345325E+04  0.00000000000E+00 0. -1.
         -1   -1    0    0    0  501 -0.00000000000E+00 -0.00000000000E+00 -0.91853737824E+01  0.91853737824E+01  0.00000000000E+00 0.  1.
         25    2    1    2    0    0 -0.47507285759E+01 -0.14262426142E+02  0.21547941414E+04  0.21584688832E+04  0.12499656755E+03 0.  0.
          4    1    3    3  502    0  0.56478800977E+02 -0.27722599516E+02  0.10094228641E+04  0.10113824840E+04  0.12700000000E+01 0. -1.
         -4    1    3    3    0  502 -0.61229529553E+02  0.13460173373E+02  0.11453712772E+04  0.11470863992E+04  0.12700000000E+01 0. -1.
          2    1    1    2  503    0 -0.38179038444E+01 -0.37569575884E+02  0.15988314607E+03  0.16428228699E+03  0.00000000000E+00 0. -1.
         -2    1    1    2    0  501  0.85686324204E+01  0.51832002027E+02  0.12887187133E+03  0.13916873613E+03  0.00000000000E+00 0.  1.
<mgrwt>
<rscale>  0 0.43596298E+02</rscale>
<asrwt>0</asrwt>
<pdfrwt beam="1">  1        1 0.37734325E+00 0.37763070E+02</pdfrwt>
<pdfrwt beam="2">  1       -1 0.14131364E-02 0.50330581E+02</pdfrwt>
<totfact> 0.20450385E+03</totfact>
</mgrwt>
</event>
<event>
 7    1  0.6493044E-004  0.2200063E+03  0.7546771E-02  0.1245914E+00
          1   -1    0    0  502    0 -0.00000000000E+00  0.00000000000E+00  0.70414507510E+03  0.70414507510E+03  0.00000000000E+00 0. -1.
          2   -1    0    0  503    0  0.00000000000E+00 -0.00000000000E+00 -0.13945593656E+04  0.13945593656E+04  0.00000000000E+00 0. -1.
         25    2    1    2    0    0 -0.11860778628E+03  0.24572406261E+03  0.11089133020E+03  0.31995305526E+03  0.12499979420E+03 0.  0.
          4    1    3    3  501    0 -0.16204920215E+02 -0.13544596398E+02  0.10895653459E+02  0.23798817093E+02  0.12700000000E+01 0. -1.
         -4    1    3    3    0  501 -0.10240286606E+03  0.25926865900E+03  0.99995676741E+02  0.29615423817E+03  0.12700000000E+01 0. -1.
          2    1    1    2  502    0  0.50388812307E+02 -0.38839552399E+02  0.47740106222E+03  0.48162155002E+03  0.00000000000E+00 0. -1.
          1    1    1    2  503    0  0.68218973970E+02 -0.20688451021E+03 -0.12787066829E+04  0.12971298354E+04  0.00000000000E+00 0. -1.
<mgrwt>
<rscale>  0 0.11830836E+03</rscale>
<asrwt>0</asrwt>
<pdfrwt beam="2">  1        2 0.21454759E+00 0.22000628E+03</pdfrwt>
<pdfrwt beam="1">  1        1 0.10833001E+00 0.63620305E+02</pdfrwt>
<totfact> 0.64507873E+01</totfact>
</mgrwt>
</event>
<event>
 7    1  0.6493044E-004  0.7221101E+02  0.7546771E-02  0.1510681E+00
          1   -1    0    0  502    0 -0.00000000000E+00  0.00000000000E+00  0.15951493441E+03  0.15951493441E+03  0.00000000000E+00 0. -1.
          2   -1    0    0  503    0  0.00000000000E+00 -0.00000000000E+00 -0.12111450491E+04  0.12111450491E+04  0.00000000000E+00 0. -1.
         25    2    1    2    0    0 -0.65335564055E+02  0.51697731896E+02 -0.31372719423E+03  0.34784349012E+03  0.12501579822E+03 0.  0.
          4    1    3    3  501    0 -0.72121933829E+02  0.82841352752E+02 -0.18437540673E+03  0.21461632411E+03  0.12700000000E+01 0.  1.
         -4    1    3    3    0  501  0.67863697743E+01 -0.31143620855E+02 -0.12935178750E+03  0.13322716602E+03  0.12700000000E+01 0.  1.
          2    1    1    2  502    0  0.65460683577E+02 -0.29908802118E+02  0.13322201403E+03  0.15141909576E+03  0.00000000000E+00 0. -1.
          1    1    1    2  503    0 -0.12511952182E+00 -0.21788929778E+02 -0.87112493450E+03  0.87139739765E+03  0.00000000000E+00 0. -1.
<mgrwt>
<rscale>  0 0.39666441E+02</rscale>
<asrwt>0</asrwt>
<pdfrwt beam="2">  1        2 0.18633001E+00 0.21789289E+02</pdfrwt>
<pdfrwt beam="1">  1        1 0.24540759E-01 0.72211008E+02</pdfrwt>
<totfact> 0.60142977E+02</totfact>
</mgrwt>
</event>
<event>
 7    1  0.6493044E-004  0.5770964E+02  0.7546771E-02  0.1448234E+00
          1   -1    0    0  503    0  0.00000000000E+00  0.00000000000E+00  0.65402147009E+03  0.65402147009E+03  0.00000000000E+00 0. -1.
         -1   -1    0    0    0  501 -0.00000000000E+00 -0.00000000000E+00 -0.15945334824E+03  0.15945334824E+03  0.00000000000E+00 0.  1.
         25    2    1    2    0    0  0.36688870301E+02  0.30655911678E+02  0.44492128715E+02  0.14102976346E+03  0.12499594609E+03 0.  0.
          4    1    3    3  502    0  0.53032395441E+02 -0.28919990903E+02  0.50775215355E+02  0.78921075983E+02  0.12700000000E+01 0. -1.
         -4    1    3    3    0  502 -0.16343525140E+02  0.59575902581E+02 -0.62830866393E+01  0.62108687476E+02  0.12700000000E+01 0. -1.
          2    1    1    2  503    0 -0.31126461936E+02  0.28794880855E+02  0.55237222466E+03  0.55399736134E+03  0.00000000000E+00 0. -1.
         -2    1    1    2    0  501 -0.55624083655E+01 -0.59450792532E+02 -0.10229623152E+03  0.11844769353E+03  0.00000000000E+00 0.  1.
<mgrwt>
<rscale>  0 0.49467699E+02</rscale>
<asrwt>0</asrwt>
<pdfrwt beam="1">  1        1 0.10061869E+00 0.42402851E+02</pdfrwt>
<pdfrwt beam="2">  1       -1 0.24531285E-01 0.57709640E+02</pdfrwt>
<totfact> 0.46416625E+02</totfact>
</mgrwt>
</event>
<event>
 7    1  0.6493044E-004  0.4216425E+02  0.7546771E-02  0.1529538E+00
          2   -1    0    0  503    0  0.00000000000E+00  0.00000000000E+00  0.35342154364E+03  0.35342154364E+03  0.00000000000E+00 0. -1.
         -2   -1    0    0    0  501 -0.00000000000E+00 -0.00000000000E+00 -0.45598491638E+02  0.45598491638E+02  0.00000000000E+00 0.  1.
         25    2    1    2    0    0  0.25288056483E+02 -0.11940362041E+02  0.26784446448E+03  0.29689629060E+03  0.12499876868E+03 0.  0.
          4    1    3    3  502    0 -0.12402832108E+02 -0.33599127928E+02  0.12622634413E+02  0.37995729251E+02  0.12700000000E+01 0. -1.
         -4    1    3    3    0  502  0.37690888591E+02  0.21658765887E+02  0.25522183007E+03  0.25890056135E+03  0.12700000000E+01 0. -1.
          1    1    1    2  503    0 -0.54331639018E+02  0.27388218564E+02  0.29347128814E+02  0.67552168612E+02  0.00000000000E+00 0. -1.
         -1    1    1    2    0  501  0.29043582535E+02 -0.15447856523E+02  0.10631458708E+02  0.34571576069E+02  0.00000000000E+00 0.  1.
<mgrwt>
<rscale>  0 0.37243085E+02</rscale>
<asrwt>0</asrwt>
<pdfrwt beam="1">  1        2 0.54372543E-01 0.42164249E+02</pdfrwt>
<pdfrwt beam="2">  1       -2 0.70151528E-02 0.32896291E+02</pdfrwt>
<totfact> 0.88221651E+03</totfact>
</mgrwt>
</event>
<event>
 7    1  0.6493044E-004  0.1180251E+03  0.7546771E-02  0.1399257E+00
          1   -1    0    0  502    0 -0.00000000000E+00  0.00000000000E+00  0.83004618332E+02  0.83004618332E+02  0.00000000000E+00 0. -1.
          2   -1    0    0  503    0  0.00000000000E+00 -0.00000000000E+00 -0.93069170482E+03  0.93069170482E+03  0.00000000000E+00 0. -1.
         25    2    1    2    0    0  0.70289607318E+02  0.11300860794E+03 -0.15672644040E+03  0.24062678724E+03  0.12500599686E+03 0.  0.
          4    1    3    3  501    0  0.87145339088E+02  0.10209585604E+03 -0.16993532855E+03  0.21655831255E+03  0.12700000000E+01 0.  1.
         -4    1    3    3    0  501 -0.16855731770E+02  0.10912751901E+02  0.13208888151E+02  0.24068474687E+02  0.12700000000E+01 0.  1.
          2    1    1    2  502    0 -0.75840969078E+02 -0.83364921731E+02 -0.37299722138E+02  0.11871323447E+03  0.00000000000E+00 0. -1.
          1    1    1    2  503    0  0.55513617595E+01 -0.29643686205E+02 -0.65366092394E+03  0.65435630144E+03  0.00000000000E+00 0. -1.
<mgrwt>
<rscale>  0 0.59661706E+02</rscale>
<asrwt>0</asrwt>
<pdfrwt beam="2">  1        2 0.14318333E+00 0.30159008E+02</pdfrwt>
<pdfrwt beam="1">  1        1 0.12769942E-01 0.11802507E+03</pdfrwt>
<totfact> 0.19364825E+03</totfact>
</mgrwt>
</event>
<event>
 7    1  0.6493044E-004  0.1017217E+03  0.7546771E-02  0.1321408E+00
         -2   -1    0    0    0  501 -0.00000000000E+00  0.00000000000E+00  0.13649460704E+03  0.13649460704E+03  0.00000000000E+00 0.  1.
          2   -1    0    0  503    0  0.00000000000E+00 -0.00000000000E+00 -0.20341925099E+04  0.20341925099E+04  0.00000000000E+00 0. -1.
         25    2    1    2    0    0  0.10270403742E+03  0.66987946131E+02 -0.26657290467E+03  0.31893782985E+03  0.12499888628E+03 0.  0.
          4    1    3    3  502    0  0.20484108832E+02  0.63715572478E+02 -0.40229274295E+02  0.78097889223E+02  0.12700000000E+01 0. -1.
         -4    1    3    3    0  502  0.82219928590E+02  0.32723736530E+01 -0.22634363038E+03  0.24083994062E+03  0.12700000000E+01 0. -1.
          1    1    1    2  503    0 -0.11772458261E+01 -0.67315553980E+02 -0.17172764699E+04  0.17185957185E+04  0.00000000000E+00 0. -1.
         -1    1    1    2    0  501 -0.10152679160E+03  0.32760784893E+00  0.86151471714E+02  0.13315356855E+03  0.00000000000E+00 0.  1.
<mgrwt>
<rscale>  0 0.82755679E+02</rscale>
<asrwt>0</asrwt>
<pdfrwt beam="2">  1        2 0.31295268E+00 0.67325847E+02</pdfrwt>
<pdfrwt beam="1">  1       -2 0.20999171E-01 0.10172174E+03</pdfrwt>
<totfact> 0.15636028E+02</totfact>
</mgrwt>
</event>
<event>
 7    1  0.6493044E-004  0.5112649E+02  0.7546771E-02  0.1468508E+00
          2   -1    0    0  503    0  0.00000000000E+00  0.00000000000E+00  0.14419324951E+03  0.14419324951E+03  0.00000000000E+00 0. -1.
         -2   -1    0    0    0  501 -0.00000000000E+00 -0.00000000000E+00 -0.12771771291E+04  0.12771771291E+04  0.00000000000E+00 0.  1.
         25    2    1    2    0    0  0.55867765599E+02  0.48516082239E+02 -0.23913025169E+03  0.27979080556E+03  0.12499840052E+03 0.  0.
          4    1    3    3  502    0  0.35428081754E+02 -0.38440728384E+02 -0.11988418895E+03  0.13079247011E+03  0.12700000000E+01 0. -1.
         -4    1    3    3    0  502  0.20439683845E+02  0.86956810623E+02 -0.11924606273E+03  0.14899833545E+03  0.12700000000E+01 0. -1.
          1    1    1    2  503    0 -0.14574360505E+02 -0.48759164185E+02  0.11819680809E+03  0.12868703710E+03  0.00000000000E+00 0. -1.
         -1    1    1    2    0  501 -0.41293405094E+02  0.24308194657E+00 -0.10120504360E+04  0.10128925359E+04  0.00000000000E+00 0.  1.
<mgrwt>
<rscale>  0 0.45948052E+02</rscale>
<asrwt>0</asrwt>
<pdfrwt beam="1">  1        2 0.22183577E-01 0.51126491E+02</pdfrwt>
<pdfrwt beam="2">  1       -2 0.19648879E+00 0.41294121E+02</pdfrwt>
<totfact> 0.40401841E+01</totfact>
</mgrwt>
</event>
<event>
 7    1  0.6493044E-004  0.9982733E+02  0.7546771E-02  0.1320578E+00
          1   -1    0    0  502    0 -0.00000000000E+00  0.00000000000E+00  0.14788762610E+04  0.14788762610E+04  0.00000000000E+00 0. -1.
          2   -1    0    0  503    0  0.00000000000E+00 -0.00000000000E+00 -0.65877394642E+02  0.65877394642E+02  0.00000000000E+00 0. -1.
         25    2    1    2    0    0  0.43191049845E+02 -0.20454617715E+02  0.20214979743E+03  0.24243155723E+03  0.12499864466E+03 0.  0.
          4    1    3    3  501    0  0.28794445286E+02  0.49121496095E+02  0.12600874103E+03  0.13828180348E+03  0.12700000000E+01 0.  1.
         -4    1    3    3    0  501  0.14396604559E+02 -0.69576113809E+02  0.76141056400E+02  0.10414975375E+03  0.12700000000E+01 0.  1.
          2    1    1    2  502    0 -0.61062157671E+02  0.87217760525E+02  0.12267839301E+04  0.12313952802E+04  0.00000000000E+00 0. -1.
          1    1    1    2  503    0  0.17871107826E+02 -0.66763142810E+02 -0.15934861254E+02  0.70926818172E+02  0.00000000000E+00 0. -1.
<mgrwt>
<rscale>  0 0.83062803E+02</rscale>
<asrwt>0</asrwt>
<pdfrwt beam="2">  1        2 0.10134985E-01 0.69113629E+02</pdfrwt>
<pdfrwt beam="1">  1        1 0.22751940E+00 0.99827334E+02</pdfrwt>
<totfact> 0.63951333E+02</totfact>
</mgrwt>
</event>
<event>
 7    1  0.6493044E-004  0.1363952E+03  0.7546771E-02  0.1234725E+00
         -1   -1    0    0    0  501 -0.00000000000E+00  0.00000000000E+00  0.94679351624E+02  0.94679351624E+02  0.00000000000E+00 0.  1.
          1   -1    0    0  503    0  0.00000000000E+00 -0.00000000000E+00 -0.20902711033E+04  0.20902711033E+04  0.00000000000E+00 0. -1.
         25    2    1    2    0    0  0.59614448463E+02  0.16708055941E+01 -0.22594705600E+03  0.26501606952E+03  0.12499908372E+03 0.  0.
          4    1    3    3  502    0  0.35312582371E+02 -0.47305977351E+02 -0.19146684669E+03  0.20036466816E+03  0.12700000000E+01 0. -1.
         -4    1    3    3    0  502  0.24301866092E+02  0.48976782945E+02 -0.34480209309E+02  0.64651401355E+02  0.12700000000E+01 0. -1.
          2    1    1    2  503    0 -0.10815091342E+03 -0.10588395414E+03 -0.17956916528E+04  0.18020589734E+04  0.00000000000E+00 0. -1.
         -2    1    1    2    0  501  0.48536464954E+02  0.10421314855E+03  0.26046957157E+02  0.11787541193E+03  0.00000000000E+00 0.  1.
<mgrwt>
<rscale>  0 0.12522065E+03</rscale>
<asrwt>0</asrwt>
<pdfrwt beam="2">  1        1 0.32158013E+00 0.13639522E+03</pdfrwt>
<pdfrwt beam="1">  1       -1 0.14566056E-01 0.11496160E+03</pdfrwt>
<totfact> 0.10442432E+02</totfact>
</mgrwt>
</event>
<event>
 7    1  0.6493044E-004  0.1476015E+03  0.7546771E-02  0.1259591E+00
          2   -1    0    0  503    0  0.00000000000E+00  0.00000000000E+00  0.17386694510E+04  0.17386694510E+04  0.00000000000E+00 0. -1.
          1   -1    0    0  502    0 -0.00000000000E+00 -0.00000000000E+00 -0.16767567999E+03  0.16767567999E+03  0.00000000000E+00 0. -1.
         25    2    1    2    0    0 -0.17892003746E+03 -0.13228407421E+03  0.38411876343E+03  0.46117609408E+03  0.12499883695E+03 0.  0.
          4    1    3    3  501    0 -0.88052731821E+02 -0.11051289084E+03  0.13632692300E+03  0.19634924359E+03  0.12700000000E+01 0.  1.
         -4    1    3    3    0  501 -0.90867305638E+02 -0.21771183370E+02  0.24779184043E+03  0.26482685049E+03  0.12700000000E+01 0.  1.
          2    1    1    2  502    0  0.10671939683E+03  0.91813247796E+02 -0.89038955680E+02  0.16657322041E+03  0.00000000000E+00 0. -1.
          1    1    1    2  503    0  0.72200640633E+02  0.40470826410E+02  0.12759139633E+04  0.12785958165E+04  0.00000000000E+00 0. -1.
<mgrwt>
<rscale>  0 0.11053021E+03</rscale>
<asrwt>0</asrwt>
<pdfrwt beam="1">  1        2 0.26748760E+00 0.82769682E+02</pdfrwt>
<pdfrwt beam="2">  1        1 0.25796260E-01 0.14760148E+03</pdfrwt>
<totfact> 0.28125133E+02</totfact>
</mgrwt>
</event>
<event>
 7    1  0.6493044E-004  0.5364141E+02  0.7546771E-02  0.1481243E+00
         -2   -1    0    0    0  501 -0.00000000000E+00  0.00000000000E+00  0.11401825971E+02  0.11401825971E+02  0.00000000000E+00 0.  1.
          2   -1    0    0  503    0  0.00000000000E+00 -0.00000000000E+00 -0.18743555060E+04  0.18743555060E+04  0.00000000000E+00 0. -1.
         25    2    1    2    0    0 -0.46988795131E+01  0.65510288541E+02 -0.77097639651E+03  0.78380009237E+03  0.12499721376E+03 0.  0.
          4    1    3    3  502    0 -0.15350051586E+02  0.43283526236E+02 -0.79029005285E+02  0.91412714124E+02  0.12700000000E+01 0.  1.
         -4    1    3    3    0  502  0.10651172073E+02  0.22226762306E+02 -0.69194739123E+03  0.69238737825E+03  0.12700000000E+01 0.  1.
          1    1    1    2  503    0 -0.27364203717E+02 -0.23313866965E+02 -0.94557554794E+03  0.94625866067E+03  0.00000000000E+00 0. -1.
         -1    1    1    2    0  501  0.32063083230E+02 -0.42196421576E+02 -0.14640173558E+03  0.15569857893E+03  0.00000000000E+00 0.  1.
<mgrwt>
<rscale>  0 0.43913086E+02</rscale>
<asrwt>0</asrwt>
<pdfrwt beam="2">  1        2 0.28836252E+00 0.35949076E+02</pdfrwt>
<pdfrwt beam="1">  1       -2 0.17541263E-02 0.53641410E+02</pdfrwt>
<totfact> 0.80601890E+03</totfact>
</mgrwt>
</event>
<event>
 7    1  0.6493044E-004  0.1780451E+03  0.7546771E-02  0.1193962E+00
         -2   -1    0    0    0  501 -0.00000000000E+00  0.00000000000E+00  0.41518396561E+03  0.41518396561E+03  0.00000000000E+00 0.  1.
          2   -1    0    0  503    0  0.00000000000E+00 -0.00000000000E+00 -0.69087555551E+03  0.69087555551E+03  0.00000000000E+00 0. -1.
         25    2    1    2    0    0 -0.99404975436E+02  0.53730332296E+02  0.15193870569E+03  0.22689229231E+03  0.12500577696E+03 0.  0.
          4    1    3    3  502    0  0.59276343553E+01  0.30083964075E+02  0.10459850461E+03  0.10900753098E+03  0.12700000000E+01 0. -1.
         -4    1    3    3    0  502 -0.10533260979E+03  0.23646368221E+02  0.47340201076E+02  0.11788476133E+03  0.12700000000E+01 0. -1.
          1    1    1    2  503    0 -0.86316563468E+02 -0.15572251328E+03 -0.58740427899E+03  0.61379462139E+03  0.00000000000E+00 0. -1.
         -1    1    1    2    0  501  0.18572153890E+03  0.10199218098E+03  0.15977398341E+03  0.26537260742E+03  0.00000000000E+00 0.  1.
<mgrwt>
<rscale>  0 0.15542448E+03</rscale>
<asrwt>0</asrwt>
<pdfrwt beam="2">  1        2 0.10628855E+00 0.17804508E+03</pdfrwt>
<pdfrwt beam="1">  1       -2 0.63874456E-01 0.13567783E+03</pdfrwt>
<totfact> 0.10217769E+02</totfact>
</mgrwt>
</event>
<event>
 7    1  0.6493044E-004  0.6441763E+02  0.7546771E-02  0.1480606E+00
          2   -1    0    0  503    0  0.00000000000E+00  0.00000000000E+00  0.16361335066E+04  0.16361335066E+04  0.00000000000E+00 0. -1.
          1   -1    0    0  502    0 -0.00000000000E+00 -0.00000000000E+00 -0.31243552517E+02  0.31243552517E+02  0.00000000000E+00 0. -1.
         25    2    1    2    0    0 -0.55199890312E+02 -0.61839698446E+02  0.27040755495E+03  0.30921642518E+03  0.12499350236E+03 0.  0.
          4    1    3    3  501    0  0.34084240564E+02  0.97714946457E+01  0.67072275504E+02  0.75878327629E+02  0.12700000000E+01 0. -1.
         -4    1    3    3    0  501 -0.89284130875E+02 -0.71611193091E+02  0.20333527945E+03  0.23333809755E+03  0.12700000000E+01 0. -1.
          2    1    1    2  502    0  0.29897083779E+02  0.32218482887E+01  0.93489050544E+01  0.31489965872E+02  0.00000000000E+00 0. -1.
          1    1    1    2  503    0  0.25302806533E+02  0.58617850157E+02  0.13251334940E+04  0.13266706680E+04  0.00000000000E+00 0. -1.
<mgrwt>
<rscale>  0 0.44011930E+02</rscale>
<asrwt>0</asrwt>
<pdfrwt beam="1">  1        2 0.25171278E+00 0.64417631E+02</pdfrwt>
<pdfrwt beam="2">  1        1 0.48067017E-02 0.30070183E+02</pdfrwt>
<totfact> 0.25179631E+03</totfact>
</mgrwt>
</event>
<event>
 7    1  0.6493044E-004  0.1065851E+03  0.7546771E-02  0.1435848E+00
          1   -1    0    0  502    0 -0.00000000000E+00  0.00000000000E+00  0.12248592527E+03  0.12248592527E+03  0.00000000000E+00 0. -1.
          2   -1    0    0  503    0  0.00000000000E+00 -0.00000000000E+00 -0.37385332827E+03  0.37385332827E+03  0.00000000000E+00 0. -1.
         25    2    1    2    0    0  0.24223242447E+02 -0.84331147897E+02 -0.85123992390E+02  0.17484126526E+03  0.12499946391E+03 0.  0.
          4    1    3    3  501    0  0.16077561020E+02  0.26316529640E+02  0.57820852856E+01  0.31402119529E+02  0.12700000000E+01 0. -1.
         -4    1    3    3    0  501  0.81456814274E+01 -0.11064767754E+03 -0.90906077676E+02  0.14343914573E+03  0.12700000000E+01 0. -1.
          2    1    1    2  502    0  0.13601527290E+02 -0.21188415960E+02  0.62162745902E+02  0.67068304687E+02  0.00000000000E+00 0. -1.
          1    1    1    2  503    0 -0.37824769738E+02  0.10551956386E+03 -0.22840615651E+03  0.25442968360E+03  0.00000000000E+00 0. -1.
<mgrwt>
<rscale>  0 0.51803856E+02</rscale>
<asrwt>0</asrwt>
<pdfrwt beam="2">  1        2 0.57515895E-01 0.10658510E+03</pdfrwt>
<pdfrwt beam="1">  1        1 0.18843989E-01 0.25178374E+02</pdfrwt>
<totfact> 0.29211757E+03</totfact>
</mgrwt>
</event>
<event>
 7    1  0.6493044E-004  0.4089161E+02  0.7546771E-02  0.1524762E+00
         -2   -1    0    0    0  501 -0.00000000000E+00  0.00000000000E+00  0.78456609980E+01  0.78456609980E+01  0.00000000000E+00 0.  1.
          2   -1    0    0  503    0  0.00000000000E+00 -0.00000000000E+00 -0.16385891400E+04  0.16385891400E+04  0.00000000000E+00 0. -1.
         25    2    1    2    0    0  0.23792338069E+02  0.13736171781E+02 -0.10351647135E+04  0.10430467867E+04  0.12500342892E+03 0.  0.
          4    1    3    3  502    0  0.16064018543E+01  0.44321057932E+02 -0.93392875602E+03  0.93498206984E+03  0.12700000000E+01 0. -1.
         -4    1    3    3    0  502  0.22185936215E+02 -0.30584886151E+02 -0.10123595752E+03  0.10806471682E+03  0.12700000000E+01 0. -1.
          1    1    1    2  503    0 -0.44754695389E+02  0.14304792719E+02 -0.48797937839E+03  0.49023615084E+03  0.00000000000E+00 0. -1.
         -1    1    1    2    0  501  0.20962357319E+02 -0.28040964500E+02 -0.10759938703E+03  0.11315186345E+03  0.00000000000E+00 0.  1.
<mgrwt>
<rscale>  0 0.37836817E+02</rscale>
<asrwt>0</asrwt>
<pdfrwt beam="2">  1        2 0.25209107E+00 0.40891613E+02</pdfrwt>
<pdfrwt beam="1">  1       -2 0.12070227E-02 0.35010229E+02</pdfrwt>
<totfact> 0.16098775E+04</totfact>
</mgrwt>
</event>
<event>
 7    1  0.6493044E-004  0.1254246E+03  0.7546771E-02  0.1396830E+00
         -2   -1    0    0    0  501 -0.00000000000E+00  0.00000000000E+00  0.82187793409E+03  0.82187793409E+03  0.00000000000E+00 0.  1.
          2   -1    0    0  503    0  0.00000000000E+00 -0.00000000000E+00 -0.13721132667E+04  0.13721132667E+04  0.00000000000E+00 0. -1.
         25    2    1    2    0    0 -0.11337148717E+03  0.15996464650E+02  0.20080004473E+03  0.26277735989E+03  0.12498920721E+03 0.  0.
          4    1    3    3  502    0 -0.53725344107E+02  0.43564821762E+02  0.22494857863E+02  0.72745706573E+02  0.12700000000E+01 0. -1.
         -4    1    3    3    0  502 -0.59646143062E+02 -0.27568357113E+02  0.17830518687E+03  0.19003165331E+03  0.12700000000E+01 0. -1.
          1    1    1    2  503    0  0.11739559621E+03 -0.44647127913E+02 -0.13378267744E+04  0.13437096302E+04  0.00000000000E+00 0. -1.
         -1    1    1    2    0  501 -0.40241090371E+01  0.28650663264E+02  0.58679139704E+03  0.58750421071E+03  0.00000000000E+00 0.  1.
<mgrwt>
<rscale>  0 0.60239268E+02</rscale>
<asrwt>0</asrwt>
<pdfrwt beam="2">  1        2 0.21109435E+00 0.12542458E+03</pdfrwt>
<pdfrwt beam="1">  1       -2 0.12644276E+00 0.28931885E+02</pdfrwt>
<totfact> 0.91291809E+00</totfact>
</mgrwt>
</event>
<event>
 7    1  0.6493044E-004  0.2841416E+02  0.7546771E-02  0.1625534E+00
          2   -1    0    0  503    0  0.00000000000E+00  0.00000000000E+00  0.11298248202E+04  0.11298248202E+04  0.00000000000E+00 0. -1.
         -2   -1    0    0    0  501 -0.00000000000E+00 -0.00000000000E+00 -0.11279419540E+03  0.11279419540E+03  0.00000000000E+00 0.  1.
         25    2    1    2    0    0  0.25693283920E+02  0.23610458277E+01  0.27577054413E+03  0.30387642598E+03  0.12500307949E+03 0.  0.
          4    1    3    3  502    0  0.57841330823E+02 -0.42268076125E+02  0.13717695558E+03  0.15476220421E+03  0.12700000000E+01 0.  1.
         -4    1    3    3    0  502 -0.32148046903E+02  0.44629121953E+02  0.13859358856E+03  0.14911422177E+03  0.12700000000E+01 0.  1.
          1    1    1    2  503    0 -0.88915116284E+01 -0.25408790863E+02  0.83772093883E+03  0.83815334932E+03  0.00000000000E+00 0. -1.
         -1    1    1    2    0  501 -0.16801772292E+02  0.23047745035E+02 -0.96460858168E+02  0.10058924029E+03  0.00000000000E+00 0.  1.
<mgrwt>
<rscale>  0 0.27656794E+02</rscale>
<asrwt>0</asrwt>
<pdfrwt beam="1">  1        2 0.17381919E+00 0.26919614E+02</pdfrwt>
<pdfrwt beam="2">  1       -2 0.17352954E-01 0.28414161E+02</pdfrwt>
<totfact> 0.60924859E+02</totfact>
</mgrwt>
</event>
<event>
 7    1  0.6493044E-004  0.5026272E+02  0.7546771E-02  0.1466552E+00
          1   -1    0    0  502    0 -0.00000000000E+00  0.00000000000E+00  0.83411481925E+03  0.83411481925E+03  0.00000000000E+00 0. -1.
          2   -1    0    0  503    0  0.00000000000E+00 -0.00000000000E+00 -0.32293400559E+03  0.32293400559E+03  0.00000000000E+00 0. -1.
         25    2    1    2    0    0 -0.44220850945E+02  0.63093572738E+02  0.33768528946E+03  0.36822623367E+03  0.12499168721E+03 0.  0.
          4    1    3    3  501    0 -0.97365388837E+01 -0.17846034448E+02  0.22174457281E+03  0.22267813006E+03  0.12700000000E+01 0.  1.
         -4    1    3    3    0  501 -0.34484312061E+02  0.80939607185E+02  0.11594071664E+03  0.14554810361E+03  0.12700000000E+01 0.  1.
          2    1    1    2  502    0  0.40547801818E+02 -0.13058429523E+02  0.47816059507E+03  0.48005437347E+03  0.00000000000E+00 0. -1.
          1    1    1    2  503    0  0.36730491267E+01 -0.50035143214E+02 -0.30466507087E+03  0.30876821769E+03  0.00000000000E+00 0. -1.
<mgrwt>
<rscale>  0 0.46272291E+02</rscale>
<asrwt>0</asrwt>
<pdfrwt beam="2">  1        2 0.49682155E-01 0.50262715E+02</pdfrwt>
<pdfrwt beam="1">  1        1 0.12832536E+00 0.42598672E+02</pdfrwt>
<totfact> 0.32567163E+02</totfact>
</mgrwt>
</event>
<event>
 7    1  0.6493044E-004  0.1103401E+03  0.7546771E-02  0.1356696E+00
          2   -1    0    0  503    0  0.00000000000E+00  0.00000000000E+00  0.25819930159E+04  0.25819930159E+04  0.00000000000E+00 0. -1.
          1   -1    0    0  502    0 -0.00000000000E+00 -0.00000000000E+00 -0.19574100630E+02  0.19574100630E+02  0.00000000000E+00 0. -1.
         25    2    1    2    0    0 -0.12236289038E+03  0.44359201331E+02  0.12535098221E+04  0.12664327358E+04  0.12499833844E+03 0.  0.
          4    1    3    3  501    0 -0.66824820839E+00 -0.14401352716E+02  0.16035843369E+02  0.21601080720E+02  0.12700000000E+01 0.  1.
         -4    1    3    3    0  501 -0.12169464217E+03  0.58760554047E+02  0.12374739787E+04  0.12448316551E+04  0.12700000000E+01 0.  1.
          2    1    1    2  502    0  0.17045025250E+02 -0.42399251552E+02  0.36802610904E+02  0.58674198651E+02  0.00000000000E+00 0. -1.
          1    1    1    2  503    0  0.10531786513E+03 -0.19599497791E+01  0.12721064823E+04  0.12764601821E+04  0.00000000000E+00 0. -1.
<mgrwt>
<rscale>  0 0.71008649E+02</rscale>
<asrwt>0</asrwt>
<pdfrwt beam="1">  1        2 0.39722943E+00 0.11034011E+03</pdfrwt>
<pdfrwt beam="2">  1        1 0.30114021E-02 0.45697149E+02</pdfrwt>
<totfact> 0.15336256E+03</totfact>
</mgrwt>
</event>
<event>
 7    1  0.6493044E-004  0.1133387E+03  0.7546771E-02  0.1436952E+00
         -1   -1    0    0    0  501 -0.00000000000E+00  0.00000000000E+00  0.11359609002E+04  0.11359609002E+04  0.00000000000E+00 0.  1.
          1   -1    0    0  503    0  0.00000000000E+00 -0.00000000000E+00 -0.80300518916E+03  0.80300518916E+03  0.00000000000E+00 0. -1.
         25    2    1    2    0    0  0.13192836666E+03 -0.14552062085E+02 -0.17364922172E+02  0.18314337425E+03  0.12499239404E+03 0.  0.
          4    1    3    3  502    0  0.83928443644E+02 -0.49007462706E+02  0.35867675359E+02  0.10360414127E+03  0.12700000000E+01 0. -1.
         -4    1    3    3    0  502  0.47999923019E+02  0.34455400622E+02 -0.53232597531E+02  0.79539232972E+02  0.12700000000E+01 0. -1.
          2    1    1    2  503    0 -0.21657204883E+02 -0.90771562975E+01 -0.69953418222E+03  0.69992821160E+03  0.00000000000E+00 0. -1.
         -2    1    1    2    0  501 -0.11027116178E+03  0.23629218382E+02  0.10498548154E+04  0.10558945035E+04  0.00000000000E+00 0.  1.
<mgrwt>
<rscale>  0 0.51589531E+02</rscale>
<asrwt>0</asrwt>
<pdfrwt beam="2">  1        1 0.12353926E+00 0.23482532E+02</pdfrwt>
<pdfrwt beam="1">  1       -1 0.17476321E+00 0.11333871E+03</pdfrwt>
<totfact> 0.70089072E+00</totfact>
</mgrwt>
</event>
<event>
 7    1  0.6493044E-004  0.1050362E+03  0.7546771E-02  0.1423624E+00
          1   -1    0    0  502    0 -0.00000000000E+00  0.00000000000E+00  0.43446960157E+03  0.43446960157E+03  0.00000000000E+00 0. -1.
          2   -1    0    0  503    0  0.00000000000E+00 -0.00000000000E+00 -0.96338450646E+03  0.96338450646E+03  0.00000000000E+00 0. -1.
         25    2    1    2    0    0 -0.73879953849E+02 -0.36175155569E+02 -0.20265849602E+03  0.25191548220E+03  0.12499621875E+03 0.  0.
          4    1    3    3  501    0  0.28138664412E+02  0.18635034751E+02 -0.48383154790E+02  0.59005012690E+02  0.12700000000E+01 0. -1.
         -4    1    3    3    0  501 -0.10201861826E+03 -0.54810190320E+02 -0.15427534123E+03  0.19291046951E+03  0.12700000000E+01 0. -1.
          2    1    1    2  502    0  0.86101064900E+02  0.61402276846E+02  0.40274532373E+03  0.41639816133E+03  0.00000000000E+00 0. -1.
          1    1    1    2  503    0 -0.12221111051E+02 -0.25227121277E+02 -0.72900173260E+03  0.72954046449E+03  0.00000000000E+00 0. -1.
<mgrwt>
<rscale>  0 0.54261578E+02</rscale>
<asrwt>0</asrwt>
<pdfrwt beam="2">  1        2 0.14821300E+00 0.28031468E+02</pdfrwt>
<pdfrwt beam="1">  1        1 0.66841477E-01 0.10503620E+03</pdfrwt>
<totfact> 0.23416197E+02</totfact>
</mgrwt>
</event>
<event>
 7    1  0.6493044E-004  0.1273751E+03  0.7546771E-02  0.1341423E+00
          2   -1    0    0  503    0  0.00000000000E+00  0.00000000000E+00  0.18523174360E+04  0.18523174360E+04  0.00000000000E+00 0. -1.
         -2   -1    0    0    0  501 -0.00000000000E+00 -0.00000000000E+00 -0.14101798218E+03  0.14101798218E+03  0.00000000000E+00 0.  1.
         25    2    1    2    0    0 -0.13776064420E+01  0.14004083735E+03  0.37554163142E+03  0.41984861607E+03  0.12501203766E+03 0.  0.
          4    1    3    3  502    0  0.25261881823E+01  0.16163153540E+03  0.29530823531E+03  0.33665962277E+03  0.12700000000E+01 0. -1.
         -4    1    3    3    0  502 -0.39037946243E+01 -0.21590698049E+02  0.80233396112E+02  0.83188993301E+02  0.12700000000E+01 0. -1.
          1    1    1    2  503    0 -0.40316706253E+02 -0.20221383163E+02  0.14203102408E+04  0.14210262211E+04  0.00000000000E+00 0. -1.
         -1    1    1    2    0  501  0.41694312695E+02 -0.11981945418E+03 -0.84552418342E+02  0.15246058100E+03  0.00000000000E+00 0.  1.
<mgrwt>
<rscale>  0 0.75796351E+02</rscale>
<asrwt>0</asrwt>
<pdfrwt beam="1">  1        2 0.28497190E+00 0.45103671E+02</pdfrwt>
<pdfrwt beam="2">  1       -2 0.21695075E-01 0.12737515E+03</pdfrwt>
<totfact> 0.19145733E+02</totfact>
</mgrwt>
</event>
<event>
 7    1  0.6493044E-004  0.9878010E+02  0.7546771E-02  0.1386448E+00
         -2   -1    0    0    0  501 -0.00000000000E+00  0.00000000000E+00  0.86074564722E+02  0.86074564722E+02  0.00000000000E+00 0.  1.
          2   -1    0    0  503    0  0.00000000000E+00 -0.00000000000E+00 -0.21707747419E+04  0.21707747419E+04  0.00000000000E+00 0. -1.
         25    2    1    2    0    0 -0.18243944003E+02  0.10152206258E+03 -0.82720667673E+03  0.84293871424E+03  0.12504087037E+03 0.  0.
          4    1    3    3  502    0 -0.32571497456E+02  0.46042893333E+02 -0.71231183006E+03  0.71454223571E+03  0.12700000000E+01 0.  1.
         -4    1    3    3    0  502  0.14327553453E+02  0.55479169248E+02 -0.11489484667E+03  0.12839647854E+03  0.12700000000E+01 0.  1.
          1    1    1    2  503    0  0.39615367325E+02 -0.49541571062E+01 -0.13040046332E+04  0.13046156539E+04  0.00000000000E+00 0. -1.
         -1    1    1    2    0  501 -0.21371423322E+02 -0.96567905475E+02  0.46511132764E+02  0.10929493846E+03  0.00000000000E+00 0.  1.
<mgrwt>
<rscale>  0 0.62798813E+02</rscale>
<asrwt>0</asrwt>
<pdfrwt beam="2">  1        2 0.33396532E+00 0.39923940E+02</pdfrwt>
<pdfrwt beam="1">  1       -2 0.13242242E-01 0.98780104E+02</pdfrwt>
<totfact> 0.30448167E+02</totfact>
</mgrwt>
</event>
<event>
 7    1  0.6493044E-004  0.1456233E+03  0.7546771E-02  0.1218837E+00
          1   -1    0    0  502    0 -0.00000000000E+00  0.00000000000E+00  0.85068646697E+03  0.85068646697E+03  0.00000000000E+00 0. -1.
          2   -1    0    0  503    0  0.00000000000E+00 -0.00000000000E+00 -0.31311958799E+04  0.31311958799E+04  0.00000000000E+00 0. -1.
         25    2    1    2    0    0 -0.13487945337E+03  0.58399036080E+02 -0.63806096424E+03  0.66659501121E+03  0.12499680204E+03 0.  0.
          4    1    3    3  501    0 -0.10945999220E+03  0.97000315276E+02 -0.46466673475E+03  0.48714201044E+03  0.12700000000E+01 0.  1.
         -4    1    3    3    0  501 -0.25419461175E+02 -0.38601279196E+02 -0.17339422949E+03  0.17945300076E+03  0.12700000000E+01 0.  1.
          2    1    1    2  502    0  0.12912357107E+03  0.68453863692E+02  0.82839253628E+03  0.84118548622E+03  0.00000000000E+00 0. -1.
          1    1    1    2  503    0  0.57558822970E+01 -0.12685289977E+03 -0.24708409850E+04  0.24741018495E+04  0.00000000000E+00 0. -1.
<mgrwt>
<rscale>  0 0.13598435E+03</rscale>
<asrwt>0</asrwt>
<pdfrwt beam="2">  1        2 0.48172244E+00 0.12698342E+03</pdfrwt>
<pdfrwt beam="1">  1        1 0.13087484E+00 0.14562328E+03</pdfrwt>
<totfact> 0.58278894E+00</totfact>
</mgrwt>
</event>
<event>
 7    1  0.6493044E-004  0.6617014E+02  0.7546771E-02  0.1482695E+00
         -2   -1    0    0    0  501 -0.00000000000E+00  0.00000000000E+00  0.28907823654E+03  0.28907823654E+03  0.00000000000E+00 0.  1.
          2   -1    0    0  503    0  0.00000000000E+00 -0.00000000000E+00 -0.41605952409E+03  0.41605952409E+03  0.00000000000E+00 0. -1.
         25    2    1    2    0    0 -0.87915317971E+02 -0.26773746178E+02 -0.11604359148E+03  0.19375930729E+03  0.12502246766E+03 0.  0.
          4    1    3    3  502    0 -0.78225857382E+02 -0.64675641013E+02 -0.41696104619E+02  0.10973787561E+03  0.12700000000E+01 0.  1.
         -4    1    3    3    0  502 -0.96894605888E+01  0.37901894835E+02 -0.74347486860E+02  0.84021431677E+02  0.12700000000E+01 0.  1.
          1    1    1    2  503    0  0.28811141840E+02 -0.14181857685E+01 -0.25604998019E+03  0.25766972174E+03  0.00000000000E+00 0. -1.
         -1    1    1    2    0  501  0.59104176131E+02  0.28191931947E+02  0.24511228412E+03  0.25370873160E+03  0.00000000000E+00 0.  1.
<mgrwt>
<rscale>  0 0.43689191E+02</rscale>
<asrwt>0</asrwt>
<pdfrwt beam="2">  1        2 0.64009158E-01 0.28846025E+02</pdfrwt>
<pdfrwt beam="1">  1       -2 0.44473575E-01 0.66170137E+02</pdfrwt>
<totfact> 0.37543463E+02</totfact>
</mgrwt>
</event>
<event>
 7    1  0.6493044E-004  0.9208670E+02  0.7546771E-02  0.1316005E+00
          1   -1    0    0  503    0  0.00000000000E+00  0.00000000000E+00  0.31286101909E+04  0.31286101909E+04  0.00000000000E+00 0. -1.
         -1   -1    0    0    0  501 -0.00000000000E+00 -0.00000000000E+00 -0.59431500293E+03  0.59431500293E+03  0.00000000000E+00 0.  1.
         25    2    1    2    0    0 -0.43835575200E+02  0.87454697718E+01  0.82429704715E+03  0.83491835802E+03  0.12500000689E+03 0.  0.
          4    1    3    3  502    0 -0.86206115385E+02  0.20167030621E+02  0.52366963715E+03  0.53110234911E+03  0.12700000000E+01 0. -1.
         -4    1    3    3    0  502  0.42370540185E+02 -0.11421560849E+02  0.30062741000E+03  0.30381600891E+03  0.12700000000E+01 0. -1.
          2    1    1    2  503    0  0.62826610020E+02 -0.84455516042E+02  0.22952049566E+04  0.22976173985E+04  0.00000000000E+00 0. -1.
         -2    1    1    2    0  501 -0.18991034820E+02  0.75710046270E+02 -0.58520681575E+03  0.59038943733E+03  0.00000000000E+00 0.  1.
<mgrwt>
<rscale>  0 0.84781360E+02</rscale>
<asrwt>0</asrwt>
<pdfrwt beam="1">  1        1 0.48132464E+00 0.92086701E+02</pdfrwt>
<pdfrwt beam="2">  1       -1 0.91433079E-01 0.78055560E+02</pdfrwt>
<totfact> 0.92231985E-01</totfact>
</mgrwt>
</event>
<event>
 7    1  0.6493044E-004  0.1095918E+03  0.7546771E-02  0.1396016E+00
          2   -1    0    0  503    0  0.00000000000E+00  0.00000000000E+00  0.65030474714E+02  0.65030474714E+02  0.00000000000E+00 0. -1.
         -2   -1    0    0    0  501 -0.00000000000E+00 -0.00000000000E+00 -0.16408478330E+04  0.16408478330E+04  0.00000000000E+00 0.  1.
         25    2    1    2    0    0  0.82103009043E+02  0.93089527037E+02 -0.40291264246E+03  0.43973929599E+03  0.12500194738E+03 0.  0.
          4    1    3    3  502    0  0.11413096165E+03  0.80741353731E+02 -0.34715704756E+03  0.37425214920E+03  0.12700000000E+01 0. -1.
         -4    1    3    3    0  502 -0.32027952609E+02  0.12348173306E+02 -0.55755594895E+02  0.65487146788E+02  0.12700000000E+01 0. -1.
          1    1    1    2  503    0  0.74577448875E+01 -0.32481809938E+02  0.37926289827E+02  0.50488507560E+02  0.00000000000E+00 0. -1.
         -1    1    1    2    0  501 -0.89560753930E+02 -0.60607717099E+02 -0.12108310057E+04  0.12156505042E+04  0.00000000000E+00 0.  1.
<mgrwt>
<rscale>  0 0.60434753E+02</rscale>
<asrwt>0</asrwt>
<pdfrwt beam="1">  1        2 0.10004689E-01 0.33326955E+02</pdfrwt>
<pdfrwt beam="2">  1       -2 0.25243811E+00 0.10959175E+03</pdfrwt>
<totfact> 0.42152681E+01</totfact>
</mgrwt>
</event>
<event>
 7    1  0.6493044E-004  0.6018305E+02  0.7546771E-02  0.1441400E+00
          1   -1    0    0  502    0 -0.00000000000E+00  0.00000000000E+00  0.11343904048E+04  0.11343904048E+04  0.00000000000E+00 0. -1.
          2   -1    0    0  503    0  0.00000000000E+00 -0.00000000000E+00 -0.44013831653E+03  0.44013831653E+03  0.00000000000E+00 0. -1.
         25    2    1    2    0    0 -0.30297795154E+02 -0.70918868452E+02 -0.32160113015E+02  0.15035010193E+03  0.12499375179E+03 0.  0.
          4    1    3    3  501    0 -0.51617387628E+02 -0.93785106740E+02 -0.22765357554E+01  0.10708312877E+03  0.12700000000E+01 0. -1.
         -4    1    3    3    0  501  0.21319592474E+02  0.22866238288E+02 -0.29883577259E+02  0.43266973161E+02  0.12700000000E+01 0. -1.
          2    1    1    2  502    0 -0.19785920330E+02  0.37924471963E+02  0.10722883103E+04  0.10731411690E+04  0.00000000000E+00 0. -1.
          1    1    1    2  503    0  0.50083715484E+02  0.32994396488E+02 -0.34587610904E+03  0.35103745036E+03  0.00000000000E+00 0. -1.
<mgrwt>
<rscale>  0 0.50738184E+02</rscale>
<asrwt>0</asrwt>
<pdfrwt beam="2">  1        2 0.67713588E-01 0.60183047E+02</pdfrwt>
<pdfrwt beam="1">  1        1 0.17452160E+00 0.42775556E+02</pdfrwt>
<totfact> 0.14554019E+02</totfact>
</mgrwt>
</event>
<event>
 7    1  0.6493044E-004  0.5163375E+02  0.7546771E-02  0.1469665E+00
          2   -1    0    0  503    0  0.00000000000E+00  0.00000000000E+00  0.13046920651E+04  0.13046920651E+04  0.00000000000E+00 0. -1.
         -2   -1    0    0    0  501 -0.00000000000E+00 -0.00000000000E+00 -0.64042266656E+02  0.64042266656E+02  0.00000000000E+00 0.  1.
         25    2    1    2    0    0 -0.20883306132E+02 -0.66122372135E+00  0.86718680635E+02  0.15355372925E+03  0.12498827346E+03 0.  0.
          4    1    3    3  502    0  0.49830445305E+02 -0.10151423094E+02  0.16599372069E+02  0.53509594684E+02  0.12700000000E+01 0. -1.
         -4    1    3    3    0  502 -0.70713751437E+02  0.94901993725E+01  0.70119308566E+02  0.10004413456E+03  0.12700000000E+01 0. -1.
          3    1    1    2  503    0  0.37669447888E+02 -0.36252092888E+02  0.11702879896E+04  0.11714551550E+04  0.00000000000E+00 0. -1.
         -1    1    1    2    0  501 -0.16786141756E+02  0.36913316609E+02 -0.16356871860E+02  0.43725447456E+02  0.00000000000E+00 0.  1.
<mgrwt>
<rscale>  0 0.45757948E+02</rscale>
<asrwt>0</asrwt>
<pdfrwt beam="1">  1        2 0.20072184E+00 0.51633746E+02</pdfrwt>
<pdfrwt beam="2">  1       -2 0.98526573E-02 0.40550801E+02</pdfrwt>
<totfact> 0.11704417E+03</totfact>
</mgrwt>
</event>
<event>
 7    1  0.6493044E-004  0.1162996E+03  0.7546771E-02  0.1296895E+00
          2   -1    0    0  503    0  0.00000000000E+00  0.00000000000E+00  0.84820008023E+03  0.84820008023E+03  0.00000000000E+00 0. -1.
         -2   -1    0    0    0  501 -0.00000000000E+00 -0.00000000000E+00 -0.12187503287E+03  0.12187503287E+03  0.00000000000E+00 0.  1.
         25    2    1    2    0    0 -0.32932895851E+02 -0.62551103086E+02  0.91308490653E+02  0.17017005830E+03  0.12499356844E+03 0.  0.
          4    1    3    3  502    0 -0.11918332055E+01  0.12539602597E+02 -0.25062649287E+02  0.28078664302E+02  0.12700000000E+01 0.  1.
         -4    1    3    3    0  502 -0.31741062646E+02 -0.75090705683E+02  0.11637113994E+03  0.14209139400E+03  0.12700000000E+01 0.  1.
          1    1    1    2  503    0  0.73147479723E+01 -0.73214935331E+02  0.65603954295E+03  0.66015287185E+03  0.00000000000E+00 0. -1.
         -1    1    1    2    0  501  0.25618147879E+02  0.13576603842E+03 -0.21022986248E+02  0.13975218295E+03  0.00000000000E+00 0.  1.
<mgrwt>
<rscale>  0 0.92505457E+02</rscale>
<asrwt>0</asrwt>
<pdfrwt beam="1">  1        2 0.13049232E+00 0.73579428E+02</pdfrwt>
<pdfrwt beam="2">  1       -2 0.18750006E-01 0.11629962E+03</pdfrwt>
<totfact> 0.79357294E+02</totfact>
</mgrwt>
</event>
<event>
 7    1  0.6493044E-004  0.1407398E+03  0.7546771E-02  0.1290997E+00
          2   -1    0    0  503    0  0.00000000000E+00  0.00000000000E+00  0.12920632337E+04  0.12920632337E+04  0.00000000000E+00 0. -1.
         -2   -1    0    0    0  501 -0.00000000000E+00 -0.00000000000E+00 -0.45036543423E+03  0.45036543423E+03  0.00000000000E+00 0.  1.
         25    2    1    2    0    0  0.41502539715E+02 -0.10562324027E+03 -0.40209708427E+02  0.17355147998E+03  0.12499826344E+03 0.  0.
          4    1    3    3  502    0  0.29851364041E+02 -0.11352347445E+03  0.13361106756E+02  0.11814743018E+03  0.12700000000E+01 0.  1.
         -4    1    3    3    0  502  0.11651175674E+02  0.79002341741E+01 -0.53570815183E+02  0.55404049798E+02  0.12700000000E+01 0.  1.
          1    1    1    2  503    0  0.11603246922E+02  0.14175695174E+03  0.12182153412E+04  0.12264902308E+04  0.00000000000E+00 0. -1.
         -1    1    1    2    0  501 -0.53105786636E+02 -0.36133711465E+02 -0.33630783331E+03  0.34238695714E+03  0.00000000000E+00 0.  1.
<mgrwt>
<rscale>  0 0.95079584E+02</rscale>
<asrwt>0</asrwt>
<pdfrwt beam="1">  1        2 0.19877896E+00 0.14073976E+03</pdfrwt>
<pdfrwt beam="2">  1       -2 0.69286991E-01 0.64232933E+02</pdfrwt>
<totfact> 0.37382704E+01</totfact>
</mgrwt>
</event>
<event>
 7    1  0.6493044E-004  0.7503476E+02  0.7546771E-02  0.1436224E+00
          1   -1    0    0  503    0  0.00000000000E+00  0.00000000000E+00  0.95950911285E+03  0.95950911285E+03  0.00000000000E+00 0. -1.
         -1   -1    0    0    0  501 -0.00000000000E+00 -0.00000000000E+00 -0.34796672305E+03  0.34796672305E+03  0.00000000000E+00 0.  1.
         25    2    1    2    0    0 -0.16134698509E+02  0.41674625301E+02  0.29641993780E+02  0.13602116850E+03  0.12500403031E+03 0.  0.
          4    1    3    3  502    0 -0.53718947374E+01 -0.40928699184E+02  0.32663994859E+02  0.52655152930E+02  0.12700000000E+01 0. -1.
         -4    1    3    3    0  502 -0.10762803771E+02  0.82603324485E+02 -0.30220010788E+01  0.83366015567E+02  0.12700000000E+01 0. -1.
          2    1    1    2  503    0  0.58112180064E+01 -0.75812127215E+02  0.87394205687E+03  0.87724339134E+03  0.00000000000E+00 0. -1.
         -2    1    1    2    0  501  0.10323480502E+02  0.34137501915E+02 -0.29204166085E+03  0.29421127605E+03  0.00000000000E+00 0.  1.
<mgrwt>
<rscale>  0 0.51730680E+02</rscale>
<asrwt>0</asrwt>
<pdfrwt beam="1">  1        1 0.14761679E+00 0.75034760E+02</pdfrwt>
<pdfrwt beam="2">  1       -1 0.53533342E-01 0.35664314E+02</pdfrwt>
<totfact> 0.69190302E+01</totfact>
</mgrwt>
</event>
<event>
 7    1  0.6493044E-004  0.6482122E+02  0.7546771E-02  0.1434770E+00
          1   -1    0    0  502    0 -0.00000000000E+00  0.00000000000E+00  0.47858187773E+02  0.47858187773E+02  0.00000000000E+00 0. -1.
          2   -1    0    0  503    0  0.00000000000E+00 -0.00000000000E+00 -0.21281856253E+04  0.21281856253E+04  0.00000000000E+00 0. -1.
         25    2    1    2    0    0 -0.15792672688E+01  0.42657235461E+02 -0.12561273238E+04  0.12630543129E+04  0.12501283946E+03 0.  0.
          4    1    3    3  501    0  0.54177855596E+02  0.41334818986E+02 -0.90074202291E+03  0.90331700528E+03  0.12700000000E+01 0.  1.
         -4    1    3    3    0  501 -0.55757122865E+02  0.13224164759E+01 -0.35538530088E+03  0.35973730766E+03  0.12700000000E+01 0.  1.
          2    1    1    2  502    0 -0.38966829354E+02 -0.52559951370E+02  0.19487977301E+02  0.68269638472E+02  0.00000000000E+00 0. -1.
          1    1    1    2  503    0  0.40546096623E+02  0.99027159083E+01 -0.84368809102E+03  0.84471986165E+03  0.00000000000E+00 0. -1.
<mgrwt>
<rscale>  0 0.52014416E+02</rscale>
<asrwt>0</asrwt>
<pdfrwt beam="2">  1        2 0.32741317E+00 0.41737869E+02</pdfrwt>
<pdfrwt beam="1">  1        1 0.73627981E-02 0.64821216E+02</pdfrwt>
<totfact> 0.94202638E+02</totfact>
</mgrwt>
</event>
<event>
 7    1  0.6493044E-004  0.1455513E+03  0.7546771E-02  0.1308729E+00
          1   -1    0    0  502    0 -0.00000000000E+00  0.00000000000E+00  0.43797902885E+03  0.43797902885E+03  0.00000000000E+00 0. -1.
          2   -1    0    0  503    0  0.00000000000E+00 -0.00000000000E+00 -0.45355165690E+03  0.45355165690E+03  0.00000000000E+00 0. -1.
         25    2    1    2    0    0 -0.20815684808E+02  0.10355358675E+03 -0.52223477277E+02  0.17178266281E+03  0.12500141440E+03 0.  0.
          4    1    3    3  501    0 -0.66525890090E+02  0.21879463069E+02 -0.23025508359E+02  0.73730535680E+02  0.12700000000E+01 0.  1.
         -4    1    3    3    0  501  0.45710205282E+02  0.81674123685E+02 -0.29197968918E+02  0.98052127135E+02  0.12700000000E+01 0.  1.
          2    1    1    2  502    0 -0.19105352504E+02  0.49159684302E+02  0.35792636449E+03  0.36179133690E+03  0.00000000000E+00 0. -1.
          1    1    1    2  503    0  0.39921037312E+02 -0.15271327106E+03 -0.32127551526E+03  0.35795668605E+03  0.00000000000E+00 0. -1.
<mgrwt>
<rscale>  0 0.87616350E+02</rscale>
<asrwt>0</asrwt>
<pdfrwt beam="2">  1        2 0.69777178E-01 0.14555128E+03</pdfrwt>
<pdfrwt beam="1">  1        1 0.67381389E-01 0.52741720E+02</pdfrwt>
<totfact> 0.52796045E+02</totfact>
</mgrwt>
</event>
<event>
 7    1  0.6493044E-004  0.1599321E+03  0.7546771E-02  0.1356185E+00
          2   -1    0    0  503    0  0.00000000000E+00  0.00000000000E+00  0.94044238379E+03  0.94044238379E+03  0.00000000000E+00 0. -1.
          1   -1    0    0  502    0 -0.00000000000E+00 -0.00000000000E+00 -0.35916440896E+03  0.35916440896E+03  0.00000000000E+00 0. -1.
         25    2    1    2    0    0 -0.51426148966E+02  0.14858281989E+03 -0.10845742463E+03  0.22827589992E+03  0.12500148144E+03 0.  0.
          4    1    3    3  501    0  0.35806721914E+02  0.64218784122E+02 -0.68519928050E+02  0.10051252165E+03  0.12700000000E+01 0. -1.
         -4    1    3    3    0  501 -0.87232870880E+02  0.84364035769E+02 -0.39937496576E+02  0.12776337827E+03  0.12700000000E+01 0. -1.
          2    1    1    2  502    0  0.82017508453E+02 -0.14041146037E+03 -0.15580055225E+03  0.22520226903E+03  0.00000000000E+00 0. -1.
          3    1    1    2  503    0 -0.30591359487E+02 -0.81713595204E+01  0.84553595170E+03  0.84612862380E+03  0.00000000000E+00 0. -1.
<mgrwt>
<rscale>  0 0.71162295E+02</rscale>
<asrwt>0</asrwt>
<pdfrwt beam="1">  1        2 0.14468344E+00 0.31663897E+02</pdfrwt>
<pdfrwt beam="2">  1        1 0.55256063E-01 0.15993206E+03</pdfrwt>
<totfact> 0.30297290E+02</totfact>
</mgrwt>
</event>
<event>
 7    1  0.6493044E-004  0.1110347E+03  0.7546771E-02  0.1359169E+00
          1   -1    0    0  502    0 -0.00000000000E+00  0.00000000000E+00  0.82306276050E+03  0.82306276050E+03  0.00000000000E+00 0. -1.
          2   -1    0    0  503    0  0.00000000000E+00 -0.00000000000E+00 -0.29504858327E+03  0.29504858327E+03  0.00000000000E+00 0. -1.
         25    2    1    2    0    0 -0.73616847540E+02 -0.21220096008E+01 -0.22876553855E+03  0.27089294808E+03  0.12500149809E+03 0.  0.
          4    1    3    3  501    0 -0.52874113269E+02  0.13279390786E+02 -0.16379858912E+02  0.56937920155E+02  0.12700000000E+01 0. -1.
         -4    1    3    3    0  501 -0.20742734271E+02 -0.15401400387E+02 -0.21238567964E+03  0.21395502793E+03  0.12700000000E+01 0. -1.
          2    1    1    2  502    0  0.10718784058E+03  0.31293232863E+02  0.78607259544E+03  0.79396386876E+03  0.00000000000E+00 0. -1.
          1    1    1    2  503    0 -0.33570993037E+02 -0.29171223263E+02 -0.29292879654E+02  0.53254526930E+02  0.00000000000E+00 0. -1.
<mgrwt>
<rscale>  0 0.70272325E+02</rscale>
<asrwt>0</asrwt>
<pdfrwt beam="2">  1        2 0.45392090E-01 0.44474395E+02</pdfrwt>
<pdfrwt beam="1">  1        1 0.12662504E+00 0.11103467E+03</pdfrwt>
<totfact> 0.34576341E+02</totfact>
</mgrwt>
</event>
<event>
 7    1  0.6493044E-004  0.1082927E+03  0.7546771E-02  0.1429253E+00
          2   -1    0    0  503    0  0.00000000000E+00  0.00000000000E+00  0.16197330456E+04  0.16197330456E+04  0.00000000000E+00 0. -1.
          1   -1    0    0  502    0 -0.00000000000E+00 -0.00000000000E+00 -0.10773184782E+03  0.10773184782E+03  0.00000000000E+00 0. -1.
         25    2    1    2    0    0  0.11347536273E+02 -0.84591891233E+02  0.17107304538E+03  0.22842267719E+03  0.12500551170E+03 0.  0.
          4    1    3    3  501    0  0.43174697904E+02 -0.13400395693E+02  0.57013278181E+01  0.45582268293E+02  0.12700000000E+01 0.  1.
         -4    1    3    3    0  501 -0.31827161632E+02 -0.71191495540E+02  0.16537171757E+03  0.18284040890E+03  0.12700000000E+01 0.  1.
          2    1    1    2  502    0  0.12610350141E+02 -0.22790833205E+02 -0.74717572479E+02  0.79127483506E+02  0.00000000000E+00 0. -1.
          1    1    1    2  503    0 -0.23957886414E+02  0.10738272444E+03  0.14156457249E+04  0.14199147328E+04  0.00000000000E+00 0. -1.
<mgrwt>
<rscale>  0 0.53110207E+02</rscale>
<asrwt>0</asrwt>
<pdfrwt beam="1">  1        2 0.24918968E+00 0.10829273E+03</pdfrwt>
<pdfrwt beam="2">  1        1 0.16574132E-01 0.26046939E+02</pdfrwt>
<totfact> 0.50776706E+02</totfact>
</mgrwt>
</event>
<event>
 7    1  0.6493044E-004  0.2233653E+03  0.7546771E-02  0.1223938E+00
         -1   -1    0    0    0  501 -0.00000000000E+00  0.00000000000E+00  0.58998668407E+03  0.58998668407E+03  0.00000000000E+00 0.  1.
          1   -1    0    0  503    0  0.00000000000E+00 -0.00000000000E+00 -0.56745649753E+03  0.56745649753E+03  0.00000000000E+00 0. -1.
         25    2    1    2    0    0  0.73236795844E+01 -0.17027765964E+03  0.57866574988E+02  0.21913928818E+03  0.12500147787E+03 0.  0.
          4    1    3    3  502    0 -0.38552693451E+02 -0.14448989372E+03  0.13255798309E+02  0.15013650005E+03  0.12700000000E+01 0. -1.
         -4    1    3    3    0  502  0.45876373035E+02 -0.25787765925E+02  0.44610776679E+02  0.69002788134E+02  0.12700000000E+01 0. -1.
          2    1    1    2  503    0 -0.23013428073E+02 -0.75029850786E+02 -0.44971073102E+03  0.45650721569E+03  0.00000000000E+00 0. -1.
         -2    1    1    2    0  501  0.15689748489E+02  0.24530751043E+03  0.41437434258E+03  0.48179667773E+03  0.00000000000E+00 0.  1.
<mgrwt>
<rscale>  0 0.13239973E+03</rscale>
<asrwt>0</asrwt>
<pdfrwt beam="2">  1        1 0.87300999E-01 0.78479911E+02</pdfrwt>
<pdfrwt beam="1">  1       -1 0.90767183E-01 0.22336530E+03</pdfrwt>
<totfact> 0.50285776E+01</totfact>
</mgrwt>
</event>
<event>
 7    1  0.6493044E-004  0.4967788E+02  0.7546771E-02  0.1476031E+00
          2   -1    0    0  503    0  0.00000000000E+00  0.00000000000E+00  0.17556378822E+03  0.17556378822E+03  0.00000000000E+00 0. -1.
          1   -1    0    0  502    0 -0.00000000000E+00 -0.00000000000E+00 -0.16219697867E+04  0.16219697867E+04  0.00000000000E+00 0. -1.
         25    2    1    2    0    0 -0.81972594140E+02 -0.34090962002E+02 -0.10535686869E+03  0.18603140530E+03  0.12500365633E+03 0.  0.
          4    1    3    3  501    0 -0.96043385646E+02 -0.61245099957E+02 -0.53590146793E+02  0.12589206063E+03  0.12700000000E+01 0. -1.
         -4    1    3    3    0  501  0.14070791506E+02  0.27154137955E+02 -0.51766721902E+02  0.60139344676E+02  0.12700000000E+01 0. -1.
          2    1    1    2  502    0  0.37004044546E+02  0.15901196377E+02 -0.14716410736E+04  0.14721921060E+04  0.00000000000E+00 0. -1.
          1    1    1    2  503    0  0.44968549595E+02  0.18189765624E+02  0.13059194385E+03  0.13931006362E+03  0.00000000000E+00 0. -1.
<mgrwt>
<rscale>  0 0.44730535E+02</rscale>
<asrwt>0</asrwt>
<pdfrwt beam="1">  1        2 0.27009815E-01 0.49677878E+02</pdfrwt>
<pdfrwt beam="2">  1        1 0.24953380E+00 0.40275891E+02</pdfrwt>
<totfact> 0.18639931E+02</totfact>
</mgrwt>
</event>
<event>
 7    1  0.6493044E-004  0.5145222E+02  0.7546771E-02  0.1540031E+00
          2   -1    0    0  503    0  0.00000000000E+00  0.00000000000E+00  0.64550566001E+03  0.64550566001E+03  0.00000000000E+00 0. -1.
          1   -1    0    0  502    0 -0.00000000000E+00 -0.00000000000E+00 -0.14508410686E+03  0.14508410686E+03  0.00000000000E+00 0. -1.
         25    2    1    2    0    0 -0.31079143977E+02  0.68989477433E+02  0.36366309538E+03  0.39192038006E+03  0.12500110469E+03 0.  0.
          4    1    3    3  501    0 -0.16193337747E+02 -0.18302578025E+02  0.23173704333E+03  0.23302548938E+03  0.12700000000E+01 0.  1.
         -4    1    3    3    0  501 -0.14885806231E+02  0.87292055459E+02  0.13192605205E+03  0.15889489068E+03  0.12700000000E+01 0.  1.
          2    1    1    2  502    0  0.25120977150E+02 -0.44538801507E+02 -0.12533795188E+03  0.13536753863E+03  0.00000000000E+00 0. -1.
          1    1    1    2  503    0  0.59581668277E+01 -0.24450675926E+02  0.26209640965E+03  0.26330184818E+03  0.00000000000E+00 0. -1.
<mgrwt>
<rscale>  0 0.35984085E+02</rscale>
<asrwt>0</asrwt>
<pdfrwt beam="1">  1        2 0.99308561E-01 0.25166154E+02</pdfrwt>
<pdfrwt beam="2">  1        1 0.22320632E-01 0.51452217E+02</pdfrwt>
<totfact> 0.14080556E+03</totfact>
</mgrwt>
</event>
<event>
 7    1  0.6493044E-004  0.6168045E+02  0.7546771E-02  0.1458756E+00
          1   -1    0    0  503    0  0.00000000000E+00  0.00000000000E+00  0.17383069480E+04  0.17383069480E+04  0.00000000000E+00 0. -1.
         -1   -1    0    0    0  501 -0.00000000000E+00 -0.00000000000E+00 -0.44037132544E+03  0.44037132544E+03  0.00000000000E+00 0.  1.
         25    2    1    2    0    0  0.41706187978E+02  0.13204808426E+02  0.77156496132E+02  0.15327099166E+03  0.12500039563E+03 0.  0.
          4    1    3    3  502    0 -0.39331198293E+02  0.14509221647E+02  0.55136222335E+02  0.69275367811E+02  0.12700000000E+01 0.  1.
         -4    1    3    3    0  502  0.81037386271E+02 -0.13044132216E+01  0.22020273797E+02  0.83995623848E+02  0.12700000000E+01 0.  1.
          2    1    1    2  503    0  0.17519862708E+02 -0.32279900764E+02  0.16204780559E+04  0.16208942184E+04  0.00000000000E+00 0. -1.
         -2    1    1    2    0  501 -0.59226050686E+02  0.19075092338E+02 -0.39969892947E+03  0.40451306338E+03  0.00000000000E+00 0.  1.
<mgrwt>
<rscale>  0 0.47596139E+02</rscale>
<asrwt>0</asrwt>
<pdfrwt beam="1">  1        1 0.26743184E+00 0.36727886E+02</pdfrwt>
<pdfrwt beam="2">  1       -1 0.67749435E-01 0.61680449E+02</pdfrwt>
<totfact> 0.14951162E+01</totfact>
</mgrwt>
</event>
<event>
 7    1  0.6493044E-004  0.9926110E+02  0.7546771E-02  0.1387262E+00
          2   -1    0    0  503    0  0.00000000000E+00  0.00000000000E+00  0.69735440257E+03  0.69735440257E+03  0.00000000000E+00 0. -1.
          1   -1    0    0  502    0 -0.00000000000E+00 -0.00000000000E+00 -0.64470668991E+02  0.64470668991E+02  0.00000000000E+00 0. -1.
         25    2    1    2    0    0  0.26161229262E+02 -0.98995604661E+02  0.53463376498E+03  0.55851872279E+03  0.12500144557E+03 0.  0.
          4    1    3    3  501    0  0.22980399524E+02  0.24153094361E+02  0.18077089620E+03  0.18382383018E+03  0.12700000000E+01 0.  1.
         -4    1    3    3    0  501  0.31808297379E+01 -0.12314869902E+03  0.35386286878E+03  0.37469489261E+03  0.12700000000E+01 0.  1.
          2    1    1    2  502    0  0.13308293438E+02  0.98740633852E+02  0.24163152611E+01  0.99662741419E+02  0.00000000000E+00 0. -1.
          1    1    1    2  503    0 -0.39469522699E+02  0.25497080909E+00  0.95833653344E+02  0.10364360736E+03  0.00000000000E+00 0. -1.
<mgrwt>
<rscale>  0 0.62592890E+02</rscale>
<asrwt>0</asrwt>
<pdfrwt beam="1">  1        2 0.10728529E+00 0.39470346E+02</pdfrwt>
<pdfrwt beam="2">  1        1 0.99185650E-02 0.99261096E+02</pdfrwt>
<totfact> 0.36995894E+03</totfact>
</mgrwt>
</event>
<event>
 7    1  0.6493044E-004  0.2901483E+03  0.7546771E-02  0.1169228E+00
          1   -1    0    0  502    0 -0.00000000000E+00  0.00000000000E+00  0.12784943407E+04  0.12784943407E+04  0.00000000000E+00 0. -1.
          2   -1    0    0  503    0  0.00000000000E+00 -0.00000000000E+00 -0.91179767078E+03  0.91179767078E+03  0.00000000000E+00 0. -1.
         25    2    1    2    0    0  0.60494283823E+02  0.35542701523E+03  0.49497004822E+03  0.62498720099E+03  0.12500292491E+03 0.  0.
          4    1    3    3  501    0  0.87397228640E+02  0.33823592297E+03  0.44635891565E+03  0.56681541055E+03  0.12700000000E+01 0.  1.
         -4    1    3    3    0  501 -0.26902944817E+02  0.17191092263E+02  0.48611132570E+02  0.58171790438E+02  0.12700000000E+01 0.  1.
          2    1    1    2  502    0  0.57882297895E+02 -0.93372337071E+02  0.68963053279E+03  0.69832587343E+03  0.00000000000E+00 0. -1.
          1    1    1    2  503    0 -0.11837658172E+03 -0.26205467816E+03 -0.81790391112E+03  0.86697893704E+03  0.00000000000E+00 0. -1.
<mgrwt>
<rscale>  0 0.17853591E+03</rscale>
<asrwt>0</asrwt>
<pdfrwt beam="2">  1        2 0.14027656E+00 0.29014826E+03</pdfrwt>
<pdfrwt beam="1">  1        1 0.19669144E+00 0.10985788E+03</pdfrwt>
<totfact> 0.44433288E+01</totfact>
</mgrwt>
</event>
<event>
 7    1  0.6493044E-004  0.9956473E+02  0.7546771E-02  0.1395205E+00
         -1   -1    0    0    0  501 -0.00000000000E+00  0.00000000000E+00  0.26540141029E+03  0.26540141029E+03  0.00000000000E+00 0.  1.
          1   -1    0    0  503    0  0.00000000000E+00 -0.00000000000E+00 -0.29912736400E+03  0.29912736400E+03  0.00000000000E+00 0. -1.
         25    2    1    2    0    0 -0.83045942246E+02  0.60574966027E+02 -0.86380975657E+02  0.18344294656E+03  0.12499474651E+03 0.  0.
          4    1    3    3  502    0 -0.59430730525E+02  0.54665211655E+02 -0.11832678007E+03  0.14325898533E+03  0.12700000000E+01 0.  1.
         -4    1    3    3    0  502 -0.23615211721E+02  0.59097543723E+01  0.31945804409E+02  0.40183961237E+02  0.12700000000E+01 0.  1.
          2    1    1    2  503    0  0.54531034084E+02 -0.84028628398E+02 -0.14708820741E+03  0.17795894141E+03  0.00000000000E+00 0. -1.
         -2    1    1    2    0  501  0.28514908162E+02  0.23453662371E+02  0.19974322936E+03  0.20312688631E+03  0.00000000000E+00 0.  1.
<mgrwt>
<rscale>  0 0.60630423E+02</rscale>
<asrwt>0</asrwt>
<pdfrwt beam="2">  1        1 0.46019595E-01 0.99564726E+02</pdfrwt>
<pdfrwt beam="1">  1       -1 0.40830986E-01 0.36921190E+02</pdfrwt>
<totfact> 0.52242129E+02</totfact>
</mgrwt>
</event>
<event>
 7    1  0.6493044E-004  0.2079845E+03  0.7546771E-02  0.1294919E+00
         -2   -1    0    0    0  501 -0.00000000000E+00  0.00000000000E+00  0.12023007592E+04  0.12023007592E+04  0.00000000000E+00 0.  1.
          2   -1    0    0  503    0  0.00000000000E+00 -0.00000000000E+00 -0.37604400593E+03  0.37604400593E+03  0.00000000000E+00 0. -1.
         25    2    1    2    0    0 -0.19020072073E+03  0.11377679504E+03  0.94223568879E+02  0.27134095990E+03  0.12500544921E+03 0.  0.
          4    1    3    3  502    0 -0.33837513932E+02  0.20868802051E+02 -0.31073012761E+02  0.50474045510E+02  0.12700000000E+01 0.  1.
         -4    1    3    3    0  502 -0.15636320679E+03  0.92907992990E+02  0.12529658164E+03  0.22086691439E+03  0.12700000000E+01 0.  1.
          1    1    1    2  503    0  0.15460494488E+03 -0.13588962173E+03 -0.25013697554E+03  0.32394009447E+03  0.00000000000E+00 0. -1.
         -1    1    1    2    0  501  0.35595775842E+02  0.22112826688E+02  0.98217015991E+03  0.98306371074E+03  0.00000000000E+00 0.  1.
<mgrwt>
<rscale>  0 0.93357429E+02</rscale>
<asrwt>0</asrwt>
<pdfrwt beam="2">  1        2 0.57852925E-01 0.20798452E+03</pdfrwt>
<pdfrwt beam="1">  1       -2 0.18496935E+00 0.41905088E+02</pdfrwt>
<totfact> 0.17485556E+01</totfact>
</mgrwt>
</event>
<event>
 7    1  0.6493044E-004  0.8162231E+02  0.7546771E-02  0.1362299E+00
          2   -1    0    0  503    0  0.00000000000E+00  0.00000000000E+00  0.12841497841E+04  0.12841497841E+04  0.00000000000E+00 0. -1.
          1   -1    0    0  502    0 -0.00000000000E+00 -0.00000000000E+00 -0.68425298874E+03  0.68425298874E+03  0.00000000000E+00 0. -1.
         25    2    1    2    0    0  0.13842113498E+03 -0.18266734884E+02  0.90955849877E+03  0.92866317472E+03  0.12499818068E+03 0.  0.
          4    1    3    3  501    0  0.10193997618E+03  0.42340319553E+02  0.66406481625E+03  0.67317765447E+03  0.12700000000E+01 0. -1.
         -4    1    3    3    0  501  0.36481158795E+02 -0.60607054437E+02  0.24549368253E+03  0.25548552024E+03  0.12700000000E+01 0. -1.
          2    1    1    2  502    0 -0.79490884098E+02  0.17839405015E+02 -0.66983796150E+03  0.67477399156E+03  0.00000000000E+00 0. -1.
          1    1    1    2  503    0 -0.58930250880E+02  0.42732986872E+00  0.36017625810E+03  0.36496560657E+03  0.00000000000E+00 0. -1.
<mgrwt>
<rscale>  0 0.69355241E+02</rscale>
<asrwt>0</asrwt>
<pdfrwt beam="1">  1        2 0.19756151E+00 0.58931800E+02</pdfrwt>
<pdfrwt beam="2">  1        1 0.10526969E+00 0.81622306E+02</pdfrwt>
<totfact> 0.83447202E+01</totfact>
</mgrwt>
</event>
<event>
 7    1  0.6493044E-004  0.1048497E+03  0.7546771E-02  0.1317043E+00
         -2   -1    0    0    0  501 -0.00000000000E+00  0.00000000000E+00  0.39665439962E+03  0.39665439962E+03  0.00000000000E+00 0.  1.
          2   -1    0    0  503    0  0.00000000000E+00 -0.00000000000E+00 -0.31336339258E+03  0.31336339258E+03  0.00000000000E+00 0. -1.
         25    2    1    2    0    0 -0.64500533080E+01 -0.16473957540E+03  0.42907575897E+02  0.21129061137E+03  0.12498772538E+03 0.  0.
          4    1    3    3  502    0  0.49799213746E+02 -0.57894354151E+02  0.48384972335E+02  0.90412589721E+02  0.12700000000E+01 0. -1.
         -4    1    3    3    0  502 -0.56249267054E+02 -0.10684522125E+03 -0.54773964377E+01  0.12087802165E+03  0.12700000000E+01 0. -1.
          1    1    1    2  503    0  0.18860602673E+02  0.97965082247E+02 -0.21363738695E+03  0.23578340224E+03  0.00000000000E+00 0. -1.
         -1    1    1    2    0  501 -0.12410549365E+02  0.66774493149E+02  0.25402081809E+03  0.26294377858E+03  0.00000000000E+00 0.  1.
<mgrwt>
<rscale>  0 0.84387098E+02</rscale>
<asrwt>0</asrwt>
<pdfrwt beam="2">  1        2 0.48209753E-01 0.10484971E+03</pdfrwt>
<pdfrwt beam="1">  1       -2 0.61023753E-01 0.67918000E+02</pdfrwt>
<totfact> 0.27061214E+02</totfact>
</mgrwt>
</event>
<event>
 7    1  0.6493044E-004  0.7750435E+02  0.7546771E-02  0.1345025E+00
          2   -1    0    0  503    0  0.00000000000E+00  0.00000000000E+00  0.30818455301E+04  0.30818455301E+04  0.00000000000E+00 0. -1.
          1   -1    0    0  502    0 -0.00000000000E+00 -0.00000000000E+00 -0.99905037225E+02  0.99905037225E+02  0.00000000000E+00 0. -1.
         25    2    1    2    0    0 -0.21178556098E+02 -0.39757792671E+02  0.56503301064E+03  0.58044642486E+03  0.12500614267E+03 0.  0.
          4    1    3    3  501    0 -0.38604581349E+02 -0.62145753909E+02  0.53145880865E+03  0.53647226082E+03  0.12700000000E+01 0.  1.
         -4    1    3    3    0  501  0.17426025251E+02  0.22387961238E+02  0.33574201991E+02  0.43974164049E+02  0.12700000000E+01 0.  1.
          2    1    1    2  502    0 -0.61111038862E+02  0.37805422220E+02 -0.77413661483E+02  0.10562520535E+03  0.00000000000E+00 0. -1.
          1    1    1    2  503    0  0.82289594960E+02  0.19523704512E+01  0.24943211437E+04  0.24956789371E+04  0.00000000000E+00 0. -1.
<mgrwt>
<rscale>  0 0.74628652E+02</rscale>
<asrwt>0</asrwt>
<pdfrwt beam="1">  1        2 0.47413001E+00 0.77504355E+02</pdfrwt>
<pdfrwt beam="2">  1        1 0.15370008E-01 0.71859648E+02</pdfrwt>
<totfact> 0.10550084E+02</totfact>
</mgrwt>
</event>
<event>
 7    1  0.6493044E-004  0.5764970E+02  0.7546771E-02  0.1429888E+00
          2   -1    0    0  503    0  0.00000000000E+00  0.00000000000E+00  0.11478067222E+04  0.11478067222E+04  0.00000000000E+00 0. -1.
          3   -1    0    0  502    0 -0.00000000000E+00 -0.00000000000E+00 -0.12073271656E+04  0.12073271656E+04  0.00000000000E+00 0. -1.
         25    2    1    2    0    0 -0.15549925513E+02 -0.10426135861E+03 -0.11999318450E+03  0.20280606441E+03  0.12497881561E+03 0.  0.
          4    1    3    3  501    0 -0.32707677756E+02 -0.12496928127E+03 -0.11934647189E+03  0.17587582750E+03  0.12700000000E+01 0. -1.
         -4    1    3    3    0  501  0.17157752242E+02  0.20707922657E+02 -0.64671260560E+00  0.26930236909E+02  0.12700000000E+01 0. -1.
          2    1    1    2  502    0  0.10844060587E+01  0.48681187017E+02 -0.10446147232E+04  0.10457489918E+04  0.00000000000E+00 0. -1.
          1    1    1    2  503    0  0.14465519455E+02  0.55580171593E+02  0.11050874643E+04  0.11065788315E+04  0.00000000000E+00 0. -1.
<mgrwt>
<rscale>  0 0.52982562E+02</rscale>
<asrwt>0</asrwt>
<pdfrwt beam="1">  1        2 0.17658565E+00 0.57649697E+02</pdfrwt>
<pdfrwt beam="2">  1        3 0.18574264E+00 0.48693263E+02</pdfrwt>
<totfact> 0.29739676E+00</totfact>
</mgrwt>
</event>
<event>
 7    1  0.6493044E-004  0.6026984E+02  0.7546771E-02  0.1429198E+00
          2   -1    0    0  503    0  0.00000000000E+00  0.00000000000E+00  0.59787641965E+03  0.59787641965E+03  0.00000000000E+00 0. -1.
          1   -1    0    0  502    0 -0.00000000000E+00 -0.00000000000E+00 -0.21371077192E+03  0.21371077192E+03  0.00000000000E+00 0. -1.
         25    2    1    2    0    0  0.11707832200E+02  0.18669066080E+02  0.24453859515E+02  0.12925774212E+03  0.12499586109E+03 0.  0.
          4    1    3    3  501    0  0.53591092015E+02  0.89937290116E+01 -0.28231008901E+02  0.61249449536E+02  0.12700000000E+01 0.  1.
         -4    1    3    3    0  501 -0.41883259815E+02  0.96753370681E+01  0.52684868416E+02  0.68008292583E+02  0.12700000000E+01 0.  1.
          2    1    1    2  502    0 -0.19322998885E+02  0.42647482613E+02 -0.15602803880E+03  0.16290161126E+03  0.00000000000E+00 0. -1.
          1    1    1    2  503    0  0.76151666851E+01 -0.61316548693E+02  0.51573982702E+03  0.51942783819E+03  0.00000000000E+00 0. -1.
<mgrwt>
<rscale>  0 0.53121383E+02</rscale>
<asrwt>0</asrwt>
<pdfrwt beam="1">  1        2 0.91980987E-01 0.60269840E+02</pdfrwt>
<pdfrwt beam="2">  1        1 0.32878581E-01 0.46820787E+02</pdfrwt>
<totfact> 0.93694849E+02</totfact>
</mgrwt>
</event>
<event>
 7    1  0.6493044E-004  0.4926298E+02  0.7546771E-02  0.1523746E+00
          1   -1    0    0  503    0  0.00000000000E+00  0.00000000000E+00  0.11651045012E+03  0.11651045012E+03  0.00000000000E+00 0. -1.
         -1   -1    0    0    0  501 -0.00000000000E+00 -0.00000000000E+00 -0.51794266266E+03  0.51794266266E+03  0.00000000000E+00 0.  1.
         25    2    1    2    0    0  0.36477466743E+02  0.62566718343E+02 -0.67247893185E+01  0.14462185642E+03  0.12500023496E+03 0.  0.
          4    1    3    3  502    0  0.15613183519E+02  0.17330915212E+02 -0.64337888981E+02  0.68447855921E+02  0.12700000000E+01 0. -1.
         -4    1    3    3    0  502  0.20864283224E+02  0.45235803131E+02  0.57613099663E+02  0.76174000500E+02  0.12700000000E+01 0. -1.
          2    1    1    2  503    0 -0.25091469145E+02 -0.15047753159E+02  0.41565616946E+02  0.50830278487E+02  0.00000000000E+00 0. -1.
         -2    1    1    2    0  501 -0.11385997598E+02 -0.47518965184E+02 -0.43627304017E+03  0.43900097787E+03  0.00000000000E+00 0.  1.
<mgrwt>
<rscale>  0 0.37964782E+02</rscale>
<asrwt>0</asrwt>
<pdfrwt beam="1">  1        1 0.17924684E-01 0.29257763E+02</pdfrwt>
<pdfrwt beam="2">  1       -1 0.79683489E-01 0.49262982E+02</pdfrwt>
<totfact> 0.46658323E+02</totfact>
</mgrwt>
</event>
<event>
 7    1  0.6493044E-004  0.5448837E+02  0.7546771E-02  0.1423622E+00
          2   -1    0    0  503    0  0.00000000000E+00  0.00000000000E+00  0.55868518847E+03  0.55868518847E+03  0.00000000000E+00 0. -1.
          1   -1    0    0  502    0 -0.00000000000E+00 -0.00000000000E+00 -0.13893956861E+03  0.13893956861E+03  0.00000000000E+00 0. -1.
         25    2    1    2    0    0  0.43363179597E+02  0.24735958870E+02  0.70979011222E+02  0.15217365928E+03  0.12500627800E+03 0.  0.
          4    1    3    3  501    0 -0.31421900589E+01 -0.31981069606E+02  0.71950315201E+02  0.78810677761E+02  0.12700000000E+01 0. -1.
         -4    1    3    3    0  501  0.46505369656E+02  0.56717028476E+02 -0.97130397907E+00  0.73362981520E+02  0.12700000000E+01 0. -1.
          2    1    1    2  502    0 -0.45113772473E+02  0.30556996167E+02 -0.88917507557E+02  0.10428473345E+03  0.00000000000E+00 0. -1.
          1    1    1    2  503    0  0.17505928760E+01 -0.55292955038E+02  0.43768411619E+03  0.44116636434E+03  0.00000000000E+00 0. -1.
<mgrwt>
<rscale>  0 0.54261931E+02</rscale>
<asrwt>0</asrwt>
<pdfrwt beam="1">  1        2 0.85951566E-01 0.54036432E+02</pdfrwt>
<pdfrwt beam="2">  1        1 0.21375319E-01 0.54488370E+02</pdfrwt>
<totfact> 0.17101229E+03</totfact>
</mgrwt>
</event>
<event>
 7    1  0.6493044E-004  0.7729939E+02  0.7546771E-02  0.1413519E+00
          2   -1    0    0  503    0  0.00000000000E+00  0.00000000000E+00  0.27942760669E+04  0.27942760669E+04  0.00000000000E+00 0. -1.
          1   -1    0    0  502    0 -0.00000000000E+00 -0.00000000000E+00 -0.27476601602E+03  0.27476601602E+03  0.00000000000E+00 0. -1.
         25    2    1    2    0    0  0.58370792493E+02 -0.33494545258E+02  0.34023266503E+03  0.36865899467E+03  0.12498861555E+03 0.  0.
          4    1    3    3  501    0  0.60084172573E+02 -0.65821154078E+02  0.14099431652E+03  0.16680390376E+03  0.12700000000E+01 0.  1.
         -4    1    3    3    0  501 -0.17133800800E+01  0.32326608820E+02  0.19923834851E+03  0.20185509091E+03  0.12700000000E+01 0.  1.
          2    1    1    2  502    0 -0.21222058893E+02 -0.35284049909E+02 -0.25829571395E+03  0.26155690739E+03  0.00000000000E+00 0. -1.
          1    1    1    2  503    0 -0.37148733601E+02  0.68778595167E+02  0.24375730998E+04  0.24388261809E+04  0.00000000000E+00 0. -1.
<mgrwt>
<rscale>  0 0.56415993E+02</rscale>
<asrwt>0</asrwt>
<pdfrwt beam="1">  1        2 0.42988861E+00 0.77299393E+02</pdfrwt>
<pdfrwt beam="2">  1        1 0.42271697E-01 0.41174506E+02</pdfrwt>
<totfact> 0.43774928E+01</totfact>
</mgrwt>
</event>
<event>
 7    1  0.6493044E-004  0.1484928E+03  0.7546771E-02  0.1203283E+00
          2   -1    0    0  503    0  0.00000000000E+00  0.00000000000E+00  0.20948930331E+04  0.20948930331E+04  0.00000000000E+00 0. -1.
         -2   -1    0    0    0  501 -0.00000000000E+00 -0.00000000000E+00 -0.27126711013E+03  0.27126711013E+03  0.00000000000E+00 0.  1.
         25    2    1    2    0    0  0.60735756566E+02 -0.70228039407E+02  0.38396750952E+03  0.41433851905E+03  0.12499820141E+03 0.  0.
          4    1    3    3  502    0  0.48612989934E+02 -0.10230038852E+03  0.34119273862E+03  0.35950339369E+03  0.12700000000E+01 0. -1.
         -4    1    3    3    0  502  0.12122766632E+02  0.32072349113E+02  0.42774770898E+02  0.54835125365E+02  0.12700000000E+01 0. -1.
          1    1    1    2  503    0 -0.13351917422E+03 -0.64982659079E+02  0.16691243450E+04  0.16757166213E+04  0.00000000000E+00 0. -1.
         -1    1    1    2    0  501  0.72783417650E+02  0.13521069849E+03 -0.22946593155E+03  0.27610500287E+03  0.00000000000E+00 0.  1.
<mgrwt>
<rscale>  0 0.14773554E+03</rscale>
<asrwt>0</asrwt>
<pdfrwt beam="1">  1        2 0.32229123E+00 0.14849281E+03</pdfrwt>
<pdfrwt beam="2">  1       -2 0.41733403E-01 0.14698213E+03</pdfrwt>
<totfact> 0.39180741E+01</totfact>
</mgrwt>
</event>
<event>
 7    1  0.6493044E-004  0.9585748E+02  0.7546771E-02  0.1359245E+00
          2   -1    0    0  503    0  0.00000000000E+00  0.00000000000E+00  0.15850872586E+04  0.15850872586E+04  0.00000000000E+00 0. -1.
          1   -1    0    0  502    0 -0.00000000000E+00 -0.00000000000E+00 -0.23139611321E+03  0.23139611321E+03  0.00000000000E+00 0. -1.
         25    2    1    2    0    0  0.63387065053E+02  0.84496002447E+02  0.11530664916E+03  0.20019707315E+03  0.12500300121E+03 0.  0.
          4    1    3    3  501    0  0.59842090040E+02  0.20127746200E+02  0.11994410064E+03  0.13555221166E+03  0.12700000000E+01 0.  1.
         -4    1    3    3    0  501  0.35449750129E+01  0.64368256246E+02 -0.46374514897E+01  0.64644861484E+02  0.12700000000E+01 0.  1.
          2    1    1    2  502    0 -0.50382053740E+02  0.10592347890E+02 -0.18379638053E+03  0.19087079051E+03  0.00000000000E+00 0. -1.
          1    1    1    2  503    0 -0.13005011313E+02 -0.95088350337E+02  0.14221808768E+04  0.14254155082E+04  0.00000000000E+00 0. -1.
<mgrwt>
<rscale>  0 0.70250103E+02</rscale>
<asrwt>0</asrwt>
<pdfrwt beam="1">  1        2 0.24385957E+00 0.95857478E+02</pdfrwt>
<pdfrwt beam="2">  1        1 0.35599403E-01 0.51483484E+02</pdfrwt>
<totfact> 0.21911015E+02</totfact>
</mgrwt>
</event>
<event>
 7    1  0.6493044E-004  0.6377510E+02  0.7546771E-02  0.1503872E+00
          1   -1    0    0  502    0 -0.00000000000E+00  0.00000000000E+00  0.19860826385E+04  0.19860826385E+04  0.00000000000E+00 0. -1.
          2   -1    0    0  503    0  0.00000000000E+00 -0.00000000000E+00 -0.17101997660E+03  0.17101997660E+03  0.00000000000E+00 0. -1.
         25    2    1    2    0    0  0.12154445376E+02 -0.78450545390E+02 -0.84203466102E+01  0.14831512159E+03  0.12499701772E+03 0.  0.
          4    1    3    3  501    0 -0.30155328231E+02  0.19379900306E+02 -0.20042619114E+02  0.41088244517E+02  0.12700000000E+01 0. -1.
         -4    1    3    3    0  501  0.42309773607E+02 -0.97830445696E+02  0.11622272504E+02  0.10722687707E+03  0.12700000000E+01 0. -1.
          2    1    1    2  502    0  0.13352069149E+02  0.22124285750E+02  0.19057218185E+04  0.19058970096E+04  0.00000000000E+00 0. -1.
          1    1    1    2  503    0 -0.25506514525E+02  0.56326259640E+02 -0.82238809991E+02  0.10289048390E+03  0.00000000000E+00 0. -1.
<mgrwt>
<rscale>  0 0.40595788E+02</rscale>
<asrwt>0</asrwt>
<pdfrwt beam="2">  1        2 0.26310767E-01 0.63775103E+02</pdfrwt>
<pdfrwt beam="1">  1        1 0.30555116E+00 0.25841087E+02</pdfrwt>
<totfact> 0.12383535E+02</totfact>
</mgrwt>
</event>
<event>
 7    1  0.6493044E-004  0.5201081E+02  0.7546771E-02  0.1488938E+00
          2   -1    0    0  503    0  0.00000000000E+00  0.00000000000E+00  0.19161906892E+04  0.19161906892E+04  0.00000000000E+00 0. -1.
          1   -1    0    0  502    0 -0.00000000000E+00 -0.00000000000E+00 -0.23686079346E+03  0.23686079346E+03  0.00000000000E+00 0. -1.
         25    2    1    2    0    0 -0.25685128255E+02 -0.41954104366E+02  0.84415705316E+03  0.85477786080E+03  0.12499675291E+03 0.  0.
          4    1    3    3  501    0 -0.96919645410E+01 -0.73624235299E+02  0.75747411444E+03  0.76110650316E+03  0.12700000000E+01 0.  1.
         -4    1    3    3    0  501 -0.15993163714E+02  0.31670130933E+02  0.86682938716E+02  0.93671357647E+02  0.12700000000E+01 0.  1.
          2    1    1    2  502    0  0.33303242773E+02 -0.11175409268E+02 -0.22953817584E+03  0.23221061544E+03  0.00000000000E+00 0. -1.
          1    1    1    2  503    0 -0.76181145179E+01  0.53129513635E+02  0.10647110184E+04  0.10660630064E+04  0.00000000000E+00 0. -1.
<mgrwt>
<rscale>  0 0.42744007E+02</rscale>
<asrwt>0</asrwt>
<pdfrwt beam="1">  1        2 0.29479856E+00 0.52010812E+02</pdfrwt>
<pdfrwt beam="2">  1        1 0.36440123E-01 0.35128276E+02</pdfrwt>
<totfact> 0.15400872E+02</totfact>
</mgrwt>
</event>
<event>
 7    1  0.6493044E-004  0.6605607E+02  0.7546771E-02  0.1439583E+00
         -2   -1    0    0    0  501 -0.00000000000E+00  0.00000000000E+00  0.16845868148E+04  0.16845868148E+04  0.00000000000E+00 0.  1.
          2   -1    0    0  503    0  0.00000000000E+00 -0.00000000000E+00 -0.72952636089E+02  0.72952636089E+02  0.00000000000E+00 0. -1.
         25    2    1    2    0    0 -0.19158534436E+02 -0.22203721693E+02  0.15009830178E+03  0.19751934267E+03  0.12499734331E+03 0.  0.
          4    1    3    3  502    0  0.45663168174E+02 -0.37697811730E+02  0.51410330697E+02  0.78427577670E+02  0.12700000000E+01 0.  1.
         -4    1    3    3    0  502 -0.64821702610E+02  0.15494090036E+02  0.98687971079E+02  0.11909176500E+03  0.12700000000E+01 0.  1.
          1    1    1    2  503    0 -0.10823280681E+02 -0.37993157581E+02 -0.40443568161E+02  0.56535879167E+02  0.00000000000E+00 0. -1.
         -1    1    1    2    0  501  0.29981815117E+02  0.60196879275E+02  0.15019794450E+04  0.15034842290E+04  0.00000000000E+00 0.  1.
<mgrwt>
<rscale>  0 0.51083530E+02</rscale>
<asrwt>0</asrwt>
<pdfrwt beam="2">  1        2 0.11223484E-01 0.39504727E+02</pdfrwt>
<pdfrwt beam="1">  1       -2 0.25916717E+00 0.66056071E+02</pdfrwt>
<totfact> 0.35913252E+01</totfact>
</mgrwt>
</event>
<event>
 7    1  0.6493044E-004  0.4964379E+02  0.7546771E-02  0.1470215E+00
          2   -1    0    0  503    0  0.00000000000E+00  0.00000000000E+00  0.14604233328E+04  0.14604233328E+04  0.00000000000E+00 0. -1.
         -2   -1    0    0    0  501 -0.00000000000E+00 -0.00000000000E+00 -0.80548479950E+02  0.80548479950E+02  0.00000000000E+00 0.  1.
         25    2    1    2    0    0  0.26805618838E+02 -0.11471562853E+02  0.16611237368E+03  0.20992432234E+03  0.12499904985E+03 0.  0.
          4    1    3    3  502    0  0.36691463279E+02  0.49400957310E+02  0.11232849271E+03  0.12808599157E+03  0.12700000000E+01 0. -1.
         -4    1    3    3    0  502 -0.98858444411E+01 -0.60872520163E+02  0.53783880969E+02  0.81838330771E+02  0.12700000000E+01 0. -1.
          1    1    1    2  503    0  0.17292734685E+02  0.38286041936E+02  0.12606313351E+04  0.12613311312E+04  0.00000000000E+00 0. -1.
         -3    1    1    2    0  501 -0.44098353523E+02 -0.26814479083E+02 -0.46868855946E+02  0.69716359125E+02  0.00000000000E+00 0.  1.
<mgrwt>
<rscale>  0 0.45667790E+02</rscale>
<asrwt>0</asrwt>
<pdfrwt beam="1">  1        2 0.22468049E+00 0.42010233E+02</pdfrwt>
<pdfrwt beam="2">  1       -2 0.12392075E-01 0.49643787E+02</pdfrwt>
<totfact> 0.71000436E+02</totfact>
</mgrwt>
</event>
<event>
 7    1  0.6493044E-004  0.8381201E+02  0.7546771E-02  0.1374514E+00
          2   -1    0    0  503    0  0.00000000000E+00  0.00000000000E+00  0.62377838782E+03  0.62377838782E+03  0.00000000000E+00 0. -1.
          1   -1    0    0  502    0 -0.00000000000E+00 -0.00000000000E+00 -0.17195461776E+03  0.17195461776E+03  0.00000000000E+00 0. -1.
         25    2    1    2    0    0 -0.61044119575E+02  0.96082680760E+02  0.33793689665E+03  0.37786935179E+03  0.12500253927E+03 0.  0.
          4    1    3    3  501    0  0.21648011163E+01 -0.91261532508E+00  0.18996802217E+03  0.18998679317E+03  0.12700000000E+01 0.  1.
         -4    1    3    3    0  501 -0.63208920691E+02  0.96995296085E+02  0.14796887448E+03  0.18788255862E+03  0.12700000000E+01 0.  1.
          2    1    1    2  502    0  0.47758988816E+02 -0.20212541636E+02 -0.14171630291E+03  0.15090718459E+03  0.00000000000E+00 0. -1.
          1    1    1    2  503    0  0.13285130758E+02 -0.75870139124E+02  0.25560317631E+03  0.26695646920E+03  0.00000000000E+00 0. -1.
<mgrwt>
<rscale>  0 0.65927972E+02</rscale>
<asrwt>0</asrwt>
<pdfrwt beam="1">  1        2 0.95965905E-01 0.83812011E+02</pdfrwt>
<pdfrwt beam="2">  1        1 0.26454557E-01 0.51860080E+02</pdfrwt>
<totfact> 0.11552933E+03</totfact>
</mgrwt>
</event>
<event>
 7    1  0.6493044E-004  0.4782720E+02  0.7546771E-02  0.1516441E+00
          3   -1    0    0  502    0 -0.00000000000E+00  0.00000000000E+00  0.32978916033E+02  0.32978916033E+02  0.00000000000E+00 0. -1.
          2   -1    0    0  503    0  0.00000000000E+00 -0.00000000000E+00 -0.23348349114E+04  0.23348349114E+04  0.00000000000E+00 0. -1.
         25    2    1    2    0    0 -0.16638721853E+02  0.46384061065E+02 -0.10554965452E+04  0.10640142798E+04  0.12500040990E+03 0.  0.
          4    1    3    3  501    0  0.78917615011E+01 -0.52797296603E+01 -0.31066444181E+01  0.10070729091E+02  0.12700000000E+01 0.  1.
         -4    1    3    3    0  501 -0.24530483355E+02  0.51663790726E+02 -0.10523899008E+04  0.10539435507E+04  0.12700000000E+01 0.  1.
          2    1    1    2  502    0  0.40556486873E+02 -0.25664187497E+02  0.83291590231E+01  0.48711949637E+02  0.00000000000E+00 0. -1.
          1    1    1    2  503    0 -0.23917765019E+02 -0.20719873568E+02 -0.12546886092E+04  0.12550875980E+04  0.00000000000E+00 0. -1.
<mgrwt>
<rscale>  0 0.38903297E+02</rscale>
<asrwt>0</asrwt>
<pdfrwt beam="2">  1        2 0.35920543E+00 0.31644473E+02</pdfrwt>
<pdfrwt beam="1">  1        3 0.50736786E-02 0.47827201E+02</pdfrwt>
<totfact> 0.72654410E+02</totfact>
</mgrwt>
</event>
<event>
 7    1  0.6493044E-004  0.1095131E+03  0.7546771E-02  0.1269685E+00
         -1   -1    0    0    0  502 -0.00000000000E+00  0.00000000000E+00  0.16572657787E+03  0.16572657787E+03  0.00000000000E+00 0.  1.
         -2   -1    0    0    0  501  0.00000000000E+00 -0.00000000000E+00 -0.68017111795E+03  0.68017111795E+03  0.00000000000E+00 0.  1.
         25    2    1    2    0    0  0.64912873811E+02 -0.98145070211E+02 -0.19718317078E+03  0.26144117494E+03  0.12499659645E+03 0.  0.
          4    1    3    3  503    0  0.32042279056E+02 -0.77655545383E+02 -0.20531748544E+03  0.22184222796E+03  0.12700000000E+01 0.  1.
         -4    1    3    3    0  503  0.32870594754E+02 -0.20489524828E+02  0.81343146667E+01  0.39598946984E+02  0.12700000000E+01 0.  1.
         -2    1    1    2    0  502 -0.11276235990E+03  0.90883922555E+01  0.10252144779E+03  0.15267152956E+03  0.00000000000E+00 0.  1.
         -3    1    1    2    0  501  0.47849486086E+02  0.89056677956E+02 -0.41978281709E+03  0.43178499132E+03  0.00000000000E+00 0.  1.
<mgrwt>
<rscale>  0 0.10522110E+03</rscale>
<asrwt>0</asrwt>
<pdfrwt beam="2">  1       -2 0.10464171E+00 0.10109731E+03</pdfrwt>
<pdfrwt beam="1">  1       -1 0.25496397E-01 0.10951310E+03</pdfrwt>
<totfact> 0.78342571E+01</totfact>
</mgrwt>
</event>
<event>
 7    1  0.6493044E-004  0.6864046E+02  0.7546771E-02  0.1365290E+00
          1   -1    0    0  502    0 -0.00000000000E+00  0.00000000000E+00  0.71859131274E+02  0.71859131274E+02  0.00000000000E+00 0. -1.
          2   -1    0    0  503    0  0.00000000000E+00 -0.00000000000E+00 -0.12381075496E+04  0.12381075496E+04  0.00000000000E+00 0. -1.
         25    2    1    2    0    0  0.44823411231E+02  0.71302880146E+02 -0.53722631413E+03  0.55796764150E+03  0.12499014944E+03 0.  0.
          4    1    3    3  501    0  0.85442561696E+02  0.24838886358E+02 -0.31712806631E+03  0.32937702556E+03  0.12700000000E+01 0. -1.
         -4    1    3    3    0  501 -0.40619150465E+02  0.46463993788E+02 -0.22009824782E+03  0.22859061594E+03  0.12700000000E+01 0. -1.
          2    1    1    2  502    0 -0.68192764295E+02 -0.46039308873E+01  0.40041234132E+02  0.79213317773E+02  0.00000000000E+00 0. -1.
          1    1    1    2  503    0  0.23369353063E+02 -0.66698949258E+02 -0.66906333831E+03  0.67278572158E+03  0.00000000000E+00 0. -1.
<mgrwt>
<rscale>  0 0.68494075E+02</rscale>
<asrwt>0</asrwt>
<pdfrwt beam="2">  1        2 0.19047807E+00 0.68640460E+02</pdfrwt>
<pdfrwt beam="1">  1        1 0.11055252E-01 0.68348001E+02</pdfrwt>
<totfact> 0.14641000E+03</totfact>
</mgrwt>
</event>
<event>
 7    1  0.6493044E-004  0.1713513E+03  0.7546771E-02  0.1309360E+00
          1   -1    0    0  502    0 -0.00000000000E+00  0.00000000000E+00  0.35740466385E+03  0.35740466385E+03  0.00000000000E+00 0. -1.
          2   -1    0    0  503    0  0.00000000000E+00 -0.00000000000E+00 -0.19660407636E+04  0.19660407636E+04  0.00000000000E+00 0. -1.
         25    2    1    2    0    0  0.17583712949E+03 -0.10740916925E+03 -0.67141967458E+03  0.71336137433E+03  0.12499858091E+03 0.  0.
          4    1    3    3  501    0  0.75256968006E+02 -0.90513285689E+02 -0.20944070510E+03  0.24025671265E+03  0.12700000000E+01 0.  1.
         -4    1    3    3    0  501  0.10058016149E+03 -0.16895883562E+02 -0.46197896948E+03  0.47310466168E+03  0.12700000000E+01 0.  1.
          2    1    1    2  502    0 -0.42085291731E+02  0.14595833322E+02  0.32972771649E+03  0.33272297358E+03  0.00000000000E+00 0. -1.
          1    1    1    2  503    0 -0.13375183776E+03  0.92813335930E+02 -0.12669441417E+04  0.12773610795E+04  0.00000000000E+00 0. -1.
<mgrwt>
<rscale>  0 0.87365627E+02</rscale>
<asrwt>0</asrwt>
<pdfrwt beam="2">  1        2 0.30246781E+00 0.17135128E+03</pdfrwt>
<pdfrwt beam="1">  1        1 0.54985333E-01 0.44544474E+02</pdfrwt>
<totfact> 0.78865447E+01</totfact>
</mgrwt>
</event>
<event>
 7    1  0.6493044E-004  0.1249716E+03  0.7546771E-02  0.1334654E+00
         -2   -1    0    0    0  501 -0.00000000000E+00  0.00000000000E+00  0.49621753450E+02  0.49621753450E+02  0.00000000000E+00 0.  1.
          2   -1    0    0  503    0  0.00000000000E+00 -0.00000000000E+00 -0.14951703592E+04  0.14951703592E+04  0.00000000000E+00 0. -1.
         25    2    1    2    0    0 -0.12441874603E+03 -0.10312847405E+03 -0.70270909896E+03  0.73180696692E+03  0.12500341015E+03 0.  0.
          4    1    3    3  502    0 -0.85565197458E+02 -0.97596304806E+02 -0.29602776289E+03  0.32323442117E+03  0.12700000000E+01 0. -1.
         -4    1    3    3    0  502 -0.38853548574E+02 -0.55321692424E+01 -0.40668133607E+03  0.40857254575E+03  0.12700000000E+01 0. -1.
          1    1    1    2  503    0  0.81395179163E+02  0.80192046138E+02 -0.75429627257E+03  0.76290157050E+03  0.00000000000E+00 0. -1.
         -1    1    1    2    0  501  0.43023566869E+02  0.22936427911E+02  0.11456765735E+02  0.50083575277E+02  0.00000000000E+00 0.  1.
<mgrwt>
<rscale>  0 0.78058093E+02</rscale>
<asrwt>0</asrwt>
<pdfrwt beam="2">  1        2 0.23002618E+00 0.12497165E+03</pdfrwt>
<pdfrwt beam="1">  1       -2 0.76341168E-02 0.48755585E+02</pdfrwt>
<totfact> 0.13029807E+03</totfact>
</mgrwt>
</event>
<event>
 7    1  0.6493044E-004  0.7288807E+02  0.7546771E-02  0.1502791E+00
          2   -1    0    0  503    0  0.00000000000E+00  0.00000000000E+00  0.18929774684E+04  0.18929774684E+04  0.00000000000E+00 0. -1.
         -2   -1    0    0    0  501 -0.00000000000E+00 -0.00000000000E+00 -0.13757397975E+03  0.13757397975E+03  0.00000000000E+00 0.  1.
         25    2    1    2    0    0 -0.68744275084E+02 -0.56911795614E+02  0.98512827706E+02  0.18246334616E+03  0.12499347037E+03 0.  0.
          4    1    3    3  502    0 -0.12191004898E+02 -0.80966392844E+02  0.87811255365E+02  0.12006917523E+03  0.12700000000E+01 0. -1.
         -4    1    3    3    0  502 -0.56553270186E+02  0.24054597230E+02  0.10701572341E+02  0.62394170939E+02  0.12700000000E+01 0. -1.
          1    1    1    2  503    0  0.63811752652E+02  0.34674195809E+02  0.17503688106E+04  0.17518747708E+04  0.00000000000E+00 0. -1.
         -1    1    1    2    0  501  0.49325224315E+01  0.22237599805E+02 -0.93478149657E+02  0.96213331124E+02  0.00000000000E+00 0.  1.
<mgrwt>
<rscale>  0 0.40746163E+02</rscale>
<asrwt>0</asrwt>
<pdfrwt beam="1">  1        2 0.29122728E+00 0.72888070E+02</pdfrwt>
<pdfrwt beam="2">  1       -2 0.21165229E-01 0.22778073E+02</pdfrwt>
<totfact> 0.16707617E+02</totfact>
</mgrwt>
</event>
<event>
 7    1  0.6493044E-004  0.8009596E+02  0.7546771E-02  0.1414444E+00
          1   -1    0    0  502    0 -0.00000000000E+00  0.00000000000E+00  0.30005991755E+03  0.30005991755E+03  0.00000000000E+00 0. -1.
          2   -1    0    0  503    0  0.00000000000E+00 -0.00000000000E+00 -0.65894567868E+03  0.65894567868E+03  0.00000000000E+00 0. -1.
         25    2    1    2    0    0  0.44057971690E+02  0.93078952562E+02 -0.84465622635E+02  0.18265644604E+03  0.12499655832E+03 0.  0.
          4    1    3    3  501    0 -0.31788172710E+02  0.17612650661E+02 -0.64154979411E+02  0.73743933112E+02  0.12700000000E+01 0. -1.
         -4    1    3    3    0  501  0.75846144400E+02  0.75466301901E+02 -0.20310643223E+02  0.10891251292E+03  0.12700000000E+01 0. -1.
          2    1    1    2  502    0 -0.36746062780E+02 -0.14361023919E+02  0.24641241533E+03  0.24955077754E+03  0.00000000000E+00 0. -1.
          1    1    1    2  503    0 -0.73119089098E+01 -0.78717928643E+02 -0.52083255383E+03  0.52679837265E+03  0.00000000000E+00 0. -1.
<mgrwt>
<rscale>  0 0.56213863E+02</rscale>
<asrwt>0</asrwt>
<pdfrwt beam="2">  1        2 0.10137626E+00 0.80095958E+02</pdfrwt>
<pdfrwt beam="1">  1        1 0.46163064E-01 0.39452657E+02</pdfrwt>
<totfact> 0.55659549E+02</totfact>
</mgrwt>
</event>
<event>
 7    1  0.6493044E-004  0.1355231E+03  0.7546771E-02  0.1375689E+00
          2   -1    0    0  503    0  0.00000000000E+00  0.00000000000E+00  0.37845802632E+04  0.37845802632E+04  0.00000000000E+00 0. -1.
          1   -1    0    0  502    0 -0.00000000000E+00 -0.00000000000E+00 -0.37018567207E+02  0.37018567207E+02  0.00000000000E+00 0. -1.
         25    2    1    2    0    0 -0.86306377018E+02  0.10005582749E+03  0.14830718587E+04  0.14941842184E+04  0.12499752436E+03 0.  0.
          4    1    3    3  501    0 -0.54945118520E+02  0.86859648684E+02  0.14080597913E+04  0.14118064858E+04  0.12700000000E+01 0. -1.
         -4    1    3    3    0  501 -0.31361258498E+02  0.13196178802E+02  0.75012067470E+02  0.82377732645E+02  0.12700000000E+01 0. -1.
          2    1    1    2  502    0  0.22746516787E+02  0.22170919782E+02 -0.20805004320E+02  0.37971066810E+02  0.00000000000E+00 0. -1.
          1    1    1    2  503    0  0.63559860230E+02 -0.12222674727E+03  0.22852948416E+04  0.22894435452E+04  0.00000000000E+00 0. -1.
<mgrwt>
<rscale>  0 0.65610662E+02</rscale>
<asrwt>0</asrwt>
<pdfrwt beam="1">  1        2 0.58224281E+00 0.13552306E+03</pdfrwt>
<pdfrwt beam="2">  1        1 0.56951672E-02 0.31764032E+02</pdfrwt>
<totfact> 0.11458744E+02</totfact>
</mgrwt>
</event>
<event>
 7    1  0.6493044E-004  0.1504213E+03  0.7546771E-02  0.1203782E+00
          1   -1    0    0  502    0 -0.00000000000E+00  0.00000000000E+00  0.15041129530E+03  0.15041129530E+03  0.00000000000E+00 0. -1.
          2   -1    0    0  503    0  0.00000000000E+00 -0.00000000000E+00 -0.13630252451E+04  0.13630252451E+04  0.00000000000E+00 0. -1.
         25    2    1    2    0    0  0.73053644501E+02 -0.64423268680E+02 -0.19848161471E+03  0.25398149184E+03  0.12499781718E+03 0.  0.
          4    1    3    3  501    0  0.17027491495E+02  0.37538312669E+02 -0.64232912252E+02  0.76331777792E+02  0.12700000000E+01 0.  1.
         -4    1    3    3    0  501  0.56026153006E+02 -0.10196158135E+03 -0.13424870246E+03  0.17764971405E+03  0.12700000000E+01 0.  1.
          2    1    1    2  502    0  0.38885034597E+02  0.16490360458E+03  0.56276991666E+02  0.17852827370E+03  0.00000000000E+00 0. -1.
          1    1    1    2  503    0 -0.11193867910E+03 -0.10048033590E+03 -0.10704093268E+04  0.10809267748E+04  0.00000000000E+00 0. -1.
<mgrwt>
<rscale>  0 0.14733863E+03</rscale>
<asrwt>0</asrwt>
<pdfrwt beam="2">  1        2 0.20969618E+00 0.15042129E+03</pdfrwt>
<pdfrwt beam="1">  1        1 0.23140200E-01 0.14431914E+03</pdfrwt>
<totfact> 0.47864998E+02</totfact>
</mgrwt>
</event>
<event>
 7    1  0.6493044E-004  0.4549113E+02  0.7546771E-02  0.1509819E+00
          1   -1    0    0  502    0 -0.00000000000E+00  0.00000000000E+00  0.12783972174E+04  0.12783972174E+04  0.00000000000E+00 0. -1.
          2   -1    0    0  503    0  0.00000000000E+00 -0.00000000000E+00 -0.23150503684E+02  0.23150503684E+02  0.00000000000E+00 0. -1.
         25    2    1    2    0    0  0.37817249367E+02  0.30358033720E+02  0.97360831129E+03  0.98279778046E+03  0.12500631548E+03 0.  0.
          4    1    3    3  501    0  0.19345212435E+02 -0.46646113271E+02  0.50760743666E+03  0.51011471238E+03  0.12700000000E+01 0.  1.
         -4    1    3    3    0  501  0.18472036931E+02  0.77004146992E+02  0.46600087462E+03  0.47268306808E+03  0.12700000000E+01 0.  1.
          2    1    1    2  502    0 -0.48050706582E+02  0.28928130889E+01  0.27980078993E+03  0.28391146651E+03  0.00000000000E+00 0. -1.
          1    1    1    2  503    0  0.10233457215E+02 -0.33250846809E+02  0.18376125179E+01  0.34838474132E+02  0.00000000000E+00 0. -1.
<mgrwt>
<rscale>  0 0.39782350E+02</rscale>
<asrwt>0</asrwt>
<pdfrwt beam="2">  1        2 0.35616170E-02 0.34789976E+02</pdfrwt>
<pdfrwt beam="1">  1        1 0.19667644E+00 0.45491132E+02</pdfrwt>
<totfact> 0.31626728E+03</totfact>
</mgrwt>
</event>
<event>
 7    1  0.6493044E-004  0.8478604E+02  0.7546771E-02  0.1469762E+00
         -3   -1    0    0    0  501 -0.00000000000E+00  0.00000000000E+00  0.21580241661E+02  0.21580241661E+02  0.00000000000E+00 0.  1.
          1   -1    0    0  503    0  0.00000000000E+00 -0.00000000000E+00 -0.32667315472E+04  0.32667315472E+04  0.00000000000E+00 0. -1.
         25    2    1    2    0    0  0.17355045060E+02 -0.96080983020E+02 -0.91845183785E+03  0.93204803919E+03  0.12500806385E+03 0.  0.
          4    1    3    3  502    0 -0.22016365338E+02  0.16864728460E+02 -0.35259062616E+03  0.35368192202E+03  0.12700000000E+01 0.  1.
         -4    1    3    3    0  502  0.39371410399E+02 -0.11294571148E+03 -0.56586121168E+03  0.57836611717E+03  0.12700000000E+01 0.  1.
          2    1    1    2  503    0  0.38864443934E+01  0.83519494716E+02 -0.23298819075E+04  0.23313816319E+04  0.00000000000E+00 0. -1.
         -2    1    1    2    0  501 -0.21241489454E+02  0.12561488304E+02  0.31824398305E+01  0.24882117794E+02  0.00000000000E+00 0.  1.
<mgrwt>
<rscale>  0 0.45741989E+02</rscale>
<asrwt>0</asrwt>
<pdfrwt beam="2">  1        1 0.50257439E+00 0.84786039E+02</pdfrwt>
<pdfrwt beam="1">  1       -3 0.33200351E-02 0.24677760E+02</pdfrwt>
<totfact> 0.92380235E+01</totfact>
</mgrwt>
</event>
<event>
 7    1  0.6493044E-004  0.4352910E+02  0.7546771E-02  0.1513523E+00
          1   -1    0    0  503    0  0.00000000000E+00  0.00000000000E+00  0.18718881991E+04  0.18718881991E+04  0.00000000000E+00 0. -1.
         -1   -1    0    0    0  501 -0.00000000000E+00 -0.00000000000E+00 -0.12264245949E+03  0.12264245949E+03  0.00000000000E+00 0.  1.
         25    2    1    2    0    0  0.11084348293E+02  0.44479759295E+02  0.41015680860E+02  0.13932966872E+03  0.12501663387E+03 0.  0.
          4    1    3    3  502    0 -0.82038160369E+01  0.42835803399E+02  0.82614872891E+02  0.93429325018E+02  0.12700000000E+01 0.  1.
         -4    1    3    3    0  502  0.19288164330E+02  0.16439558954E+01 -0.41599192031E+02  0.45900343701E+02  0.12700000000E+01 0.  1.
          2    1    1    2  503    0 -0.34763670721E+02 -0.69864676136E+01  0.17748323239E+04  0.17751864977E+04  0.00000000000E+00 0. -1.
         -2    1    1    2    0  501  0.23679322428E+02 -0.37493291681E+02 -0.66602265178E+02  0.80014492178E+02  0.00000000000E+00 0.  1.
<mgrwt>
<rscale>  0 0.39287248E+02</rscale>
<asrwt>0</asrwt>
<pdfrwt beam="1">  1        1 0.28798278E+00 0.35458758E+02</pdfrwt>
<pdfrwt beam="2">  1       -1 0.18868072E-01 0.43529101E+02</pdfrwt>
<totfact> 0.10809724E+02</totfact>
</mgrwt>
</event>
<event>
 7    1  0.6493044E-004  0.4460042E+02  0.7546771E-02  0.1560137E+00
         -1   -1    0    0    0  501 -0.00000000000E+00  0.00000000000E+00  0.10906155836E+02  0.10906155836E+02  0.00000000000E+00 0.  1.
          1   -1    0    0  503    0  0.00000000000E+00 -0.00000000000E+00 -0.11267090563E+04  0.11267090563E+04  0.00000000000E+00 0. -1.
         25    2    1    2    0    0 -0.11319336079E+01 -0.23960641040E+02 -0.64290681589E+03  0.65538438879E+03  0.12499651817E+03 0.  0.
          4    1    3    3  502    0 -0.54496299340E+01  0.33182447127E+02 -0.50391149247E+03  0.50503383887E+03  0.12700000000E+01 0.  1.
         -4    1    3    3    0  502  0.43176963261E+01 -0.57143088167E+02 -0.13899532342E+03  0.15035054991E+03  0.12700000000E+01 0.  1.
          2    1    1    2  503    0  0.66694518727E+01  0.48867872765E+02 -0.42597593875E+03  0.42882170068E+03  0.00000000000E+00 0. -1.
         -2    1    1    2    0  501 -0.55375182647E+01 -0.24907231725E+02 -0.46920145845E+02  0.53409122693E+02  0.00000000000E+00 0.  1.
<mgrwt>
<rscale>  0 0.33734203E+02</rscale>
<asrwt>0</asrwt>
<pdfrwt beam="2">  1        1 0.17333982E+00 0.44600423E+02</pdfrwt>
<pdfrwt beam="1">  1       -1 0.16778705E-02 0.25515374E+02</pdfrwt>
<totfact> 0.92025990E+03</totfact>
</mgrwt>
</event>
<event>
 7    1  0.6493044E-004  0.7411644E+02  0.7546771E-02  0.1446991E+00
         -1   -1    0    0    0  501 -0.00000000000E+00  0.00000000000E+00  0.90599293065E+02  0.90599293065E+02  0.00000000000E+00 0.  1.
          1   -1    0    0  503    0  0.00000000000E+00 -0.00000000000E+00 -0.68424396289E+03  0.68424396289E+03  0.00000000000E+00 0. -1.
         25    2    1    2    0    0  0.26459828984E+02  0.45791392685E+02 -0.48845080453E+02  0.14425152547E+03  0.12500274606E+03 0.  0.
          4    1    3    3  502    0  0.47740286100E+02 -0.13793069384E+02  0.17372186252E+02  0.52657282830E+02  0.12700000000E+01 0. -1.
         -4    1    3    3    0  502 -0.21280457116E+02  0.59584462069E+02 -0.66217266705E+02  0.91594242641E+02  0.12700000000E+01 0. -1.
          2    1    1    2  503    0 -0.99637515790E+01 -0.74742713771E+02 -0.57838605084E+03  0.58328052720E+03  0.00000000000E+00 0. -1.
         -2    1    1    2    0  501 -0.16496077405E+02  0.28951321086E+02  0.33586461466E+02  0.47311203284E+02  0.00000000000E+00 0.  1.
<mgrwt>
<rscale>  0 0.49695530E+02</rscale>
<asrwt>0</asrwt>
<pdfrwt beam="2">  1        1 0.10526830E+00 0.74116442E+02</pdfrwt>
<pdfrwt beam="1">  1       -1 0.13938353E-01 0.33321158E+02</pdfrwt>
<totfact> 0.99276644E+02</totfact>
</mgrwt>
</event>
<event>
 7    1  0.6493044E-004  0.1674670E+03  0.7546771E-02  0.1248401E+00
          2   -1    0    0  503    0  0.00000000000E+00  0.00000000000E+00  0.43287902582E+03  0.43287902582E+03  0.00000000000E+00 0. -1.
          1   -1    0    0  502    0 -0.00000000000E+00 -0.00000000000E+00 -0.25983316151E+03  0.25983316151E+03  0.00000000000E+00 0. -1.
         25    2    1    2    0    0 -0.65343595375E+02 -0.22837833243E+03  0.33685167013E+01  0.26844460256E+03  0.12499883822E+03 0.  0.
          4    1    3    3  501    0  0.39171278315E+01 -0.94863044385E+02  0.54614441032E+02  0.10953853728E+03  0.12700000000E+01 0. -1.
         -4    1    3    3    0  501 -0.69260723207E+02 -0.13351528805E+03 -0.51245924331E+02  0.15890606528E+03  0.12700000000E+01 0. -1.
          2    1    1    2  502    0  0.21880795743E+02  0.78528006384E+02 -0.89931532819E+02  0.12137997201E+03  0.00000000000E+00 0. -1.
          1    1    1    2  503    0  0.43462799632E+02  0.14985032605E+03  0.25960888043E+03  0.30288761276E+03  0.00000000000E+00 0. -1.
<mgrwt>
<rscale>  0 0.11684099E+03</rscale>
<asrwt>0</asrwt>
<pdfrwt beam="1">  1        2 0.66596773E-01 0.16746703E+03</pdfrwt>
<pdfrwt beam="2">  1        1 0.39974333E-01 0.81519427E+02</pdfrwt>
<totfact> 0.10444796E+03</totfact>
</mgrwt>
</event>
<event>
 7    1  0.6493044E-004  0.1474322E+03  0.7546771E-02  0.1313385E+00
          2   -1    0    0  503    0  0.00000000000E+00  0.00000000000E+00  0.67930733559E+03  0.67930733559E+03  0.00000000000E+00 0. -1.
          1   -1    0    0  502    0 -0.00000000000E+00 -0.00000000000E+00 -0.11820362957E+04  0.11820362957E+04  0.00000000000E+00 0. -1.
         25    2    1    2    0    0 -0.17835003132E+03  0.59360229824E+02  0.20986159921E+03  0.30822044451E+03  0.12500232411E+03 0.  0.
          4    1    3    3  501    0 -0.13183074982E+03  0.85449912782E+02  0.19939519426E+03  0.25385249770E+03  0.12700000000E+01 0.  1.
         -4    1    3    3    0  501 -0.46519281498E+02 -0.26089682959E+02  0.10466404949E+02  0.54367946812E+02  0.12700000000E+01 0.  1.
          2    1    1    2  502    0  0.46939540351E+02 -0.16985615768E+02 -0.11209457747E+04  0.11220567105E+04  0.00000000000E+00 0. -1.
          1    1    1    2  503    0  0.13141049097E+03 -0.42374614056E+02  0.40835521541E+03  0.43106647632E+03  0.00000000000E+00 0. -1.
<mgrwt>
<rscale>  0 0.85787867E+02</rscale>
<asrwt>0</asrwt>
<pdfrwt beam="1">  1        2 0.10450882E+00 0.14743222E+03</pdfrwt>
<pdfrwt beam="2">  1        1 0.18185174E+00 0.49918249E+02</pdfrwt>
<totfact> 0.81514067E+01</totfact>
</mgrwt>
</event>
<event>
 7    1  0.6493044E-004  0.6868853E+02  0.7546771E-02  0.1420161E+00
         -1   -1    0    0    0  502 -0.00000000000E+00  0.00000000000E+00  0.34917643499E+03  0.34917643499E+03  0.00000000000E+00 0.  1.
         -2   -1    0    0    0  501  0.00000000000E+00 -0.00000000000E+00 -0.57446733801E+03  0.57446733801E+03  0.00000000000E+00 0.  1.
         25    2    1    2    0    0 -0.14501381956E+02 -0.62423021758E+02  0.60415237929E+02  0.15290812412E+03  0.12499587883E+03 0.  0.
          4    1    3    3  503    0  0.29502913020E+02 -0.50932893124E+01 -0.26403028872E+02  0.39938656791E+02  0.12700000000E+01 0.  1.
         -4    1    3    3    0  503 -0.44004294976E+02 -0.57329732445E+02  0.86818266801E+02  0.11296946733E+03  0.12700000000E+01 0.  1.
         -2    1    1    2    0  502 -0.29484410684E+02  0.64118515435E+02  0.23643474588E+03  0.24674258561E+03  0.00000000000E+00 0.  1.
         -1    1    1    2    0  501  0.43985792640E+02 -0.16954936767E+01 -0.52214088683E+03  0.52399306327E+03  0.00000000000E+00 0.  1.
<mgrwt>
<rscale>  0 0.54986938E+02</rscale>
<asrwt>0</asrwt>
<pdfrwt beam="2">  1       -2 0.88379590E-01 0.44018458E+02</pdfrwt>
<pdfrwt beam="1">  1       -1 0.53719452E-01 0.68688534E+02</pdfrwt>
<totfact> 0.32364682E+01</totfact>
</mgrwt>
</event>
<event>
 7    1  0.6493044E-004  0.6074125E+02  0.7546771E-02  0.1455577E+00
          2   -1    0    0  503    0  0.00000000000E+00  0.00000000000E+00  0.42108898823E+03  0.42108898823E+03  0.00000000000E+00 0. -1.
          1   -1    0    0  502    0 -0.00000000000E+00 -0.00000000000E+00 -0.89794778168E+03  0.89794778168E+03  0.00000000000E+00 0. -1.
         25    2    1    2    0    0  0.44302249903E+02  0.30847459015E+02 -0.13979276201E+03  0.19514709168E+03  0.12500446395E+03 0.  0.
          4    1    3    3  501    0 -0.42895339443E+02  0.17972915446E+02 -0.35077468478E+02  0.58267293831E+02  0.12700000000E+01 0. -1.
         -4    1    3    3    0  501  0.87197589345E+02  0.12874543570E+02 -0.10471529354E+03  0.13687979785E+03  0.12700000000E+01 0. -1.
          2    1    1    2  502    0  0.16593762098E+02 -0.34375053364E+02 -0.72761015459E+03  0.72861068774E+03  0.00000000000E+00 0. -1.
          1    1    1    2  503    0 -0.60896012001E+02  0.35275943483E+01  0.39054412314E+03  0.39527899049E+03  0.00000000000E+00 0. -1.
<mgrwt>
<rscale>  0 0.48151136E+02</rscale>
<asrwt>0</asrwt>
<pdfrwt beam="1">  1        2 0.64782922E-01 0.60741249E+02</pdfrwt>
<pdfrwt beam="2">  1        1 0.13814581E+00 0.38170633E+02</pdfrwt>
<totfact> 0.22375046E+02</totfact>
</mgrwt>
</event>
<event>
 7    1  0.6493044E-004  0.1721836E+03  0.7546771E-02  0.1207604E+00
          1   -1    0    0  503    0  0.00000000000E+00  0.00000000000E+00  0.20115473300E+04  0.20115473300E+04  0.00000000000E+00 0. -1.
         -1   -1    0    0    0  501 -0.00000000000E+00 -0.00000000000E+00 -0.94791358431E+03  0.94791358431E+03  0.00000000000E+00 0.  1.
         25    2    1    2    0    0 -0.11446892986E+03  0.17015601248E+03  0.22532082227E+03  0.32932108314E+03  0.12500679327E+03 0.  0.
          4    1    3    3  502    0 -0.38625860993E+02  0.47663778524E+02  0.15954751978E+03  0.17094097487E+03  0.12700000000E+01 0.  1.
         -4    1    3    3    0  502 -0.75843068872E+02  0.12249223395E+03  0.65773302486E+02  0.15838010827E+03  0.12700000000E+01 0.  1.
          2    1    1    2  503    0 -0.47505293441E+02 -0.11128609234E+03  0.17237979083E+04  0.17280395180E+04  0.00000000000E+00 0. -1.
         -2    1    1    2    0  501  0.16197422331E+03 -0.58869920134E+02 -0.88548498488E+03  0.90210031314E+03  0.00000000000E+00 0.  1.
<mgrwt>
<rscale>  0 0.14434149E+03</rscale>
<asrwt>0</asrwt>
<pdfrwt beam="1">  1        1 0.30946882E+00 0.12100143E+03</pdfrwt>
<pdfrwt beam="2">  1       -1 0.14583286E+00 0.17218362E+03</pdfrwt>
<totfact> 0.15548790E+00</totfact>
</mgrwt>
</event>
<event>
 7    1  0.6493044E-004  0.2672722E+03  0.7546771E-02  0.1102851E+00
         -2   -1    0    0    0  501 -0.00000000000E+00  0.00000000000E+00  0.19908209653E+02  0.19908209653E+02  0.00000000000E+00 0.  1.
          2   -1    0    0  503    0  0.00000000000E+00 -0.00000000000E+00 -0.89704764366E+03  0.89704764366E+03  0.00000000000E+00 0. -1.
         25    2    1    2    0    0  0.30372578144E+00 -0.99407453827E+02 -0.51089020215E+03  0.53527461332E+03  0.12501271488E+03 0.  0.
          4    1    3    3  502    0 -0.13990815985E+02 -0.58917094013E+02 -0.47626031364E+03  0.48009630924E+03  0.12700000000E+01 0. -1.
         -4    1    3    3    0  502  0.14294541767E+02 -0.40490359815E+02 -0.34629888508E+02  0.55178304072E+02  0.12700000000E+01 0. -1.
          1    1    1    2  503    0 -0.77556083410E+01  0.54485740160E+02 -0.26513699300E+03  0.27078860833E+03  0.00000000000E+00 0. -1.
         -1    1    1    2    0  501  0.74518825595E+01  0.44921713667E+02 -0.10111223886E+03  0.11089263167E+03  0.00000000000E+00 0.  1.
<mgrwt>
<rscale>  0 0.26727224E+03</rscale>
<asrwt>0</asrwt>
<pdfrwt beam="2">  1        2 0.13800733E+00 0.26727224E+03</pdfrwt>
<pdfrwt beam="1">  1       -2 0.30628015E-02 0.26727224E+03</pdfrwt>
<totfact> 0.12475980E+04</totfact>
</mgrwt>
</event>
<event>
 7    1  0.6493044E-004  0.1210776E+03  0.7546771E-02  0.1298007E+00
          2   -1    0    0  503    0  0.00000000000E+00  0.00000000000E+00  0.20233189500E+04  0.20233189500E+04  0.00000000000E+00 0. -1.
         -2   -1    0    0    0  501 -0.00000000000E+00 -0.00000000000E+00 -0.12825954879E+03  0.12825954879E+03  0.00000000000E+00 0.  1.
         25    2    1    2    0    0  0.11233952968E+03  0.17384400927E+02  0.15021742512E+03  0.22608231139E+03  0.12500219753E+03 0.  0.
          4    1    3    3  502    0  0.84177512361E+02  0.27617321378E+02  0.17877643358E+02  0.90386907567E+02  0.12700000000E+01 0.  1.
         -4    1    3    3    0  502  0.28162017323E+02 -0.10232920451E+02  0.13233978177E+03  0.13569540382E+03  0.12700000000E+01 0.  1.
          1    1    1    2  503    0 -0.11065661317E+03  0.52547912177E+02  0.18192497826E+04  0.18233693922E+04  0.00000000000E+00 0. -1.
         -1    1    1    2    0  501 -0.16829165142E+01 -0.69932313104E+02 -0.74407806499E+02  0.10212679517E+03  0.00000000000E+00 0.  1.
<mgrwt>
<rscale>  0 0.92030918E+02</rscale>
<asrwt>0</asrwt>
<pdfrwt beam="1">  1        2 0.31127981E+00 0.12107763E+03</pdfrwt>
<pdfrwt beam="2">  1       -2 0.19732240E-01 0.69952560E+02</pdfrwt>
<totfact> 0.16218130E+02</totfact>
</mgrwt>
</event>
<event>
 7    1  0.6493044E-004  0.1966960E+03  0.7546771E-02  0.1254777E+00
          2   -1    0    0  503    0  0.00000000000E+00  0.00000000000E+00  0.11175596165E+04  0.11175596165E+04  0.00000000000E+00 0. -1.
          1   -1    0    0  502    0 -0.00000000000E+00 -0.00000000000E+00 -0.83512510035E+03  0.83512510035E+03  0.00000000000E+00 0. -1.
         25    2    1    2    0    0 -0.10779884111E+03 -0.13753903099E+03  0.40688185021E+03  0.46012465681E+03  0.12499713832E+03 0.  0.
          4    1    3    3  501    0 -0.59248375221E+02 -0.10568964813E+03  0.37452986866E+03  0.39364312151E+03  0.12700000000E+01 0.  1.
         -4    1    3    3    0  501 -0.48550465891E+02 -0.31849382865E+02  0.32351981546E+02  0.66481535309E+02  0.12700000000E+01 0.  1.
          2    1    1    2  502    0  0.16566565458E+03  0.10764163594E+03 -0.79483256525E+03  0.81901809362E+03  0.00000000000E+00 0. -1.
          1    1    1    2  503    0 -0.57866813466E+02  0.29897395052E+02  0.67038523120E+03  0.67354196643E+03  0.00000000000E+00 0. -1.
<mgrwt>
<rscale>  0 0.11318821E+03</rscale>
<asrwt>0</asrwt>
<pdfrwt beam="1">  1        2 0.17193225E+00 0.65133880E+02</pdfrwt>
<pdfrwt beam="2">  1        1 0.12848078E+00 0.19669596E+03</pdfrwt>
<totfact> 0.72929825E+01</totfact>
</mgrwt>
</event>
<event>
 7    1  0.6493044E-004  0.1566595E+03  0.7546771E-02  0.1389605E+00
          2   -1    0    0  503    0  0.00000000000E+00  0.00000000000E+00  0.11894626373E+03  0.11894626373E+03  0.00000000000E+00 0. -1.
          1   -1    0    0  502    0 -0.00000000000E+00 -0.00000000000E+00 -0.17820481438E+04  0.17820481438E+04  0.00000000000E+00 0. -1.
         25    2    1    2    0    0  0.14449725179E+03 -0.10245825034E+03 -0.31415002138E+03  0.38169703459E+03  0.12500096578E+03 0.  0.
          4    1    3    3  501    0  0.87283922714E+02 -0.87843584430E+02 -0.29445214959E+03  0.31943490697E+03  0.12700000000E+01 0.  1.
         -4    1    3    3    0  501  0.57213329075E+02 -0.14614665914E+02 -0.19697871788E+02  0.62262127626E+02  0.12700000000E+01 0.  1.
          2    1    1    2  502    0 -0.20709567856E+02  0.13167846169E+02 -0.13655465695E+04  0.13657670782E+04  0.00000000000E+00 0. -1.
          1    1    1    2  503    0 -0.12378768393E+03  0.89290404175E+02  0.16594710835E+02  0.15353029473E+03  0.00000000000E+00 0. -1.
<mgrwt>
<rscale>  0 0.62005130E+02</rscale>
<asrwt>0</asrwt>
<pdfrwt beam="1">  1        2 0.18299426E-01 0.15665945E+03</pdfrwt>
<pdfrwt beam="2">  1        1 0.27416123E+00 0.24541360E+02</pdfrwt>
<totfact> 0.25376689E+02</totfact>
</mgrwt>
</event>
<event>
 7    1  0.6493044E-004  0.6293689E+02  0.7546771E-02  0.1446525E+00
          1   -1    0    0  502    0 -0.00000000000E+00  0.00000000000E+00  0.12814881783E+03  0.12814881783E+03  0.00000000000E+00 0. -1.
          2   -1    0    0  503    0  0.00000000000E+00 -0.00000000000E+00 -0.57506082858E+03  0.57506082858E+03  0.00000000000E+00 0. -1.
         25    2    1    2    0    0  0.70149577031E+02  0.84081616286E+01  0.64859476030E+01  0.14374370207E+03  0.12501409532E+03 0.  0.
          4    1    3    3  501    0  0.41600774493E+02 -0.55960155006E+02  0.18842037887E+02  0.72241253300E+02  0.12700000000E+01 0.  1.
         -4    1    3    3    0  501  0.28548802538E+02  0.64368316634E+02 -0.12356090284E+02  0.71502448768E+02  0.12700000000E+01 0.  1.
          2    1    1    2  502    0 -0.22203609756E+02  0.32518075140E+02  0.43448679052E+02  0.58636278944E+02  0.00000000000E+00 0. -1.
          1    1    1    2  503    0 -0.47945967275E+02 -0.40926236769E+02 -0.49684663741E+03  0.50082966539E+03  0.00000000000E+00 0. -1.
<mgrwt>
<rscale>  0 0.49781201E+02</rscale>
<asrwt>0</asrwt>
<pdfrwt beam="2">  1        2 0.88470899E-01 0.62936893E+02</pdfrwt>
<pdfrwt beam="1">  1        1 0.19715202E-01 0.39375443E+02</pdfrwt>
<totfact> 0.17990529E+03</totfact>
</mgrwt>
</event>
<event>
 7    1  0.6493044E-004  0.1209261E+03  0.7546771E-02  0.1423813E+00
          2   -1    0    0  503    0  0.00000000000E+00  0.00000000000E+00  0.28318087045E+04  0.28318087045E+04  0.00000000000E+00 0. -1.
          1   -1    0    0  502    0 -0.00000000000E+00 -0.00000000000E+00 -0.85557334678E+02  0.85557334678E+02  0.00000000000E+00 0. -1.
         25    2    1    2    0    0  0.10093445026E+02  0.10037587356E+03  0.94150770881E+02  0.18618848562E+03  0.12499836357E+03 0.  0.
          4    1    3    3  501    0 -0.30237800213E+02  0.90126995162E+02  0.10650080355E+03  0.14276285888E+03  0.12700000000E+01 0. -1.
         -4    1    3    3    0  501  0.40331245239E+02  0.10248878398E+02 -0.12350032671E+02  0.43425626742E+02  0.12700000000E+01 0. -1.
          2    1    1    2  502    0 -0.11984908300E+02  0.21153662864E+02 -0.34292213293E+02  0.42036548052E+02  0.00000000000E+00 0. -1.
          1    1    1    2  503    0  0.18914632741E+01 -0.12152953642E+03  0.26863928122E+04  0.26891410055E+04  0.00000000000E+00 0. -1.
<mgrwt>
<rscale>  0 0.54222315E+02</rscale>
<asrwt>0</asrwt>
<pdfrwt beam="1">  1        2 0.43566280E+00 0.12092607E+03</pdfrwt>
<pdfrwt beam="2">  1        1 0.13162669E-01 0.24312867E+02</pdfrwt>
<totfact> 0.15425413E+02</totfact>
</mgrwt>
</event>
<event>
 7    1  0.6493044E-004  0.1607545E+03  0.7546771E-02  0.1370943E+00
          2   -1    0    0  503    0  0.00000000000E+00  0.00000000000E+00  0.77819316317E+03  0.77819316317E+03  0.00000000000E+00 0. -1.
         -2   -1    0    0    0  501 -0.00000000000E+00 -0.00000000000E+00 -0.78447648986E+02  0.78447648986E+02  0.00000000000E+00 0.  1.
         25    2    1    2    0    0  0.16452959891E+03  0.36464989392E+01  0.61707925643E+03  0.65076425603E+03  0.12499608929E+03 0.  0.
          4    1    3    3  502    0 -0.20081230771E+02  0.88179592647E+01  0.66261863815E+02  0.69808736782E+02  0.12700000000E+01 0.  1.
         -4    1    3    3    0  502  0.18461082968E+03 -0.51714603254E+01  0.55081739262E+03  0.58095551925E+03  0.12700000000E+01 0.  1.
          1    1    1    2  503    0 -0.14985164767E+03 -0.27309957210E+02  0.90207387443E+02  0.17702746346E+03  0.00000000000E+00 0. -1.
         -1    1    1    2    0  501 -0.14677951239E+02  0.23663458271E+02 -0.75411296965E+01  0.28849092655E+02  0.00000000000E+00 0.  1.
<mgrwt>
<rscale>  0 0.66905711E+02</rscale>
<asrwt>0</asrwt>
<pdfrwt beam="1">  1        2 0.11972202E+00 0.16075447E+03</pdfrwt>
<pdfrwt beam="2">  1       -2 0.12068870E-01 0.27846032E+02</pdfrwt>
<totfact> 0.15872351E+03</totfact>
</mgrwt>
</event>
<event>
 7    1  0.6493044E-004  0.7628960E+02  0.7546771E-02  0.1353201E+00
          1   -1    0    0  502    0 -0.00000000000E+00  0.00000000000E+00  0.15505631793E+03  0.15505631793E+03  0.00000000000E+00 0. -1.
          2   -1    0    0  503    0  0.00000000000E+00 -0.00000000000E+00 -0.10768421106E+04  0.10768421106E+04  0.00000000000E+00 0. -1.
         25    2    1    2    0    0 -0.14283462358E+02 -0.10846118338E+03 -0.35688036362E+02  0.16990055194E+03  0.12499886404E+03 0.  0.
          4    1    3    3  501    0 -0.58344895860E+02 -0.96449010836E+02 -0.48091025607E+02  0.12255977402E+03  0.12700000000E+01 0. -1.
         -4    1    3    3    0  501  0.44061433502E+02 -0.12012172542E+02  0.12402989245E+02  0.47340777916E+02  0.12700000000E+01 0. -1.
          2    1    1    2  502    0 -0.37301540894E+02  0.64035063549E+02  0.70912414717E+02  0.10256931743E+03  0.00000000000E+00 0. -1.
          1    1    1    2  503    0  0.51585003252E+02  0.44426119829E+02 -0.95701017103E+03  0.95942855917E+03  0.00000000000E+00 0. -1.
<mgrwt>
<rscale>  0 0.72067244E+02</rscale>
<asrwt>0</asrwt>
<pdfrwt beam="2">  1        2 0.16566802E+00 0.68078577E+02</pdfrwt>
<pdfrwt beam="1">  1        1 0.23854818E-01 0.76289603E+02</pdfrwt>
<totfact> 0.68213044E+02</totfact>
</mgrwt>
</event>
<event>
 7    1  0.6493044E-004  0.2637293E+03  0.7546771E-02  0.1269233E+00
         -2   -1    0    0    0  501 -0.00000000000E+00  0.00000000000E+00  0.93404794606E+02  0.93404794606E+02  0.00000000000E+00 0.  1.
          2   -1    0    0  503    0  0.00000000000E+00 -0.00000000000E+00 -0.37128048304E+04  0.37128048304E+04  0.00000000000E+00 0. -1.
         25    2    1    2    0    0 -0.17646788438E+03 -0.18325601731E+03 -0.54388573522E+03  0.61331973868E+03  0.12500290711E+03 0.  0.
          4    1    3    3  502    0 -0.86689051972E+02 -0.22114062860E+02 -0.25810740631E+03  0.27317589498E+03  0.12700000000E+01 0.  1.
         -4    1    3    3    0  502 -0.89778832412E+02 -0.16114195445E+03 -0.28577832891E+03  0.34014384370E+03  0.12700000000E+01 0.  1.
          1    1    1    2  503    0  0.15222145019E+03  0.21775169845E+03 -0.31201772493E+04  0.31314682242E+04  0.00000000000E+00 0. -1.
         -1    1    1    2    0  501  0.24246434190E+02 -0.34495681141E+02  0.44662948732E+02  0.61421662121E+02  0.00000000000E+00 0.  1.
<mgrwt>
<rscale>  0 0.10545143E+03</rscale>
<asrwt>0</asrwt>
<pdfrwt beam="2">  1        2 0.57120075E+00 0.26372934E+03</pdfrwt>
<pdfrwt beam="1">  1       -2 0.14369968E-01 0.42164459E+02</pdfrwt>
<totfact> 0.24505635E+01</totfact>
</mgrwt>
</event>
<event>
 7    1  0.6493044E-004  0.1099825E+03  0.7546771E-02  0.1265995E+00
          2   -1    0    0  503    0  0.00000000000E+00  0.00000000000E+00  0.23290179144E+04  0.23290179144E+04  0.00000000000E+00 0. -1.
         -2   -1    0    0    0  501 -0.00000000000E+00 -0.00000000000E+00 -0.42016903112E+02  0.42016903112E+02  0.00000000000E+00 0.  1.
         25    2    1    2    0    0 -0.10696340520E+03  0.85280837760E+02  0.78287621629E+03  0.80450854404E+03  0.12499934420E+03 0.  0.
          4    1    3    3  502    0  0.11417764627E+02  0.58950937162E+02  0.18674772444E+03  0.19616804996E+03  0.12700000000E+01 0. -1.
         -4    1    3    3    0  502 -0.11838116983E+03  0.26329900598E+02  0.59612849186E+03  0.60834049408E+03  0.12700000000E+01 0. -1.
          1    1    1    2  503    0  0.10095407578E+03  0.26344555140E+02  0.14267816362E+04  0.14305913457E+04  0.00000000000E+00 0. -1.
         -1    1    1    2    0  501  0.60093294227E+01 -0.11162539290E+03  0.77343158831E+02  0.13593492781E+03  0.00000000000E+00 0.  1.
<mgrwt>
<rscale>  0 0.10712145E+03</rscale>
<asrwt>0</asrwt>
<pdfrwt beam="1">  1        2 0.35831035E+00 0.10433485E+03</pdfrwt>
<pdfrwt beam="2">  1       -2 0.64641408E-02 0.10998248E+03</pdfrwt>
<totfact> 0.68733422E+02</totfact>
</mgrwt>
</event>
<event>
 7    1  0.6493044E-004  0.9443422E+02  0.7546771E-02  0.1410063E+00
          2   -1    0    0  503    0  0.00000000000E+00  0.00000000000E+00  0.87687832225E+03  0.87687832225E+03  0.00000000000E+00 0. -1.
          1   -1    0    0  502    0 -0.00000000000E+00 -0.00000000000E+00 -0.10010093264E+04  0.10010093264E+04  0.00000000000E+00 0. -1.
         25    2    1    2    0    0 -0.62793979762E+02  0.58687042091E+01 -0.30816241050E+03  0.33848337039E+03  0.12501757957E+03 0.  0.
          4    1    3    3  501    0 -0.66867717502E+02 -0.38690750851E+02 -0.26598446983E+03  0.27697945219E+03  0.12700000000E+01 0. -1.
         -4    1    3    3    0  501  0.40737377398E+01  0.44559455060E+02 -0.42177940668E+02  0.61503918195E+02  0.12700000000E+01 0. -1.
          2    1    1    2  502    0 -0.28324757207E+02  0.19910013323E+02 -0.67463964900E+03  0.67552746539E+03  0.00000000000E+00 0. -1.
          1    1    1    2  503    0  0.91118736970E+02 -0.25778717532E+02  0.85867105535E+03  0.86387681286E+03  0.00000000000E+00 0. -1.
<mgrwt>
<rscale>  0 0.57179766E+02</rscale>
<asrwt>0</asrwt>
<pdfrwt beam="1">  1        2 0.13490436E+00 0.94434221E+02</pdfrwt>
<pdfrwt beam="2">  1        1 0.15400144E+00 0.34622254E+02</pdfrwt>
<totfact> 0.82466252E+01</totfact>
</mgrwt>
</event>
<event>
 7    1  0.6493044E-004  0.9690268E+02  0.7546771E-02  0.1434034E+00
          1   -1    0    0  502    0 -0.00000000000E+00  0.00000000000E+00  0.15584543968E+04  0.15584543968E+04  0.00000000000E+00 0. -1.
          2   -1    0    0  503    0  0.00000000000E+00 -0.00000000000E+00 -0.10943987341E+04  0.10943987341E+04  0.00000000000E+00 0. -1.
         25    2    1    2    0    0  0.25740193946E+02  0.70220374379E+02 -0.58337102135E+02  0.15691372839E+03  0.12500096844E+03 0.  0.
          4    1    3    3  501    0  0.44385784809E+02  0.39347638923E+02  0.26304996901E+02  0.64899155186E+02  0.12700000000E+01 0. -1.
         -4    1    3    3    0  501 -0.18645590863E+02  0.30872735455E+02 -0.84642099035E+02  0.92014573206E+02  0.12700000000E+01 0. -1.
          2    1    1    2  502    0 -0.50767454210E+02 -0.82941993000E+02  0.15073993210E+04  0.15105328270E+04  0.00000000000E+00 0. -1.
          1    1    1    2  503    0  0.25027260264E+02  0.12721618621E+02 -0.98500655615E+03  0.98540657548E+03  0.00000000000E+00 0. -1.
<mgrwt>
<rscale>  0 0.52158784E+02</rscale>
<asrwt>0</asrwt>
<pdfrwt beam="2">  1        2 0.16836904E+00 0.28074959E+02</pdfrwt>
<pdfrwt beam="1">  1        1 0.23976222E+00 0.96902679E+02</pdfrwt>
<totfact> 0.26091123E+01</totfact>
</mgrwt>
</event>
<event>
 7    1  0.6493044E-004  0.1022472E+03  0.7546771E-02  0.1309254E+00
          1   -1    0    0  502    0 -0.00000000000E+00  0.00000000000E+00  0.10704777649E+04  0.10704777649E+04  0.00000000000E+00 0. -1.
          2   -1    0    0  503    0  0.00000000000E+00 -0.00000000000E+00 -0.65475666669E+03  0.65475666669E+03  0.00000000000E+00 0. -1.
         25    2    1    2    0    0 -0.35918281255E+02  0.15956913075E+03  0.12789035642E+02  0.20626375342E+03  0.12501498360E+03 0.  0.
          4    1    3    3  501    0  0.40047614123E+02  0.20650310517E+02 -0.10336385080E+02  0.46246086082E+02  0.12700000000E+01 0. -1.
         -4    1    3    3    0  501 -0.75965895378E+02  0.13891882024E+03  0.23125420722E+02  0.16001766734E+03  0.12700000000E+01 0. -1.
          2    1    1    2  502    0 -0.96128696718E+01 -0.10032227751E+03  0.95578870286E+03  0.96108741077E+03  0.00000000000E+00 0. -1.
          1    1    1    2  503    0  0.45531150927E+02 -0.59246853245E+02 -0.55285664030E+03  0.55788326740E+03  0.00000000000E+00 0. -1.
<mgrwt>
<rscale>  0 0.87407346E+02</rscale>
<asrwt>0</asrwt>
<pdfrwt beam="2">  1        2 0.10073179E+00 0.74721318E+02</pdfrwt>
<pdfrwt beam="1">  1        1 0.16468889E+00 0.10224718E+03</pdfrwt>
<totfact> 0.97828574E+01</totfact>
</mgrwt>
</event>
<event>
 7    1  0.6493044E-004  0.9668621E+02  0.7546771E-02  0.1355645E+00
          1   -1    0    0  502    0 -0.00000000000E+00  0.00000000000E+00  0.32271939538E+03  0.32271939538E+03  0.00000000000E+00 0. -1.
          2   -1    0    0  503    0  0.00000000000E+00 -0.00000000000E+00 -0.26928129980E+03  0.26928129980E+03  0.00000000000E+00 0. -1.
         25    2    1    2    0    0 -0.33931799448E+02 -0.54022053616E+02  0.96526727252E+02  0.17033466496E+03  0.12500695870E+03 0.  0.
          4    1    3    3  501    0  0.59843873362E+01 -0.17209956969E+01  0.10392123826E+03  0.10411537533E+03  0.12700000000E+01 0. -1.
         -4    1    3    3    0  501 -0.39916186784E+02 -0.52301057919E+02 -0.73945110081E+01  0.66219289636E+02  0.12700000000E+01 0. -1.
          2    1    1    2  502    0  0.80440133611E+02  0.78626841645E+02  0.16907568386E+03  0.20307481921E+03  0.00000000000E+00 0. -1.
          1    1    1    2  503    0 -0.46508334163E+02 -0.24604788030E+02 -0.21216431553E+03  0.21859121100E+03  0.00000000000E+00 0. -1.
<mgrwt>
<rscale>  0 0.71324757E+02</rscale>
<asrwt>0</asrwt>
<pdfrwt beam="2">  1        2 0.41427892E-01 0.52615784E+02</pdfrwt>
<pdfrwt beam="1">  1        1 0.49649138E-01 0.96686213E+02</pdfrwt>
<totfact> 0.13168392E+03</totfact>
</mgrwt>
</event>
<event>
 7    1  0.6493044E-004  0.1048501E+03  0.7546771E-02  0.1318144E+00
          1   -1    0    0  502    0 -0.00000000000E+00  0.00000000000E+00  0.13982844453E+04  0.13982844453E+04  0.00000000000E+00 0. -1.
          2   -1    0    0  503    0  0.00000000000E+00 -0.00000000000E+00 -0.22812913072E+04  0.22812913072E+04  0.00000000000E+00 0. -1.
         25    2    1    2    0    0 -0.90261962789E+02 -0.10058895460E+02 -0.20277241819E+03  0.25492821393E+03  0.12499334931E+03 0.  0.
          4    1    3    3  501    0 -0.18187641474E+02  0.54417193083E+02 -0.66771750751E+02  0.88046015263E+02  0.12700000000E+01 0.  1.
         -4    1    3    3    0  501 -0.72074321315E+02 -0.64476088543E+02 -0.13600066744E+03  0.16688219866E+03  0.12700000000E+01 0.  1.
          2    1    1    2  502    0  0.73510073296E+02  0.75189567217E+02  0.13696398189E+04  0.13736704245E+04  0.00000000000E+00 0. -1.
          1    1    1    2  503    0  0.16751889493E+02 -0.65130671757E+02 -0.20498742625E+04  0.20509771140E+04  0.00000000000E+00 0. -1.
<mgrwt>
<rscale>  0 0.83971563E+02</rscale>
<asrwt>0</asrwt>
<pdfrwt beam="2">  1        2 0.35096789E+00 0.67250503E+02</pdfrwt>
<pdfrwt beam="1">  1        1 0.21512069E+00 0.10485012E+03</pdfrwt>
<totfact> 0.78048410E+00</totfact>
</mgrwt>
</event>
<event>
 7    1  0.6493044E-004  0.4640546E+02  0.7546771E-02  0.1571080E+00
          2   -1    0    0  503    0  0.00000000000E+00  0.00000000000E+00  0.43539135223E+03  0.43539135223E+03  0.00000000000E+00 0. -1.
          1   -1    0    0  502    0 -0.00000000000E+00 -0.00000000000E+00 -0.11281341703E+03  0.11281341703E+03  0.00000000000E+00 0. -1.
         25    2    1    2    0    0 -0.58170062391E+02 -0.16687113625E+02  0.12728760305E+03  0.18838166179E+03  0.12499320256E+03 0.  0.
          4    1    3    3  501    0 -0.18544335811E+02  0.31433882938E+02 -0.97750673684E+01  0.37804050435E+02  0.12700000000E+01 0.  1.
         -4    1    3    3    0  501 -0.39625726580E+02 -0.48120996563E+02  0.13706267042E+03  0.15057761135E+03  0.12700000000E+01 0.  1.
          2    1    1    2  502    0  0.20772757099E+02 -0.96178683179E+01 -0.78742358426E+02  0.82002255085E+02  0.00000000000E+00 0. -1.
          1    1    1    2  503    0  0.37397305292E+02  0.26304981943E+02  0.27403269057E+03  0.27782085239E+03  0.00000000000E+00 0. -1.
<mgrwt>
<rscale>  0 0.32592645E+02</rscale>
<asrwt>0</asrwt>
<pdfrwt beam="1">  1        2 0.66983284E-01 0.46405459E+02</pdfrwt>
<pdfrwt beam="2">  1        1 0.17355911E-01 0.22891283E+02</pdfrwt>
<totfact> 0.27420172E+03</totfact>
</mgrwt>
</event>
<event>
 7    1  0.6493044E-004  0.1182628E+03  0.7546771E-02  0.1256985E+00
          1   -1    0    0  502    0 -0.00000000000E+00  0.00000000000E+00  0.62233552293E+03  0.62233552293E+03  0.00000000000E+00 0. -1.
          2   -1    0    0  503    0  0.00000000000E+00 -0.00000000000E+00 -0.25896121514E+03  0.25896121514E+03  0.00000000000E+00 0. -1.
         25    2    1    2    0    0  0.10784292291E+03  0.15296869855E+03  0.17425952412E+03  0.28463551619E+03  0.12498590549E+03 0.  0.
          4    1    3    3  501    0  0.51892808484E+02  0.89579975542E+02  0.17113940724E+03  0.20001936207E+03  0.12700000000E+01 0.  1.
         -4    1    3    3    0  501  0.55950114427E+02  0.63388723010E+02  0.31201168792E+01  0.84616154123E+02  0.12700000000E+01 0.  1.
          2    1    1    2  502    0 -0.29634969747E+01 -0.10594898496E+03  0.36859587957E+03  0.38353212664E+03  0.00000000000E+00 0. -1.
          1    1    1    2  503    0 -0.10487942594E+03 -0.47019713589E+02 -0.17948109590E+03  0.21312909524E+03  0.00000000000E+00 0. -1.
<mgrwt>
<rscale>  0 0.11195858E+03</rscale>
<asrwt>0</asrwt>
<pdfrwt beam="2">  1        2 0.39840187E-01 0.11826279E+03</pdfrwt>
<pdfrwt beam="1">  1        1 0.95743927E-01 0.10599042E+03</pdfrwt>
<totfact> 0.59874047E+02</totfact>
</mgrwt>
</event>
<event>
 7    1  0.6493044E-004  0.1247022E+03  0.7546771E-02  0.1335730E+00
          1   -1    0    0  502    0 -0.00000000000E+00  0.00000000000E+00  0.10402835082E+04  0.10402835082E+04  0.00000000000E+00 0. -1.
          2   -1    0    0  503    0  0.00000000000E+00 -0.00000000000E+00 -0.10393079362E+03  0.10393079362E+03  0.00000000000E+00 0. -1.
         25    2    1    2    0    0  0.60303643566E+02 -0.62767601330E+02  0.18469593335E+03  0.23940243026E+03  0.12499853846E+03 0.  0.
          4    1    3    3  501    0 -0.23185139781E+02 -0.26018170476E+02  0.16843171574E+01  0.34913403241E+02  0.12700000000E+01 0.  1.
         -4    1    3    3    0  501  0.83488783347E+02 -0.36749430854E+02  0.18301161619E+03  0.20448902702E+03  0.12700000000E+01 0.  1.
          2    1    1    2  502    0  0.33542900643E+02 -0.34897633772E+02  0.76697619978E+03  0.76850208982E+03  0.00000000000E+00 0. -1.
          1    1    1    2  503    0 -0.93846544209E+02  0.97665235102E+02 -0.15319418558E+02  0.13630978172E+03  0.00000000000E+00 0. -1.
<mgrwt>
<rscale>  0 0.77692435E+02</rscale>
<asrwt>0</asrwt>
<pdfrwt beam="2">  1        2 0.15989354E-01 0.12470217E+03</pdfrwt>
<pdfrwt beam="1">  1        1 0.16004361E+00 0.48404246E+02</pdfrwt>
<totfact> 0.79686680E+02</totfact>
</mgrwt>
</event>
<event>
 7    1  0.6493044E-004  0.7150372E+02  0.7546771E-02  0.1485025E+00
          1   -1    0    0  502    0 -0.00000000000E+00  0.00000000000E+00  0.15282680828E+03  0.15282680828E+03  0.00000000000E+00 0. -1.
          2   -1    0    0  503    0  0.00000000000E+00 -0.00000000000E+00 -0.21632394365E+03  0.21632394365E+03  0.00000000000E+00 0. -1.
         25    2    1    2    0    0 -0.54347793187E+02 -0.21729614876E+02 -0.26077079533E+02  0.14046576686E+03  0.12499903518E+03 0.  0.
          4    1    3    3  501    0  0.59108904759E+01 -0.61817076709E+02  0.36369449584E+01  0.62218404574E+02  0.12700000000E+01 0.  1.
         -4    1    3    3    0  501 -0.60258683662E+02  0.40087461833E+02 -0.29714024491E+02  0.78247362284E+02  0.12700000000E+01 0.  1.
          2    1    1    2  502    0 -0.19885344545E+02  0.17152431082E+02  0.83051781831E+02  0.87104714482E+02  0.00000000000E+00 0. -1.
          1    1    1    2  503    0  0.74233137732E+02  0.45771837944E+01 -0.12047183767E+03  0.14158027059E+03  0.00000000000E+00 0. -1.
<mgrwt>
<rscale>  0 0.43333005E+02</rscale>
<asrwt>0</asrwt>
<pdfrwt beam="2">  1        2 0.33280606E-01 0.71503724E+02</pdfrwt>
<pdfrwt beam="1">  1        1 0.23511817E-01 0.26260861E+02</pdfrwt>
<totfact> 0.39729068E+03</totfact>
</mgrwt>
</event>
<event>
 7    1  0.6493044E-004  0.1427472E+03  0.7546771E-02  0.1250971E+00
          2   -1    0    0  503    0  0.00000000000E+00  0.00000000000E+00  0.10549543878E+04  0.10549543878E+04  0.00000000000E+00 0. -1.
          1   -1    0    0  502    0 -0.00000000000E+00 -0.00000000000E+00 -0.73775185227E+03  0.73775185227E+03  0.00000000000E+00 0. -1.
         25    2    1    2    0    0 -0.19245738379E+03 -0.21337446494E+02  0.89028944418E+02  0.24707361380E+03  0.12499634592E+03 0.  0.
          4    1    3    3  501    0 -0.12856387169E+03 -0.14212892611E+02  0.11933122547E+03  0.17598928857E+03  0.12700000000E+01 0. -1.
         -4    1    3    3    0  501 -0.63893512103E+02 -0.71245538834E+01 -0.30302281049E+02  0.71084325231E+02  0.12700000000E+01 0. -1.
          2    1    1    2  502    0  0.60872440924E+02  0.70589752679E+02 -0.64981856636E+03  0.65646975287E+03  0.00000000000E+00 0. -1.
          1    1    1    2  503    0  0.13158494287E+03 -0.49252306185E+02  0.87799215748E+03  0.88916287341E+03  0.00000000000E+00 0. -1.
<mgrwt>
<rscale>  0 0.11535020E+03</rscale>
<asrwt>0</asrwt>
<pdfrwt beam="1">  1        2 0.16230068E+00 0.14274721E+03</pdfrwt>
<pdfrwt beam="2">  1        1 0.11350028E+00 0.93211412E+02</pdfrwt>
<totfact> 0.94386148E+01</totfact>
</mgrwt>
</event>
<event>
 7    1  0.6493044E-004  0.1288460E+03  0.7546771E-02  0.1388138E+00
          1   -1    0    0  502    0 -0.00000000000E+00  0.00000000000E+00  0.22394435455E+04  0.22394435455E+04  0.00000000000E+00 0. -1.
          2   -1    0    0  503    0  0.00000000000E+00 -0.00000000000E+00 -0.12622540101E+03  0.12622540101E+03  0.00000000000E+00 0. -1.
         25    2    1    2    0    0  0.12464359911E+03  0.88442604294E+02  0.34890031900E+03  0.40089144437E+03  0.12499758604E+03 0.  0.
          4    1    3    3  501    0  0.62232478519E+02  0.79195874342E+02  0.31184772351E+03  0.32771250122E+03  0.12700000000E+01 0.  1.
         -4    1    3    3    0  501  0.62411120591E+02  0.92467299526E+01  0.37052595487E+02  0.73178943150E+02  0.12700000000E+01 0.  1.
          2    1    1    2  502    0 -0.14502534747E+02 -0.26482449623E+02  0.18245393218E+04  0.18247891331E+04  0.00000000000E+00 0. -1.
          1    1    1    2  503    0 -0.11014106436E+03 -0.61960154671E+02 -0.60221496335E+02  0.13998836897E+03  0.00000000000E+00 0. -1.
<mgrwt>
<rscale>  0 0.62372291E+02</rscale>
<asrwt>0</asrwt>
<pdfrwt beam="2">  1        2 0.19419294E-01 0.12884597E+03</pdfrwt>
<pdfrwt beam="1">  1        1 0.34452975E+00 0.30193437E+02</pdfrwt>
<totfact> 0.12187444E+02</totfact>
</mgrwt>
</event>
<event>
 7    1  0.6493044E-004  0.1016127E+03  0.7546771E-02  0.1330671E+00
          2   -1    0    0  503    0  0.00000000000E+00  0.00000000000E+00  0.32392413902E+04  0.32392413902E+04  0.00000000000E+00 0. -1.
         -2   -1    0    0    0  501 -0.00000000000E+00 -0.00000000000E+00 -0.79734076313E+02  0.79734076313E+02  0.00000000000E+00 0.  1.
         25    2    1    2    0    0  0.70365503629E+02 -0.85722128855E+02  0.70767145177E+03  0.72713331430E+03  0.12499754253E+03 0.  0.
          4    1    3    3  502    0  0.30025631965E+02 -0.11951859166E+02  0.29520381590E+02  0.43788712491E+02  0.12700000000E+01 0. -1.
         -4    1    3    3    0  502  0.40339871664E+02 -0.73770269688E+02  0.67815107018E+03  0.68334460181E+03  0.12700000000E+01 0. -1.
          1    1    1    2  503    0 -0.97893732692E+02  0.30064400052E+02  0.25068155104E+04  0.25089063463E+04  0.00000000000E+00 0. -1.
         -1    1    1    2    0  501  0.27528229063E+02  0.55657728802E+02 -0.54979648339E+02  0.82935805912E+02  0.00000000000E+00 0.  1.
<mgrwt>
<rscale>  0 0.79432198E+02</rscale>
<asrwt>0</asrwt>
<pdfrwt beam="1">  1        2 0.49834473E+00 0.10161269E+03</pdfrwt>
<pdfrwt beam="2">  1       -2 0.12266783E-01 0.62093367E+02</pdfrwt>
<totfact> 0.77374274E+01</totfact>
</mgrwt>
</event>
<event>
 7    1  0.7091287E-004  0.5723866E+02  0.7546771E-02  0.1420857E+00
          2   -1    0    0  503    0  0.00000000000E+00  0.00000000000E+00  0.16429208275E+04  0.16429208275E+04  0.00000000000E+00 0. -1.
         -2   -1    0    0    0  501 -0.00000000000E+00 -0.00000000000E+00 -0.10074456079E+04  0.10074456079E+04  0.00000000000E+00 0.  1.
         25    2    1    2    0    0 -0.62342778295E+02 -0.66866044005E+02 -0.25563027875E+03  0.29887196028E+03  0.12497967588E+03 0.  0.
          4    1    3    3  502    0 -0.47261670791E+02 -0.92631649335E+02 -0.24663551036E+03  0.26766579134E+03  0.12700000000E+01 0.  1.
         -4    1    3    3    0  502 -0.15081107504E+02  0.25765605331E+02 -0.89947683897E+01  0.31206168941E+02  0.12700000000E+01 0.  1.
          1    1    1    2  503    0  0.82169136500E+01  0.51895358087E+02  0.16197936316E+04  0.16206455673E+04  0.00000000000E+00 0. -1.
         -1    1    1    2    0  501  0.54125864645E+02  0.14970685917E+02 -0.72868813324E+03  0.73084890790E+03  0.00000000000E+00 0.  1.
<mgrwt>
<rscale>  0 0.54839996E+02</rscale>
<asrwt>0</asrwt>
<pdfrwt beam="1">  1        2 0.25275705E+00 0.52541849E+02</pdfrwt>
<pdfrwt beam="2">  1       -2 0.15499163E+00 0.57238663E+02</pdfrwt>
<totfact> 0.42407814E+00</totfact>
</mgrwt>
</event>
<event>
 7    1  0.6493044E-004  0.7587373E+02  0.7546771E-02  0.1444472E+00
          1   -1    0    0  503    0  0.00000000000E+00  0.00000000000E+00  0.25346508667E+04  0.25346508667E+04  0.00000000000E+00 0. -1.
         -1   -1    0    0    0  501 -0.00000000000E+00 -0.00000000000E+00 -0.23230928243E+03  0.23230928243E+03  0.00000000000E+00 0.  1.
         25    2    1    2    0    0  0.32529505415E+02 -0.34059985388E+02 -0.27305899511E+02  0.13633709622E+03  0.12499576125E+03 0.  0.
          4    1    3    3  502    0  0.74491670738E+02  0.19100411562E+01  0.33678222052E+00  0.74527737043E+02  0.12700000000E+01 0. -1.
         -4    1    3    3    0  502 -0.41962165323E+02 -0.35970026544E+02 -0.27642681732E+02  0.61809359174E+02  0.12700000000E+01 0. -1.
          2    1    1    2  503    0 -0.35990029111E+02  0.67041732248E+02  0.24777170828E+04  0.24788851967E+04  0.00000000000E+00 0. -1.
         -2    1    1    2    0  501  0.34605236965E+01 -0.32981746860E+02 -0.14806959902E+03  0.15173785620E+03  0.00000000000E+00 0.  1.
<mgrwt>
<rscale>  0 0.50161586E+02</rscale>
<asrwt>0</asrwt>
<pdfrwt beam="1">  1        1 0.38994627E+00 0.75873726E+02</pdfrwt>
<pdfrwt beam="2">  1       -1 0.35739891E-01 0.33162793E+02</pdfrwt>
<totfact> 0.13459499E+01</totfact>
</mgrwt>
</event>
<event>
 7    1  0.6493044E-004  0.1367103E+03  0.7546771E-02  0.1296320E+00
          2   -1    0    0  503    0  0.00000000000E+00  0.00000000000E+00  0.10290306472E+04  0.10290306472E+04  0.00000000000E+00 0. -1.
          1   -1    0    0  502    0 -0.00000000000E+00 -0.00000000000E+00 -0.96844961066E+03  0.96844961066E+03  0.00000000000E+00 0. -1.
         25    2    1    2    0    0 -0.85387094411E+02 -0.72445987519E+02 -0.12912338707E+03  0.21174686784E+03  0.12499803979E+03 0.  0.
          4    1    3    3  501    0 -0.22977758207E+02 -0.72689677794E+02 -0.95250794527E+01  0.76838184965E+02  0.12700000000E+01 0.  1.
         -4    1    3    3    0  501 -0.62409336204E+02  0.24369027505E+00 -0.11959830762E+03  0.13490868288E+03  0.12700000000E+01 0.  1.
          2    1    1    2  502    0  0.58521695852E+02  0.12935158105E+03 -0.79068310890E+03  0.80332832584E+03  0.00000000000E+00 0. -1.
          3    1    1    2  503    0  0.26865398559E+02 -0.56905593530E+02  0.98038753252E+03  0.98240506418E+03  0.00000000000E+00 0. -1.
<mgrwt>
<rscale>  0 0.92752231E+02</rscale>
<asrwt>0</asrwt>
<pdfrwt beam="1">  1        2 0.15831241E+00 0.62928501E+02</pdfrwt>
<pdfrwt beam="2">  1        1 0.14899225E+00 0.13671033E+03</pdfrwt>
<totfact> 0.65851285E+01</totfact>
</mgrwt>
</event>
<event>
 7    1  0.6493044E-004  0.8205189E+02  0.7546771E-02  0.1456789E+00
          1   -1    0    0  502    0 -0.00000000000E+00  0.00000000000E+00  0.61870906481E+03  0.61870906481E+03  0.00000000000E+00 0. -1.
          2   -1    0    0  503    0  0.00000000000E+00 -0.00000000000E+00 -0.64402469819E+03  0.64402469819E+03  0.00000000000E+00 0. -1.
         25    2    1    2    0    0 -0.19613874965E+02  0.79640630433E+02 -0.53093082784E+01  0.14960980598E+03  0.12501028431E+03 0.  0.
          4    1    3    3  501    0 -0.15172439216E+02  0.54844984220E+02 -0.64047869805E+02  0.85684991290E+02  0.12700000000E+01 0.  1.
         -4    1    3    3    0  501 -0.44414357495E+01  0.24795646213E+02  0.58738561526E+02  0.63924814687E+02  0.12700000000E+01 0.  1.
          2    1    1    2  502    0 -0.83094075759E+01 -0.81815743852E+02  0.54311542193E+03  0.54930612934E+03  0.00000000000E+00 0. -1.
          1    1    1    2  503    0  0.27923282541E+02  0.21751134191E+01 -0.56312174703E+03  0.56381782768E+03  0.00000000000E+00 0. -1.
<mgrwt>
<rscale>  0 0.47938489E+02</rscale>
<asrwt>0</asrwt>
<pdfrwt beam="2">  1        2 0.99080724E-01 0.28007871E+02</pdfrwt>
<pdfrwt beam="1">  1        1 0.95186009E-01 0.82051891E+02</pdfrwt>
<totfact> 0.23626637E+02</totfact>
</mgrwt>
</event>
<event>
 7    1  0.6493044E-004  0.5241465E+02  0.7546771E-02  0.1471549E+00
          1   -1    0    0  503    0  0.00000000000E+00  0.00000000000E+00  0.15121022868E+04  0.15121022868E+04  0.00000000000E+00 0. -1.
         -1   -1    0    0    0  501 -0.00000000000E+00 -0.00000000000E+00 -0.44515402944E+02  0.44515402944E+02  0.00000000000E+00 0.  1.
         25    2    1    2    0    0  0.68754488320E+02  0.45264493941E+02  0.67041367753E+03  0.68691848969E+03  0.12500583338E+03 0.  0.
          4    1    3    3  502    0  0.10424829459E+03  0.38196562033E+02  0.44668015711E+03  0.46027324486E+03  0.12700000000E+01 0.  1.
         -4    1    3    3    0  502 -0.35493806266E+02  0.70679319081E+01  0.22373352042E+03  0.22664524483E+03  0.12700000000E+01 0.  1.
          2    1    1    2  503    0 -0.48776217710E+02 -0.11291953424E+02  0.82173616358E+03  0.82325995297E+03  0.00000000000E+00 0. -1.
         -2    1    1    2    0  501 -0.19978270609E+02 -0.33972540517E+02 -0.24562957221E+02  0.46439247121E+02  0.00000000000E+00 0.  1.
<mgrwt>
<rscale>  0 0.45450401E+02</rscale>
<asrwt>0</asrwt>
<pdfrwt beam="1">  1        1 0.23263108E+00 0.52414650E+02</pdfrwt>
<pdfrwt beam="2">  1       -1 0.68485247E-02 0.39411481E+02</pdfrwt>
<totfact> 0.76704312E+02</totfact>
</mgrwt>
</event>
<event>
 7    1  0.6493044E-004  0.9643386E+02  0.7546771E-02  0.1334134E+00
          2   -1    0    0  503    0  0.00000000000E+00  0.00000000000E+00  0.17866544501E+04  0.17866544501E+04  0.00000000000E+00 0. -1.
          1   -1    0    0  502    0 -0.00000000000E+00 -0.00000000000E+00 -0.13752291759E+03  0.13752291759E+03  0.00000000000E+00 0. -1.
         25    2    1    2    0    0 -0.53913350379E+02  0.15668127144E+02  0.74480604925E+03  0.75730777722E+03  0.12500751531E+03 0.  0.
          4    1    3    3  501    0 -0.94991628717E+01  0.25603633932E+02  0.66396251910E+03  0.66452510850E+03  0.12700000000E+01 0.  1.
         -4    1    3    3    0  501 -0.44414187508E+02 -0.99355067871E+01  0.80843530157E+02  0.92782668723E+02  0.12700000000E+01 0.  1.
          2    1    1    2  502    0 -0.54923861272E+02  0.31812838652E+02 -0.11996388711E+03  0.13572037964E+03  0.00000000000E+00 0. -1.
          1    1    1    2  503    0  0.10883721165E+03 -0.47480965797E+02  0.10242893703E+04  0.10311492108E+04  0.00000000000E+00 0. -1.
<mgrwt>
<rscale>  0 0.78235823E+02</rscale>
<asrwt>0</asrwt>
<pdfrwt beam="1">  1        2 0.27486990E+00 0.96433857E+02</pdfrwt>
<pdfrwt beam="2">  1        1 0.21157373E-01 0.63471941E+02</pdfrwt>
<totfact> 0.32780258E+02</totfact>
</mgrwt>
</event>
<event>
 7    1  0.6493044E-004  0.9939376E+02  0.7546771E-02  0.1309937E+00
         -2   -1    0    0    0  501 -0.00000000000E+00  0.00000000000E+00  0.91672081302E+02  0.91672081302E+02  0.00000000000E+00 0.  1.
          2   -1    0    0  503    0  0.00000000000E+00 -0.00000000000E+00 -0.11960311774E+04  0.11960311774E+04  0.00000000000E+00 0. -1.
         25    2    1    2    0    0  0.67240883784E+02  0.60947031787E+00 -0.36567611011E+03  0.39224547294E+03  0.12496313710E+03 0.  0.
          4    1    3    3  502    0  0.42337081444E+02 -0.52699126064E+02 -0.28169854926E+03  0.28969865707E+03  0.12700000000E+01 0. -1.
         -4    1    3    3    0  502  0.24903802340E+02  0.53308596382E+02 -0.83977560846E+02  0.10254681587E+03  0.12700000000E+01 0. -1.
          1    1    1    2  503    0  0.45940654749E+01 -0.76253496486E+02 -0.77965017748E+03  0.78338375041E+03  0.00000000000E+00 0. -1.
         -1    1    1    2    0  501 -0.71834949259E+02  0.75644026168E+02  0.40967191461E+02  0.11207403538E+03  0.00000000000E+00 0.  1.
<mgrwt>
<rscale>  0 0.87137045E+02</rscale>
<asrwt>0</asrwt>
<pdfrwt beam="2">  1        2 0.18400479E+00 0.76391761E+02</pdfrwt>
<pdfrwt beam="1">  1       -2 0.14103397E-01 0.99393763E+02</pdfrwt>
<totfact> 0.78926505E+02</totfact>
</mgrwt>
</event>
<event>
 7    1  0.6493044E-004  0.6067059E+02  0.7546771E-02  0.1438296E+00
          2   -1    0    0  503    0  0.00000000000E+00  0.00000000000E+00  0.16594832918E+04  0.16594832918E+04  0.00000000000E+00 0. -1.
         -2   -1    0    0    0  501 -0.00000000000E+00 -0.00000000000E+00 -0.10876284737E+02  0.10876284737E+02  0.00000000000E+00 0.  1.
         25    2    1    2    0    0  0.24002047705E+02 -0.80970048999E+01  0.10486538071E+04  0.10563817318E+04  0.12500358534E+03 0.  0.
          4    1    3    3  502    0  0.10935293196E+02  0.46051782162E+02  0.80699537263E+03  0.80838325788E+03  0.12700000000E+01 0.  1.
         -4    1    3    3    0  502  0.13066754509E+02 -0.54148787062E+02  0.24165843444E+03  0.24799847388E+03  0.12700000000E+01 0.  1.
          1    1    1    2  503    0 -0.42360908129E+01  0.65457512241E+02  0.38827074982E+03  0.39377253020E+03  0.00000000000E+00 0. -1.
         -1    1    1    2    0  501 -0.19765956892E+02 -0.57360507341E+02  0.21168245022E+03  0.22020531462E+03  0.00000000000E+00 0.  1.
<mgrwt>
<rscale>  0 0.51330277E+02</rscale>
<asrwt>0</asrwt>
<pdfrwt beam="1">  1        2 0.25530492E+00 0.43427915E+02</pdfrwt>
<pdfrwt beam="2">  1       -2 0.16732759E-02 0.60670593E+02</pdfrwt>
<totfact> 0.10917123E+04</totfact>
</mgrwt>
</event>
<event>
 7    1  0.6493044E-004  0.1112026E+03  0.7546771E-02  0.1286320E+00
          2   -1    0    0  503    0  0.00000000000E+00  0.00000000000E+00  0.42134797382E+03  0.42134797382E+03  0.00000000000E+00 0. -1.
          1   -1    0    0  502    0 -0.00000000000E+00 -0.00000000000E+00 -0.20350525273E+04  0.20350525273E+04  0.00000000000E+00 0. -1.
         25    2    1    2    0    0  0.17497627368E+03 -0.84679711107E+02 -0.10279141158E+02  0.23134066987E+03  0.12500197986E+03 0.  0.
          4    1    3    3  501    0  0.12557223435E+03 -0.11310440150E+03 -0.28705393181E+02  0.17142521453E+03  0.12700000000E+01 0. -1.
         -4    1    3    3    0  501  0.49404039326E+02  0.28424690388E+02  0.18426252023E+02  0.59915455343E+02  0.12700000000E+01 0. -1.
          2    1    1    2  502    0 -0.10201596025E+03  0.41184256856E+02 -0.19068240317E+04  0.19099951013E+04  0.00000000000E+00 0. -1.
          1    1    1    2  503    0 -0.72960313427E+02  0.43495454252E+02  0.30339861932E+03  0.31506472999E+03  0.00000000000E+00 0. -1.
<mgrwt>
<rscale>  0 0.97189100E+02</rscale>
<asrwt>0</asrwt>
<pdfrwt beam="1">  1        2 0.64822766E-01 0.84941520E+02</pdfrwt>
<pdfrwt beam="2">  1        1 0.31308500E+00 0.11120264E+03</pdfrwt>
<totfact> 0.37062606E+01</totfact>
</mgrwt>
</event>
<event>
 7    1  0.6493044E-004  0.5642996E+02  0.7546771E-02  0.1454486E+00
          1   -1    0    0  502    0 -0.00000000000E+00  0.00000000000E+00  0.21485704182E+03  0.21485704182E+03  0.00000000000E+00 0. -1.
          2   -1    0    0  503    0  0.00000000000E+00 -0.00000000000E+00 -0.28434901120E+04  0.28434901120E+04  0.00000000000E+00 0. -1.
         25    2    1    2    0    0  0.10877721664E+02  0.51534191012E+02 -0.72866567982E+03  0.74118319812E+03  0.12499905020E+03 0.  0.
          4    1    3    3  501    0  0.18072683795E+02  0.90300500565E+02 -0.58475748387E+03  0.59196598732E+03  0.12700000000E+01 0.  1.
         -4    1    3    3    0  501 -0.71949621319E+01 -0.38766309554E+02 -0.14390819596E+03  0.14921721080E+03  0.12700000000E+01 0.  1.
          2    1    1    2  502    0  0.36708597909E+02 -0.19177044325E+02  0.20614567870E+03  0.21026488303E+03  0.00000000000E+00 0. -1.
          1    1    1    2  503    0 -0.47586319572E+02 -0.32357146687E+02 -0.21061130691E+04  0.21068990727E+04  0.00000000000E+00 0. -1.
<mgrwt>
<rscale>  0 0.48343559E+02</rscale>
<asrwt>0</asrwt>
<pdfrwt beam="2">  1        2 0.43745998E+00 0.56429956E+02</pdfrwt>
<pdfrwt beam="1">  1        1 0.33054932E-01 0.41415941E+02</pdfrwt>
<totfact> 0.57960372E+01</totfact>
</mgrwt>
</event>
<event>
 7    1  0.6493044E-004  0.1012707E+03  0.7546771E-02  0.1322871E+00
          2   -1    0    0  503    0  0.00000000000E+00  0.00000000000E+00  0.26272521363E+03  0.26272521363E+03  0.00000000000E+00 0. -1.
          1   -1    0    0  502    0 -0.00000000000E+00 -0.00000000000E+00 -0.32991025526E+03  0.32991025526E+03  0.00000000000E+00 0. -1.
         25    2    1    2    0    0 -0.10759606704E+03  0.11287621285E+03  0.44047696977E+02  0.20465278314E+03  0.12499843587E+03 0.  0.
          4    1    3    3  501    0 -0.73773555838E+02  0.11963361366E+03 -0.95745526350E+01  0.14088301536E+03  0.12700000000E+01 0. -1.
         -4    1    3    3    0  501 -0.33822511203E+02 -0.67574008114E+01  0.53622249612E+02  0.63769767784E+02  0.12700000000E+01 0. -1.
          2    1    1    2  502    0  0.37037970623E+02 -0.55532082543E+02 -0.22938301693E+03  0.23889786922E+03  0.00000000000E+00 0. -1.
          1    1    1    2  503    0  0.70558096418E+02 -0.57344130306E+02  0.11815027833E+03  0.14908481653E+03  0.00000000000E+00 0. -1.
<mgrwt>
<rscale>  0 0.82218384E+02</rscale>
<asrwt>0</asrwt>
<pdfrwt beam="1">  1        2 0.40419264E-01 0.10127066E+03</pdfrwt>
<pdfrwt beam="2">  1        1 0.50755424E-01 0.66750457E+02</pdfrwt>
<totfact> 0.13278988E+03</totfact>
</mgrwt>
</event>
<event>
 7    1  0.6493044E-004  0.1870682E+03  0.7546771E-02  0.1244273E+00
          2   -1    0    0  503    0  0.00000000000E+00  0.00000000000E+00  0.56512221297E+03  0.56512221297E+03  0.00000000000E+00 0. -1.
         -2   -1    0    0    0  501 -0.00000000000E+00 -0.00000000000E+00 -0.23627463922E+03  0.23627463922E+03  0.00000000000E+00 0.  1.
         25    2    1    2    0    0 -0.15112399220E+03  0.10569354915E+03  0.53744593877E+02  0.22918060649E+03  0.12500272664E+03 0.  0.
          4    1    3    3  502    0 -0.55241235754E+02  0.73868144179E+02 -0.30993062567E+02  0.97315361991E+02  0.12700000000E+01 0. -1.
         -4    1    3    3    0  502 -0.95882756451E+02  0.31825404972E+02  0.84737656444E+02  0.13186524449E+03  0.12700000000E+01 0. -1.
          1    1    1    2  503    0 -0.37769992481E+02 -0.66029647564E+02  0.35519207437E+03  0.36324633017E+03  0.00000000000E+00 0. -1.
         -1    1    1    2    0  501  0.18889398469E+03 -0.39663901586E+02 -0.80089094497E+02  0.20896991553E+03  0.00000000000E+00 0.  1.
<mgrwt>
<rscale>  0 0.11928993E+03</rscale>
<asrwt>0</asrwt>
<pdfrwt beam="1">  1        2 0.86941879E-01 0.76068960E+02</pdfrwt>
<pdfrwt beam="2">  1       -2 0.36349945E-01 0.18706824E+03</pdfrwt>
<totfact> 0.39864812E+02</totfact>
</mgrwt>
</event>
<event>
 7    1  0.6493044E-004  0.1191374E+03  0.7546771E-02  0.1424067E+00
          2   -1    0    0  503    0  0.00000000000E+00  0.00000000000E+00  0.63841887507E+03  0.63841887507E+03  0.00000000000E+00 0. -1.
          1   -1    0    0  502    0 -0.00000000000E+00 -0.00000000000E+00 -0.42944340362E+03  0.42944340362E+03  0.00000000000E+00 0. -1.
         25    2    1    2    0    0 -0.10156516463E+03 -0.10442283439E+01  0.39040528208E+03  0.42232356075E+03  0.12499733041E+03 0.  0.
          4    1    3    3  501    0 -0.74066457291E+02 -0.47900437344E+02  0.13546884191E+03  0.16165924663E+03  0.12700000000E+01 0. -1.
         -4    1    3    3    0  501 -0.27498707338E+02  0.46856209000E+02  0.25493644017E+03  0.26066431412E+03  0.12700000000E+01 0. -1.
          2    1    1    2  502    0  0.11794539149E+03  0.19437839382E+02 -0.40415183876E+03  0.42145895855E+03  0.00000000000E+00 0. -1.
          1    1    1    2  503    0 -0.16380226858E+02 -0.18393611038E+02  0.22272202813E+03  0.22407975940E+03  0.00000000000E+00 0. -1.
<mgrwt>
<rscale>  0 0.54169687E+02</rscale>
<asrwt>0</asrwt>
<pdfrwt beam="1">  1        2 0.98218289E-01 0.24629997E+02</pdfrwt>
<pdfrwt beam="2">  1        1 0.66068215E-01 0.11913745E+03</pdfrwt>
<totfact> 0.38089260E+02</totfact>
</mgrwt>
</event>
<event>
 7    1  0.6493044E-004  0.9134748E+02  0.7546771E-02  0.1306301E+00
          2   -1    0    0  503    0  0.00000000000E+00  0.00000000000E+00  0.51907145652E+03  0.51907145652E+03  0.00000000000E+00 0. -1.
         -2   -1    0    0    0  501 -0.00000000000E+00 -0.00000000000E+00 -0.27240619014E+03  0.27240619014E+03  0.00000000000E+00 0.  1.
         25    2    1    2    0    0 -0.63528894221E+02  0.10152614124E+03  0.42938850087E+01  0.17316772973E+03  0.12500058966E+03 0.  0.
          4    1    3    3  502    0  0.75743379525E+01 -0.13542328001E+02  0.31547023662E+02  0.35179437816E+02  0.12700000000E+01 0.  1.
         -4    1    3    3    0  502 -0.71103232174E+02  0.11506846924E+03 -0.27253138653E+02  0.13798829192E+03  0.12700000000E+01 0.  1.
          1    1    1    2  503    0  0.89532641806E+02 -0.19638949040E+02  0.41525673547E+03  0.42525279378E+03  0.00000000000E+00 0. -1.
         -1    1    1    2    0  501 -0.26003747584E+02 -0.81887192202E+02 -0.17288535410E+03  0.19305712314E+03  0.00000000000E+00 0.  1.
<mgrwt>
<rscale>  0 0.88590567E+02</rscale>
<asrwt>0</asrwt>
<pdfrwt beam="1">  1        2 0.79857147E-01 0.91347477E+02</pdfrwt>
<pdfrwt beam="2">  1       -2 0.41908645E-01 0.85916862E+02</pdfrwt>
<totfact> 0.33135432E+02</totfact>
</mgrwt>
</event>
<event>
 7    1  0.6493044E-004  0.6279426E+02  0.7546771E-02  0.1484458E+00
          2   -1    0    0  503    0  0.00000000000E+00  0.00000000000E+00  0.24183628864E+04  0.24183628864E+04  0.00000000000E+00 0. -1.
         -2   -1    0    0    0  501 -0.00000000000E+00 -0.00000000000E+00 -0.40848558872E+02  0.40848558872E+02  0.00000000000E+00 0.  1.
         25    2    1    2    0    0 -0.77314346684E+02 -0.15946281102E+02  0.13033353310E+03  0.19708635626E+03  0.12499763954E+03 0.  0.
          4    1    3    3  502    0  0.20901014147E+02  0.15694306842E+02 -0.52592700323E+01  0.26691505782E+02  0.12700000000E+01 0.  1.
         -4    1    3    3    0  502 -0.98215360831E+02 -0.31640587944E+02  0.13559280314E+03  0.17039485048E+03  0.12700000000E+01 0.  1.
          3    1    1    2  503    0  0.23494114153E+02  0.18691467694E+02  0.21560041632E+04  0.21562131843E+04  0.00000000000E+00 0. -1.
         -1    1    1    2    0  501  0.53820232531E+02 -0.27451865925E+01  0.91176631202E+02  0.10591190470E+03  0.00000000000E+00 0.  1.
<mgrwt>
<rscale>  0 0.43419285E+02</rscale>
<asrwt>0</asrwt>
<pdfrwt beam="1">  1        2 0.37205572E+00 0.30022398E+02</pdfrwt>
<pdfrwt beam="2">  1       -2 0.62843956E-02 0.62794261E+02</pdfrwt>
<totfact> 0.73079994E+02</totfact>
</mgrwt>
</event>
<event>
 7    1  0.6493044E-004  0.8960556E+02  0.7546771E-02  0.1440753E+00
         -2   -1    0    0    0  501 -0.00000000000E+00  0.00000000000E+00  0.28824038493E+02  0.28824038493E+02  0.00000000000E+00 0.  1.
          2   -1    0    0  503    0  0.00000000000E+00 -0.00000000000E+00 -0.37319228333E+04  0.37319228333E+04  0.00000000000E+00 0. -1.
         25    2    1    2    0    0  0.92484464455E+02 -0.28932162290E+02 -0.11862557547E+04  0.11967562803E+04  0.12502972710E+03 0.  0.
          4    1    3    3  502    0  0.79682900281E+02  0.28943876849E+01 -0.31883509584E+03  0.32865661916E+03  0.12700000000E+01 0.  1.
         -4    1    3    3    0  502  0.12801564174E+02 -0.31826549975E+02 -0.86742065885E+03  0.86809966111E+03  0.12700000000E+01 0.  1.
          1    1    1    2  503    0 -0.89073810972E+02  0.26537578182E+00 -0.25304909041E+04  0.25320581411E+04  0.00000000000E+00 0. -1.
         -1    1    1    2    0  501 -0.34106534825E+01  0.28666786508E+02  0.13647863895E+02  0.31932450498E+02  0.00000000000E+00 0.  1.
<mgrwt>
<rscale>  0 0.50860788E+02</rscale>
<asrwt>0</asrwt>
<pdfrwt beam="2">  1        2 0.57414207E+00 0.89605555E+02</pdfrwt>
<pdfrwt beam="1">  1       -2 0.44344667E-02 0.28868966E+02</pdfrwt>
<totfact> 0.16165807E+02</totfact>
</mgrwt>
</event>
<event>
 7    1  0.6493044E-004  0.1965105E+03  0.7546771E-02  0.1197927E+00
          2   -1    0    0  503    0  0.00000000000E+00  0.00000000000E+00  0.12719878466E+04  0.12719878466E+04  0.00000000000E+00 0. -1.
          1   -1    0    0  502    0 -0.00000000000E+00 -0.00000000000E+00 -0.23287702343E+04  0.23287702343E+04  0.00000000000E+00 0. -1.
         25    2    1    2    0    0  0.37036454996E+02 -0.95195213981E+02 -0.42267189492E+03  0.45245002504E+03  0.12500266655E+03 0.  0.
          4    1    3    3  501    0 -0.37485402755E+02 -0.73191423950E+02 -0.24770718940E+03  0.26100307382E+03  0.12700000000E+01 0. -1.
         -4    1    3    3    0  501  0.74521857752E+02 -0.22003790032E+02 -0.17496470551E+03  0.19144695123E+03  0.12700000000E+01 0. -1.
          2    1    1    2  502    0  0.11222635661E+03 -0.35517665477E+02 -0.18815299219E+04  0.18852085048E+04  0.00000000000E+00 0. -1.
          1    1    1    2  503    0 -0.14926281160E+03  0.13071287946E+03  0.12474194291E+04  0.12630995510E+04  0.00000000000E+00 0. -1.
<mgrwt>
<rscale>  0 0.15209131E+03</rscale>
<asrwt>0</asrwt>
<pdfrwt beam="1">  1        2 0.19569044E+00 0.19651050E+03</pdfrwt>
<pdfrwt beam="2">  1        1 0.35827234E+00 0.11771261E+03</pdfrwt>
<totfact> 0.58796469E+00</totfact>
</mgrwt>
</event>
<event>
 7    1  0.6493044E-004  0.1062525E+03  0.7546771E-02  0.1284228E+00
          2   -1    0    0  503    0  0.00000000000E+00  0.00000000000E+00  0.47157242188E+03  0.47157242188E+03  0.00000000000E+00 0. -1.
          1   -1    0    0  502    0 -0.00000000000E+00 -0.00000000000E+00 -0.18853842865E+04  0.18853842865E+04  0.00000000000E+00 0. -1.
         25    2    1    2    0    0 -0.27334874702E+02 -0.81229187884E+02 -0.23008519004E+03  0.27549298762E+03  0.12494724972E+03 0.  0.
          4    1    3    3  501    0  0.77183200905E+01 -0.89478155434E+02 -0.77256855572E+02  0.11847424783E+03  0.12700000000E+01 0.  1.
         -4    1    3    3    0  501 -0.35053194792E+02  0.82489675500E+01 -0.15282833447E+03  0.15701873980E+03  0.12700000000E+01 0.  1.
          2    1    1    2  502    0 -0.75696016546E+02  0.49913669644E+02 -0.16248545449E+04  0.16273824238E+04  0.00000000000E+00 0. -1.
          1    1    1    2  503    0  0.10303089125E+03  0.31315518240E+02  0.44112787033E+03  0.45408129692E+03  0.00000000000E+00 0. -1.
<mgrwt>
<rscale>  0 0.98153144E+02</rscale>
<asrwt>0</asrwt>
<pdfrwt beam="1">  1        2 0.72549604E-01 0.10625251E+03</pdfrwt>
<pdfrwt beam="2">  1        1 0.29005912E+00 0.90671171E+02</pdfrwt>
<totfact> 0.41757778E+01</totfact>
</mgrwt>
</event>
<event>
 7    1  0.6493044E-004  0.4983821E+02  0.7546771E-02  0.1529463E+00
         -2   -1    0    0    0  501 -0.00000000000E+00  0.00000000000E+00  0.63393489561E+02  0.63393489561E+02  0.00000000000E+00 0.  1.
          2   -1    0    0  503    0  0.00000000000E+00 -0.00000000000E+00 -0.27596981362E+03  0.27596981362E+03  0.00000000000E+00 0. -1.
         25    2    1    2    0    0 -0.72736706557E+02  0.11984082232E+02 -0.10022990422E+03  0.17636640321E+03  0.12499931109E+03 0.  0.
          4    1    3    3  502    0 -0.14983044294E+02 -0.45550638380E+02 -0.78488843311E+02  0.91986214714E+02  0.12700000000E+01 0.  1.
         -4    1    3    3    0  502 -0.57753662264E+02  0.57534720612E+02 -0.21741060905E+02  0.84380188493E+02  0.12700000000E+01 0.  1.
          1    1    1    2  503    0  0.27727435215E+02 -0.25551796547E+01 -0.11363075140E+03  0.11699268041E+03  0.00000000000E+00 0. -1.
         -1    1    1    2    0  501  0.45009271343E+02 -0.94289025778E+01  0.12843315488E+01  0.46004219569E+02  0.00000000000E+00 0.  1.
<mgrwt>
<rscale>  0 0.37252397E+02</rscale>
<asrwt>0</asrwt>
<pdfrwt beam="2">  1        2 0.42456895E-01 0.27844921E+02</pdfrwt>
<pdfrwt beam="1">  1       -2 0.97528445E-02 0.49838213E+02</pdfrwt>
<totfact> 0.71527028E+03</totfact>
</mgrwt>
</event>
<event>
 7    1  0.6493044E-004  0.1616844E+03  0.7546771E-02  0.1380992E+00
          2   -1    0    0  503    0  0.00000000000E+00  0.00000000000E+00  0.37496797700E+03  0.37496797700E+03  0.00000000000E+00 0. -1.
          1   -1    0    0  502    0 -0.00000000000E+00 -0.00000000000E+00 -0.20867217010E+04  0.20867217010E+04  0.00000000000E+00 0. -1.
         25    2    1    2    0    0 -0.17455901536E+01  0.13740433315E+03 -0.50805241752E+03  0.54094788366E+03  0.12499742411E+03 0.  0.
          4    1    3    3  501    0  0.59449220821E+02  0.77120553492E+02 -0.31337101863E+03  0.32815361927E+03  0.12700000000E+01 0. -1.
         -4    1    3    3    0  501 -0.61194810975E+02  0.60283779662E+02 -0.19468139889E+03  0.21279426438E+03  0.12700000000E+01 0. -1.
          2    1    1    2  502    0  0.43954875586E+01  0.25113116425E+02 -0.15436886701E+04  0.15438991868E+04  0.00000000000E+00 0. -1.
          1    1    1    2  503    0 -0.26498974050E+01 -0.16251744958E+03  0.33998736364E+03  0.37684260747E+03  0.00000000000E+00 0. -1.
<mgrwt>
<rscale>  0 0.64203777E+02</rscale>
<asrwt>0</asrwt>
<pdfrwt beam="1">  1        2 0.57687382E-01 0.16168442E+03</pdfrwt>
<pdfrwt beam="2">  1        1 0.32103410E+00 0.25494880E+02</pdfrwt>
<totfact> 0.47619788E+01</totfact>
</mgrwt>
</event>
<event>
 7    1  0.6493044E-004  0.1235658E+03  0.7546771E-02  0.1329691E+00
          2   -1    0    0  503    0  0.00000000000E+00  0.00000000000E+00  0.30181663040E+04  0.30181663040E+04  0.00000000000E+00 0. -1.
          1   -1    0    0  502    0 -0.00000000000E+00 -0.00000000000E+00 -0.15448274509E+04  0.15448274509E+04  0.00000000000E+00 0. -1.
         25    2    1    2    0    0  0.15645215506E+03 -0.26306689573E+02 -0.20009633859E+03  0.28431455303E+03  0.12500760619E+03 0.  0.
          4    1    3    3  501    0  0.96010927349E+02  0.18050587202E+02 -0.36398867770E+02  0.10426126962E+03  0.12700000000E+01 0.  1.
         -4    1    3    3    0  501  0.60441227715E+02 -0.44357276775E+02 -0.16369747082E+03  0.18005328340E+03  0.12700000000E+01 0.  1.
          2    1    1    2  502    0 -0.33691609226E+02  0.38954892906E+02 -0.13008328071E+04  0.13018519886E+04  0.00000000000E+00 0. -1.
          1    1    1    2  503    0 -0.12276054584E+03 -0.12648203333E+02  0.29742679988E+04  0.29768272132E+04  0.00000000000E+00 0. -1.
<mgrwt>
<rscale>  0 0.79775097E+02</rscale>
<asrwt>0</asrwt>
<pdfrwt beam="1">  1        2 0.46433328E+00 0.12356575E+03</pdfrwt>
<pdfrwt beam="2">  1        1 0.23766576E+00 0.51503478E+02</pdfrwt>
<totfact> 0.24822133E+00</totfact>
</mgrwt>
</event>
<event>
 7    1  0.6493044E-004  0.9004542E+02  0.7546771E-02  0.1327491E+00
          2   -1    0    0  503    0  0.00000000000E+00  0.00000000000E+00  0.30046740919E+04  0.30046740919E+04  0.00000000000E+00 0. -1.
          1   -1    0    0  502    0 -0.00000000000E+00 -0.00000000000E+00 -0.87202553928E+02  0.87202553928E+02  0.00000000000E+00 0. -1.
         25    2    1    2    0    0  0.32753154480E+02  0.15562412872E+03  0.47467664984E+03  0.51597873865E+03  0.12499799308E+03 0.  0.
          4    1    3    3  501    0 -0.33166415903E+01  0.16301811890E+02 -0.31229261048E+01  0.16973943260E+02  0.12700000000E+01 0.  1.
         -4    1    3    3    0  501  0.36069796070E+02  0.13932231683E+03  0.47779957594E+03  0.49900479539E+03  0.12700000000E+01 0.  1.
          2    1    1    2  502    0 -0.85191063624E+01 -0.71554958932E+02 -0.46048617669E+02  0.85517030527E+02  0.00000000000E+00 0. -1.
          1    1    1    2  503    0 -0.24234048118E+02 -0.84069169784E+02  0.24888435059E+04  0.24903808767E+04  0.00000000000E+00 0. -1.
<mgrwt>
<rscale>  0 0.80552471E+02</rscale>
<asrwt>0</asrwt>
<pdfrwt beam="1">  1        2 0.46225747E+00 0.90045424E+02</pdfrwt>
<pdfrwt beam="2">  1        1 0.13415780E-01 0.72060303E+02</pdfrwt>
<totfact> 0.13542179E+02</totfact>
</mgrwt>
</event>
<event>
 7    1  0.6493044E-004  0.4154563E+02  0.7546771E-02  0.1512357E+00
          1   -1    0    0  503    0  0.00000000000E+00  0.00000000000E+00  0.22548423002E+03  0.22548423002E+03  0.00000000000E+00 0. -1.
         -1   -1    0    0    0  501 -0.00000000000E+00 -0.00000000000E+00 -0.83740915541E+03  0.83740915541E+03  0.00000000000E+00 0.  1.
         25    2    1    2    0    0  0.31460278485E+02 -0.68503618225E+01 -0.97502811076E+02  0.16177144292E+03  0.12500609984E+03 0.  0.
          4    1    3    3  502    0  0.22332391083E+01 -0.58173060965E+02 -0.82220518065E+02  0.10075176857E+03  0.12700000000E+01 0.  1.
         -4    1    3    3    0  502  0.29227039377E+02  0.51322699143E+02 -0.15282293011E+02  0.61019674350E+02  0.12700000000E+01 0.  1.
          2    1    1    2  503    0 -0.25550391001E+01  0.37357992634E+02  0.19090558703E+03  0.19454328823E+03  0.00000000000E+00 0. -1.
         -2    1    1    2    0  501 -0.28905239385E+02 -0.30507630811E+02 -0.70532770134E+03  0.70657865428E+03  0.00000000000E+00 0.  1.
<mgrwt>
<rscale>  0 0.39442200E+02</rscale>
<asrwt>0</asrwt>
<pdfrwt beam="1">  1        1 0.34689882E-01 0.37445265E+02</pdfrwt>
<pdfrwt beam="2">  1       -1 0.12883218E+00 0.41545630E+02</pdfrwt>
<totfact> 0.76676395E+01</totfact>
</mgrwt>
</event>
<event>
 7    1  0.6493044E-004  0.1286591E+03  0.7546771E-02  0.1403072E+00
          2   -1    0    0  503    0  0.00000000000E+00  0.00000000000E+00  0.91414064509E+03  0.91414064509E+03  0.00000000000E+00 0. -1.
          1   -1    0    0  502    0 -0.00000000000E+00 -0.00000000000E+00 -0.47068719426E+03  0.47068719426E+03  0.00000000000E+00 0. -1.
         25    2    1    2    0    0  0.42766161670E+01  0.15038102084E+03  0.84065984912E+02  0.21289638947E+03  0.12500016783E+03 0.  0.
          4    1    3    3  501    0  0.30847698661E+02  0.28385457707E+02 -0.23513798462E+02  0.48081455261E+02  0.12700000000E+01 0. -1.
         -4    1    3    3    0  501 -0.26571082494E+02  0.12199556313E+03  0.10757978337E+03  0.16481493421E+03  0.12700000000E+01 0. -1.
          2    1    1    2  502    0  0.11194514375E+02 -0.24398992106E+02 -0.40055920212E+03  0.40145772177E+03  0.00000000000E+00 0. -1.
          1    1    1    2  503    0 -0.15471130542E+02 -0.12598202873E+03  0.75994666803E+03  0.77047372810E+03  0.00000000000E+00 0. -1.
<mgrwt>
<rscale>  0 0.58768968E+02</rscale>
<asrwt>0</asrwt>
<pdfrwt beam="1">  1        2 0.14063702E+00 0.12865912E+03</pdfrwt>
<pdfrwt beam="2">  1        1 0.72413415E-01 0.26844515E+02</pdfrwt>
<totfact> 0.21562048E+02</totfact>
</mgrwt>
</event>
<event>
 7    1  0.6493044E-004  0.1073965E+03  0.7546771E-02  0.1354242E+00
          1   -1    0    0  502    0 -0.00000000000E+00  0.00000000000E+00  0.20070254790E+03  0.20070254790E+03  0.00000000000E+00 0. -1.
          2   -1    0    0  503    0  0.00000000000E+00 -0.00000000000E+00 -0.74171344879E+03  0.74171344879E+03  0.00000000000E+00 0. -1.
         25    2    1    2    0    0 -0.80889113712E+02 -0.40095275112E+02 -0.30558782934E+02  0.15719038191E+03  0.12499718855E+03 0.  0.
          4    1    3    3  501    0 -0.58144393171E+02 -0.28131178193E+02 -0.79172967745E+02  0.10218662029E+03  0.12700000000E+01 0. -1.
         -4    1    3    3    0  501 -0.22744720541E+02 -0.11964096919E+02  0.48614184812E+02  0.55003761621E+02  0.12700000000E+01 0. -1.
          2    1    1    2  502    0  0.72309963458E+02  0.87256281564E+02  0.11294001977E+03  0.15999324221E+03  0.00000000000E+00 0. -1.
          1    1    1    2  503    0  0.85791502545E+01 -0.47161006453E+02 -0.62339213772E+03  0.62523237258E+03  0.00000000000E+00 0. -1.
<mgrwt>
<rscale>  0 0.71749907E+02</rscale>
<asrwt>0</asrwt>
<pdfrwt beam="2">  1        2 0.11410976E+00 0.47934980E+02</pdfrwt>
<pdfrwt beam="1">  1        1 0.30877315E-01 0.10739650E+03</pdfrwt>
<totfact> 0.81117768E+02</totfact>
</mgrwt>
</event>
<event>
 7    1  0.6493044E-004  0.5639173E+02  0.7546771E-02  0.1473137E+00
          1   -1    0    0  502    0 -0.00000000000E+00  0.00000000000E+00  0.68962159978E+03  0.68962159978E+03  0.00000000000E+00 0. -1.
          2   -1    0    0  503    0  0.00000000000E+00 -0.00000000000E+00 -0.12572228320E+03  0.12572228320E+03  0.00000000000E+00 0. -1.
         25    2    1    2    0    0 -0.27417935375E+02  0.52381633383E+02  0.26763024693E+02  0.14084474638E+03  0.12500161758E+03 0.  0.
          4    1    3    3  501    0 -0.20875956534E+02 -0.11316830374E+02 -0.41130250101E+02  0.47509857759E+02  0.12700000000E+01 0.  1.
         -4    1    3    3    0  501 -0.65419788408E+01  0.63698463758E+02  0.67893274794E+02  0.93334888624E+02  0.12700000000E+01 0.  1.
          2    1    1    2  502    0  0.35947401447E+02  0.44277189401E+01  0.59315575664E+03  0.59426052536E+03  0.00000000000E+00 0. -1.
          1    1    1    2  503    0 -0.85294660722E+01 -0.56809352323E+02 -0.56019464748E+02  0.80238611239E+02  0.00000000000E+00 0. -1.
<mgrwt>
<rscale>  0 0.45193533E+02</rscale>
<asrwt>0</asrwt>
<pdfrwt beam="2">  1        2 0.19341890E-01 0.56391728E+02</pdfrwt>
<pdfrwt beam="1">  1        1 0.10609563E+00 0.36219061E+02</pdfrwt>
<totfact> 0.11577869E+03</totfact>
</mgrwt>
</event>
<event>
 7    1  0.6493044E-004  0.5800401E+02  0.7546771E-02  0.1449578E+00
          2   -1    0    0  503    0  0.00000000000E+00  0.00000000000E+00  0.16428696462E+04  0.16428696462E+04  0.00000000000E+00 0. -1.
          1   -1    0    0  502    0 -0.00000000000E+00 -0.00000000000E+00 -0.36937849027E+03  0.36937849027E+03  0.00000000000E+00 0. -1.
         25    2    1    2    0    0 -0.67714895510E+02  0.44866529281E+02  0.17614515667E+03  0.23075990520E+03  0.12499882041E+03 0.  0.
          4    1    3    3  501    0 -0.67119446371E+01  0.59788658483E+02  0.21599389037E+02  0.63936534085E+02  0.12700000000E+01 0.  1.
         -4    1    3    3    0  501 -0.61002950873E+02 -0.14922129202E+02  0.15454576763E+03  0.16682337111E+03  0.12700000000E+01 0.  1.
          2    1    1    2  502    0  0.10154437756E+02 -0.40518413498E+02 -0.34021449974E+03  0.34276925223E+03  0.00000000000E+00 0. -1.
          3    1    1    2  503    0  0.57560457754E+02 -0.43481157828E+01  0.14375604990E+04  0.14387189791E+04  0.00000000000E+00 0. -1.
<mgrwt>
<rscale>  0 0.49223084E+02</rscale>
<asrwt>0</asrwt>
<pdfrwt beam="1">  1        2 0.25274917E+00 0.58004013E+02</pdfrwt>
<pdfrwt beam="2">  1        1 0.56827461E-01 0.41771455E+02</pdfrwt>
<totfact> 0.12267045E+02</totfact>
</mgrwt>
</event>
<event>
 7    1  0.6493044E-004  0.1729467E+03  0.7546771E-02  0.1248234E+00
          2   -1    0    0  503    0  0.00000000000E+00  0.00000000000E+00  0.34152308115E+03  0.34152308115E+03  0.00000000000E+00 0. -1.
          1   -1    0    0  502    0 -0.00000000000E+00 -0.00000000000E+00 -0.43255053120E+03  0.43255053120E+03  0.00000000000E+00 0. -1.
         25    2    1    2    0    0  0.97617218395E+02 -0.30007931000E+02 -0.31830271828E+03  0.35689081607E+03  0.12499934753E+03 0.  0.
          4    1    3    3  501    0  0.12404964560E+03 -0.42737431078E+01 -0.25513081126E+03  0.28372508385E+03  0.12700000000E+01 0. -1.
         -4    1    3    3    0  501 -0.26432427207E+02 -0.25734187892E+02 -0.63171907021E+02  0.73165732219E+02  0.12700000000E+01 0. -1.
          2    1    1    2  502    0  0.63492498032E+02 -0.47123025515E+02 -0.45426660671E+02  0.91189134987E+02  0.00000000000E+00 0. -1.
          1    1    1    2  503    0 -0.16110971643E+03  0.77130956515E+02  0.27270192890E+03  0.32599366129E+03  0.00000000000E+00 0. -1.
<mgrwt>
<rscale>  0 0.11693885E+03</rscale>
<asrwt>0</asrwt>
<pdfrwt beam="1">  1        2 0.52542013E-01 0.17294675E+03</pdfrwt>
<pdfrwt beam="2">  1        1 0.66546236E-01 0.79068811E+02</pdfrwt>
<totfact> 0.72215989E+02</totfact>
</mgrwt>
</event>
<event>
 7    1  0.6493044E-004  0.8068711E+02  0.7546771E-02  0.1413022E+00
          2   -1    0    0  503    0  0.00000000000E+00  0.00000000000E+00  0.17096289897E+04  0.17096289897E+04  0.00000000000E+00 0. -1.
         -2   -1    0    0    0  501 -0.00000000000E+00 -0.00000000000E+00 -0.96785948093E+02  0.96785948093E+02  0.00000000000E+00 0.  1.
         25    2    1    2    0    0  0.11013942492E+03  0.12186751285E+02  0.65346759278E+03  0.67448095848E+03  0.12500183485E+03 0.  0.
          4    1    3    3  502    0  0.12379821070E+03  0.44638924400E+02  0.52874771271E+03  0.54488015851E+03  0.12700000000E+01 0. -1.
         -4    1    3    3    0  502 -0.13658785781E+02 -0.32452173115E+02  0.12471988007E+03  0.12960079997E+03  0.12700000000E+01 0. -1.
          1    1    1    2  503    0 -0.35734445412E+02  0.17060827075E+02  0.10266708758E+04  0.10274342362E+04  0.00000000000E+00 0. -1.
         -1    1    1    2    0  501 -0.74404979505E+02 -0.29247578360E+02 -0.67295427009E+02  0.10449974312E+03  0.00000000000E+00 0.  1.
<mgrwt>
<rscale>  0 0.56524945E+02</rscale>
<asrwt>0</asrwt>
<pdfrwt beam="1">  1        2 0.26301982E+00 0.39598263E+02</pdfrwt>
<pdfrwt beam="2">  1       -2 0.14890147E-01 0.80687110E+02</pdfrwt>
<totfact> 0.41638584E+02</totfact>
</mgrwt>
</event>
<event>
 7    1  0.6493044E-004  0.5399366E+02  0.7546771E-02  0.1477574E+00
          2   -1    0    0  503    0  0.00000000000E+00  0.00000000000E+00  0.13957839613E+04  0.13957839613E+04  0.00000000000E+00 0. -1.
         -2   -1    0    0    0  501 -0.00000000000E+00 -0.00000000000E+00 -0.23453281125E+03  0.23453281125E+03  0.00000000000E+00 0.  1.
         25    2    1    2    0    0 -0.63581505368E+02  0.43494142401E+02  0.66415245639E+03  0.68018870589E+03  0.12499536811E+03 0.  0.
          4    1    3    3  502    0 -0.38829246381E+02  0.53899940449E+02  0.13609584295E+03  0.15144835860E+03  0.12700000000E+01 0. -1.
         -4    1    3    3    0  502 -0.24752258987E+02 -0.10405798047E+02  0.52805661344E+03  0.52874034729E+03  0.12700000000E+01 0. -1.
          1    1    1    2  503    0  0.36518150107E+02  0.31410843750E+01  0.71993184859E+03  0.72086427870E+03  0.00000000000E+00 0. -1.
         -1    1    1    2    0  501  0.27063355260E+02 -0.46635226776E+02 -0.22283315488E+03  0.22926378800E+03  0.00000000000E+00 0.  1.
<mgrwt>
<rscale>  0 0.44486280E+02</rscale>
<asrwt>0</asrwt>
<pdfrwt beam="1">  1        2 0.21473599E+00 0.36652990E+02</pdfrwt>
<pdfrwt beam="2">  1       -2 0.36081972E-01 0.53993660E+02</pdfrwt>
<totfact> 0.12991505E+02</totfact>
</mgrwt>
</event>
<event>
 7    1  0.6493044E-004  0.6559538E+02  0.7546771E-02  0.1414371E+00
          2   -1    0    0  503    0  0.00000000000E+00  0.00000000000E+00  0.30281978620E+03  0.30281978620E+03  0.00000000000E+00 0. -1.
         -2   -1    0    0    0  501 -0.00000000000E+00 -0.00000000000E+00 -0.61803998294E+02  0.61803998294E+02  0.00000000000E+00 0.  1.
         25    2    1    2    0    0 -0.94585251204E+01 -0.71974162448E+02  0.11156696727E+03  0.18260002628E+03  0.12500335057E+03 0.  0.
          4    1    3    3  502    0  0.22219309443E+02 -0.53208478266E+02 -0.73178395109E+01  0.58137797916E+02  0.12700000000E+01 0. -1.
         -4    1    3    3    0  502 -0.31677834563E+02 -0.18765684182E+02  0.11888480678E+03  0.12446222836E+03  0.12700000000E+01 0. -1.
          3    1    1    2  503    0  0.49687471066E+02  0.45422323652E+02  0.11216612711E+03  0.13081770652E+03  0.00000000000E+00 0. -1.
         -3    1    1    2    0  501 -0.40228945946E+02  0.26551838796E+02  0.17282693524E+02  0.51206051701E+02  0.00000000000E+00 0.  1.
<mgrwt>
<rscale>  0 0.56229746E+02</rscale>
<asrwt>0</asrwt>
<pdfrwt beam="1">  1        2 0.46587658E-01 0.65595376E+02</pdfrwt>
<pdfrwt beam="2">  1       -2 0.95083076E-02 0.48201330E+02</pdfrwt>
<totfact> 0.68342119E+03</totfact>
</mgrwt>
</event>
<event>
 7    1  0.6493044E-004  0.9610451E+02  0.7546771E-02  0.1306627E+00
          1   -1    0    0  502    0 -0.00000000000E+00  0.00000000000E+00  0.65363693151E+03  0.65363693151E+03  0.00000000000E+00 0. -1.
          2   -1    0    0  503    0  0.00000000000E+00 -0.00000000000E+00 -0.41318482456E+04  0.41318482456E+04  0.00000000000E+00 0. -1.
         25    2    1    2    0    0 -0.60385244627E+02  0.13363242803E+03 -0.21674346517E+04  0.21759834436E+04  0.12500789441E+03 0.  0.
          4    1    3    3  501    0 -0.16473180303E+02  0.86013871982E+02 -0.52379199082E+03  0.53106441642E+03  0.12700000000E+01 0. -1.
         -4    1    3    3    0  501 -0.43912064325E+02  0.47618556043E+02 -0.16436426609E+04  0.16449190272E+04  0.12700000000E+01 0. -1.
          2    1    1    2  502    0  0.66946630764E+02 -0.46342977175E+02  0.64582779751E+03  0.65094014082E+03  0.00000000000E+00 0. -1.
          1    1    1    2  503    0 -0.65613861361E+01 -0.87289450850E+02 -0.19566044599E+04  0.19585615927E+04  0.00000000000E+00 0. -1.
<mgrwt>
<rscale>  0 0.88459085E+02</rscale>
<asrwt>0</asrwt>
<pdfrwt beam="2">  1        2 0.63566895E+00 0.96104506E+02</pdfrwt>
<pdfrwt beam="1">  1        1 0.10055953E+00 0.81421882E+02</pdfrwt>
<totfact> 0.19703713E+00</totfact>
</mgrwt>
</event>
<event>
 7    1  0.6493044E-004  0.1053672E+03  0.7546771E-02  0.1389110E+00
          2   -1    0    0  503    0  0.00000000000E+00  0.00000000000E+00  0.14954062033E+03  0.14954062033E+03  0.00000000000E+00 0. -1.
          1   -1    0    0  502    0 -0.00000000000E+00 -0.00000000000E+00 -0.90734039838E+03  0.90734039838E+03  0.00000000000E+00 0. -1.
         25    2    1    2    0    0  0.34779607510E+02  0.10159781279E+03  0.92558073584E+02  0.18901871515E+03  0.12501736292E+03 0.  0.
          4    1    3    3  501    0  0.72949483233E+02  0.76518744910E+02  0.96518773576E+02  0.14315806641E+03  0.12700000000E+01 0. -1.
         -4    1    3    3    0  501 -0.38169875724E+02  0.25079067881E+02 -0.39606999926E+01  0.45860648741E+02  0.12700000000E+01 0. -1.
          2    1    1    2  502    0 -0.29368429138E+02 -0.65366261881E+02 -0.81074911695E+03  0.81390993572E+03  0.00000000000E+00 0. -1.
          1    1    1    2  503    0 -0.54111783717E+01 -0.36231550910E+02 -0.39608734680E+02  0.53952367841E+02  0.00000000000E+00 0. -1.
<mgrwt>
<rscale>  0 0.62128567E+02</rscale>
<asrwt>0</asrwt>
<pdfrwt beam="1">  1        2 0.23006250E-01 0.10536720E+03</pdfrwt>
<pdfrwt beam="2">  1        1 0.13959083E+00 0.36633402E+02</pdfrwt>
<totfact> 0.66320580E+02</totfact>
</mgrwt>
</event>
<event>
 7    1  0.6493044E-004  0.1111997E+03  0.7546771E-02  0.1340693E+00
          1   -1    0    0  502    0 -0.00000000000E+00  0.00000000000E+00  0.18037761916E+04  0.18037761916E+04  0.00000000000E+00 0. -1.
          2   -1    0    0  503    0  0.00000000000E+00 -0.00000000000E+00 -0.29854435222E+02  0.29854435222E+02  0.00000000000E+00 0. -1.
         25    2    1    2    0    0 -0.72153945615E+02  0.32677082446E+02  0.41119092409E+03  0.43699288435E+03  0.12494327244E+03 0.  0.
          4    1    3    3  501    0 -0.91357039493E+02  0.31157376722E+02  0.40555032083E+03  0.41688075803E+03  0.12700000000E+01 0.  1.
         -4    1    3    3    0  501  0.19203093877E+02  0.15197057246E+01  0.56406032654E+01  0.20112126321E+02  0.12700000000E+01 0.  1.
          2    1    1    2  502    0 -0.44922675300E+02  0.26173965376E+02  0.11165115660E+04  0.11177214323E+04  0.00000000000E+00 0. -1.
          1    1    1    2  503    0  0.11707662092E+03 -0.58851047823E+02  0.24621926636E+03  0.27891631025E+03  0.00000000000E+00 0. -1.
<mgrwt>
<rscale>  0 0.76035843E+02</rscale>
<asrwt>0</asrwt>
<pdfrwt beam="2">  1        2 0.45929914E-02 0.11119975E+03</pdfrwt>
<pdfrwt beam="1">  1        1 0.27750394E+00 0.51991569E+02</pdfrwt>
<totfact> 0.12048157E+03</totfact>
</mgrwt>
</event>
<event>
 7    1  0.6493044E-004  0.2471508E+02  0.7546771E-02  0.1693107E+00
          2   -1    0    0  503    0  0.00000000000E+00  0.00000000000E+00  0.99322351002E+02  0.99322351002E+02  0.00000000000E+00 0. -1.
         -2   -1    0    0    0  501 -0.00000000000E+00 -0.00000000000E+00 -0.36074495767E+03  0.36074495767E+03  0.00000000000E+00 0.  1.
         25    2    1    2    0    0  0.13507724205E+02 -0.43132143019E+02  0.20868674192E+00  0.13292084585E+03  0.12500026934E+03 0.  0.
          4    1    3    3  502    0  0.43584479601E+02  0.10160837856E+02  0.39899845140E+02  0.59970492997E+02  0.12700000000E+01 0. -1.
         -4    1    3    3    0  502 -0.30076755396E+02 -0.53292980875E+02 -0.39691158398E+02  0.72950352849E+02  0.12700000000E+01 0. -1.
          1    1    1    2  503    0 -0.27826736591E+01  0.21038326260E+02  0.28746931652E+02  0.35731506041E+02  0.00000000000E+00 0. -1.
         -1    1    1    2    0  501 -0.10725050546E+02  0.22093816758E+02 -0.29037822506E+03  0.29141495678E+03  0.00000000000E+00 0.  1.
<mgrwt>
<rscale>  0 0.22901799E+02</rscale>
<asrwt>0</asrwt>
<pdfrwt beam="1">  1        2 0.15280362E-01 0.21221556E+02</pdfrwt>
<pdfrwt beam="2">  1       -2 0.55499225E-01 0.24715077E+02</pdfrwt>
<totfact> 0.10384198E+03</totfact>
</mgrwt>
</event>
<event>
 7    1  0.6493044E-004  0.6410177E+02  0.7546771E-02  0.1452797E+00
          2   -1    0    0  503    0  0.00000000000E+00  0.00000000000E+00  0.53701117331E+03  0.53701117331E+03  0.00000000000E+00 0. -1.
          3   -1    0    0  502    0 -0.00000000000E+00 -0.00000000000E+00 -0.33492322577E+02  0.33492322577E+02  0.00000000000E+00 0. -1.
         25    2    1    2    0    0 -0.24619600912E+02 -0.64018156547E+02  0.21967301312E+03  0.26188710521E+03  0.12499669622E+03 0.  0.
          4    1    3    3  501    0 -0.17378199454E+02  0.32974069991E+02  0.26966012322E+02  0.46022492638E+02  0.12700000000E+01 0. -1.
         -4    1    3    3    0  501 -0.72414014586E+01 -0.96992226538E+02  0.19270700080E+03  0.21586461258E+03  0.12700000000E+01 0. -1.
          2    1    1    2  502    0  0.36912468850E+02  0.26496832906E+00  0.33031897274E+02  0.49534904889E+02  0.00000000000E+00 0. -1.
          1    1    1    2  503    0 -0.12292867938E+02  0.63753188218E+02  0.25081394033E+03  0.25908148578E+03  0.00000000000E+00 0. -1.
<mgrwt>
<rscale>  0 0.48643760E+02</rscale>
<asrwt>0</asrwt>
<pdfrwt beam="1">  1        2 0.82617097E-01 0.64101766E+02</pdfrwt>
<pdfrwt beam="2">  1        3 0.51526654E-02 0.36913420E+02</pdfrwt>
<totfact> 0.60756652E+03</totfact>
</mgrwt>
</event>
<event>
 7    1  0.6493044E-004  0.9900716E+02  0.7546771E-02  0.1353583E+00
          2   -1    0    0  503    0  0.00000000000E+00  0.00000000000E+00  0.16383407161E+04  0.16383407161E+04  0.00000000000E+00 0. -1.
         -2   -1    0    0    0  501 -0.00000000000E+00 -0.00000000000E+00 -0.62755495520E+02  0.62755495520E+02  0.00000000000E+00 0.  1.
         25    2    1    2    0    0  0.66600418947E+02 -0.25027603230E+02  0.59887438799E+03  0.61590444485E+03  0.12500302345E+03 0.  0.
          4    1    3    3  502    0  0.32943576002E+02  0.47377851133E+02  0.34412900814E+03  0.34893599287E+03  0.12700000000E+01 0.  1.
         -4    1    3    3    0  502  0.33656842944E+02 -0.72405454363E+02  0.25474537985E+03  0.26696845198E+03  0.12700000000E+01 0.  1.
          1    1    1    2  503    0  0.34263144220E+02  0.39497878178E+02  0.98177817805E+03  0.98316958676E+03  0.00000000000E+00 0. -1.
         -1    1    1    2    0  501 -0.10086356317E+03 -0.14470274948E+02 -0.50673454209E+01  0.10202218005E+03  0.00000000000E+00 0.  1.
<mgrwt>
<rscale>  0 0.71950653E+02</rscale>
<asrwt>0</asrwt>
<pdfrwt beam="1">  1        2 0.25205239E+00 0.52288100E+02</pdfrwt>
<pdfrwt beam="2">  1       -2 0.96546928E-02 0.99007163E+02</pdfrwt>
<totfact> 0.88097545E+02</totfact>
</mgrwt>
</event>
<event>
 7    1  0.6493044E-004  0.1255619E+03  0.7546771E-02  0.1263371E+00
          2   -1    0    0  503    0  0.00000000000E+00  0.00000000000E+00  0.17939446206E+04  0.17939446206E+04  0.00000000000E+00 0. -1.
          1   -1    0    0  502    0 -0.00000000000E+00 -0.00000000000E+00 -0.35929954126E+03  0.35929954126E+03  0.00000000000E+00 0. -1.
         25    2    1    2    0    0 -0.77649438316E+02  0.24037577567E+02  0.58717225333E+02  0.16023551740E+03  0.12498187100E+03 0.  0.
          4    1    3    3  501    0 -0.11005445127E+03  0.64301659082E+01  0.54826341757E+02  0.12312948440E+03  0.12700000000E+01 0.  1.
         -4    1    3    3    0  501  0.32405012954E+02  0.17607411659E+02  0.38908835762E+01  0.37106032998E+02  0.12700000000E+01 0.  1.
          2    1    1    2  502    0  0.65820352630E+02 -0.11704717675E+03 -0.29255064466E+03  0.32189787216E+03  0.00000000000E+00 0. -1.
          1    1    1    2  503    0  0.11829085686E+02  0.93009599186E+02  0.16684784987E+04  0.16711107723E+04  0.00000000000E+00 0. -1.
<mgrwt>
<rscale>  0 0.10850132E+03</rscale>
<asrwt>0</asrwt>
<pdfrwt beam="1">  1        2 0.27599147E+00 0.93758801E+02</pdfrwt>
<pdfrwt beam="2">  1        1 0.55276854E-01 0.12556194E+03</pdfrwt>
<totfact> 0.10112659E+02</totfact>
</mgrwt>
</event>
<event>
 7    1  0.6493044E-004  0.1469575E+03  0.7546771E-02  0.1421177E+00
          1   -1    0    0  502    0 -0.00000000000E+00  0.00000000000E+00  0.89638826624E+03  0.89638826624E+03  0.00000000000E+00 0. -1.
          2   -1    0    0  503    0  0.00000000000E+00 -0.00000000000E+00 -0.14581075779E+04  0.14581075779E+04  0.00000000000E+00 0. -1.
         25    2    1    2    0    0 -0.13440536218E+03  0.53072244453E+02 -0.13011547124E+03  0.23116457234E+03  0.12500223653E+03 0.  0.
          4    1    3    3  501    0 -0.78610158116E+01 -0.30054429450E+02  0.65668957376E+00  0.31098367166E+02  0.12700000000E+01 0. -1.
         -4    1    3    3    0  501 -0.12654434636E+03  0.83126673903E+02 -0.13077216081E+03  0.20006620518E+03  0.12700000000E+01 0. -1.
          2    1    1    2  502    0 -0.87384969403E+01 -0.18449593987E+02  0.84149500107E+03  0.84174258873E+03  0.00000000000E+00 0. -1.
          1    1    1    2  503    0  0.14314385912E+03 -0.34622650465E+02 -0.12730988415E+04  0.12815886830E+04  0.00000000000E+00 0. -1.
<mgrwt>
<rscale>  0 0.54772747E+02</rscale>
<asrwt>0</asrwt>
<pdfrwt beam="2">  1        2 0.22432424E+00 0.14695753E+03</pdfrwt>
<pdfrwt beam="1">  1        1 0.13790589E+00 0.20414427E+02</pdfrwt>
<totfact> 0.46332375E+01</totfact>
</mgrwt>
</event>
<event>
 7    1  0.6493044E-004  0.1051629E+03  0.7546771E-02  0.1456575E+00
         -2   -1    0    0    0  501 -0.00000000000E+00  0.00000000000E+00  0.37221436093E+02  0.37221436093E+02  0.00000000000E+00 0.  1.
          2   -1    0    0  503    0  0.00000000000E+00 -0.00000000000E+00 -0.69709523216E+03  0.69709523216E+03  0.00000000000E+00 0. -1.
         25    2    1    2    0    0 -0.44431472353E+02  0.93618675076E+02 -0.22401355547E+03  0.27666979781E+03  0.12500196769E+03 0.  0.
          4    1    3    3  502    0 -0.29057252649E+02  0.55340547479E+02 -0.15906266805E+02  0.64509862428E+02  0.12700000000E+01 0. -1.
         -4    1    3    3    0  502 -0.15374219704E+02  0.38278127597E+02 -0.20810728867E+03  0.21215993538E+03  0.12700000000E+01 0. -1.
          1    1    1    2  503    0 -0.20634011745E+02 -0.72990290679E+01 -0.15786916658E+03  0.15937914550E+03  0.00000000000E+00 0. -1.
         -1    1    1    2    0  501  0.65065484098E+02 -0.86319646008E+02 -0.27799107402E+03  0.29826772494E+03  0.00000000000E+00 0.  1.
<mgrwt>
<rscale>  0 0.47975985E+02</rscale>
<asrwt>0</asrwt>
<pdfrwt beam="2">  1        2 0.10724541E+00 0.21886943E+02</pdfrwt>
<pdfrwt beam="1">  1       -2 0.57263752E-02 0.10516293E+03</pdfrwt>
<totfact> 0.66799226E+03</totfact>
</mgrwt>
</event>
<event>
 7    1  0.6493044E-004  0.5446013E+02  0.7546771E-02  0.1492853E+00
          2   -1    0    0  503    0  0.00000000000E+00  0.00000000000E+00  0.12753351117E+04  0.12753351117E+04  0.00000000000E+00 0. -1.
          1   -1    0    0  502    0 -0.00000000000E+00 -0.00000000000E+00 -0.47244053175E+03  0.47244053175E+03  0.00000000000E+00 0. -1.
         25    2    1    2    0    0 -0.31403748796E+02 -0.80657840610E+02  0.36463517940E+02  0.15634756364E+03  0.12499235907E+03 0.  0.
          4    1    3    3  501    0 -0.51284116985E+02 -0.77570863498E+02  0.70560187422E+02  0.11673753667E+03  0.12700000000E+01 0. -1.
         -4    1    3    3    0  501  0.19880368189E+02 -0.30869771121E+01 -0.34096669482E+02  0.39610026973E+02  0.12700000000E+01 0. -1.
          2    1    1    2  502    0  0.14580415677E+02  0.29209973648E+02 -0.41122993766E+03  0.41252378442E+03  0.00000000000E+00 0. -1.
          1    1    1    2  503    0  0.16823333119E+02  0.51447866963E+02  0.11776609997E+04  0.11789042954E+04  0.00000000000E+00 0. -1.
<mgrwt>
<rscale>  0 0.42165708E+02</rscale>
<asrwt>0</asrwt>
<pdfrwt beam="1">  1        2 0.19620540E+00 0.54460130E+02</pdfrwt>
<pdfrwt beam="2">  1        1 0.72683159E-01 0.32646762E+02</pdfrwt>
<totfact> 0.14067394E+02</totfact>
</mgrwt>
</event>
<event>
 7    1  0.6493044E-004  0.9732033E+02  0.7546771E-02  0.1370019E+00
          2   -1    0    0  503    0  0.00000000000E+00  0.00000000000E+00  0.41477334629E+03  0.41477334629E+03  0.00000000000E+00 0. -1.
          1   -1    0    0  502    0 -0.00000000000E+00 -0.00000000000E+00 -0.17311350944E+03  0.17311350944E+03  0.00000000000E+00 0. -1.
         25    2    1    2    0    0  0.48968076813E+02  0.36887799067E+02  0.17142112237E+03  0.22083741430E+03  0.12500152037E+03 0.  0.
          4    1    3    3  501    0 -0.58112761936E+01 -0.10303654072E+02  0.14243280371E+03  0.14292883785E+03  0.12700000000E+01 0. -1.
         -4    1    3    3    0  501  0.54779353006E+02  0.47191453140E+02  0.28988318662E+02  0.77908576447E+02  0.12700000000E+01 0. -1.
          2    1    1    2  502    0 -0.58102555872E+02 -0.82328000497E+02 -0.12831830856E+03  0.16315451258E+03  0.00000000000E+00 0. -1.
          1    1    1    2  503    0  0.91344790590E+01  0.45440201429E+02  0.19855702304E+03  0.20389492885E+03  0.00000000000E+00 0. -1.
<mgrwt>
<rscale>  0 0.67161906E+02</rscale>
<asrwt>0</asrwt>
<pdfrwt beam="1">  1        2 0.63811284E-01 0.46349225E+02</pdfrwt>
<pdfrwt beam="2">  1        1 0.26632848E-01 0.97320326E+02</pdfrwt>
<totfact> 0.18162430E+03</totfact>
</mgrwt>
</event>
<event>
 7    1  0.6493044E-004  0.6348720E+02  0.7546771E-02  0.1387488E+00
          1   -1    0    0  502    0 -0.00000000000E+00  0.00000000000E+00  0.13738730933E+03  0.13738730933E+03  0.00000000000E+00 0. -1.
          2   -1    0    0  503    0  0.00000000000E+00 -0.00000000000E+00 -0.19109949745E+04  0.19109949745E+04  0.00000000000E+00 0. -1.
         25    2    1    2    0    0 -0.11335762413E+03  0.13314539461E+02 -0.18114795363E+02  0.17022905672E+03  0.12499023173E+03 0.  0.
          4    1    3    3  501    0  0.14274777337E+01 -0.99633557734E+01  0.38729025146E+02  0.40035689574E+02  0.12700000000E+01 0. -1.
         -4    1    3    3    0  501 -0.11478510187E+03  0.23277895234E+02 -0.56843820509E+02  0.13019336714E+03  0.12700000000E+01 0. -1.
          2    1    1    2  502    0  0.58758637172E+02  0.18489116568E+02  0.45167807780E+02  0.76384263651E+02  0.00000000000E+00 0. -1.
          1    1    1    2  503    0  0.54598986963E+02 -0.31803656029E+02 -0.18006606776E+04  0.18017689635E+04  0.00000000000E+00 0. -1.
<mgrwt>
<rscale>  0 0.62535924E+02</rscale>
<asrwt>0</asrwt>
<pdfrwt beam="2">  1        2 0.29399922E+00 0.63487198E+02</pdfrwt>
<pdfrwt beam="1">  1        1 0.21136510E-01 0.61598903E+02</pdfrwt>
<totfact> 0.29683617E+02</totfact>
</mgrwt>
</event>
<event>
 7    1  0.6493044E-004  0.1354913E+03  0.7546771E-02  0.1341810E+00
         -1   -1    0    0    0  501 -0.00000000000E+00  0.00000000000E+00  0.61784903763E+03  0.61784903763E+03  0.00000000000E+00 0.  1.
          1   -1    0    0  503    0  0.00000000000E+00 -0.00000000000E+00 -0.95091541713E+03  0.95091541713E+03  0.00000000000E+00 0. -1.
         25    2    1    2    0    0 -0.78356686338E+02  0.14103714098E+03  0.10415161393E+03  0.22913685557E+03  0.12499957787E+03 0.  0.
          4    1    3    3  502    0 -0.85831348449E+02  0.10488444208E+03  0.19697320306E+02  0.13695752588E+03  0.12700000000E+01 0.  1.
         -4    1    3    3    0  502  0.74746621110E+01  0.36152698893E+02  0.84454293621E+02  0.92179329689E+02  0.12700000000E+01 0.  1.
          2    1    1    2  503    0  0.39536572735E+02 -0.14925826208E+02 -0.87825685857E+03  0.87927301249E+03  0.00000000000E+00 0. -1.
         -2    1    1    2    0  501  0.38820113602E+02 -0.12611131477E+03  0.44103886514E+03  0.46035458670E+03  0.00000000000E+00 0.  1.
<mgrwt>
<rscale>  0 0.75669555E+02</rscale>
<asrwt>0</asrwt>
<pdfrwt beam="2">  1        1 0.14629468E+00 0.42260157E+02</pdfrwt>
<pdfrwt beam="1">  1       -1 0.95053698E-01 0.13549125E+03</pdfrwt>
<totfact> 0.23009683E+01</totfact>
</mgrwt>
</event>
<event>
 7    1  0.6493044E-004  0.4624315E+02  0.7546771E-02  0.1473327E+00
         -1   -1    0    0    0  501 -0.00000000000E+00  0.00000000000E+00  0.66945075894E+02  0.66945075894E+02  0.00000000000E+00 0.  1.
          1   -1    0    0  503    0  0.00000000000E+00 -0.00000000000E+00 -0.29341565982E+03  0.29341565982E+03  0.00000000000E+00 0. -1.
         25    2    1    2    0    0  0.60781221340E+02 -0.42893613424E+02 -0.10702665628E+03  0.18059332824E+03  0.12500010445E+03 0.  0.
          4    1    3    3  502    0  0.49671807054E+02 -0.31797765877E+02 -0.13564973764E+03  0.14792177173E+03  0.12700000000E+01 0.  1.
         -4    1    3    3    0  502  0.11109414286E+02 -0.11095847547E+02  0.28623081359E+02  0.32671556514E+02  0.12700000000E+01 0.  1.
          2    1    1    2  503    0 -0.16707887726E+02  0.41142366443E+02 -0.12742713925E+03  0.13494266799E+03  0.00000000000E+00 0. -1.
         -2    1    1    2    0  501 -0.44073333613E+02  0.17512469807E+01  0.79832115969E+01  0.44824739477E+02  0.00000000000E+00 0.  1.
<mgrwt>
<rscale>  0 0.45163015E+02</rscale>
<asrwt>0</asrwt>
<pdfrwt beam="2">  1        1 0.45140871E-01 0.46243146E+02</pdfrwt>
<pdfrwt beam="1">  1       -1 0.10299242E-01 0.44108113E+02</pdfrwt>
<totfact> 0.46395521E+03</totfact>
</mgrwt>
</event>
<event>
 7    1  0.6493044E-004  0.7402403E+02  0.7546771E-02  0.1495767E+00
          2   -1    0    0  503    0  0.00000000000E+00  0.00000000000E+00  0.12434733221E+04  0.12434733221E+04  0.00000000000E+00 0. -1.
          1   -1    0    0  502    0 -0.00000000000E+00 -0.00000000000E+00 -0.20393649721E+03  0.20393649721E+03  0.00000000000E+00 0. -1.
         25    2    1    2    0    0  0.87257325389E+02  0.34716738409E+02  0.60451170304E+03  0.62440280943E+03  0.12500150620E+03 0.  0.
          4    1    3    3  501    0 -0.10151508225E+02  0.29846513898E+02  0.37249849575E+02  0.48816305723E+02  0.12700000000E+01 0.  1.
         -4    1    3    3    0  501  0.97408833614E+02  0.48702245110E+01  0.56726185346E+03  0.57558650370E+03  0.12700000000E+01 0.  1.
          2    1    1    2  502    0 -0.63834590486E+02 -0.37050890350E+02 -0.18673971172E+03  0.20079677127E+03  0.00000000000E+00 0. -1.
          1    1    1    2  503    0 -0.23422734903E+02  0.23341519418E+01  0.62176483356E+03  0.62221023860E+03  0.00000000000E+00 0. -1.
<mgrwt>
<rscale>  0 0.41742462E+02</rscale>
<asrwt>0</asrwt>
<pdfrwt beam="1">  1        2 0.19130358E+00 0.23538751E+02</pdfrwt>
<pdfrwt beam="2">  1        1 0.31374846E-01 0.74024029E+02</pdfrwt>
<totfact> 0.42689757E+02</totfact>
</mgrwt>
</event>
<event>
 7    1  0.6493044E-004  0.4399238E+02  0.7546771E-02  0.1530465E+00
          2   -1    0    0  503    0  0.00000000000E+00  0.00000000000E+00  0.87140935807E+02  0.87140935807E+02  0.00000000000E+00 0. -1.
          1   -1    0    0  502    0 -0.00000000000E+00 -0.00000000000E+00 -0.17099478739E+03  0.17099478739E+03  0.00000000000E+00 0. -1.
         25    2    1    2    0    0  0.35904153571E+02  0.88728734914E+01  0.39687051829E+01  0.13040715859E+03  0.12498976063E+03 0.  0.
          4    1    3    3  501    0 -0.35250460501E+02  0.14641585661E+02  0.35695850146E+02  0.52275975494E+02  0.12700000000E+01 0.  1.
         -4    1    3    3    0  501  0.71154614072E+02 -0.57687121698E+01 -0.31727144963E+02  0.78131183092E+02  0.12700000000E+01 0.  1.
          2    1    1    2  502    0 -0.28780524060E+01  0.31204743462E+02 -0.62577804558E+02  0.69985718711E+02  0.00000000000E+00 0. -1.
          1    1    1    2  503    0 -0.33026101165E+02 -0.40077616953E+02 -0.25244752211E+02  0.57742845903E+02  0.00000000000E+00 0. -1.
<mgrwt>
<rscale>  0 0.37129466E+02</rscale>
<asrwt>0</asrwt>
<pdfrwt beam="1">  1        2 0.13406298E-01 0.43992375E+02</pdfrwt>
<pdfrwt beam="2">  1        1 0.26306890E-01 0.31337186E+02</pdfrwt>
<totfact> 0.92739300E+03</totfact>
</mgrwt>
</event>
<event>
 7    1  0.6493044E-004  0.1183373E+03  0.7546771E-02  0.1272831E+00
         -2   -1    0    0    0  501  0.00000000000E+00  0.00000000000E+00  0.10540113751E+04  0.10540113751E+04  0.00000000000E+00 0.  1.
         -1   -1    0    0    0  502 -0.00000000000E+00 -0.00000000000E+00 -0.58062837876E+03  0.58062837876E+03  0.00000000000E+00 0.  1.
         25    2    1    2    0    0 -0.51127332219E+02  0.46981426745E+02  0.41266022637E+03  0.43673266090E+03  0.12500278441E+03 0.  0.
          4    1    3    3  503    0 -0.15132658729E+02  0.15423363204E+00 -0.41605381758E+01  0.15746241651E+02  0.12700000000E+01 0. -1.
         -4    1    3    3    0  503 -0.35994673490E+02  0.46827193113E+02  0.41682076455E+03  0.42098641925E+03  0.12700000000E+01 0. -1.
         -2    1    1    2    0  502 -0.73113365631E+02  0.53776834754E+02 -0.55467900879E+03  0.56205543764E+03  0.00000000000E+00 0.  1.
         -1    1    1    2    0  501  0.12424069785E+03 -0.10075826150E+03  0.61540177879E+03  0.63585165534E+03  0.00000000000E+00 0.  1.
<mgrwt>
<rscale>  0 0.10363581E+03</rscale>
<asrwt>0</asrwt>
<pdfrwt beam="1">  1       -2 0.16215560E+00 0.11833730E+03</pdfrwt>
<pdfrwt beam="2">  1       -1 0.89327443E-01 0.90760741E+02</pdfrwt>
<totfact> 0.27272356E+00</totfact>
</mgrwt>
</event>
<event>
 7    1  0.6493044E-004  0.8154037E+02  0.7546771E-02  0.1450335E+00
         -2   -1    0    0    0  501 -0.00000000000E+00  0.00000000000E+00  0.40470803519E+02  0.40470803519E+02  0.00000000000E+00 0.  1.
          2   -1    0    0  503    0  0.00000000000E+00 -0.00000000000E+00 -0.15909977119E+04  0.15909977119E+04  0.00000000000E+00 0. -1.
         25    2    1    2    0    0  0.29798875250E+02  0.45771817606E+02 -0.16793612131E+03  0.21635695559E+03  0.12499903655E+03 0.  0.
          4    1    3    3  502    0  0.13720650473E+02 -0.39860292127E+02 -0.25215012536E+02  0.49137652518E+02  0.12700000000E+01 0.  1.
         -4    1    3    3    0  502  0.16078224777E+02  0.85632109733E+02 -0.14272110877E+03  0.16721930307E+03  0.12700000000E+01 0.  1.
          1    1    1    2  503    0 -0.36228748382E+02 -0.74612660022E+02 -0.13830738852E+04  0.13855587116E+04  0.00000000000E+00 0. -1.
         -1    1    1    2    0  501  0.64298731319E+01  0.28840842416E+02  0.48309808882E+00  0.29552848315E+02  0.00000000000E+00 0.  1.
<mgrwt>
<rscale>  0 0.49085927E+02</rscale>
<asrwt>0</asrwt>
<pdfrwt beam="2">  1        2 0.24476883E+00 0.81540373E+02</pdfrwt>
<pdfrwt beam="1">  1       -2 0.62262788E-02 0.29548899E+02</pdfrwt>
<totfact> 0.15431403E+03</totfact>
</mgrwt>
</event>
<event>
 7    1  0.6493044E-004  0.1095520E+03  0.7546771E-02  0.1274741E+00
         -2   -1    0    0    0  501 -0.00000000000E+00  0.00000000000E+00  0.53035720221E+02  0.53035720221E+02  0.00000000000E+00 0.  1.
          2   -1    0    0  503    0  0.00000000000E+00 -0.00000000000E+00 -0.11809340808E+04  0.11809340808E+04  0.00000000000E+00 0. -1.
         25    2    1    2    0    0  0.26180630453E+02 -0.30476396731E+02 -0.45589416308E+03  0.47442385300E+03  0.12499707277E+03 0.  0.
          4    1    3    3  502    0 -0.70553253801E+01 -0.10720780558E+02 -0.42424751272E+03  0.42444349177E+03  0.12700000000E+01 0.  1.
         -4    1    3    3    0  502  0.33235955833E+02 -0.19755616173E+02 -0.31646650351E+02  0.49980361233E+02  0.12700000000E+01 0.  1.
          1    1    1    2  503    0 -0.92862347779E+02 -0.58122418285E+02 -0.63236717031E+03  0.64178646700E+03  0.00000000000E+00 0. -1.
         -1    1    1    2    0  501  0.66681717326E+02  0.88598815016E+02 -0.39637027215E+02  0.11775948104E+03  0.00000000000E+00 0.  1.
<mgrwt>
<rscale>  0 0.10268869E+03</rscale>
<asrwt>0</asrwt>
<pdfrwt beam="2">  1        2 0.18168215E+00 0.10955196E+03</pdfrwt>
<pdfrwt beam="1">  1       -2 0.81593424E-02 0.96255399E+02</pdfrwt>
<totfact> 0.18517342E+03</totfact>
</mgrwt>
</event>
<event>
 7    1  0.6493044E-004  0.5117298E+02  0.7546771E-02  0.1490350E+00
          2   -1    0    0  503    0  0.00000000000E+00  0.00000000000E+00  0.12406964842E+04  0.12406964842E+04  0.00000000000E+00 0. -1.
         -2   -1    0    0    0  501 -0.00000000000E+00 -0.00000000000E+00 -0.17210288390E+02  0.17210288390E+02  0.00000000000E+00 0.  1.
         25    2    1    2    0    0 -0.17585116101E+02 -0.64376608324E+02  0.87344314876E+03  0.88486202220E+03  0.12499712086E+03 0.  0.
          4    1    3    3  502    0  0.42748686016E+02  0.99111796657E+01  0.20900482070E+03  0.21356570327E+03  0.12700000000E+01 0. -1.
         -4    1    3    3    0  502 -0.60333802117E+02 -0.74287787990E+02  0.66443832805E+03  0.67129631893E+03  0.12700000000E+01 0. -1.
          1    1    1    2  503    0  0.31694532973E+02  0.15663394150E+02  0.29902617154E+03  0.30110884511E+03  0.00000000000E+00 0. -1.
         -1    1    1    2    0  501 -0.14109416872E+02  0.48713214174E+02  0.51016875487E+02  0.71935905250E+02  0.00000000000E+00 0.  1.
<mgrwt>
<rscale>  0 0.42534164E+02</rscale>
<asrwt>0</asrwt>
<pdfrwt beam="1">  1        2 0.19087631E+00 0.35353717E+02</pdfrwt>
<pdfrwt beam="2">  1       -2 0.26477376E-02 0.51172981E+02</pdfrwt>
<totfact> 0.90930310E+03</totfact>
</mgrwt>
</event>
<event>
 7    1  0.6493044E-004  0.5812643E+02  0.7546771E-02  0.1511259E+00
          2   -1    0    0  503    0  0.00000000000E+00  0.00000000000E+00  0.46153288542E+03  0.46153288542E+03  0.00000000000E+00 0. -1.
          1   -1    0    0  502    0 -0.00000000000E+00 -0.00000000000E+00 -0.23079667412E+03  0.23079667412E+03  0.00000000000E+00 0. -1.
         25    2    1    2    0    0 -0.72437696121E+02 -0.12947977041E+01  0.17008872490E+02  0.14546714648E+03  0.12498997017E+03 0.  0.
          4    1    3    3  501    0 -0.75548610763E+02 -0.52475961093E+02  0.19652686724E+01  0.92015184952E+02  0.12700000000E+01 0. -1.
         -4    1    3    3    0  501  0.31109146412E+01  0.51181163389E+02  0.15043603817E+02  0.53451961531E+02  0.12700000000E+01 0. -1.
          2    1    1    2  502    0  0.18553223737E+02 -0.19565241364E+02 -0.16326054809E+03  0.16547213464E+03  0.00000000000E+00 0. -1.
          1    1    1    2  503    0  0.53884472385E+02  0.20860039068E+02  0.37698788691E+03  0.38139027841E+03  0.00000000000E+00 0. -1.
<mgrwt>
<rscale>  0 0.39588908E+02</rscale>
<asrwt>0</asrwt>
<pdfrwt beam="1">  1        2 0.71005059E-01 0.58126427E+02</pdfrwt>
<pdfrwt beam="2">  1        1 0.35507181E-01 0.26963323E+02</pdfrwt>
<totfact> 0.11151190E+03</totfact>
</mgrwt>
</event>
<event>
 7    1  0.6493044E-004  0.7605733E+02  0.7546771E-02  0.1386819E+00
          2   -1    0    0  503    0  0.00000000000E+00  0.00000000000E+00  0.96431125139E+03  0.96431125139E+03  0.00000000000E+00 0. -1.
         -2   -1    0    0    0  501 -0.00000000000E+00 -0.00000000000E+00 -0.61072739386E+02  0.61072739386E+02  0.00000000000E+00 0.  1.
         25    2    1    2    0    0  0.75508465808E+02  0.86241626818E+00  0.36000003024E+03  0.38849783281E+03  0.12501308791E+03 0.  0.
          4    1    3    3  502    0 -0.11704180077E+02 -0.34915758144E+02  0.37796111331E+02  0.52785006676E+02  0.12700000000E+01 0.  1.
         -4    1    3    3    0  502  0.87212645885E+02  0.35778174412E+02  0.32220391891E+03  0.33571282613E+03  0.12700000000E+01 0.  1.
          3    1    1    2  503    0 -0.16232525840E+02  0.49081688429E+02  0.55594202398E+03  0.55834043474E+03  0.00000000000E+00 0. -1.
         -1    1    1    2    0  501 -0.59275939968E+02 -0.49944104697E+02 -0.12703542220E+02  0.78545723232E+02  0.00000000000E+00 0.  1.
<mgrwt>
<rscale>  0 0.62704722E+02</rscale>
<asrwt>0</asrwt>
<pdfrwt beam="1">  1        2 0.14835557E+00 0.51696296E+02</pdfrwt>
<pdfrwt beam="2">  1       -2 0.93958067E-02 0.76057327E+02</pdfrwt>
<totfact> 0.20240621E+03</totfact>
</mgrwt>
</event>
<event>
 7    1  0.6493044E-004  0.9642055E+02  0.7546771E-02  0.1355250E+00
          1   -1    0    0  502    0 -0.00000000000E+00  0.00000000000E+00  0.24888923234E+04  0.24888923234E+04  0.00000000000E+00 0. -1.
          2   -1    0    0  503    0  0.00000000000E+00 -0.00000000000E+00 -0.62199481310E+03  0.62199481310E+03  0.00000000000E+00 0. -1.
         25    2    1    2    0    0  0.73067886446E+02 -0.97140610132E+02  0.57637484291E+03  0.60217085476E+03  0.12500625833E+03 0.  0.
          4    1    3    3  501    0 -0.87856977806E+01 -0.68149952319E+02  0.39669276121E+03  0.40260199228E+03  0.12700000000E+01 0.  1.
         -4    1    3    3    0  501  0.81853584227E+02 -0.28990657813E+02  0.17968208170E+03  0.19956886249E+03  0.12700000000E+01 0.  1.
          2    1    1    2  502    0  0.11818372948E+02  0.51601356766E+02  0.18954389003E+04  0.18961779977E+04  0.00000000000E+00 0. -1.
          1    1    1    2  503    0 -0.84886259394E+02  0.45539253366E+02 -0.60491623291E+03  0.61253828409E+03  0.00000000000E+00 0. -1.
<mgrwt>
<rscale>  0 0.71444094E+02</rscale>
<asrwt>0</asrwt>
<pdfrwt beam="2">  1        2 0.95691511E-01 0.96420554E+02</pdfrwt>
<pdfrwt beam="1">  1        1 0.38290651E+00 0.52937453E+02</pdfrwt>
<totfact> 0.13928692E+01</totfact>
</mgrwt>
</event>
<event>
 7    1  0.6493044E-004  0.9920022E+02  0.7546771E-02  0.1410557E+00
          1   -1    0    0  503    0  0.00000000000E+00  0.00000000000E+00  0.17656024444E+04  0.17656024444E+04  0.00000000000E+00 0. -1.
         -1   -1    0    0    0  501 -0.00000000000E+00 -0.00000000000E+00 -0.41738854783E+02  0.41738854783E+02  0.00000000000E+00 0.  1.
         25    2    1    2    0    0 -0.14315823013E+02 -0.12470040406E+03  0.94331641418E+03  0.95980519895E+03  0.12500011644E+03 0.  0.
          4    1    3    3  502    0  0.14256043491E+02 -0.14148015444E+03  0.81259736834E+03  0.82494603752E+03  0.12700000000E+01 0.  1.
         -4    1    3    3    0  502 -0.28571866503E+02  0.16779750376E+02  0.13071904584E+03  0.13485916143E+03  0.12700000000E+01 0.  1.
          2    1    1    2  503    0  0.18015779474E+02  0.27447785675E+02  0.74220786912E+03  0.74293369168E+03  0.00000000000E+00 0. -1.
         -2    1    1    2    0  501 -0.36999564619E+01  0.97252618386E+02  0.38339306274E+02  0.10460240851E+03  0.00000000000E+00 0.  1.
<mgrwt>
<rscale>  0 0.57069739E+02</rscale>
<asrwt>0</asrwt>
<pdfrwt beam="1">  1        1 0.27163109E+00 0.32832137E+02</pdfrwt>
<pdfrwt beam="2">  1       -1 0.64213637E-02 0.99200216E+02</pdfrwt>
<totfact> 0.67956699E+02</totfact>
</mgrwt>
</event>
<event>
 7    1  0.6493044E-004  0.4626173E+02  0.7546771E-02  0.1568336E+00
          2   -1    0    0  503    0  0.00000000000E+00  0.00000000000E+00  0.22064938973E+04  0.22064938973E+04  0.00000000000E+00 0. -1.
         -2   -1    0    0    0  501 -0.00000000000E+00 -0.00000000000E+00 -0.73022681891E+02  0.73022681891E+02  0.00000000000E+00 0.  1.
         25    2    1    2    0    0  0.11520344925E+02  0.38151651430E+02  0.10189071707E+04  0.10273281837E+04  0.12507241018E+03 0.  0.
          4    1    3    3  502    0  0.67530113796E+02  0.95701953584E+01  0.50491201172E+03  0.50949941844E+03  0.12700000000E+01 0.  1.
         -4    1    3    3    0  502 -0.56009768870E+02  0.28581456072E+02  0.51399515895E+03  0.51782876529E+03  0.12700000000E+01 0.  1.
          1    1    1    2  503    0  0.22414924515E+02 -0.65779040805E+01  0.11754413002E+04  0.11756734018E+04  0.00000000000E+00 0. -1.
         -1    1    1    2    0  501 -0.33935269440E+02 -0.31573747350E+02 -0.60877255378E+02  0.76514993668E+02  0.00000000000E+00 0.  1.
<mgrwt>
<rscale>  0 0.32873728E+02</rscale>
<asrwt>0</asrwt>
<pdfrwt beam="1">  1        2 0.33946055E+00 0.23360173E+02</pdfrwt>
<pdfrwt beam="2">  1       -2 0.11234260E-01 0.46261731E+02</pdfrwt>
<totfact> 0.38818491E+02</totfact>
</mgrwt>
</event>
<event>
 7    1  0.6493044E-004  0.1314510E+03  0.7546771E-02  0.1342824E+00
          1   -1    0    0  502    0 -0.00000000000E+00  0.00000000000E+00  0.34032275631E+04  0.34032275631E+04  0.00000000000E+00 0. -1.
          2   -1    0    0  503    0  0.00000000000E+00 -0.00000000000E+00 -0.64474903385E+03  0.64474903385E+03  0.00000000000E+00 0. -1.
         25    2    1    2    0    0  0.83969591854E+02 -0.13480750481E+03 -0.10727603903E+03  0.22881465986E+03  0.12499617718E+03 0.  0.
          4    1    3    3  501    0  0.12435033705E+02  0.19752476516E+02  0.61683129461E+01  0.24175429187E+02  0.12700000000E+01 0. -1.
         -4    1    3    3    0  501  0.71534558149E+02 -0.15455998133E+03 -0.11344435197E+03  0.20463923068E+03  0.12700000000E+01 0. -1.
          2    1    1    2  502    0 -0.42076186362E+02  0.12434706730E+03  0.33401885090E+04  0.33427670985E+04  0.00000000000E+00 0. -1.
          1    1    1    2  503    0 -0.41893405492E+02  0.10460437507E+02 -0.47443394073E+03  0.47639483865E+03  0.00000000000E+00 0. -1.
<mgrwt>
<rscale>  0 0.75339236E+02</rscale>
<asrwt>0</asrwt>
<pdfrwt beam="2">  1        2 0.99192162E-01 0.43179604E+02</pdfrwt>
<pdfrwt beam="1">  1        1 0.52357346E+00 0.13145096E+03</pdfrwt>
<totfact> 0.28126364E+00</totfact>
</mgrwt>
</event>
<event>
 7    1  0.6493044E-004  0.1030913E+03  0.7546771E-02  0.1358682E+00
          2   -1    0    0  503    0  0.00000000000E+00  0.00000000000E+00  0.57749821440E+03  0.57749821440E+03  0.00000000000E+00 0. -1.
         -2   -1    0    0    0  501 -0.00000000000E+00 -0.00000000000E+00 -0.21203954705E+03  0.21203954705E+03  0.00000000000E+00 0.  1.
         25    2    1    2    0    0  0.69084989988E+02 -0.11214518777E+03  0.14335111226E+03  0.23135837567E+03  0.12501150998E+03 0.  0.
          4    1    3    3  502    0  0.10103087701E+03 -0.10079867157E+03  0.13492536231E+03  0.19640284264E+03  0.12700000000E+01 0. -1.
         -4    1    3    3    0  502 -0.31945887025E+02 -0.11346516197E+02  0.84257499430E+01  0.34955533035E+02  0.12700000000E+01 0. -1.
          1    1    1    2  503    0 -0.75990981726E+02  0.64545211022E+02  0.38013576788E+03  0.39299353123E+03  0.00000000000E+00 0. -1.
         -1    1    1    2    0  501  0.69059917387E+01  0.47599976746E+02 -0.15802821279E+03  0.16518585455E+03  0.00000000000E+00 0.  1.
<mgrwt>
<rscale>  0 0.70416747E+02</rscale>
<asrwt>0</asrwt>
<pdfrwt beam="1">  1        2 0.88845879E-01 0.10309125E+03</pdfrwt>
<pdfrwt beam="2">  1       -2 0.32621469E-01 0.48098342E+02</pdfrwt>
<totfact> 0.46065240E+02</totfact>
</mgrwt>
</event>
<event>
 7    1  0.6493044E-004  0.1124428E+03  0.7546771E-02  0.1424447E+00
          2   -1    0    0  503    0  0.00000000000E+00  0.00000000000E+00  0.46041392503E+03  0.46041392503E+03  0.00000000000E+00 0. -1.
         -2   -1    0    0    0  501 -0.00000000000E+00 -0.00000000000E+00 -0.10971875391E+04  0.10971875391E+04  0.00000000000E+00 0.  1.
         25    2    1    2    0    0  0.12666365426E+03  0.47516662953E+02 -0.39517643468E+02  0.18837883045E+03  0.12499370002E+03 0.  0.
          4    1    3    3  502    0  0.47916708657E+01  0.60875464502E+02 -0.66274912216E+01  0.61435485087E+02  0.12700000000E+01 0.  1.
         -4    1    3    3    0  502  0.12187198340E+03 -0.13358801550E+02 -0.32890152247E+02  0.12694334536E+03  0.12700000000E+01 0.  1.
          1    1    1    2  503    0 -0.10638621017E+03 -0.31210251542E+02  0.37784463808E+03  0.39377490529E+03  0.00000000000E+00 0. -1.
         -1    1    1    2    0  501 -0.20277444095E+02 -0.16306411411E+02 -0.97510060863E+03  0.97544772835E+03  0.00000000000E+00 0.  1.
<mgrwt>
<rscale>  0 0.54090974E+02</rscale>
<asrwt>0</asrwt>
<pdfrwt beam="1">  1        2 0.70832912E-01 0.11244279E+03</pdfrwt>
<pdfrwt beam="2">  1       -2 0.16879808E+00 0.26020642E+02</pdfrwt>
<totfact> 0.18388983E+01</totfact>
</mgrwt>
</event>
<event>
 7    1  0.6493044E-004  0.2840133E+02  0.7546771E-02  0.1621118E+00
          2   -1    0    0  503    0  0.00000000000E+00  0.00000000000E+00  0.27508693072E+04  0.27508693072E+04  0.00000000000E+00 0. -1.
          1   -1    0    0  502    0 -0.00000000000E+00 -0.00000000000E+00 -0.70669743809E+02  0.70669743809E+02  0.00000000000E+00 0. -1.
         25    2    1    2    0    0 -0.38872111871E+01 -0.49900075348E+01  0.12110203030E+04  0.12174709516E+04  0.12500133237E+03 0.  0.
          4    1    3    3  501    0  0.73049546098E+01 -0.64329881906E+02  0.62061804294E+03  0.62398723079E+03  0.12700000000E+01 0.  1.
         -4    1    3    3    0  501 -0.11192165797E+02  0.59339874371E+02  0.59040226003E+03  0.59348372077E+03  0.12700000000E+01 0.  1.
          2    1    1    2  502    0 -0.17584286378E+02  0.22387875146E+02 -0.64310324563E+02  0.70329523860E+02  0.00000000000E+00 0. -1.
          1    1    1    2  503    0  0.21471497565E+02 -0.17397867611E+02  0.15334895850E+04  0.15337385756E+04  0.00000000000E+00 0. -1.
<mgrwt>
<rscale>  0 0.28015709E+02</rscale>
<asrwt>0</asrwt>
<pdfrwt beam="1">  1        2 0.42321058E+00 0.27635322E+02</pdfrwt>
<pdfrwt beam="2">  1        1 0.10872270E-01 0.28401333E+02</pdfrwt>
<totfact> 0.27805489E+02</totfact>
</mgrwt>
</event>
<event>
 7    1  0.6493044E-004  0.3439607E+02  0.7546771E-02  0.1560737E+00
          2   -1    0    0  503    0  0.00000000000E+00  0.00000000000E+00  0.33641914032E+03  0.33641914032E+03  0.00000000000E+00 0. -1.
         -2   -1    0    0    0  501 -0.00000000000E+00 -0.00000000000E+00 -0.49431328190E+02  0.49431328190E+02  0.00000000000E+00 0.  1.
         25    2    1    2    0    0 -0.26172508051E+02  0.17237618161E+02  0.75267811250E+02  0.14923902671E+03  0.12499963210E+03 0.  0.
          4    1    3    3  502    0 -0.34172278889E+02 -0.20146827689E+02 -0.21533002605E+02  0.45154428483E+02  0.12700000000E+01 0. -1.
         -4    1    3    3    0  502  0.79997708378E+01  0.37384445851E+02  0.96800813856E+02  0.10408459823E+03  0.12700000000E+01 0. -1.
          1    1    1    2  503    0 -0.97928554391E+01 -0.31471152490E+02  0.18879117331E+03  0.19164665553E+03  0.00000000000E+00 0. -1.
         -1    1    1    2    0  501  0.35965363490E+02  0.14233534328E+02  0.22928827569E+02  0.44964786268E+02  0.00000000000E+00 0.  1.
<mgrwt>
<rscale>  0 0.33670163E+02</rscale>
<asrwt>0</asrwt>
<pdfrwt beam="1">  1        2 0.51756789E-01 0.32959573E+02</pdfrwt>
<pdfrwt beam="2">  1       -2 0.76048199E-02 0.34396073E+02</pdfrwt>
<totfact> 0.82563085E+03</totfact>
</mgrwt>
</event>
<event>
 7    1  0.6493044E-004  0.7036104E+02  0.7546771E-02  0.1364243E+00
          3   -1    0    0  502    0 -0.00000000000E+00  0.00000000000E+00  0.36965270716E+03  0.36965270716E+03  0.00000000000E+00 0. -1.
          2   -1    0    0  503    0  0.00000000000E+00 -0.00000000000E+00 -0.24210997329E+04  0.24210997329E+04  0.00000000000E+00 0. -1.
         25    2    1    2    0    0  0.38532752486E+01 -0.63288859075E+02 -0.67574311194E+03  0.69012642728E+03  0.12500161950E+03 0.  0.
          4    1    3    3  501    0 -0.30676524886E+02 -0.33869766315E+02 -0.76147239242E+02  0.88815681011E+02  0.12700000000E+01 0. -1.
         -4    1    3    3    0  501  0.34529800135E+02 -0.29419092760E+02 -0.59959587270E+03  0.60131074627E+03  0.12700000000E+01 0. -1.
          2    1    1    2  502    0 -0.64891163394E+02  0.27199498713E+02  0.35831497112E+03  0.36515790331E+03  0.00000000000E+00 0. -1.
          1    1    1    2  503    0  0.61037888145E+02  0.36089360362E+02 -0.17340188849E+04  0.17354681094E+04  0.00000000000E+00 0. -1.
<mgrwt>
<rscale>  0 0.68793949E+02</rscale>
<asrwt>0</asrwt>
<pdfrwt beam="2">  1        2 0.37247688E+00 0.67261761E+02</pdfrwt>
<pdfrwt beam="1">  1        3 0.56869648E-01 0.70361039E+02</pdfrwt>
<totfact> 0.96562793E+00</totfact>
</mgrwt>
</event>
<event>
 7    1  0.6493044E-004  0.1396092E+03  0.7546771E-02  0.1288308E+00
          1   -1    0    0  502    0 -0.00000000000E+00  0.00000000000E+00  0.43491246252E+03  0.43491246252E+03  0.00000000000E+00 0. -1.
          2   -1    0    0  503    0  0.00000000000E+00 -0.00000000000E+00 -0.28678457442E+04  0.28678457442E+04  0.00000000000E+00 0. -1.
         25    2    1    2    0    0  0.17170678674E+03  0.16649369550E+02 -0.73304950461E+03  0.76337859215E+03  0.12499950648E+03 0.  0.
          4    1    3    3  501    0 -0.12174002237E+02 -0.21512801081E+02 -0.10318088346E+03  0.10610803246E+03  0.12700000000E+01 0. -1.
         -4    1    3    3    0  501  0.18388078898E+03  0.38162170631E+02 -0.62986862115E+03  0.65727055969E+03  0.12700000000E+01 0. -1.
          2    1    1    2  502    0 -0.40331262667E+02 -0.52754358527E+02  0.41491561703E+03  0.42019590949E+03  0.00000000000E+00 0. -1.
          1    1    1    2  503    0 -0.13137552407E+03  0.36104988977E+02 -0.21147993941E+04  0.21191837051E+04  0.00000000000E+00 0. -1.
<mgrwt>
<rscale>  0 0.96284776E+02</rscale>
<asrwt>0</asrwt>
<pdfrwt beam="2">  1        2 0.44120705E+00 0.13960919E+03</pdfrwt>
<pdfrwt beam="1">  1        1 0.66909607E-01 0.66405068E+02</pdfrwt>
<totfact> 0.20918561E+01</totfact>
</mgrwt>
</event>
<event>
 7    1  0.6493044E-004  0.6475001E+02  0.7546771E-02  0.1412409E+00
          2   -1    0    0  503    0  0.00000000000E+00  0.00000000000E+00  0.10052108495E+04  0.10052108495E+04  0.00000000000E+00 0. -1.
          1   -1    0    0  502    0 -0.00000000000E+00 -0.00000000000E+00 -0.18570068476E+03  0.18570068476E+03  0.00000000000E+00 0. -1.
         25    2    1    2    0    0  0.94617519674E+02 -0.20963844228E+02  0.12704758368E+03  0.20287420186E+03  0.12499958187E+03 0.  0.
          4    1    3    3  501    0  0.85216938600E+02  0.37757179608E+02  0.50767532462E+02  0.10614370678E+03  0.12700000000E+01 0.  1.
         -4    1    3    3    0  501  0.94005810745E+01 -0.58721023837E+02  0.76280051215E+02  0.96730495080E+02  0.12700000000E+01 0.  1.
          2    1    1    2  502    0 -0.45375181344E+02 -0.19982367890E+02 -0.14236782452E+03  0.15075410298E+03  0.00000000000E+00 0. -1.
          1    1    1    2  503    0 -0.49242338331E+02  0.40946212119E+02  0.83483040561E+03  0.83728322944E+03  0.00000000000E+00 0. -1.
<mgrwt>
<rscale>  0 0.56659704E+02</rscale>
<asrwt>0</asrwt>
<pdfrwt beam="1">  1        2 0.15464782E+00 0.64750006E+02</pdfrwt>
<pdfrwt beam="2">  1        1 0.28569337E-01 0.49580259E+02</pdfrwt>
<totfact> 0.59527462E+02</totfact>
</mgrwt>
</event>
<event>
 7    1  0.6493044E-004  0.5462588E+02  0.7546771E-02  0.1431540E+00
          2   -1    0    0  503    0  0.00000000000E+00  0.00000000000E+00  0.26159937137E+04  0.26159937137E+04  0.00000000000E+00 0. -1.
         -2   -1    0    0    0  501 -0.00000000000E+00 -0.00000000000E+00 -0.91291050998E+01  0.91291050998E+01  0.00000000000E+00 0.  1.
         25    2    1    2    0    0  0.24177699825E+01 -0.30050228547E+02  0.61454953190E+03  0.62785674209E+03  0.12499639828E+03 0.  0.
          4    1    3    3  502    0  0.49033400735E+02  0.96055484651E+01  0.44108824616E+03  0.44391102121E+03  0.12700000000E+01 0. -1.
         -4    1    3    3    0  502 -0.46615630752E+02 -0.39655777012E+02  0.17346128574E+03  0.18394572089E+03  0.12700000000E+01 0. -1.
          1    1    1    2  503    0 -0.52707503065E+02  0.23234539253E+02  0.16688757996E+04  0.16698695635E+04  0.00000000000E+00 0. -1.
         -1    1    1    2    0  501  0.50289733083E+02  0.68156892945E+01  0.32343927707E+03  0.32739651316E+03  0.00000000000E+00 0.  1.
<mgrwt>
<rscale>  0 0.52652025E+02</rscale>
<asrwt>0</asrwt>
<pdfrwt beam="1">  1        2 0.40245997E+00 0.54625882E+02</pdfrwt>
<pdfrwt beam="2">  1       -2 0.14044798E-02 0.50749491E+02</pdfrwt>
<totfact> 0.44309732E+03</totfact>
</mgrwt>
</event>
<event>
 7    1  0.6493044E-004  0.9798982E+02  0.7546771E-02  0.1319028E+00
          1   -1    0    0  502    0 -0.00000000000E+00  0.00000000000E+00  0.56610476193E+03  0.56610476193E+03  0.00000000000E+00 0. -1.
          2   -1    0    0  503    0  0.00000000000E+00 -0.00000000000E+00 -0.10690683949E+04  0.10690683949E+04  0.00000000000E+00 0. -1.
         25    2    1    2    0    0  0.92597142805E+02  0.38349553479E+02  0.71269512893E+02  0.17536073686E+03  0.12500850154E+03 0.  0.
          4    1    3    3  501    0 -0.51116978492E+01  0.27781229072E+02 -0.25027963936E+02  0.37761594543E+02  0.12700000000E+01 0. -1.
         -4    1    3    3    0  501  0.97708840654E+02  0.10568324408E+02  0.96297476828E+02  0.13759914232E+03  0.12700000000E+01 0. -1.
          2    1    1    2  502    0 -0.50383455706E+02  0.50578988487E+02  0.43750758790E+03  0.44329405157E+03  0.00000000000E+00 0. -1.
          3    1    1    2  503    0 -0.42213687099E+02 -0.88928541966E+02 -0.10117407337E+04  0.10165183684E+04  0.00000000000E+00 0. -1.
<mgrwt>
<rscale>  0 0.83639864E+02</rscale>
<asrwt>0</asrwt>
<pdfrwt beam="2">  1        2 0.16447206E+00 0.97989822E+02</pdfrwt>
<pdfrwt beam="1">  1        1 0.87093040E-01 0.71391363E+02</pdfrwt>
<totfact> 0.13708252E+02</totfact>
</mgrwt>
</event>
<event>
 7    1  0.6493044E-004  0.8267780E+02  0.7546771E-02  0.1403386E+00
          1   -1    0    0  502    0 -0.00000000000E+00  0.00000000000E+00  0.13849461116E+03  0.13849461116E+03  0.00000000000E+00 0. -1.
          2   -1    0    0  503    0  0.00000000000E+00 -0.00000000000E+00 -0.16223317968E+04  0.16223317968E+04  0.00000000000E+00 0. -1.
         25    2    1    2    0    0  0.31446530794E+02  0.11642499412E+03 -0.35164009963E+03  0.39219492898E+03  0.12498975597E+03 0.  0.
          4    1    3    3  501    0  0.14792979883E+02  0.13448535583E+03 -0.22000294441E+03  0.25827901896E+03  0.12700000000E+01 0.  1.
         -4    1    3    3    0  501  0.16653550911E+02 -0.18060361710E+02 -0.13163715522E+03  0.13391591002E+03  0.12700000000E+01 0.  1.
          2    1    1    2  502    0 -0.10049879803E+02 -0.80667170305E+02  0.10384977404E+03  0.13188240223E+03  0.00000000000E+00 0. -1.
          1    1    1    2  503    0 -0.21396650991E+02 -0.35757823811E+02 -0.12360468600E+04  0.12367490768E+04  0.00000000000E+00 0. -1.
<mgrwt>
<rscale>  0 0.58696110E+02</rscale>
<asrwt>0</asrwt>
<pdfrwt beam="2">  1        2 0.24958952E+00 0.41670597E+02</pdfrwt>
<pdfrwt beam="1">  1        1 0.21306862E-01 0.82677801E+02</pdfrwt>
<totfact> 0.42893696E+02</totfact>
</mgrwt>
</event>
<event>
 7    1  0.6493044E-004  0.6394250E+02  0.7546771E-02  0.1519241E+00
          2   -1    0    0  503    0  0.00000000000E+00  0.00000000000E+00  0.30242667304E+03  0.30242667304E+03  0.00000000000E+00 0. -1.
          1   -1    0    0  502    0 -0.00000000000E+00 -0.00000000000E+00 -0.12933687454E+04  0.12933687454E+04  0.00000000000E+00 0. -1.
         25    2    1    2    0    0 -0.11381266809E+02  0.85550248786E+02 -0.11583446694E+03  0.19101767274E+03  0.12498699639E+03 0.  0.
          4    1    3    3  501    0  0.43043291166E+02  0.49840044773E+02 -0.10653257686E+03  0.12524998128E+03  0.12700000000E+01 0.  1.
         -4    1    3    3    0  501 -0.54424557975E+02  0.35710204013E+02 -0.93018900818E+01  0.65767691465E+02  0.12700000000E+01 0.  1.
          2    1    1    2  502    0  0.62802871554E+01 -0.22363687196E+02 -0.11360287880E+04  0.11362662468E+04  0.00000000000E+00 0. -1.
          1    1    1    2  503    0  0.51009796540E+01 -0.63186561590E+02  0.26092118253E+03  0.26851149892E+03  0.00000000000E+00 0. -1.
<mgrwt>
<rscale>  0 0.38539677E+02</rscale>
<asrwt>0</asrwt>
<pdfrwt beam="1">  1        2 0.46527180E-01 0.63942501E+02</pdfrwt>
<pdfrwt beam="2">  1        1 0.19897981E+00 0.23228786E+02</pdfrwt>
<totfact> 0.17931883E+02</totfact>
</mgrwt>
</event>
<event>
 7    1  0.6493044E-004  0.6141770E+02  0.7546771E-02  0.1459244E+00
         -2   -1    0    0    0  501 -0.00000000000E+00  0.00000000000E+00  0.79492022092E+03  0.79492022092E+03  0.00000000000E+00 0.  1.
          2   -1    0    0  503    0  0.00000000000E+00 -0.00000000000E+00 -0.25140885280E+02  0.25140885280E+02  0.00000000000E+00 0. -1.
         25    2    1    2    0    0  0.39974181720E+02 -0.47558659861E+02  0.60711335456E+03  0.62295381600E+03  0.12500028100E+03 0.  0.
          4    1    3    3  502    0  0.41911358336E+02  0.33697929080E+02  0.16873530705E+03  0.17710259492E+03  0.12700000000E+01 0.  1.
         -4    1    3    3    0  502 -0.19371766162E+01 -0.81256588940E+02  0.43837804751E+03  0.44585122108E+03  0.12700000000E+01 0.  1.
          1    1    1    2  503    0  0.23975985041E+02  0.27857439860E+02  0.95358399560E+02  0.10219642450E+03  0.00000000000E+00 0.  1.
         -1    1    1    2    0  501 -0.63950166761E+02  0.19701220001E+02  0.67307581525E+02  0.94910865705E+02  0.00000000000E+00 0. -1.
<mgrwt>
<rscale>  0 0.47511787E+02</rscale>
<asrwt>0</asrwt>
<pdfrwt beam="2">  1        2 0.38678291E-02 0.36754385E+02</pdfrwt>
<pdfrwt beam="1">  1       -2 0.12229540E+00 0.61417703E+02</pdfrwt>
<totfact> 0.10146684E+03</totfact>
</mgrwt>
</event>
<event>
 7    1  0.6493044E-004  0.1275742E+03  0.7546771E-02  0.1236519E+00
          1   -1    0    0  502    0 -0.00000000000E+00  0.00000000000E+00  0.82424911014E+03  0.82424911014E+03  0.00000000000E+00 0. -1.
          2   -1    0    0  503    0  0.00000000000E+00 -0.00000000000E+00 -0.19950372161E+03  0.19950372161E+03  0.00000000000E+00 0. -1.
         25    2    1    2    0    0 -0.13673752584E+03  0.12947675365E+03  0.47827566177E+02  0.23102805615E+03  0.12500042374E+03 0.  0.
          4    1    3    3  501    0  0.66130103816E+01  0.34457480789E+02  0.47466794247E+02  0.59040319653E+02  0.12700000000E+01 0.  1.
         -4    1    3    3    0  501 -0.14335053622E+03  0.95019272858E+02  0.36077192978E+00  0.17198773650E+03  0.12700000000E+01 0.  1.
          2    1    1    2  502    0  0.16142185595E+02 -0.12507730290E+03  0.64292434087E+03  0.65517677763E+03  0.00000000000E+00 0. -1.
          1    1    1    2  503    0  0.12059534025E+03 -0.43994507509E+01 -0.66006518525E+02  0.13754799796E+03  0.00000000000E+00 0. -1.
<mgrwt>
<rscale>  0 0.12407696E+03</rscale>
<asrwt>0</asrwt>
<pdfrwt beam="2">  1        2 0.30692881E-01 0.12067556E+03</pdfrwt>
<pdfrwt beam="1">  1        1 0.12680755E+00 0.12757422E+03</pdfrwt>
<totfact> 0.52436800E+02</totfact>
</mgrwt>
</event>
<event>
 7    1  0.6493044E-004  0.2394950E+03  0.7546771E-02  0.1207341E+00
          1   -1    0    0  502    0 -0.00000000000E+00  0.00000000000E+00  0.19145253683E+04  0.19145253683E+04  0.00000000000E+00 0. -1.
          2   -1    0    0  503    0  0.00000000000E+00 -0.00000000000E+00 -0.12612426776E+04  0.12612426776E+04  0.00000000000E+00 0. -1.
         25    2    1    2    0    0 -0.14798349890E+03 -0.12759705608E+03  0.70811623749E+03  0.74513914816E+03  0.12499447851E+03 0.  0.
          4    1    3    3  501    0 -0.34369129492E+02 -0.99259918301E+02  0.22940548853E+03  0.25231381157E+03  0.12700000000E+01 0. -1.
         -4    1    3    3    0  501 -0.11361436941E+03 -0.28337137782E+02  0.47871074896E+03  0.49282533659E+03  0.12700000000E+01 0. -1.
          2    1    1    2  502    0  0.22920427290E+03  0.15943799948E+03  0.11699185739E+04  0.12027736877E+04  0.00000000000E+00 0. -1.
          1    1    1    2  503    0 -0.81220773998E+02 -0.31840943393E+02 -0.12247521207E+04  0.12278552101E+04  0.00000000000E+00 0. -1.
<mgrwt>
<rscale>  0 0.14454525E+03</rscale>
<asrwt>0</asrwt>
<pdfrwt beam="2">  1        2 0.19403733E+00 0.87239096E+02</pdfrwt>
<pdfrwt beam="1">  1        1 0.29454237E+00 0.23949503E+03</pdfrwt>
<totfact> 0.10645176E+01</totfact>
</mgrwt>
</event>
<event>
 7    1  0.6493044E-004  0.2093545E+02  0.7546771E-02  0.1727634E+00
          2   -1    0    0  503    0  0.00000000000E+00  0.00000000000E+00  0.11097637233E+04  0.11097637233E+04  0.00000000000E+00 0. -1.
         -2   -1    0    0    0  501 -0.00000000000E+00 -0.00000000000E+00 -0.14115011917E+02  0.14115011917E+02  0.00000000000E+00 0.  1.
         25    2    1    2    0    0 -0.10724238496E+02 -0.53115922261E+01  0.32072517563E+03  0.34443003406E+03  0.12499675105E+03 0.  0.
          4    1    3    3  502    0 -0.42249945362E+02 -0.51620617042E+02  0.13757630357E+03  0.15290061540E+03  0.12700000000E+01 0. -1.
         -4    1    3    3    0  502  0.31525706865E+02  0.46309024816E+02  0.18314887206E+03  0.19152941866E+03  0.12700000000E+01 0. -1.
          3    1    1    2  503    0 -0.89926402738E+01  0.18870759685E+02  0.70914161411E+03  0.70944964727E+03  0.00000000000E+00 0. -1.
         -1    1    1    2    0  501  0.19716878770E+02 -0.13559167458E+02  0.65781921668E+02  0.69999053915E+02  0.00000000000E+00 0.  1.
<mgrwt>
<rscale>  0 0.20919671E+02</rscale>
<asrwt>0</asrwt>
<pdfrwt beam="1">  1        2 0.17073281E+00 0.20903903E+02</pdfrwt>
<pdfrwt beam="2">  1       -2 0.21715412E-02 0.20935452E+02</pdfrwt>
<totfact> 0.12497420E+04</totfact>
</mgrwt>
</event>
<event>
 7    1  0.6493044E-004  0.5511974E+02  0.7546771E-02  0.1518036E+00
          2   -1    0    0  503    0  0.00000000000E+00  0.00000000000E+00  0.22253243997E+04  0.22253243997E+04  0.00000000000E+00 0. -1.
          1   -1    0    0  502    0 -0.00000000000E+00 -0.00000000000E+00 -0.14897807885E+04  0.14897807885E+04  0.00000000000E+00 0. -1.
         25    2    1    2    0    0 -0.25003333687E+02 -0.51687600296E+02 -0.30226262293E+03  0.33209026080E+03  0.12499789350E+03 0.  0.
          4    1    3    3  501    0 -0.12926581701E+02  0.39989993994E+02 -0.64698019425E+02  0.77160499944E+02  0.12700000000E+01 0.  1.
         -4    1    3    3    0  501 -0.12076751986E+02 -0.91677594290E+02 -0.23756460351E+03  0.25492976086E+03  0.12700000000E+01 0.  1.
          2    1    1    2  502    0 -0.19397375565E+02  0.19018330986E+02 -0.11721032626E+04  0.11724180198E+04  0.00000000000E+00 0. -1.
          1    1    1    2  503    0  0.44400709253E+02  0.32669269310E+02  0.22099094967E+04  0.22105969076E+04  0.00000000000E+00 0. -1.
<mgrwt>
<rscale>  0 0.38695553E+02</rscale>
<asrwt>0</asrwt>
<pdfrwt beam="1">  1        2 0.34235760E+00 0.55119738E+02</pdfrwt>
<pdfrwt beam="2">  1        1 0.22919705E+00 0.27165329E+02</pdfrwt>
<totfact> 0.85633868E+00</totfact>
</mgrwt>
</event>
<event>
 7    1  0.6493044E-004  0.6586126E+02  0.7546771E-02  0.1492862E+00
          2   -1    0    0  503    0  0.00000000000E+00  0.00000000000E+00  0.88083497512E+03  0.88083497512E+03  0.00000000000E+00 0. -1.
         -2   -1    0    0    0  501 -0.00000000000E+00 -0.00000000000E+00 -0.34631710392E+02  0.34631710392E+02  0.00000000000E+00 0.  1.
         25    2    1    2    0    0  0.58604150024E+02  0.94062370732E+01  0.50761015273E+03  0.52613070297E+03  0.12499010264E+03 0.  0.
          4    1    3    3  502    0  0.86924308255E+01  0.13090394370E+01  0.44742799992E+03  0.44751614491E+03  0.12700000000E+01 0. -1.
         -4    1    3    3    0  502  0.49911719198E+02  0.80971976363E+01  0.60182152809E+02  0.78614558064E+02  0.12700000000E+01 0. -1.
          1    1    1    2  503    0 -0.67639552259E+02  0.16030357062E+02  0.35227850332E+03  0.35907133731E+03  0.00000000000E+00 0. -1.
         -1    1    1    2    0  501  0.90354022352E+01 -0.25436594135E+02 -0.13685391329E+02  0.30264645225E+02  0.00000000000E+00 0.  1.
<mgrwt>
<rscale>  0 0.42164416E+02</rscale>
<asrwt>0</asrwt>
<pdfrwt beam="1">  1        2 0.13551306E+00 0.65861264E+02</pdfrwt>
<pdfrwt beam="2">  1       -2 0.53279561E-02 0.26993681E+02</pdfrwt>
<totfact> 0.46900851E+03</totfact>
</mgrwt>
</event>
<event>
 7    1  0.6493044E-004  0.2450510E+03  0.7546771E-02  0.1183781E+00
          2   -1    0    0  503    0  0.00000000000E+00  0.00000000000E+00  0.43080524492E+04  0.43080524492E+04  0.00000000000E+00 0. -1.
          1   -1    0    0  502    0 -0.00000000000E+00 -0.00000000000E+00 -0.72079545673E+02  0.72079545673E+02  0.00000000000E+00 0. -1.
         25    2    1    2    0    0  0.26840298218E+02  0.25382266645E+03  0.76800300518E+03  0.81890141644E+03  0.12499826503E+03 0.  0.
          4    1    3    3  501    0 -0.18981015504E+02 -0.37093069877E+00  0.20213267913E+02  0.27759784561E+02  0.12700000000E+01 0.  1.
         -4    1    3    3    0  501  0.45821313721E+02  0.25419359715E+03  0.74778973727E+03  0.79114163188E+03  0.12700000000E+01 0.  1.
          2    1    1    2  502    0 -0.12889995327E+03 -0.21189426838E+03  0.29104107347E+03  0.38238630385E+03  0.00000000000E+00 0. -1.
          1    1    1    2  503    0  0.10205965506E+03 -0.41928398077E+02  0.31769288248E+04  0.31788442746E+04  0.00000000000E+00 0. -1.
<mgrwt>
<rscale>  0 0.16443265E+03</rscale>
<asrwt>0</asrwt>
<pdfrwt beam="1">  1        2 0.66277710E+00 0.11033659E+03</pdfrwt>
<pdfrwt beam="2">  1        1 0.11089164E-01 0.24505103E+03</pdfrwt>
<totfact> 0.23133485E+01</totfact>
</mgrwt>
</event>
<event>
 7    1  0.6493044E-004  0.9611683E+02  0.7546771E-02  0.1327386E+00
         -1   -1    0    0    0  501 -0.00000000000E+00  0.00000000000E+00  0.93251898734E+03  0.93251898734E+03  0.00000000000E+00 0.  1.
          1   -1    0    0  503    0  0.00000000000E+00 -0.00000000000E+00 -0.19149810872E+04  0.19149810872E+04  0.00000000000E+00 0. -1.
         25    2    1    2    0    0 -0.15127128326E+03 -0.12498959347E+02 -0.81165902831E+03  0.83513771467E+03  0.12500159639E+03 0.  0.
          4    1    3    3  502    0  0.41466516813E+01 -0.29511406179E+01 -0.30601248244E+03  0.30605743948E+03  0.12700000000E+01 0. -1.
         -4    1    3    3    0  502 -0.15541793494E+03 -0.95478187295E+01 -0.50564654587E+03  0.52908027519E+03  0.12700000000E+01 0. -1.
          2    1    1    2  503    0  0.57925742251E+02  0.34790990454E+02 -0.10880310913E+04  0.10901272679E+04  0.00000000000E+00 0. -1.
         -2    1    1    2    0  501  0.93345541009E+02 -0.22292031107E+02  0.91722801973E+03  0.92223509197E+03  0.00000000000E+00 0.  1.
<mgrwt>
<rscale>  0 0.80589611E+02</rscale>
<asrwt>0</asrwt>
<pdfrwt beam="2">  1        1 0.29461248E+00 0.67570738E+02</pdfrwt>
<pdfrwt beam="1">  1       -1 0.14346446E+00 0.96116833E+02</pdfrwt>
<totfact> 0.20756582E+00</totfact>
</mgrwt>
</event>
<event>
 7    1  0.6493044E-004  0.1819118E+03  0.7546771E-02  0.1367608E+00
          2   -1    0    0  503    0  0.00000000000E+00  0.00000000000E+00  0.36162967943E+03  0.36162967943E+03  0.00000000000E+00 0. -1.
         -2   -1    0    0    0  501 -0.00000000000E+00 -0.00000000000E+00 -0.61885226942E+03  0.61885226942E+03  0.00000000000E+00 0.  1.
         25    2    1    2    0    0  0.18482173028E+03  0.72501864267E+02  0.93514159467E+02  0.25255900349E+03  0.12500223965E+03 0.  0.
          4    1    3    3  502    0  0.30436605376E+02 -0.35053427715E+02  0.17742892602E+02  0.49714714917E+02  0.12700000000E+01 0. -1.
         -4    1    3    3    0  502  0.15438512490E+03  0.10755529198E+03  0.75771266866E+02  0.20284428857E+03  0.12700000000E+01 0. -1.
          1    1    1    2  503    0 -0.11321424405E+02 -0.22622228536E+02  0.17253803929E+03  0.17438266794E+03  0.00000000000E+00 0. -1.
         -1    1    1    2    0  501 -0.17350030587E+03 -0.49879635731E+02 -0.52327478874E+03  0.55354027742E+03  0.00000000000E+00 0.  1.
<mgrwt>
<rscale>  0 0.67836780E+02</rscale>
<asrwt>0</asrwt>
<pdfrwt beam="1">  1        2 0.55635336E-01 0.25297033E+02</pdfrwt>
<pdfrwt beam="2">  1       -2 0.95208041E-01 0.18191180E+03</pdfrwt>
<totfact> 0.87313535E+01</totfact>
</mgrwt>
</event>
<event>
 7    1  0.6493044E-004  0.6048450E+02  0.7546771E-02  0.1396674E+00
         -2   -1    0    0    0  501 -0.00000000000E+00  0.00000000000E+00  0.20514878850E+02  0.20514878850E+02  0.00000000000E+00 0.  1.
          2   -1    0    0  503    0  0.00000000000E+00 -0.00000000000E+00 -0.34930707452E+04  0.34930707452E+04  0.00000000000E+00 0. -1.
         25    2    1    2    0    0  0.52919982511E+01  0.27882910717E+01 -0.72987840221E+03  0.74052932668E+03  0.12500168743E+03 0.  0.
          4    1    3    3  502    0 -0.34809388351E+02 -0.10628457388E+02 -0.64164879844E+03  0.64268145380E+03  0.12700000000E+01 0.  1.
         -4    1    3    3    0  502  0.40101386602E+02  0.13416748460E+02 -0.88229603769E+02  0.97847872884E+02  0.12700000000E+01 0.  1.
          1    1    1    2  503    0 -0.12783031301E+02 -0.62807109991E+02 -0.26957244905E+04  0.26964863559E+04  0.00000000000E+00 0. -1.
         -1    1    1    2    0  501  0.74910330496E+01  0.60018818919E+02 -0.46952973660E+02  0.76569941466E+02  0.00000000000E+00 0.  1.
<mgrwt>
<rscale>  0 0.60276760E+02</rscale>
<asrwt>0</asrwt>
<pdfrwt beam="2">  1        2 0.53739540E+00 0.60069738E+02</pdfrwt>
<pdfrwt beam="1">  1       -2 0.31561358E-02 0.60484496E+02</pdfrwt>
<totfact> 0.45109777E+02</totfact>
</mgrwt>
</event>
<event>
 7    1  0.6493044E-004  0.2839257E+02  0.7546771E-02  0.1667705E+00
         -2   -1    0    0    0  501 -0.00000000000E+00  0.00000000000E+00  0.27527829984E+03  0.27527829984E+03  0.00000000000E+00 0.  1.
          2   -1    0    0  503    0  0.00000000000E+00 -0.00000000000E+00 -0.44348759627E+03  0.44348759627E+03  0.00000000000E+00 0. -1.
         25    2    1    2    0    0  0.14944803080E+02  0.15581134804E+02 -0.14452397659E+03  0.19229723304E+03  0.12499970850E+03 0.  0.
          4    1    3    3  502    0  0.36472946152E+02 -0.46109030378E+02 -0.48922953658E+02  0.76494357819E+02  0.12700000000E+01 0.  1.
         -4    1    3    3    0  502 -0.21528143072E+02  0.61690165182E+02 -0.95601022933E+02  0.11580287522E+03  0.12700000000E+01 0.  1.
          1    1    1    2  503    0 -0.16903611047E+02  0.12810317560E+02 -0.27386021752E+03  0.27468027786E+03  0.00000000000E+00 0. -1.
         -1    1    1    2    0  501  0.19588079678E+01 -0.28391452364E+02  0.25017489769E+03  0.25178838522E+03  0.00000000000E+00 0.  1.
<mgrwt>
<rscale>  0 0.24539516E+02</rscale>
<asrwt>0</asrwt>
<pdfrwt beam="2">  1        2 0.68228861E-01 0.21209345E+02</pdfrwt>
<pdfrwt beam="1">  1       -2 0.42350508E-01 0.28392571E+02</pdfrwt>
<totfact> 0.38073893E+02</totfact>
</mgrwt>
</event>
<event>
 7    1  0.6493044E-004  0.1809801E+03  0.7546771E-02  0.1239826E+00
          1   -1    0    0  502    0 -0.00000000000E+00  0.00000000000E+00  0.69329667461E+03  0.69329667461E+03  0.00000000000E+00 0. -1.
          2   -1    0    0  503    0  0.00000000000E+00 -0.00000000000E+00 -0.22461748523E+04  0.22461748523E+04  0.00000000000E+00 0. -1.
         25    2    1    2    0    0 -0.18158226458E+03  0.13932623734E+03 -0.12059930422E+03  0.28732049296E+03  0.12499981710E+03 0.  0.
          4    1    3    3  501    0 -0.12289196194E+03  0.13208885733E+03 -0.35811651642E+02  0.18394017460E+03  0.12700000000E+01 0. -1.
         -4    1    3    3    0  501 -0.58690302645E+02  0.72373800106E+01 -0.84787652578E+02  0.10338031836E+03  0.12700000000E+01 0. -1.
          2    1    1    2  502    0  0.81694763757E+02  0.95158669406E+01  0.60320660332E+03  0.60878797001E+03  0.00000000000E+00 0. -1.
          1    1    1    2  503    0  0.99887500828E+02 -0.14884210428E+03 -0.20354854768E+04  0.20433630640E+04  0.00000000000E+00 0. -1.
<mgrwt>
<rscale>  0 0.12200447E+03</rscale>
<asrwt>0</asrwt>
<pdfrwt beam="2">  1        2 0.34556535E+00 0.18098012E+03</pdfrwt>
<pdfrwt beam="1">  1        1 0.10666103E+00 0.82247104E+02</pdfrwt>
<totfact> 0.23779547E+01</totfact>
</mgrwt>
</event>
<event>
 7    1  0.6493044E-004  0.2047242E+03  0.7546771E-02  0.1290899E+00
          1   -1    0    0  502    0 -0.00000000000E+00  0.00000000000E+00  0.21293125281E+03  0.21293125281E+03  0.00000000000E+00 0. -1.
          2   -1    0    0  503    0  0.00000000000E+00 -0.00000000000E+00 -0.17232204173E+04  0.17232204173E+04  0.00000000000E+00 0. -1.
         25    2    1    2    0    0 -0.16319575880E+03 -0.67403610203E+02 -0.88800085232E+02  0.23385096771E+03  0.12499887040E+03 0.  0.
          4    1    3    3  501    0 -0.58431482580E+02 -0.28086261517E+02 -0.10231413300E+03  0.12113162657E+03  0.12700000000E+01 0. -1.
         -4    1    3    3    0  501 -0.10476427622E+03 -0.39317348685E+02  0.13514047771E+02  0.11271934114E+03  0.12700000000E+01 0. -1.
          2    1    1    2  502    0  0.20680345553E+03  0.74602713557E+02  0.53811637445E+02  0.22633807990E+03  0.00000000000E+00 0. -1.
          1    1    1    2  503    0 -0.43607696725E+02 -0.71991033545E+01 -0.14753007167E+04  0.14759626225E+04  0.00000000000E+00 0. -1.
<mgrwt>
<rscale>  0 0.95123011E+02</rscale>
<asrwt>0</asrwt>
<pdfrwt beam="2">  1        2 0.26511083E+00 0.44197945E+02</pdfrwt>
<pdfrwt beam="1">  1        1 0.32758655E-01 0.20472416E+03</pdfrwt>
<totfact> 0.22677930E+02</totfact>
</mgrwt>
</event>
<event>
 7    1  0.6493044E-004  0.9871347E+02  0.7546771E-02  0.1314291E+00
          2   -1    0    0  503    0  0.00000000000E+00  0.00000000000E+00  0.16405638686E+04  0.16405638686E+04  0.00000000000E+00 0. -1.
         -2   -1    0    0    0  501 -0.00000000000E+00 -0.00000000000E+00 -0.67494701356E+03  0.67494701356E+03  0.00000000000E+00 0.  1.
         25    2    1    2    0    0  0.12403028599E+03  0.50159169391E+02  0.42657785277E+02  0.18799636709E+03  0.12499397298E+03 0.  0.
          4    1    3    3  502    0  0.85697587310E+01  0.59237706946E+02 -0.10115504883E+02  0.60716414815E+02  0.12700000000E+01 0. -1.
         -4    1    3    3    0  502  0.11546052726E+03 -0.90785375550E+01  0.52773290160E+02  0.12727995228E+03  0.12700000000E+01 0. -1.
          1    1    1    2  503    0 -0.96642006107E+02  0.18529493630E+02  0.15213714597E+04  0.15245504707E+04  0.00000000000E+00 0. -1.
         -1    1    1    2    0  501 -0.27388279879E+02 -0.68688663021E+02 -0.59841238993E+03  0.60296404431E+03  0.00000000000E+00 0.  1.
<mgrwt>
<rscale>  0 0.85437850E+02</rscale>
<asrwt>0</asrwt>
<pdfrwt beam="1">  1        2 0.25239444E+00 0.98713472E+02</pdfrwt>
<pdfrwt beam="2">  1       -2 0.10383800E+00 0.73947619E+02</pdfrwt>
<totfact> 0.10405535E+01</totfact>
</mgrwt>
</event>
<event>
 7    1  0.6493044E-004  0.1434568E+03  0.7546771E-02  0.1409432E+00
          1   -1    0    0  502    0 -0.00000000000E+00  0.00000000000E+00  0.58714549141E+03  0.58714549141E+03  0.00000000000E+00 0. -1.
          2   -1    0    0  503    0  0.00000000000E+00 -0.00000000000E+00 -0.40711748986E+03  0.40711748986E+03  0.00000000000E+00 0. -1.
         25    2    1    2    0    0 -0.16478666765E+03  0.54864488926E+01  0.16544434194E+03  0.26491750749E+03  0.12499883415E+03 0.  0.
          4    1    3    3  501    0  0.79076943826E+00  0.38014577956E+02  0.33893276854E+02  0.50951943725E+02  0.12700000000E+01 0.  1.
         -4    1    3    3    0  501 -0.16557743709E+03 -0.32528129063E+02  0.13155106508E+03  0.21396556377E+03  0.12700000000E+01 0.  1.
          2    1    1    2  502    0  0.22882767735E+02  0.97454283505E+00  0.35746807249E+03  0.35820105198E+03  0.00000000000E+00 0. -1.
          1    1    1    2  503    0  0.14190389992E+03 -0.64609917277E+01 -0.34288441288E+03  0.37114442179E+03  0.00000000000E+00 0. -1.
<mgrwt>
<rscale>  0 0.57320714E+02</rscale>
<asrwt>0</asrwt>
<pdfrwt beam="2">  1        2 0.62633460E-01 0.14345680E+03</pdfrwt>
<pdfrwt beam="1">  1        1 0.90330075E-01 0.22903510E+02</pdfrwt>
<totfact> 0.42065306E+02</totfact>
</mgrwt>
</event>
<event>
 7    1  0.6493044E-004  0.1149819E+03  0.7546771E-02  0.1372521E+00
          1   -1    0    0  502    0 -0.00000000000E+00  0.00000000000E+00  0.24133979664E+03  0.24133979664E+03  0.00000000000E+00 0. -1.
          2   -1    0    0  503    0  0.00000000000E+00 -0.00000000000E+00 -0.62935570907E+03  0.62935570907E+03  0.00000000000E+00 0. -1.
         25    2    1    2    0    0  0.10924744185E+03 -0.71614349840E+02 -0.14440038481E+03  0.23138690729E+03  0.12499924431E+03 0.  0.
          4    1    3    3  501    0  0.10037426142E+03 -0.54884382508E+02 -0.33978748141E+02  0.11934595102E+03  0.12700000000E+01 0. -1.
         -4    1    3    3    0  501  0.88731804235E+01 -0.16729967332E+02 -0.11042163667E+03  0.11204095627E+03  0.12700000000E+01 0. -1.
          2    1    1    2  502    0 -0.11401954544E+01  0.38410292772E+02  0.18863468227E+03  0.19250894523E+03  0.00000000000E+00 0. -1.
          1    1    1    2  503    0 -0.10810724639E+03  0.33204057068E+02 -0.43225020990E+03  0.44679965318E+03  0.00000000000E+00 0. -1.
<mgrwt>
<rscale>  0 0.66471303E+02</rscale>
<asrwt>0</asrwt>
<pdfrwt beam="2">  1        2 0.96823954E-01 0.11498191E+03</pdfrwt>
<pdfrwt beam="1">  1        1 0.37129200E-01 0.38427212E+02</pdfrwt>
<totfact> 0.75125673E+02</totfact>
</mgrwt>
</event>
<event>
 7    1  0.6493044E-004  0.1152417E+03  0.7546771E-02  0.1252962E+00
          2   -1    0    0  503    0  0.00000000000E+00  0.00000000000E+00  0.31869808839E+03  0.31869808839E+03  0.00000000000E+00 0. -1.
         -2   -1    0    0    0  501 -0.00000000000E+00 -0.00000000000E+00 -0.52495194017E+03  0.52495194017E+03  0.00000000000E+00 0.  1.
         25    2    1    2    0    0 -0.79219109081E+02  0.50046443861E+02 -0.34217276957E+03  0.37614803612E+03  0.12499930821E+03 0.  0.
          4    1    3    3  502    0 -0.78779106868E+02 -0.37547126147E+01 -0.29236523655E+03  0.30281890626E+03  0.12700000000E+01 0. -1.
         -4    1    3    3    0  502 -0.44000221328E+00  0.53801156476E+02 -0.49807533024E+02  0.73329129860E+02  0.12700000000E+01 0. -1.
          1    1    1    2  503    0 -0.71760233854E+02  0.87537952273E+02  0.21936707748E+03  0.24684881797E+03  0.00000000000E+00 0. -1.
         -1    1    1    2    0  501  0.15097934294E+03 -0.13758439613E+03 -0.83448159684E+02  0.22065317448E+03  0.00000000000E+00 0.  1.
<mgrwt>
<rscale>  0 0.11421227E+03</rscale>
<asrwt>0</asrwt>
<pdfrwt beam="1">  1        2 0.49030475E-01 0.11319198E+03</pdfrwt>
<pdfrwt beam="2">  1       -2 0.80761837E-01 0.11524175E+03</pdfrwt>
<totfact> 0.14636663E+02</totfact>
</mgrwt>
</event>
<event>
 7    1  0.6493044E-004  0.5027819E+02  0.7546771E-02  0.1495342E+00
          1   -1    0    0  502    0 -0.00000000000E+00  0.00000000000E+00  0.23696452886E+04  0.23696452886E+04  0.00000000000E+00 0. -1.
          2   -1    0    0  503    0  0.00000000000E+00 -0.00000000000E+00 -0.17090474564E+03  0.17090474564E+03  0.00000000000E+00 0. -1.
         25    2    1    2    0    0  0.68088467650E+02  0.18692073230E+02  0.88925722594E+01  0.14383370019E+03  0.12499448964E+03 0.  0.
          4    1    3    3  501    0  0.78314367904E+02 -0.32092284523E+01  0.52228917364E+02  0.94196136208E+02  0.12700000000E+01 0. -1.
         -4    1    3    3    0  501 -0.10225900254E+02  0.21901301683E+02 -0.43336345105E+02  0.49637563986E+02  0.12700000000E+01 0. -1.
          2    1    1    2  502    0 -0.36913308783E+02 -0.34061480947E+02  0.22900789930E+04  0.22906297324E+04  0.00000000000E+00 0. -1.
          1    1    1    2  503    0 -0.31175158867E+02  0.15369407716E+02 -0.10023102227E+03  0.10608660165E+03  0.00000000000E+00 0. -1.
<mgrwt>
<rscale>  0 0.41803858E+02</rscale>
<asrwt>0</asrwt>
<pdfrwt beam="2">  1        2 0.26293040E-01 0.34757866E+02</pdfrwt>
<pdfrwt beam="1">  1        1 0.36456079E+00 0.50278188E+02</pdfrwt>
<totfact> 0.64035322E+01</totfact>
</mgrwt>
</event>
<event>
 7    1  0.6493044E-004  0.6577227E+02  0.7546771E-02  0.1401855E+00
          2   -1    0    0  503    0  0.00000000000E+00  0.00000000000E+00  0.26114511596E+04  0.26114511596E+04  0.00000000000E+00 0. -1.
         -2   -1    0    0    0  501 -0.00000000000E+00 -0.00000000000E+00 -0.54653249441E+02  0.54653249441E+02  0.00000000000E+00 0.  1.
         25    2    1    2    0    0 -0.67093593016E+02 -0.70670725354E+02  0.41513668410E+03  0.44436352582E+03  0.12499829980E+03 0.  0.
          4    1    3    3  502    0  0.15313887349E+02 -0.51079808176E+02  0.64801220123E+02  0.83931358732E+02  0.12700000000E+01 0.  1.
         -4    1    3    3    0  502 -0.82407480365E+02 -0.19590917178E+02  0.35033546398E+03  0.36043216709E+03  0.12700000000E+01 0.  1.
          1    1    1    2  503    0  0.14563430923E+02  0.63495593411E+02  0.21634425451E+04  0.21644231171E+04  0.00000000000E+00 0. -1.
         -1    1    1    2    0  501  0.52530162093E+02  0.71751319429E+01 -0.21781319073E+02  0.57317766081E+02  0.00000000000E+00 0.  1.
<mgrwt>
<rscale>  0 0.59051749E+02</rscale>
<asrwt>0</asrwt>
<pdfrwt beam="1">  1        2 0.40176162E+00 0.65772266E+02</pdfrwt>
<pdfrwt beam="2">  1       -2 0.84081943E-02 0.53017926E+02</pdfrwt>
<totfact> 0.32940807E+02</totfact>
</mgrwt>
</event>
<event>
 7    1  0.6493044E-004  0.1266611E+03  0.7546771E-02  0.1365816E+00
         -2   -1    0    0    0  501 -0.00000000000E+00  0.00000000000E+00  0.27192922925E+03  0.27192922925E+03  0.00000000000E+00 0.  1.
          2   -1    0    0  503    0  0.00000000000E+00 -0.00000000000E+00 -0.27829164992E+04  0.27829164992E+04  0.00000000000E+00 0. -1.
         25    2    1    2    0    0 -0.96020412879E+02 -0.56934015006E+02 -0.83009745373E+03  0.84684502319E+03  0.12499323522E+03 0.  0.
          4    1    3    3  502    0 -0.63634217439E+02  0.10048592864E+02 -0.15789720717E+03  0.17053864307E+03  0.12700000000E+01 0.  1.
         -4    1    3    3    0  502 -0.32386195440E+02 -0.66982607869E+02 -0.67220024656E+03  0.67630638012E+03  0.12700000000E+01 0.  1.
          1    1    1    2  503    0  0.92273431588E+02  0.93620598034E+02 -0.19409211896E+04  0.19453673860E+04  0.00000000000E+00 0. -1.
         -1    1    1    2    0  501  0.37469812904E+01 -0.36686583028E+02  0.26003137334E+03  0.26263331922E+03  0.00000000000E+00 0.  1.
<mgrwt>
<rscale>  0 0.68344255E+02</rscale>
<asrwt>0</asrwt>
<pdfrwt beam="2">  1        2 0.42814099E+00 0.12666112E+03</pdfrwt>
<pdfrwt beam="1">  1       -2 0.41835267E-01 0.36877435E+02</pdfrwt>
<totfact> 0.16859571E+01</totfact>
</mgrwt>
</event>
<event>
 7    1  0.6493044E-004  0.4315904E+02  0.7546771E-02  0.1492181E+00
          1   -1    0    0  502    0 -0.00000000000E+00  0.00000000000E+00  0.16112839793E+04  0.16112839793E+04  0.00000000000E+00 0. -1.
          2   -1    0    0  503    0  0.00000000000E+00 -0.00000000000E+00 -0.23783977117E+03  0.23783977117E+03  0.00000000000E+00 0. -1.
         25    2    1    2    0    0 -0.67656757774E+02  0.30992405393E+01 -0.18369840081E+01  0.14218157245E+03  0.12500073147E+03 0.  0.
          4    1    3    3  501    0 -0.79994179077E+02  0.34960592120E+02  0.33030106808E+02  0.93348339799E+02  0.12700000000E+01 0.  1.
         -4    1    3    3    0  501  0.12337421302E+02 -0.31861351580E+02 -0.34867090816E+02  0.48833232649E+02  0.12700000000E+01 0.  1.
          2    1    1    2  502    0  0.34173806974E+02  0.23347714718E+02  0.15380841014E+04  0.15386408509E+04  0.00000000000E+00 0. -1.
          1    1    1    2  503    0  0.33482950801E+02 -0.26446955257E+02 -0.16280290931E+03  0.16830132714E+03  0.00000000000E+00 0. -1.
<mgrwt>
<rscale>  0 0.42264236E+02</rscale>
<asrwt>0</asrwt>
<pdfrwt beam="2">  1        2 0.36590735E-01 0.43159045E+02</pdfrwt>
<pdfrwt beam="1">  1        1 0.24788984E+00 0.41387980E+02</pdfrwt>
<totfact> 0.13702077E+02</totfact>
</mgrwt>
</event>
<event>
 7    1  0.6493044E-004  0.5262138E+02  0.7546771E-02  0.1527146E+00
          2   -1    0    0  503    0  0.00000000000E+00  0.00000000000E+00  0.97352729125E+03  0.97352729125E+03  0.00000000000E+00 0. -1.
          1   -1    0    0  502    0 -0.00000000000E+00 -0.00000000000E+00 -0.34436959784E+03  0.34436959784E+03  0.00000000000E+00 0. -1.
         25    2    1    2    0    0  0.61258226001E+01  0.32782723849E+02  0.20848511972E+03  0.24534607896E+03  0.12496567782E+03 0.  0.
          4    1    3    3  501    0  0.31723655209E+02  0.74133772402E+02  0.13310670199E+03  0.15563165978E+03  0.12700000000E+01 0.  1.
         -4    1    3    3    0  501 -0.25597832609E+02 -0.41351048552E+02  0.75378417726E+02  0.89714419184E+02  0.12700000000E+01 0.  1.
          2    1    1    2  502    0 -0.30954506051E+02 -0.42815647462E+02 -0.32355570404E+03  0.32784089850E+03  0.00000000000E+00 0. -1.
          1    1    1    2  503    0  0.24828683451E+02  0.10032923613E+02  0.74422827774E+03  0.74470991162E+03  0.00000000000E+00 0. -1.
<mgrwt>
<rscale>  0 0.37538726E+02</rscale>
<asrwt>0</asrwt>
<pdfrwt beam="1">  1        2 0.14977343E+00 0.26779154E+02</pdfrwt>
<pdfrwt beam="2">  1        1 0.52979938E-01 0.52621378E+02</pdfrwt>
<totfact> 0.31051335E+02</totfact>
</mgrwt>
</event>
<event>
 7    1  0.6493044E-004  0.8709844E+02  0.7546771E-02  0.1356371E+00
          2   -1    0    0  503    0  0.00000000000E+00  0.00000000000E+00  0.19233882870E+04  0.19233882870E+04  0.00000000000E+00 0. -1.
          1   -1    0    0  502    0 -0.00000000000E+00 -0.00000000000E+00 -0.13363434305E+04  0.13363434305E+04  0.00000000000E+00 0. -1.
         25    2    1    2    0    0 -0.13521109148E+03 -0.40891296470E+02 -0.61805669427E+02  0.19849079168E+03  0.12499806487E+03 0.  0.
          4    1    3    3  501    0 -0.49421448055E+02  0.34048680245E+02  0.14020349156E+02  0.61643939238E+02  0.12700000000E+01 0.  1.
         -4    1    3    3    0  501 -0.85789643423E+02 -0.74939976715E+02 -0.75826018583E+02  0.13684685244E+03  0.12700000000E+01 0.  1.
          2    1    1    2  502    0  0.77253191188E+02  0.37614912736E+02 -0.12042098892E+04  0.12072714668E+04  0.00000000000E+00 0. -1.
          1    1    1    2  503    0  0.57957900290E+02  0.32763837346E+01  0.18530604151E+04  0.18539694590E+04  0.00000000000E+00 0. -1.
<mgrwt>
<rscale>  0 0.71106274E+02</rscale>
<asrwt>0</asrwt>
<pdfrwt beam="1">  1        2 0.29590589E+00 0.58050434E+02</pdfrwt>
<pdfrwt beam="2">  1        1 0.20559130E+00 0.87098440E+02</pdfrwt>
<totfact> 0.13343262E+01</totfact>
</mgrwt>
</event>
<event>
 7    1  0.6493044E-004  0.1810361E+03  0.7546771E-02  0.1333470E+00
          1   -1    0    0  502    0 -0.00000000000E+00  0.00000000000E+00  0.32133444065E+03  0.32133444065E+03  0.00000000000E+00 0. -1.
          2   -1    0    0  503    0  0.00000000000E+00 -0.00000000000E+00 -0.13441046717E+04  0.13441046717E+04  0.00000000000E+00 0. -1.
         25    2    1    2    0    0 -0.95661407911E+02 -0.14953659605E+03  0.19419346259E+03  0.29128745690E+03  0.12499993244E+03 0.  0.
          4    1    3    3  501    0 -0.11112357129E+03 -0.15115575331E+03  0.20038627211E+03  0.27450460981E+03  0.12700000000E+01 0. -1.
         -4    1    3    3    0  501  0.15462163381E+02  0.16191572559E+01 -0.61928095226E+01  0.16782847089E+02  0.12700000000E+01 0. -1.
          2    1    1    2  502    0  0.74610330068E+02  0.17624469122E+03 -0.38529113822E+02  0.19522649704E+03  0.00000000000E+00 0. -1.
          1    1    1    2  503    0  0.21051077843E+02 -0.26708095166E+02 -0.11784345798E+04  0.11789251584E+04  0.00000000000E+00 0. -1.
<mgrwt>
<rscale>  0 0.78463235E+02</rscale>
<asrwt>0</asrwt>
<pdfrwt beam="2">  1        2 0.20678533E+00 0.34006914E+02</pdfrwt>
<pdfrwt beam="1">  1        1 0.49436068E-01 0.18103610E+03</pdfrwt>
<totfact> 0.21239778E+02</totfact>
</mgrwt>
</event>
<event>
 7    1  0.6493044E-004  0.7588310E+02  0.7546771E-02  0.1423406E+00
         -2   -1    0    0    0  501 -0.00000000000E+00  0.00000000000E+00  0.13403582841E+03  0.13403582841E+03  0.00000000000E+00 0.  1.
          2   -1    0    0  503    0  0.00000000000E+00 -0.00000000000E+00 -0.88321346549E+03  0.88321346549E+03  0.00000000000E+00 0. -1.
         25    2    1    2    0    0  0.46953088053E+02 -0.96204200375E+02 -0.30475652880E+01  0.16460165468E+03  0.12499830567E+03 0.  0.
          4    1    3    3  502    0  0.56038632919E+02  0.10339346588E+02 -0.79564673813E+01  0.57551270537E+02  0.12700000000E+01 0.  1.
         -4    1    3    3    0  502 -0.90855448663E+01 -0.10654354696E+03  0.49089020933E+01  0.10705038414E+03  0.12700000000E+01 0.  1.
          1    1    1    2  503    0 -0.15265671851E+02  0.73700141436E+02 -0.79026404927E+03  0.79384004633E+03  0.00000000000E+00 0. -1.
         -1    1    1    2    0  501 -0.31687416202E+02  0.22504058939E+02  0.44133977476E+02  0.58807592895E+02  0.00000000000E+00 0.  1.
<mgrwt>
<rscale>  0 0.54306838E+02</rscale>
<asrwt>0</asrwt>
<pdfrwt beam="2">  1        2 0.13587900E+00 0.75883100E+02</pdfrwt>
<pdfrwt beam="1">  1       -2 0.20620896E-01 0.38865473E+02</pdfrwt>
<totfact> 0.61227488E+02</totfact>
</mgrwt>
</event>
<event>
 7    1  0.6493044E-004  0.8245319E+02  0.7546771E-02  0.1381588E+00
         -2   -1    0    0    0  501 -0.00000000000E+00  0.00000000000E+00  0.54277645232E+02  0.54277645232E+02  0.00000000000E+00 0.  1.
          2   -1    0    0  503    0  0.00000000000E+00 -0.00000000000E+00 -0.13603028254E+04  0.13603028254E+04  0.00000000000E+00 0. -1.
         25    2    1    2    0    0  0.30756977254E+01 -0.11095997770E+03 -0.41358137285E+03  0.44607424927E+03  0.12494441696E+03 0.  0.
          4    1    3    3  502    0 -0.18953072551E+01 -0.13747674309E+02  0.61278520424E+01  0.15223475594E+02  0.12700000000E+01 0.  1.
         -4    1    3    3    0  502  0.49710049805E+01 -0.97212303386E+02 -0.41970922489E+03  0.43085077368E+03  0.12700000000E+01 0.  1.
          1    1    1    2  503    0  0.30493444663E+02  0.74240419216E+02 -0.91165010684E+03  0.91517616191E+03  0.00000000000E+00 0. -1.
         -1    1    1    2    0  501 -0.33569142388E+02  0.36719558479E+02  0.19206299555E+02  0.53330059424E+02  0.00000000000E+00 0.  1.
<mgrwt>
<rscale>  0 0.64048195E+02</rscale>
<asrwt>0</asrwt>
<pdfrwt beam="2">  1        2 0.20927733E+00 0.82453194E+02</pdfrwt>
<pdfrwt beam="1">  1       -2 0.83504081E-02 0.49751516E+02</pdfrwt>
<totfact> 0.13840335E+03</totfact>
</mgrwt>
</event>
<event>
 7    1  0.6493044E-004  0.6045029E+02  0.7546771E-02  0.1432953E+00
          2   -1    0    0  503    0  0.00000000000E+00  0.00000000000E+00  0.17358114151E+04  0.17358114151E+04  0.00000000000E+00 0. -1.
         -2   -1    0    0    0  501 -0.00000000000E+00 -0.00000000000E+00 -0.33288157416E+02  0.33288157416E+02  0.00000000000E+00 0.  1.
         25    2    1    2    0    0 -0.55381822362E+02 -0.22942109760E+02  0.28452743646E+03  0.31650296683E+03  0.12499911707E+03 0.  0.
          4    1    3    3  502    0 -0.82145309952E+02 -0.17207617787E+02  0.10277224467E+03  0.13269401355E+03  0.12700000000E+01 0.  1.
         -4    1    3    3    0  502  0.26763487590E+02 -0.57344919731E+01  0.18175519179E+03  0.18380895329E+03  0.12700000000E+01 0.  1.
          1    1    1    2  503    0  0.56895013059E+02 -0.22405524920E+02  0.14036909303E+04  0.14050221628E+04  0.00000000000E+00 0. -1.
         -1    1    1    2    0  501 -0.15131906966E+01  0.45347634681E+02  0.14304890971E+02  0.47574442959E+02  0.00000000000E+00 0.  1.
<mgrwt>
<rscale>  0 0.52371779E+02</rscale>
<asrwt>0</asrwt>
<pdfrwt beam="1">  1        2 0.26704784E+00 0.60450286E+02</pdfrwt>
<pdfrwt beam="2">  1       -2 0.51212563E-02 0.45372874E+02</pdfrwt>
<totfact> 0.18796418E+03</totfact>
</mgrwt>
</event>
<event>
 7    1  0.6493044E-004  0.1226953E+03  0.7546771E-02  0.1286795E+00
          2   -1    0    0  503    0  0.00000000000E+00  0.00000000000E+00  0.24562412800E+03  0.24562412800E+03  0.00000000000E+00 0. -1.
          1   -1    0    0  502    0 -0.00000000000E+00 -0.00000000000E+00 -0.61270823589E+03  0.61270823589E+03  0.00000000000E+00 0. -1.
         25    2    1    2    0    0 -0.72294726237E+02 -0.85027835479E+02  0.10918195017E+03  0.20000473930E+03  0.12499974900E+03 0.  0.
          4    1    3    3  501    0  0.23848757675E+00 -0.91733640227E+02  0.41985251920E+02  0.10089346810E+03  0.12700000000E+01 0. -1.
         -4    1    3    3    0  501 -0.72533213814E+02  0.67058047474E+01  0.67196698253E+02  0.99111271204E+02  0.12700000000E+01 0. -1.
          2    1    1    2  502    0  0.46263258878E+02 -0.61103808121E+02 -0.50188299145E+03  0.50770119322E+03  0.00000000000E+00 0. -1.
          1    1    1    2  503    0  0.26031467358E+02  0.14613164360E+03  0.25616933387E+02  0.15062643138E+03  0.00000000000E+00 0. -1.
<mgrwt>
<rscale>  0 0.96972116E+02</rscale>
<asrwt>0</asrwt>
<pdfrwt beam="1">  1        2 0.37788328E-01 0.12269535E+03</pdfrwt>
<pdfrwt beam="2">  1        1 0.94262805E-01 0.76641793E+02</pdfrwt>
<totfact> 0.65427750E+02</totfact>
</mgrwt>
</event>
<event>
 7    1  0.6493044E-004  0.1697726E+03  0.7546771E-02  0.1388391E+00
         -2   -1    0    0    0  501 -0.00000000000E+00  0.00000000000E+00  0.51282213914E+03  0.51282213914E+03  0.00000000000E+00 0.  1.
          2   -1    0    0  503    0  0.00000000000E+00 -0.00000000000E+00 -0.75826937178E+03  0.75826937178E+03  0.00000000000E+00 0. -1.
         25    2    1    2    0    0  0.14619123981E+03 -0.12082269059E+03 -0.58650426871E+01  0.22721834684E+03  0.12499510893E+03 0.  0.
          4    1    3    3  502    0  0.86892670131E+01 -0.65420562424E+02 -0.37093408345E+02  0.75715831843E+02  0.12700000000E+01 0.  1.
         -4    1    3    3    0  502  0.13750197279E+03 -0.55402128165E+02  0.31228365658E+02  0.15150251499E+03  0.12700000000E+01 0.  1.
          1    1    1    2  503    0 -0.18308373052E+02  0.13702186917E+02 -0.62420906655E+03  0.62462781335E+03  0.00000000000E+00 0. -1.
         -1    1    1    2    0  501 -0.12788286675E+03  0.10712050367E+03  0.38462687659E+03  0.41924535073E+03  0.00000000000E+00 0.  1.
<mgrwt>
<rscale>  0 0.62308620E+02</rscale>
<asrwt>0</asrwt>
<pdfrwt beam="2">  1        2 0.11665683E+00 0.22868022E+02</pdfrwt>
<pdfrwt beam="1">  1       -2 0.78895713E-01 0.16977262E+03</pdfrwt>
<totfact> 0.62178669E+01</totfact>
</mgrwt>
</event>
<event>
 7    1  0.6493044E-004  0.1530343E+03  0.7546771E-02  0.1388666E+00
          1   -1    0    0  502    0 -0.00000000000E+00  0.00000000000E+00  0.43401744298E+03  0.43401744298E+03  0.00000000000E+00 0. -1.
          2   -1    0    0  503    0  0.00000000000E+00 -0.00000000000E+00 -0.45809801979E+03  0.45809801979E+03  0.00000000000E+00 0. -1.
         25    2    1    2    0    0  0.11360680226E+03 -0.12126180009E+03  0.28522967445E+02  0.20987667302E+03  0.12499491399E+03 0.  0.
          4    1    3    3  501    0  0.57008012188E+02 -0.13622381576E+03  0.32408344098E+02  0.15119112111E+03  0.12700000000E+01 0.  1.
         -4    1    3    3    0  501  0.56598790074E+02  0.14962015674E+02 -0.38853766529E+01  0.58685551907E+02  0.12700000000E+01 0.  1.
          2    1    1    2  502    0  0.34124819670E+01  0.25082039337E+02  0.29864786835E+03  0.29971870646E+03  0.00000000000E+00 0. -1.
          1    1    1    2  503    0 -0.11701928423E+03  0.96179760754E+02 -0.35125141261E+03  0.38252008329E+03  0.00000000000E+00 0. -1.
<mgrwt>
<rscale>  0 0.62239665E+02</rscale>
<asrwt>0</asrwt>
<pdfrwt beam="2">  1        2 0.70476619E-01 0.15303435E+03</pdfrwt>
<pdfrwt beam="1">  1        1 0.66771914E-01 0.25313114E+02</pdfrwt>
<totfact> 0.53277016E+02</totfact>
</mgrwt>
</event>
<event>
 7    1  0.6493044E-004  0.3455783E+02  0.7546771E-02  0.1605380E+00
          1   -1    0    0  503    0  0.00000000000E+00  0.00000000000E+00  0.98039727492E+03  0.98039727492E+03  0.00000000000E+00 0. -1.
         -1   -1    0    0    0  501 -0.00000000000E+00 -0.00000000000E+00 -0.17759381324E+03  0.17759381324E+03  0.00000000000E+00 0.  1.
         25    2    1    2    0    0  0.39749635042E+01 -0.92709922901E+01  0.10356837228E+02  0.12583783486E+03  0.12500457981E+03 0.  0.
          4    1    3    3  502    0  0.44827024736E+02 -0.27793279617E+02 -0.33980753002E+02  0.62755342507E+02  0.12700000000E+01 0. -1.
         -4    1    3    3    0  502 -0.40852061232E+02  0.18522287327E+02  0.44337590230E+02  0.63082492358E+02  0.12700000000E+01 0. -1.
          2    1    1    2  503    0 -0.66612713432E+01  0.34053761556E+02  0.91066976932E+03  0.91133059861E+03  0.00000000000E+00 0. -1.
         -2    1    1    2    0  501  0.26863078390E+01 -0.24782769266E+02 -0.11822314487E+03  0.12082265469E+03  0.00000000000E+00 0.  1.
<mgrwt>
<rscale>  0 0.29350560E+02</rscale>
<asrwt>0</asrwt>
<pdfrwt beam="1">  1        1 0.15083035E+00 0.34557833E+02</pdfrwt>
<pdfrwt beam="2">  1       -1 0.27322126E-01 0.24927934E+02</pdfrwt>
<totfact> 0.21440637E+02</totfact>
</mgrwt>
</event>
<event>
 7    1  0.6493044E-004  0.1533235E+03  0.7546771E-02  0.1242636E+00
          1   -1    0    0  502    0 -0.00000000000E+00  0.00000000000E+00  0.20012750525E+03  0.20012750525E+03  0.00000000000E+00 0. -1.
          2   -1    0    0  503    0  0.00000000000E+00 -0.00000000000E+00 -0.73162587821E+03  0.73162587821E+03  0.00000000000E+00 0. -1.
         25    2    1    2    0    0 -0.28003059882E+02 -0.18617640879E+03 -0.80256270243E+02  0.23981568211E+03  0.12499866369E+03 0.  0.
          4    1    3    3  501    0  0.48390366379E+02 -0.85411892973E+02 -0.22121209157E+02  0.10063687105E+03  0.12700000000E+01 0. -1.
         -4    1    3    3    0  501 -0.76393426261E+02 -0.10076451581E+03 -0.58135061086E+02  0.13917881107E+03  0.12700000000E+01 0. -1.
          2    1    1    2  502    0  0.91729385898E+02  0.11658918357E+03  0.68713564732E+02  0.16348966922E+03  0.00000000000E+00 0. -1.
          1    1    1    2  503    0 -0.63726326016E+02  0.69587225218E+02 -0.51995566746E+03  0.52844803213E+03  0.00000000000E+00 0. -1.
<mgrwt>
<rscale>  0 0.12028008E+03</rscale>
<asrwt>0</asrwt>
<pdfrwt beam="2">  1        2 0.11255783E+00 0.94357970E+02</pdfrwt>
<pdfrwt beam="1">  1        1 0.30788847E-01 0.15332353E+03</pdfrwt>
<totfact> 0.81314284E+02</totfact>
</mgrwt>
</event>
<event>
 7    1  0.6493044E-004  0.6396603E+02  0.7546771E-02  0.1416347E+00
          2   -1    0    0  503    0  0.00000000000E+00  0.00000000000E+00  0.66752844227E+03  0.66752844227E+03  0.00000000000E+00 0. -1.
         -2   -1    0    0    0  501 -0.00000000000E+00 -0.00000000000E+00 -0.46457117738E+03  0.46457117738E+03  0.00000000000E+00 0.  1.
         25    2    1    2    0    0 -0.61937213741E+02 -0.93160150469E+02  0.24636879636E+03  0.29805744829E+03  0.12500250631E+03 0.  0.
          4    1    3    3  502    0 -0.49464199031E+02 -0.28534403818E+02  0.17246467641E+02  0.59665507064E+02  0.12700000000E+01 0.  1.
         -4    1    3    3    0  502 -0.12473014709E+02 -0.64625746650E+02  0.22912232872E+03  0.23839194123E+03  0.12700000000E+01 0.  1.
          1    1    1    2  503    0  0.30592770270E+02  0.37864270078E+02  0.39149783304E+03  0.39451257752E+03  0.00000000000E+00 0. -1.
         -1    1    1    2    0  501  0.31344443471E+02  0.55295880391E+02 -0.43490936451E+03  0.43952959384E+03  0.00000000000E+00 0.  1.
<mgrwt>
<rscale>  0 0.55801309E+02</rscale>
<asrwt>0</asrwt>
<pdfrwt beam="1">  1        2 0.10269668E+00 0.48678748E+02</pdfrwt>
<pdfrwt beam="2">  1       -2 0.71472489E-01 0.63966026E+02</pdfrwt>
<totfact> 0.87884242E+01</totfact>
</mgrwt>
</event>
<event>
 7    1  0.6493044E-004  0.7542482E+02  0.7546771E-02  0.1450977E+00
          2   -1    0    0  503    0  0.00000000000E+00  0.00000000000E+00  0.25078094572E+03  0.25078094572E+03  0.00000000000E+00 0. -1.
          1   -1    0    0  502    0 -0.00000000000E+00 -0.00000000000E+00 -0.44146110888E+03  0.44146110888E+03  0.00000000000E+00 0. -1.
         25    2    1    2    0    0  0.38181087144E+02  0.30378775253E+02 -0.17327468598E+01  0.13419322307E+03  0.12499661317E+03 0.  0.
          4    1    3    3  501    0  0.22679536085E+02 -0.36256844928E+02  0.36121514767E+02  0.55993721882E+02  0.12700000000E+01 0.  1.
         -4    1    3    3    0  501  0.15501551059E+02  0.66635620181E+02 -0.37854261627E+02  0.78199501184E+02  0.12700000000E+01 0.  1.
          2    1    1    2  502    0  0.14364997313E+02  0.28363904436E+02 -0.36435941392E+03  0.36574396336E+03  0.00000000000E+00 0. -1.
          1    1    1    2  503    0 -0.52546084456E+02 -0.58742679689E+02  0.17541199762E+03  0.19230486816E+03  0.00000000000E+00 0. -1.
<mgrwt>
<rscale>  0 0.48970027E+02</rscale>
<asrwt>0</asrwt>
<pdfrwt beam="1">  1        2 0.38581684E-01 0.75424817E+02</pdfrwt>
<pdfrwt beam="2">  1        1 0.67917093E-01 0.31794091E+02</pdfrwt>
<totfact> 0.98295650E+02</totfact>
</mgrwt>
</event>
<event>
 7    1  0.6493044E-004  0.9056767E+02  0.7546771E-02  0.1440947E+00
          1   -1    0    0  502    0 -0.00000000000E+00  0.00000000000E+00  0.15578167513E+04  0.15578167513E+04  0.00000000000E+00 0. -1.
          2   -1    0    0  503    0  0.00000000000E+00 -0.00000000000E+00 -0.56949213430E+02  0.56949213430E+02  0.00000000000E+00 0. -1.
         25    2    1    2    0    0 -0.77291244206E+02  0.49009762664E+02  0.79028866735E+03  0.80533146388E+03  0.12500678260E+03 0.  0.
          4    1    3    3  501    0 -0.10559891743E+02  0.51178172763E+02  0.11016290405E+03  0.12193520824E+03  0.12700000000E+01 0. -1.
         -4    1    3    3    0  501 -0.66731352463E+02 -0.21684100988E+01  0.68012576331E+03  0.68339625564E+03  0.12700000000E+01 0. -1.
          2    1    1    2  502    0  0.58374754945E+02 -0.70354847194E+02  0.75288359906E+03  0.75841356150E+03  0.00000000000E+00 0. -1.
          1    1    1    2  503    0  0.18916489261E+02  0.21345084530E+02 -0.42304728519E+02  0.51020939374E+02  0.00000000000E+00 0. -1.
<mgrwt>
<rscale>  0 0.50823996E+02</rscale>
<asrwt>0</asrwt>
<pdfrwt beam="2">  1        2 0.87614186E-02 0.28520978E+02</pdfrwt>
<pdfrwt beam="1">  1        1 0.23966408E+00 0.90567671E+02</pdfrwt>
<totfact> 0.63618305E+02</totfact>
</mgrwt>
</event>
<event>
 7    1  0.6493044E-004  0.5584312E+02  0.7546771E-02  0.1453982E+00
         -2   -1    0    0    0  501 -0.00000000000E+00  0.00000000000E+00  0.98035827013E+02  0.98035827013E+02  0.00000000000E+00 0.  1.
          2   -1    0    0  503    0  0.00000000000E+00 -0.00000000000E+00 -0.15459054782E+04  0.15459054782E+04  0.00000000000E+00 0. -1.
         25    2    1    2    0    0  0.79899521912E+02  0.27282676029E+01 -0.22044242048E+03  0.26572728572E+03  0.12499901032E+03 0.  0.
          4    1    3    3  502    0  0.11244396465E+03  0.13511140629E+02 -0.15680666559E+03  0.19343251893E+03  0.12700000000E+01 0. -1.
         -4    1    3    3    0  502 -0.32544442739E+02 -0.10782873026E+02 -0.63635754892E+02  0.72294766785E+02  0.12700000000E+01 0. -1.
          1    1    1    2  503    0 -0.47220160998E+02 -0.29120534782E+02 -0.12963299876E+04  0.12975165455E+04  0.00000000000E+00 0. -1.
         -1    1    1    2    0  501 -0.32679360914E+02  0.26392267179E+02  0.68902756899E+02  0.80697473968E+02  0.00000000000E+00 0.  1.
<mgrwt>
<rscale>  0 0.48432822E+02</rscale>
<asrwt>0</asrwt>
<pdfrwt beam="2">  1        2 0.23783160E+00 0.55843117E+02</pdfrwt>
<pdfrwt beam="1">  1       -2 0.15082435E-01 0.42005861E+02</pdfrwt>
<totfact> 0.45616063E+02</totfact>
</mgrwt>
</event>
<event>
 7    1  0.6493044E-004  0.8306295E+02  0.7546771E-02  0.1387804E+00
         -2   -1    0    0    0  501 -0.00000000000E+00  0.00000000000E+00  0.18055497984E+02  0.18055497984E+02  0.00000000000E+00 0.  1.
          2   -1    0    0  503    0  0.00000000000E+00 -0.00000000000E+00 -0.14593528318E+04  0.14593528318E+04  0.00000000000E+00 0. -1.
         25    2    1    2    0    0 -0.10396088901E+03  0.58628437406E+02 -0.83851119520E+03  0.85613707275E+03  0.12499801098E+03 0.  0.
          4    1    3    3  502    0 -0.11162140230E+03 -0.15661522136E+01 -0.51153890858E+03  0.52357946692E+03  0.12700000000E+01 0.  1.
         -4    1    3    3    0  502  0.76605132860E+01  0.60194589620E+02 -0.32697228662E+03  0.33255760584E+03  0.12700000000E+01 0.  1.
          1    1    1    2  503    0  0.65713953853E+02 -0.31378198864E+02 -0.52775467549E+03  0.53275502119E+03  0.00000000000E+00 0. -1.
         -1    1    1    2    0  501  0.38246935162E+02 -0.27250238542E+02 -0.75031463133E+02  0.88516235854E+02  0.00000000000E+00 0.  1.
<mgrwt>
<rscale>  0 0.62456221E+02</rscale>
<asrwt>0</asrwt>
<pdfrwt beam="2">  1        2 0.22451581E+00 0.83062954E+02</pdfrwt>
<pdfrwt beam="1">  1       -2 0.27777690E-02 0.46961724E+02</pdfrwt>
<totfact> 0.60803218E+03</totfact>
</mgrwt>
</event>
<event>
 7    1  0.6493044E-004  0.6741574E+02  0.7546771E-02  0.1375670E+00
          1   -1    0    0  502    0 -0.00000000000E+00  0.00000000000E+00  0.58979259856E+03  0.58979259856E+03  0.00000000000E+00 0. -1.
          2   -1    0    0  503    0  0.00000000000E+00 -0.00000000000E+00 -0.23702214339E+03  0.23702214339E+03  0.00000000000E+00 0. -1.
         25    2    1    2    0    0  0.38367229450E+02  0.81768429062E+02  0.29118034995E+03  0.32949601782E+03  0.12499403696E+03 0.  0.
          4    1    3    3  501    0  0.16092112540E+02  0.57940448019E+02  0.29069205836E+03  0.29684935118E+03  0.12700000000E+01 0. -1.
         -4    1    3    3    0  501  0.22275116909E+02  0.23827981043E+02  0.48829158898E+00  0.32646666638E+02  0.12700000000E+01 0. -1.
          2    1    1    2  502    0 -0.61191596158E+02 -0.18280458646E+02  0.27042120679E+03  0.27786006495E+03  0.00000000000E+00 0. -1.
          1    1    1    2  503    0  0.22824366708E+02 -0.63487970416E+02 -0.20883110158E+03  0.21945865918E+03  0.00000000000E+00 0. -1.
<mgrwt>
<rscale>  0 0.65615746E+02</rscale>
<asrwt>0</asrwt>
<pdfrwt beam="2">  1        2 0.36464945E-01 0.67415738E+02</pdfrwt>
<pdfrwt beam="1">  1        1 0.90737323E-01 0.63863813E+02</pdfrwt>
<totfact> 0.71231149E+02</totfact>
</mgrwt>
</event>
<event>
 7    1  0.6493044E-004  0.6122088E+02  0.7546771E-02  0.1492193E+00
          2   -1    0    0  503    0  0.00000000000E+00  0.00000000000E+00  0.13813578067E+04  0.13813578067E+04  0.00000000000E+00 0. -1.
         -2   -1    0    0    0  501 -0.00000000000E+00 -0.00000000000E+00 -0.84018089356E+02  0.84018089356E+02  0.00000000000E+00 0.  1.
         25    2    1    2    0    0 -0.47137908962E+02  0.14146596241E+02  0.16496555165E+03  0.21274425781E+03  0.12499750938E+03 0.  0.
          4    1    3    3  502    0  0.17756663227E+02  0.35845253814E+01  0.14189768280E+03  0.14305493069E+03  0.12700000000E+01 0.  1.
         -4    1    3    3    0  502 -0.64894572190E+02  0.10562070859E+02  0.23067868856E+02  0.69689327117E+02  0.12700000000E+01 0.  1.
          1    1    1    2  503    0  0.60693146408E+02  0.11688204431E+02  0.11881126756E+04  0.11897192955E+04  0.00000000000E+00 0. -1.
         -1    1    1    2    0  501 -0.13555237446E+02 -0.25834800671E+02 -0.55738509895E+02  0.62912342774E+02  0.00000000000E+00 0.  1.
<mgrwt>
<rscale>  0 0.42262514E+02</rscale>
<asrwt>0</asrwt>
<pdfrwt beam="1">  1        2 0.21251657E+00 0.61220883E+02</pdfrwt>
<pdfrwt beam="2">  1       -2 0.12925861E-01 0.29175013E+02</pdfrwt>
<totfact> 0.67785977E+02</totfact>
</mgrwt>
</event>
<event>
 7    1  0.6493044E-004  0.1321665E+03  0.7546771E-02  0.1282537E+00
          2   -1    0    0  503    0  0.00000000000E+00  0.00000000000E+00  0.15028311547E+04  0.15028311547E+04  0.00000000000E+00 0. -1.
          1   -1    0    0  502    0 -0.00000000000E+00 -0.00000000000E+00 -0.44267217781E+03  0.44267217781E+03  0.00000000000E+00 0. -1.
         25    2    1    2    0    0  0.13421741757E+02  0.20266842301E+03 -0.11190439337E+03  0.26344705164E+03  0.12500849142E+03 0.  0.
          4    1    3    3  501    0 -0.20465489902E+02  0.14727835409E+03 -0.18733900786E+02  0.14987435337E+03  0.12700000000E+01 0. -1.
         -4    1    3    3    0  501  0.33887231660E+02  0.55390068927E+02 -0.93170492583E+02  0.11357269828E+03  0.12700000000E+01 0. -1.
          2    1    1    2  502    0  0.88720337029E+01 -0.73536246637E+02 -0.24653337526E+03  0.25741988592E+03  0.00000000000E+00 0. -1.
          1    1    1    2  503    0 -0.22293775460E+02 -0.12913217638E+03  0.14185967455E+04  0.14246363949E+04  0.00000000000E+00 0. -1.
<mgrwt>
<rscale>  0 0.98941957E+02</rscale>
<asrwt>0</asrwt>
<pdfrwt beam="1">  1        2 0.23120479E+00 0.13216654E+03</pdfrwt>
<pdfrwt beam="2">  1        1 0.68103413E-01 0.74069512E+02</pdfrwt>
<totfact> 0.10715992E+02</totfact>
</mgrwt>
</event>
<event>
 7    1  0.6493044E-004  0.8172861E+02  0.7546771E-02  0.1368267E+00
          1   -1    0    0  502    0 -0.00000000000E+00  0.00000000000E+00  0.40951136755E+03  0.40951136755E+03  0.00000000000E+00 0. -1.
          2   -1    0    0  503    0  0.00000000000E+00 -0.00000000000E+00 -0.26184121116E+03  0.26184121116E+03  0.00000000000E+00 0. -1.
         25    2    1    2    0    0  0.83275882540E+02 -0.52467843546E+02  0.12551153080E+03  0.20264656871E+03  0.12499896090E+03 0.  0.
          4    1    3    3  501    0  0.80844005346E+00  0.70649398001E+00 -0.23863183299E+02  0.23921060308E+02  0.12700000000E+01 0. -1.
         -4    1    3    3    0  501  0.82467442486E+02 -0.53174337526E+02  0.14937471410E+03  0.17872550840E+03  0.12700000000E+01 0. -1.
          2    1    1    2  502    0 -0.16256720167E+01  0.55975120584E+02  0.23454554444E+03  0.24113786379E+03  0.00000000000E+00 0. -1.
          1    1    1    2  503    0 -0.81650210523E+02 -0.35072770375E+01 -0.21238691885E+03  0.22756814621E+03  0.00000000000E+00 0. -1.
<mgrwt>
<rscale>  0 0.67651296E+02</rscale>
<asrwt>0</asrwt>
<pdfrwt beam="2">  1        2 0.40283263E-01 0.81728611E+02</pdfrwt>
<pdfrwt beam="1">  1        1 0.63001749E-01 0.55998723E+02</pdfrwt>
<totfact> 0.10231972E+03</totfact>
</mgrwt>
</event>
<event>
 7    1  0.6493044E-004  0.2464774E+03  0.7546771E-02  0.1240147E+00
          2   -1    0    0  503    0  0.00000000000E+00  0.00000000000E+00  0.36634958372E+04  0.36634958372E+04  0.00000000000E+00 0. -1.
          1   -1    0    0  502    0 -0.00000000000E+00 -0.00000000000E+00 -0.18826576100E+04  0.18826576100E+04  0.00000000000E+00 0. -1.
         25    2    1    2    0    0 -0.29273590877E+02 -0.22609778325E+03 -0.14558851189E+03  0.29799424725E+03  0.12500962316E+03 0.  0.
          4    1    3    3  501    0  0.21426689920E+02 -0.20216056920E+03 -0.10536215991E+03  0.22897772036E+03  0.12700000000E+01 0. -1.
         -4    1    3    3    0  501 -0.50700280797E+02 -0.23937214049E+02 -0.40226351985E+02  0.69016526886E+02  0.12700000000E+01 0. -1.
          2    1    1    2  502    0  0.89070945911E+02  0.23300809687E+03 -0.16512450606E+04  0.16699810348E+04  0.00000000000E+00 0. -1.
          1    1    1    2  503    0 -0.59797355034E+02 -0.69103136203E+01  0.35776717996E+04  0.35781781652E+04  0.00000000000E+00 0. -1.
<mgrwt>
<rscale>  0 0.12180634E+03</rscale>
<asrwt>0</asrwt>
<pdfrwt beam="1">  1        2 0.56361474E+00 0.60195316E+02</pdfrwt>
<pdfrwt beam="2">  1        1 0.28963963E+00 0.24647738E+03</pdfrwt>
<totfact> 0.58902322E-01</totfact>
</mgrwt>
</event>
<event>
 7    1  0.6493044E-004  0.1697621E+03  0.7546771E-02  0.1217693E+00
          2   -1    0    0  503    0  0.00000000000E+00  0.00000000000E+00  0.74772974115E+03  0.74772974115E+03  0.00000000000E+00 0. -1.
          1   -1    0    0  502    0 -0.00000000000E+00 -0.00000000000E+00 -0.22706308851E+03  0.22706308851E+03  0.00000000000E+00 0. -1.
         25    2    1    2    0    0  0.14698924654E+03 -0.11157126898E+03  0.27149068439E+03  0.35126533022E+03  0.12500461530E+03 0.  0.
          4    1    3    3  501    0  0.42522580064E+02  0.17724430259E+02  0.21021492223E+02  0.50654133874E+02  0.12700000000E+01 0. -1.
         -4    1    3    3    0  501  0.10446666648E+03 -0.12929569924E+03  0.25046919216E+03  0.30061119635E+03  0.12700000000E+01 0. -1.
          2    1    1    2  502    0 -0.17183957365E+03  0.41616561126E+01 -0.13833336457E+03  0.22064060870E+03  0.00000000000E+00 0. -1.
          1    1    1    2  503    0  0.24850327113E+02  0.10740961287E+03  0.38750933283E+03  0.40288689073E+03  0.00000000000E+00 0. -1.
<mgrwt>
<rscale>  0 0.13680544E+03</rscale>
<asrwt>0</asrwt>
<pdfrwt beam="1">  1        2 0.11503534E+00 0.11024683E+03</pdfrwt>
<pdfrwt beam="2">  1        1 0.34932783E-01 0.16976206E+03</pdfrwt>
<totfact> 0.67411902E+02</totfact>
</mgrwt>
</event>
<event>
 7    1  0.6493044E-004  0.6807982E+02  0.7546771E-02  0.1424256E+00
         -2   -1    0    0    0  501 -0.00000000000E+00  0.00000000000E+00  0.55556675442E+03  0.55556675442E+03  0.00000000000E+00 0.  1.
          2   -1    0    0  503    0  0.00000000000E+00 -0.00000000000E+00 -0.84366670336E+03  0.84366670336E+03  0.00000000000E+00 0. -1.
         25    2    1    2    0    0 -0.42852104689E+00  0.53592785828E+02  0.16599158328E+03  0.21459410092E+03  0.12500020842E+03 0.  0.
          4    1    3    3  502    0  0.46810298045E+02  0.47916507419E+02  0.35774842231E+02  0.75951615670E+02  0.12700000000E+01 0.  1.
         -4    1    3    3    0  502 -0.47238819092E+02  0.56762784096E+01  0.13021674105E+03  0.13864248525E+03  0.12700000000E+01 0.  1.
          3    1    1    2  503    0  0.43457779414E+02 -0.52661583576E+02 -0.81666807523E+03  0.81951727625E+03  0.00000000000E+00 0. -1.
         -1    1    1    2    0  501 -0.43029258367E+02 -0.93120225237E+00  0.36257654301E+03  0.36512208062E+03  0.00000000000E+00 0.  1.
<mgrwt>
<rscale>  0 0.54130491E+02</rscale>
<asrwt>0</asrwt>
<pdfrwt beam="2">  1        2 0.12979488E+00 0.68079819E+02</pdfrwt>
<pdfrwt beam="1">  1       -2 0.85471809E-01 0.43039333E+02</pdfrwt>
<totfact> 0.45302569E+01</totfact>
</mgrwt>
</event>
<event>
 7    1  0.6493044E-004  0.5699165E+02  0.7546771E-02  0.1455316E+00
          1   -1    0    0  503    0  0.00000000000E+00  0.00000000000E+00  0.84815913901E+02  0.84815913901E+02  0.00000000000E+00 0. -1.
         -1   -1    0    0    0  501 -0.00000000000E+00 -0.00000000000E+00 -0.27397960441E+03  0.27397960441E+03  0.00000000000E+00 0.  1.
         25    2    1    2    0    0 -0.60642163875E+02 -0.14201309105E+02 -0.16897182616E+03  0.21921641525E+03  0.12500083784E+03 0.  0.
          4    1    3    3  502    0 -0.30423650375E+01  0.35879475747E+02 -0.12718501345E+03  0.13219014075E+03  0.12700000000E+01 0.  1.
         -4    1    3    3    0  502 -0.57599798837E+02 -0.50080784852E+02 -0.41786812709E+02  0.87026274503E+02  0.12700000000E+01 0.  1.
          2    1    1    2  503    0  0.51651501147E+02 -0.25554355981E+02  0.37637201909E+02  0.68829220887E+02  0.00000000000E+00 0. -1.
         -2    1    1    2    0  501  0.89906627281E+01  0.39755665087E+02 -0.57829066255E+02  0.70749882167E+02  0.00000000000E+00 0.  1.
<mgrwt>
<rscale>  0 0.48197063E+02</rscale>
<asrwt>0</asrwt>
<pdfrwt beam="1">  1        1 0.13048602E-01 0.56991652E+02</pdfrwt>
<pdfrwt beam="2">  1       -1 0.42150708E-01 0.40759599E+02</pdfrwt>
<totfact> 0.23186862E+03</totfact>
</mgrwt>
</event>
<event>
 7    1  0.6493044E-004  0.1252107E+03  0.7546771E-02  0.1315504E+00
          2   -1    0    0  503    0  0.00000000000E+00  0.00000000000E+00  0.18354672773E+04  0.18354672773E+04  0.00000000000E+00 0. -1.
         -2   -1    0    0    0  501 -0.00000000000E+00 -0.00000000000E+00 -0.48506095161E+03  0.48506095161E+03  0.00000000000E+00 0.  1.
         25    2    1    2    0    0  0.73629385765E+02  0.12901675556E+03 -0.20880021624E+03  0.28511232612E+03  0.12499959416E+03 0.  0.
          4    1    3    3  502    0  0.67123574479E+02  0.27458266156E+01 -0.82419713055E+02  0.10633783811E+03  0.12700000000E+01 0. -1.
         -4    1    3    3    0  502  0.65058112862E+01  0.12627092894E+03 -0.12638050319E+03  0.17877448801E+03  0.12700000000E+01 0. -1.
          3    1    1    2  503    0 -0.16178026365E+02 -0.12405106426E+03  0.17916063044E+04  0.17959686927E+04  0.00000000000E+00 0. -1.
         -1    1    1    2    0  501 -0.57451359400E+02 -0.49656912928E+01 -0.23239976253E+03  0.23944721007E+03  0.00000000000E+00 0.  1.
<mgrwt>
<rscale>  0 0.84972602E+02</rscale>
<asrwt>0</asrwt>
<pdfrwt beam="1">  1        2 0.28237958E+00 0.12521067E+03</pdfrwt>
<pdfrwt beam="2">  1       -2 0.74624763E-01 0.57665560E+02</pdfrwt>
<totfact> 0.16875231E+01</totfact>
</mgrwt>
</event>
<event>
 7    1  0.6493044E-004  0.1410578E+03  0.7546771E-02  0.1239442E+00
          1   -1    0    0  503    0  0.00000000000E+00  0.00000000000E+00  0.92633341123E+03  0.92633341123E+03  0.00000000000E+00 0. -1.
         -1   -1    0    0    0  501 -0.00000000000E+00 -0.00000000000E+00 -0.49295918393E+03  0.49295918393E+03  0.00000000000E+00 0.  1.
         25    2    1    2    0    0  0.68144982842E+02  0.13277414008E+03 -0.28480555353E+03  0.34497983488E+03  0.12499668871E+03 0.  0.
          4    1    3    3  502    0  0.26764777859E+02  0.14809726993E+03 -0.22251098868E+03  0.26862968503E+03  0.12700000000E+01 0. -1.
         -4    1    3    3    0  502  0.41380204983E+02 -0.15323129844E+02 -0.62294564845E+02  0.76350149849E+02  0.12700000000E+01 0. -1.
          2    1    1    2  503    0 -0.13289130529E+03 -0.48925146098E+02  0.87427179358E+03  0.88566638075E+03  0.00000000000E+00 0. -1.
         -2    1    1    2    0  501  0.64746322450E+02 -0.83848993984E+02 -0.15609201275E+03  0.18864637953E+03  0.00000000000E+00 0.  1.
<mgrwt>
<rscale>  0 0.12224280E+03</rscale>
<asrwt>0</asrwt>
<pdfrwt beam="1">  1        1 0.14251283E+00 0.14105780E+03</pdfrwt>
<pdfrwt beam="2">  1       -1 0.75839875E-01 0.10593743E+03</pdfrwt>
<totfact> 0.35931469E+01</totfact>
</mgrwt>
</event>
<event>
 7    1  0.6493044E-004  0.7466984E+02  0.7546771E-02  0.1473392E+00
          1   -1    0    0  502    0 -0.00000000000E+00  0.00000000000E+00  0.29478857820E+03  0.29478857820E+03  0.00000000000E+00 0. -1.
          2   -1    0    0  503    0  0.00000000000E+00 -0.00000000000E+00 -0.11217530128E+04  0.11217530128E+04  0.00000000000E+00 0. -1.
         25    2    1    2    0    0 -0.36942496268E+01 -0.99331802332E+02 -0.25504896213E+03  0.30092588174E+03  0.12500383506E+03 0.  0.
          4    1    3    3  501    0 -0.26657447057E+02 -0.11651468207E+03 -0.24088910565E+03  0.26891534866E+03  0.12700000000E+01 0.  1.
         -4    1    3    3    0  501  0.22963197430E+02  0.17182879740E+02 -0.14159856479E+02  0.32010533077E+02  0.12700000000E+01 0.  1.
          2    1    1    2  502    0 -0.49266758769E+01  0.26855349989E+02  0.26958086945E+03  0.27096001020E+03  0.00000000000E+00 0. -1.
          1    1    1    2  503    0  0.86209255037E+01  0.72476452343E+02 -0.84149634192E+03  0.84465569906E+03  0.00000000000E+00 0. -1.
<mgrwt>
<rscale>  0 0.45152509E+02</rscale>
<asrwt>0</asrwt>
<pdfrwt beam="2">  1        2 0.17257739E+00 0.74669838E+02</pdfrwt>
<pdfrwt beam="1">  1        1 0.45352088E-01 0.27303515E+02</pdfrwt>
<totfact> 0.29074623E+02</totfact>
</mgrwt>
</event>
<event>
 7    1  0.6493044E-004  0.1843074E+03  0.7546771E-02  0.1196923E+00
          2   -1    0    0  503    0  0.00000000000E+00  0.00000000000E+00  0.25792923901E+04  0.25792923901E+04  0.00000000000E+00 0. -1.
         -2   -1    0    0    0  501 -0.00000000000E+00 -0.00000000000E+00 -0.11131988958E+04  0.11131988958E+04  0.00000000000E+00 0.  1.
         25    2    1    2    0    0 -0.27978692644E+03 -0.10448048354E+03 -0.42163685901E+03  0.53160090455E+03  0.12499994078E+03 0.  0.
          4    1    3    3  502    0  0.28536213554E+01 -0.31797674056E+00 -0.63713660452E+02  0.63790968736E+02  0.12700000000E+01 0.  1.
         -4    1    3    3    0  502 -0.28264054779E+03 -0.10416250680E+03 -0.35792319856E+03  0.46780993581E+03  0.12700000000E+01 0.  1.
          1    1    1    2  503    0  0.15293381779E+03  0.10151370448E+03  0.25146085578E+04  0.25212992650E+04  0.00000000000E+00 0. -1.
         -1    1    1    2    0  501  0.12685310864E+03  0.29667790559E+01 -0.62687820441E+03  0.63959111635E+03  0.00000000000E+00 0.  1.
<mgrwt>
<rscale>  0 0.15292598E+03</rscale>
<asrwt>0</asrwt>
<pdfrwt beam="1">  1        2 0.39681421E+00 0.18430736E+03</pdfrwt>
<pdfrwt beam="2">  1       -2 0.17126137E+00 0.12688780E+03</pdfrwt>
<totfact> 0.90436978E-01</totfact>
</mgrwt>
</event>
<event>
 7    1  0.6493044E-004  0.4715381E+02  0.7546771E-02  0.1470787E+00
          1   -1    0    0  503    0  0.00000000000E+00  0.00000000000E+00  0.56007440744E+03  0.56007440744E+03  0.00000000000E+00 0. -1.
         -1   -1    0    0    0  501 -0.00000000000E+00 -0.00000000000E+00 -0.66093847818E+03  0.66093847818E+03  0.00000000000E+00 0.  1.
         25    2    1    2    0    0  0.22329895800E+02  0.33401395989E+02 -0.10686585618E+03  0.16929137734E+03  0.12499992689E+03 0.  0.
          4    1    3    3  502    0  0.18097016678E+02  0.55752223425E+02 -0.12636447234E+03  0.13930328495E+03  0.12700000000E+01 0.  1.
         -4    1    3    3    0  502  0.42328791220E+01 -0.22350827437E+02  0.19498616158E+02  0.29988092384E+02  0.12700000000E+01 0.  1.
          2    1    1    2  503    0  0.20753091069E+02 -0.42570983594E+02  0.52686990659E+03  0.52899421349E+03  0.00000000000E+00 0. -1.
         -2    1    1    2    0  501 -0.43082986869E+02  0.91695876048E+01 -0.52086812115E+03  0.52272729479E+03  0.00000000000E+00 0.  1.
<mgrwt>
<rscale>  0 0.45574451E+02</rscale>
<asrwt>0</asrwt>
<pdfrwt beam="1">  1        1 0.86165293E-01 0.47153814E+02</pdfrwt>
<pdfrwt beam="2">  1       -1 0.10168284E+00 0.44047986E+02</pdfrwt>
<totfact> 0.43355425E+01</totfact>
</mgrwt>
</event>
<event>
 7    1  0.6493044E-004  0.9683961E+02  0.7546771E-02  0.1453903E+00
          2   -1    0    0  503    0  0.00000000000E+00  0.00000000000E+00  0.22447086055E+04  0.22447086055E+04  0.00000000000E+00 0. -1.
          1   -1    0    0  502    0 -0.00000000000E+00 -0.00000000000E+00 -0.16865798377E+02  0.16865798377E+02  0.00000000000E+00 0. -1.
         25    2    1    2    0    0 -0.19580336847E+02  0.10367800679E+03  0.96533619918E+03  0.97909709807E+03  0.12499852527E+03 0.  0.
          4    1    3    3  501    0 -0.37980272594E+02  0.10798645174E+03  0.94250721173E+03  0.94943405876E+03  0.12700000000E+01 0. -1.
         -4    1    3    3    0  501  0.18399935747E+02 -0.43084449437E+01  0.22828987451E+02  0.29663039315E+02  0.12700000000E+01 0. -1.
          2    1    1    2  502    0 -0.31289245845E+01 -0.95209127153E+02  0.22060521398E+03  0.24029404590E+03  0.00000000000E+00 0. -1.
          1    1    1    2  503    0  0.22709261432E+02 -0.84688796401E+01  0.10419013940E+04  0.10421832599E+04  0.00000000000E+00 0. -1.
<mgrwt>
<rscale>  0 0.48446902E+02</rscale>
<asrwt>0</asrwt>
<pdfrwt beam="1">  1        2 0.34533955E+00 0.24237006E+02</pdfrwt>
<pdfrwt beam="2">  1        1 0.25947400E-02 0.96839614E+02</pdfrwt>
<totfact> 0.37939837E+03</totfact>
</mgrwt>
</event>
<event>
 7    1  0.6493044E-004  0.4499339E+02  0.7546771E-02  0.1495541E+00
          2   -1    0    0  503    0  0.00000000000E+00  0.00000000000E+00  0.68813599745E+03  0.68813599745E+03  0.00000000000E+00 0. -1.
         -2   -1    0    0    0  501 -0.00000000000E+00 -0.00000000000E+00 -0.19348389469E+02  0.19348389469E+02  0.00000000000E+00 0.  1.
         25    2    1    2    0    0 -0.15387309022E+02  0.18529040500E+02  0.46496488833E+03  0.48207551925E+03  0.12499745699E+03 0.  0.
          4    1    3    3  502    0  0.30348374119E+02  0.28253655252E+02  0.39932770091E+03  0.40147667237E+03  0.12700000000E+01 0. -1.
         -4    1    3    3    0  502 -0.45735683141E+02 -0.97246147521E+01  0.65637187426E+02  0.80598846876E+02  0.12700000000E+01 0. -1.
          1    1    1    2  503    0  0.24145357724E+02  0.30355088005E+02  0.13551074723E+03  0.14095244688E+03  0.00000000000E+00 0. -1.
         -1    1    1    2    0  501 -0.87580487020E+01 -0.48884128505E+02  0.68311972416E+02  0.84456420787E+02  0.00000000000E+00 0.  1.
<mgrwt>
<rscale>  0 0.41775086E+02</rscale>
<asrwt>0</asrwt>
<pdfrwt beam="1">  1        2 0.10586706E+00 0.38786978E+02</pdfrwt>
<pdfrwt beam="2">  1       -2 0.29766758E-02 0.44993395E+02</pdfrwt>
<totfact> 0.15747372E+04</totfact>
</mgrwt>
</event>
<event>
 7    1  0.6493044E-004  0.9225581E+02  0.7546771E-02  0.1439043E+00
          2   -1    0    0  503    0  0.00000000000E+00  0.00000000000E+00  0.20690553394E+04  0.20690553394E+04  0.00000000000E+00 0. -1.
         -2   -1    0    0    0  501 -0.00000000000E+00 -0.00000000000E+00 -0.19912730523E+03  0.19912730523E+03  0.00000000000E+00 0.  1.
         25    2    1    2    0    0  0.21114078981E+02 -0.10997925281E+03  0.98129865427E+02  0.19441876136E+03  0.12501177505E+03 0.  0.
          4    1    3    3  502    0  0.15202247698E+02 -0.13471282872E+03  0.10062302670E+03  0.16883501106E+03  0.12700000000E+01 0.  1.
         -4    1    3    3    0  502  0.59118312837E+01  0.24733575912E+02 -0.24931612705E+01  0.25583750304E+02  0.12700000000E+01 0.  1.
          1    1    1    2  503    0 -0.34708893443E+02  0.85044198729E+02  0.19203379263E+04  0.19225334781E+04  0.00000000000E+00 0. -1.
         -1    1    1    2    0  501  0.13594814461E+02  0.24935054083E+02 -0.14853975753E+03  0.15123040524E+03  0.00000000000E+00 0.  1.
<mgrwt>
<rscale>  0 0.51186824E+02</rscale>
<asrwt>0</asrwt>
<pdfrwt beam="1">  1        2 0.31831619E+00 0.92255813E+02</pdfrwt>
<pdfrwt beam="2">  1       -2 0.30634971E-01 0.28400280E+02</pdfrwt>
<totfact> 0.72331622E+01</totfact>
</mgrwt>
</event>
<event>
 7    1  0.6493044E-004  0.4289474E+02  0.7546771E-02  0.1518887E+00
          2   -1    0    0  503    0  0.00000000000E+00  0.00000000000E+00  0.19300210166E+04  0.19300210166E+04  0.00000000000E+00 0. -1.
         -2   -1    0    0    0  501 -0.00000000000E+00 -0.00000000000E+00 -0.33797337295E+03  0.33797337295E+03  0.00000000000E+00 0.  1.
         25    2    1    2    0    0 -0.42786442771E+02  0.48089013809E+02  0.35665995083E+03  0.38335454532E+03  0.12494460355E+03 0.  0.
          4    1    3    3  502    0 -0.28592709572E+02  0.69625524734E+02  0.98830380817E+02  0.12423491380E+03  0.12700000000E+01 0.  1.
         -4    1    3    3    0  502 -0.14193733199E+02 -0.21536510924E+02  0.25782957001E+03  0.25911963151E+03  0.12700000000E+01 0.  1.
          1    1    1    2  503    0  0.21046704784E+01 -0.34645261076E+02  0.15584059532E+04  0.15587924296E+04  0.00000000000E+00 0. -1.
         -1    1    1    2    0  501  0.40681772292E+02 -0.13443752733E+02 -0.32301826036E+03  0.32584741461E+03  0.00000000000E+00 0.  1.
<mgrwt>
<rscale>  0 0.38585477E+02</rscale>
<asrwt>0</asrwt>
<pdfrwt beam="1">  1        2 0.29692630E+00 0.34709131E+02</pdfrwt>
<pdfrwt beam="2">  1       -2 0.51995905E-01 0.42894737E+02</pdfrwt>
<totfact> 0.36263773E+01</totfact>
</mgrwt>
</event>
<event>
 7    1  0.6493044E-004  0.1208485E+03  0.7546771E-02  0.1271453E+00
          2   -1    0    0  503    0  0.00000000000E+00  0.00000000000E+00  0.59659420297E+03  0.59659420297E+03  0.00000000000E+00 0. -1.
          1   -1    0    0  502    0 -0.00000000000E+00 -0.00000000000E+00 -0.49549952157E+03  0.49549952157E+03  0.00000000000E+00 0. -1.
         25    2    1    2    0    0  0.20350897490E+03 -0.44624624868E+02  0.28373330616E+03  0.37354564904E+03  0.12499801151E+03 0.  0.
          4    1    3    3  501    0  0.18755377283E+03 -0.17972446870E+01  0.17902114722E+03  0.25928716097E+03  0.12700000000E+01 0.  1.
         -4    1    3    3    0  501  0.15955202071E+02 -0.42827380181E+02  0.10471215893E+03  0.11425848806E+03  0.12700000000E+01 0.  1.
          2    1    1    2  502    0 -0.11432726222E+03  0.32059577984E+02 -0.43483391587E+03  0.45075389496E+03  0.00000000000E+00 0. -1.
          1    1    1    2  503    0 -0.89181712682E+02  0.12565046884E+02  0.25219529111E+03  0.26779418055E+03  0.00000000000E+00 0. -1.
<mgrwt>
<rscale>  0 0.10432603E+03</rscale>
<asrwt>0</asrwt>
<pdfrwt beam="1">  1        2 0.91783724E-01 0.90062524E+02</pdfrwt>
<pdfrwt beam="2">  1        1 0.76230695E-01 0.12084849E+03</pdfrwt>
<totfact> 0.33156844E+02</totfact>
</mgrwt>
</event>
<event>
 7    1  0.6493044E-004  0.1312586E+03  0.7546771E-02  0.1423519E+00
          2   -1    0    0  503    0  0.00000000000E+00  0.00000000000E+00  0.31763134824E+04  0.31763134824E+04  0.00000000000E+00 0. -1.
          1   -1    0    0  502    0 -0.00000000000E+00 -0.00000000000E+00 -0.20763323603E+02  0.20763323603E+02  0.00000000000E+00 0. -1.
         25    2    1    2    0    0  0.10139525059E+03 -0.75826628573E+02  0.11076311999E+04  0.11218296688E+04  0.12499702550E+03 0.  0.
          4    1    3    3  501    0  0.42019670670E+01 -0.62013592586E+02  0.21477037394E+03  0.22358727293E+03  0.12700000000E+01 0.  1.
         -4    1    3    3    0  501  0.97193283520E+02 -0.13813035987E+02  0.89286082596E+03  0.89824239588E+03  0.12700000000E+01 0.  1.
          2    1    1    2  502    0  0.16873299126E+02  0.14807737725E+02 -0.55354988793E+00  0.22456262766E+02  0.00000000000E+00 0. -1.
          1    1    1    2  503    0 -0.11826854971E+03  0.61018890848E+02  0.20484725088E+04  0.20527908744E+04  0.00000000000E+00 0. -1.
<mgrwt>
<rscale>  0 0.54283345E+02</rscale>
<asrwt>0</asrwt>
<pdfrwt beam="1">  1        2 0.48866323E+00 0.13125858E+03</pdfrwt>
<pdfrwt beam="2">  1        1 0.31943600E-02 0.22449439E+02</pdfrwt>
<totfact> 0.57435373E+02</totfact>
</mgrwt>
</event>
<event>
 7    1  0.6493044E-004  0.8944931E+02  0.7546771E-02  0.1383916E+00
          2   -1    0    0  503    0  0.00000000000E+00  0.00000000000E+00  0.61716310359E+03  0.61716310359E+03  0.00000000000E+00 0. -1.
         -2   -1    0    0    0  501 -0.00000000000E+00 -0.00000000000E+00 -0.39039147520E+02  0.39039147520E+02  0.00000000000E+00 0.  1.
         25    2    1    2    0    0 -0.87988611828E+02 -0.73181676519E+02  0.31046142658E+03  0.35370438547E+03  0.12499176499E+03 0.  0.
          4    1    3    3  502    0 -0.65435931712E+02 -0.25698197845E+02  0.28811483243E+03  0.29657044374E+03  0.12700000000E+01 0. -1.
         -4    1    3    3    0  502 -0.22552680115E+02 -0.47483478675E+02  0.22346594149E+02  0.57133941729E+02  0.12700000000E+01 0. -1.
          1    1    1    2  503    0  0.11472149689E+02  0.43514629604E+02  0.16521020061E+03  0.17122950562E+03  0.00000000000E+00 0. -1.
         -1    1    1    2    0  501  0.76516462138E+02  0.29667046915E+02  0.10245232887E+03  0.13126836002E+03  0.00000000000E+00 0.  1.
<mgrwt>
<rscale>  0 0.63445656E+02</rscale>
<asrwt>0</asrwt>
<pdfrwt beam="1">  1        2 0.94948163E-01 0.45001480E+02</pdfrwt>
<pdfrwt beam="2">  1       -2 0.60060232E-02 0.89449308E+02</pdfrwt>
<totfact> 0.68699387E+03</totfact>
</mgrwt>
</event>
<event>
 7    1  0.6493044E-004  0.1155410E+03  0.7546771E-02  0.1283475E+00
         -2   -1    0    0    0  501 -0.00000000000E+00  0.00000000000E+00  0.73759204928E+02  0.73759204928E+02  0.00000000000E+00 0.  1.
          2   -1    0    0  503    0  0.00000000000E+00 -0.00000000000E+00 -0.17109142360E+04  0.17109142360E+04  0.00000000000E+00 0. -1.
         25    2    1    2    0    0 -0.20604514402E+02  0.18009812311E+03 -0.57117148736E+03  0.61214554358E+03  0.12500167438E+03 0.  0.
          4    1    3    3  502    0 -0.73089638431E+02  0.11663749891E+03 -0.36920206582E+03  0.39402814582E+03  0.12700000000E+01 0.  1.
         -4    1    3    3    0  502  0.52485124029E+02  0.63460624195E+02 -0.20196942154E+03  0.21811739776E+03  0.12700000000E+01 0.  1.
          1    1    1    2  503    0 -0.19054176032E+02 -0.10607470831E+03 -0.10817309395E+04  0.10870863493E+04  0.00000000000E+00 0. -1.
         -1    1    1    2    0  501  0.39658690434E+02 -0.74023414801E+02  0.15747395747E+02  0.85441548081E+02  0.00000000000E+00 0.  1.
<mgrwt>
<rscale>  0 0.98503228E+02</rscale>
<asrwt>0</asrwt>
<pdfrwt beam="2">  1        2 0.26321757E+00 0.11554103E+03</pdfrwt>
<pdfrwt beam="1">  1       -2 0.11347570E-01 0.83977840E+02</pdfrwt>
<totfact> 0.57849013E+02</totfact>
</mgrwt>
</event>
<event>
 7    1  0.6493044E-004  0.6009351E+02  0.7546771E-02  0.1545151E+00
          1   -1    0    0  502    0 -0.00000000000E+00  0.00000000000E+00  0.21617172211E+04  0.21617172211E+04  0.00000000000E+00 0. -1.
          2   -1    0    0  503    0  0.00000000000E+00 -0.00000000000E+00 -0.40456006604E+02  0.40456006604E+02  0.00000000000E+00 0. -1.
         25    2    1    2    0    0 -0.27114877284E+02 -0.32709427110E+02  0.35439231616E+03  0.37818461212E+03  0.12499825557E+03 0.  0.
          4    1    3    3  501    0  0.12148979557E+02  0.31536082286E+01 -0.59422425204E+01  0.13945110086E+02  0.12700000000E+01 0.  1.
         -4    1    3    3    0  501 -0.39263856841E+02 -0.35863035339E+02  0.36033455869E+03  0.36423950203E+03  0.12700000000E+01 0.  1.
          2    1    1    2  502    0  0.47116382510E+02  0.38573816990E+02  0.17910381867E+04  0.17920730116E+04  0.00000000000E+00 0. -1.
          1    1    1    2  503    0 -0.20001505226E+02 -0.58643898803E+01 -0.24169288319E+02  0.31915603987E+02  0.00000000000E+00 0. -1.
<mgrwt>
<rscale>  0 0.35391506E+02</rscale>
<asrwt>0</asrwt>
<pdfrwt beam="2">  1        2 0.62240027E-02 0.20843495E+02</pdfrwt>
<pdfrwt beam="1">  1        1 0.33257179E+00 0.60093505E+02</pdfrwt>
<totfact> 0.40746503E+02</totfact>
</mgrwt>
</event>
<event>
 7    1  0.6493044E-004  0.4269593E+02  0.7546771E-02  0.1553434E+00
          2   -1    0    0  503    0  0.00000000000E+00  0.00000000000E+00  0.20454907697E+03  0.20454907697E+03  0.00000000000E+00 0. -1.
          1   -1    0    0  502    0 -0.00000000000E+00 -0.00000000000E+00 -0.11829300059E+04  0.11829300059E+04  0.00000000000E+00 0. -1.
         25    2    1    2    0    0 -0.50306885439E+01 -0.60720747245E+02 -0.31817541101E+03  0.34723670421E+03  0.12500167842E+03 0.  0.
          4    1    3    3  501    0  0.16200279523E+02 -0.13634444647E+02 -0.28510336757E+03  0.28589139588E+03  0.12700000000E+01 0.  1.
         -4    1    3    3    0  501 -0.21230968066E+02 -0.47086302598E+02 -0.33072043444E+02  0.61345308337E+02  0.12700000000E+01 0.  1.
          2    1    1    2  502    0  0.18874758813E+02  0.20431450420E+02 -0.84760516152E+03  0.84806144265E+03  0.00000000000E+00 0. -1.
          1    1    1    2  503    0 -0.13844070269E+02  0.40289296824E+02  0.18739964363E+03  0.19218093598E+03  0.00000000000E+00 0. -1.
<mgrwt>
<rscale>  0 0.34461681E+02</rscale>
<asrwt>0</asrwt>
<pdfrwt beam="1">  1        2 0.31469088E-01 0.42695925E+02</pdfrwt>
<pdfrwt beam="2">  1        1 0.18198923E+00 0.27815476E+02</pdfrwt>
<totfact> 0.30712248E+02</totfact>
</mgrwt>
</event>
<event>
 7    1  0.6493044E-004  0.1044389E+03  0.7546771E-02  0.1299488E+00
          1   -1    0    0  502    0 -0.00000000000E+00  0.00000000000E+00  0.22753116090E+03  0.22753116090E+03  0.00000000000E+00 0. -1.
          2   -1    0    0  503    0  0.00000000000E+00 -0.00000000000E+00 -0.20861470336E+04  0.20861470336E+04  0.00000000000E+00 0. -1.
         25    2    1    2    0    0 -0.17507034501E+03  0.35390965576E+02 -0.53822794938E+02  0.22456855167E+03  0.12502797687E+03 0.  0.
          4    1    3    3  501    0 -0.63290509958E+02  0.57447560471E+02 -0.68687433932E+02  0.10966078303E+03  0.12700000000E+01 0. -1.
         -4    1    3    3    0  501 -0.11177983505E+03 -0.22056594895E+02  0.14864638995E+02  0.11490776864E+03  0.12700000000E+01 0. -1.
          2    1    1    2  502    0  0.71773547862E+02 -0.35324768355E+02  0.12941615268E+03  0.15214408305E+03  0.00000000000E+00 0. -1.
          1    1    1    2  503    0  0.10329679714E+03 -0.66197221620E-01 -0.19342092305E+04  0.19369655598E+04  0.00000000000E+00 0. -1.
<mgrwt>
<rscale>  0 0.91403739E+02</rscale>
<asrwt>0</asrwt>
<pdfrwt beam="2">  1        2 0.32094569E+00 0.10443891E+03</pdfrwt>
<pdfrwt beam="1">  1        1 0.35004795E-01 0.79995509E+02</pdfrwt>
<totfact> 0.12462524E+02</totfact>
</mgrwt>
</event>
<event>
 7    1  0.6493044E-004  0.1452092E+03  0.7546771E-02  0.1279969E+00
          2   -1    0    0  503    0  0.00000000000E+00  0.00000000000E+00  0.84475671810E+03  0.84475671810E+03  0.00000000000E+00 0. -1.
         -2   -1    0    0    0  501 -0.00000000000E+00 -0.00000000000E+00 -0.76120272145E+03  0.76120272145E+03  0.00000000000E+00 0.  1.
         25    2    1    2    0    0  0.79965813533E+02 -0.10980246937E+03  0.33982922389E+03  0.38672970796E+03  0.12499940799E+03 0.  0.
          4    1    3    3  502    0  0.55983639928E+02 -0.11426709980E+03  0.33921183440E+03  0.36229465843E+03  0.12700000000E+01 0.  1.
         -4    1    3    3    0  502  0.23982173605E+02  0.44646304258E+01  0.61738949151E+00  0.24435049529E+02  0.12700000000E+01 0.  1.
          3    1    1    2  503    0 -0.26241434251E+02  0.15322848234E+03  0.46724036861E+03  0.49242374306E+03  0.00000000000E+00 0. -1.
         -1    1    1    2    0  501 -0.53724379283E+02 -0.43426012964E+02 -0.72351559585E+03  0.72680598853E+03  0.00000000000E+00 0.  1.
<mgrwt>
<rscale>  0 0.10015557E+03</rscale>
<asrwt>0</asrwt>
<pdfrwt beam="1">  1        2 0.12996257E+00 0.14520923E+03</pdfrwt>
<pdfrwt beam="2">  1       -2 0.11710811E+00 0.69080587E+02</pdfrwt>
<totfact> 0.21280090E+01</totfact>
</mgrwt>
</event>
<event>
 7    1  0.6493044E-004  0.5778336E+02  0.7546771E-02  0.1451847E+00
          1   -1    0    0  502    0 -0.00000000000E+00  0.00000000000E+00  0.42650900367E+03  0.42650900367E+03  0.00000000000E+00 0. -1.
          2   -1    0    0  503    0  0.00000000000E+00 -0.00000000000E+00 -0.73943566606E+03  0.73943566606E+03  0.00000000000E+00 0. -1.
         25    2    1    2    0    0  0.27459488368E+02 -0.11603396968E+02  0.11399523721E+03  0.17177639820E+03  0.12499421806E+03 0.  0.
          4    1    3    3  501    0  0.13792115990E+02  0.29410417636E+02 -0.14942503395E+02  0.35778295609E+02  0.12700000000E+01 0. -1.
         -4    1    3    3    0  501  0.13667372378E+02 -0.41013814603E+02  0.12893774060E+03  0.13599810259E+03  0.12700000000E+01 0. -1.
          2    1    1    2  502    0 -0.60144728366E+02 -0.13538378288E+02  0.27966483480E+03  0.28637928672E+03  0.00000000000E+00 0. -1.
          1    1    1    2  503    0  0.32685239998E+02  0.25141775256E+02 -0.70658673441E+03  0.70778898481E+03  0.00000000000E+00 0. -1.
<mgrwt>
<rscale>  0 0.48813657E+02</rscale>
<asrwt>0</asrwt>
<pdfrwt beam="2">  1        2 0.11375933E+00 0.41236316E+02</pdfrwt>
<pdfrwt beam="1">  1        1 0.65616769E-01 0.57783365E+02</pdfrwt>
<totfact> 0.32570444E+02</totfact>
</mgrwt>
</event>
<event>
 7    1  0.6493044E-004  0.6107713E+02  0.7546771E-02  0.1519265E+00
          1   -1    0    0  502    0 -0.00000000000E+00  0.00000000000E+00  0.21085504060E+03  0.21085504060E+03  0.00000000000E+00 0. -1.
          2   -1    0    0  503    0  0.00000000000E+00 -0.00000000000E+00 -0.24627553016E+03  0.24627553016E+03  0.00000000000E+00 0. -1.
         25    2    1    2    0    0 -0.19803372714E+02  0.33675846407E+02  0.18498222981E+02  0.13226829178E+03  0.12500592208E+03 0.  0.
          4    1    3    3  501    0 -0.12873337757E+02  0.34156186364E+01 -0.52813686631E+02  0.54481994009E+02  0.12700000000E+01 0. -1.
         -4    1    3    3    0  501 -0.69300349568E+01  0.30260227771E+02  0.71311909611E+02  0.77786297776E+02  0.12700000000E+01 0. -1.
          2    1    1    2  502    0 -0.51087152218E+01  0.23771923291E+02  0.12913034570E+03  0.13139957949E+03  0.00000000000E+00 0. -1.
          1    1    1    2  503    0  0.24912087935E+02 -0.57447769698E+02 -0.18304905824E+03  0.19346269948E+03  0.00000000000E+00 0. -1.
<mgrwt>
<rscale>  0 0.38536612E+02</rscale>
<asrwt>0</asrwt>
<pdfrwt beam="2">  1        2 0.37888543E-01 0.61077131E+02</pdfrwt>
<pdfrwt beam="1">  1        1 0.32439237E-01 0.24314673E+02</pdfrwt>
<totfact> 0.23638507E+03</totfact>
</mgrwt>
</event>
<event>
 7    1  0.6493044E-004  0.9262485E+02  0.7546771E-02  0.1305147E+00
          2   -1    0    0  503    0  0.00000000000E+00  0.00000000000E+00  0.12292315165E+04  0.12292315165E+04  0.00000000000E+00 0. -1.
         -2   -1    0    0    0  501 -0.00000000000E+00 -0.00000000000E+00 -0.72864304140E+02  0.72864304140E+02  0.00000000000E+00 0.  1.
         25    2    1    2    0    0  0.17347604435E+02 -0.29733434779E+02  0.20396506944E+03  0.24168553597E+03  0.12500052889E+03 0.  0.
          4    1    3    3  502    0  0.39222433931E+02  0.39544777411E+02  0.10558473536E+03  0.11938148091E+03  0.12700000000E+01 0.  1.
         -4    1    3    3    0  502 -0.21874829495E+02 -0.69278212190E+02  0.98380334086E+02  0.12230405506E+03  0.12700000000E+01 0.  1.
          3    1    1    2  503    0 -0.34243406135E+02 -0.78485199128E+02  0.94687732616E+03  0.95074139920E+03  0.00000000000E+00 0. -1.
         -1    1    1    2    0  501  0.16895801699E+02  0.10821863391E+03  0.55248167514E+01  0.10966888547E+03  0.00000000000E+00 0.  1.
<mgrwt>
<rscale>  0 0.89058902E+02</rscale>
<asrwt>0</asrwt>
<pdfrwt beam="1">  1        2 0.18911253E+00 0.85630236E+02</pdfrwt>
<pdfrwt beam="2">  1       -2 0.11209894E-01 0.92624853E+02</pdfrwt>
<totfact> 0.10789357E+03</totfact>
</mgrwt>
</event>
<event>
 7    1  0.6493044E-004  0.8897275E+02  0.7546771E-02  0.1435068E+00
          1   -1    0    0  502    0 -0.00000000000E+00  0.00000000000E+00  0.22526525838E+03  0.22526525838E+03  0.00000000000E+00 0. -1.
          2   -1    0    0  503    0  0.00000000000E+00 -0.00000000000E+00 -0.59085097074E+03  0.59085097074E+03  0.00000000000E+00 0. -1.
         25    2    1    2    0    0 -0.10844145406E+03  0.39622707737E+02 -0.39653627927E+03  0.43150410042E+03  0.12500103989E+03 0.  0.
          4    1    3    3  501    0 -0.23447808256E+02  0.60552134603E+02 -0.79776860574E+02  0.10287040925E+03  0.12700000000E+01 0. -1.
         -4    1    3    3    0  501 -0.84993645804E+02 -0.20929426866E+02 -0.31675941870E+03  0.32863369116E+03  0.12700000000E+01 0. -1.
          2    1    1    2  502    0  0.78147972624E+02 -0.41302341185E+02  0.19694324094E+03  0.21586947252E+03  0.00000000000E+00 0. -1.
          1    1    1    2  503    0  0.30293481436E+02  0.16796334477E+01 -0.16599267403E+03  0.16874265618E+03  0.00000000000E+00 0. -1.
<mgrwt>
<rscale>  0 0.51956079E+02</rscale>
<asrwt>0</asrwt>
<pdfrwt beam="2">  1        2 0.90900149E-01 0.30340010E+02</pdfrwt>
<pdfrwt beam="1">  1        1 0.34656194E-01 0.88972751E+02</pdfrwt>
<totfact> 0.91270138E+02</totfact>
</mgrwt>
</event>
<event>
 7    1  0.6493044E-004  0.7621873E+02  0.7546771E-02  0.1474723E+00
          2   -1    0    0  503    0  0.00000000000E+00  0.00000000000E+00  0.13461067905E+04  0.13461067905E+04  0.00000000000E+00 0. -1.
          1   -1    0    0  502    0 -0.00000000000E+00 -0.00000000000E+00 -0.61655678090E+03  0.61655678090E+03  0.00000000000E+00 0. -1.
         25    2    1    2    0    0 -0.10301455231E+02  0.60182255876E+02  0.42570892053E+02  0.14547894051E+03  0.12499526943E+03 0.  0.
          4    1    3    3  501    0 -0.11626827070E+02  0.98969989280E+02  0.36725739141E+02  0.10621033237E+03  0.12700000000E+01 0.  1.
         -4    1    3    3    0  501  0.13253718388E+01 -0.38787733403E+02  0.58451529123E+01  0.39268608145E+02  0.12700000000E+01 0.  1.
          2    1    1    2  502    0 -0.11010842168E+02 -0.75925171145E+02 -0.56235774604E+03  0.56756682848E+03  0.00000000000E+00 0. -1.
          1    1    1    2  503    0  0.21312297399E+02  0.15742915269E+02  0.12493368636E+04  0.12496178024E+04  0.00000000000E+00 0. -1.
<mgrwt>
<rscale>  0 0.44938999E+02</rscale>
<asrwt>0</asrwt>
<pdfrwt beam="1">  1        2 0.20709335E+00 0.26496290E+02</pdfrwt>
<pdfrwt beam="2">  1        1 0.94854890E-01 0.76218730E+02</pdfrwt>
<totfact> 0.95431777E+01</totfact>
</mgrwt>
</event>
<event>
 7    1  0.6493044E-004  0.9908040E+02  0.7546771E-02  0.1304356E+00
          1   -1    0    0  502    0 -0.00000000000E+00  0.00000000000E+00  0.72329526216E+03  0.72329526216E+03  0.00000000000E+00 0. -1.
          2   -1    0    0  503    0  0.00000000000E+00 -0.00000000000E+00 -0.18695036495E+04  0.18695036495E+04  0.00000000000E+00 0. -1.
         25    2    1    2    0    0  0.55454372325E+02 -0.82756613425E+02 -0.28376022136E+03  0.32568433218E+03  0.12500630595E+03 0.  0.
          4    1    3    3  501    0  0.17152058450E+02 -0.75905621514E+02 -0.27497106947E+03  0.28577361396E+03  0.12700000000E+01 0. -1.
         -4    1    3    3    0  501  0.38302313875E+02 -0.68509919109E+01 -0.87891518844E+01  0.39910718225E+02  0.12700000000E+01 0. -1.
          2    1    1    2  502    0 -0.98385421202E+02  0.14503775920E+02  0.69776648083E+03  0.70481778665E+03  0.00000000000E+00 0. -1.
          1    1    1    2  503    0  0.42931048877E+02  0.68252837505E+02 -0.15602146468E+04  0.15622967928E+04  0.00000000000E+00 0. -1.
<mgrwt>
<rscale>  0 0.89381507E+02</rscale>
<asrwt>0</asrwt>
<pdfrwt beam="2">  1        2 0.28761594E+00 0.80632033E+02</pdfrwt>
<pdfrwt beam="1">  1        1 0.11127619E+00 0.99080397E+02</pdfrwt>
<totfact> 0.37812243E+01</totfact>
</mgrwt>
</event>
<event>
 7    1  0.6493044E-004  0.1391041E+03  0.7546771E-02  0.1286733E+00
          1   -1    0    0  502    0 -0.00000000000E+00  0.00000000000E+00  0.13264403963E+04  0.13264403963E+04  0.00000000000E+00 0. -1.
          2   -1    0    0  503    0  0.00000000000E+00 -0.00000000000E+00 -0.23102615598E+03  0.23102615598E+03  0.00000000000E+00 0. -1.
         25    2    1    2    0    0 -0.56970090116E+01 -0.15307118841E+03  0.10678165998E+04  0.10859653073E+04  0.12500045291E+03 0.  0.
          4    1    3    3  501    0 -0.38029150836E+02 -0.67168550002E+02  0.78126887453E+03  0.78507356192E+03  0.12700000000E+01 0. -1.
         -4    1    3    3    0  501  0.32332141825E+02 -0.85902638410E+02  0.28654772525E+03  0.30089174536E+03  0.12700000000E+01 0. -1.
          2    1    1    2  502    0 -0.60322831420E+02  0.30600906023E+02  0.22220615390E+03  0.23227318888E+03  0.00000000000E+00 0. -1.
          1    1    1    2  503    0  0.66019840431E+02  0.12247028239E+03 -0.19460851332E+03  0.23922805616E+03  0.00000000000E+00 0. -1.
<mgrwt>
<rscale>  0 0.97000473E+02</rscale>
<asrwt>0</asrwt>
<pdfrwt beam="2">  1        2 0.35542486E-01 0.13910407E+03</pdfrwt>
<pdfrwt beam="1">  1        1 0.20406775E+00 0.67640664E+02</pdfrwt>
<totfact> 0.20701697E+02</totfact>
</mgrwt>
</event>
<event>
 7    1  0.8192457E-004  0.6158623E+02  0.7546771E-02  0.1410269E+00
          2   -1    0    0  503    0  0.00000000000E+00  0.00000000000E+00  0.13631636965E+04  0.13631636965E+04  0.00000000000E+00 0. -1.
          1   -1    0    0  502    0 -0.00000000000E+00 -0.00000000000E+00 -0.10950040095E+04  0.10950040095E+04  0.00000000000E+00 0. -1.
         25    2    1    2    0    0 -0.62396678814E+02 -0.86740176197E+02 -0.33916379845E+03  0.37692678260E+03  0.12499805424E+03 0.  0.
          4    1    3    3  501    0  0.13859643250E+02  0.20980566086E+02 -0.22146338576E+02  0.33531285044E+02  0.12700000000E+01 0.  1.
         -4    1    3    3    0  501 -0.76256322064E+02 -0.10772074228E+03 -0.31701745988E+03  0.34339549755E+03  0.12700000000E+01 0.  1.
          2    1    1    2  502    0  0.11874368740E+02  0.51656267363E+02 -0.73530067262E+03  0.73720855241E+03  0.00000000000E+00 0. -1.
          1    1    1    2  503    0  0.50522310074E+02  0.35083908834E+02  0.13426241581E+04  0.13440323710E+04  0.00000000000E+00 0. -1.
<mgrwt>
<rscale>  0 0.57133927E+02</rscale>
<asrwt>0</asrwt>
<pdfrwt beam="1">  1        2 0.20971749E+00 0.61586233E+02</pdfrwt>
<pdfrwt beam="2">  1        1 0.16846215E+00 0.53003496E+02</pdfrwt>
<totfact> 0.37862866E+01</totfact>
</mgrwt>
</event>
<event>
 7    1  0.6493044E-004  0.8967631E+02  0.7546771E-02  0.1405847E+00
          1   -1    0    0  502    0 -0.00000000000E+00  0.00000000000E+00  0.22815823487E+03  0.22815823487E+03  0.00000000000E+00 0. -1.
          2   -1    0    0  503    0  0.00000000000E+00 -0.00000000000E+00 -0.23041924301E+03  0.23041924301E+03  0.00000000000E+00 0. -1.
         25    2    1    2    0    0  0.62945756636E+02 -0.12847080165E+02 -0.60864487822E+01  0.14067798511E+03  0.12500413949E+03 0.  0.
          4    1    3    3  501    0  0.34337992213E+02  0.55494267745E+02  0.62116577389E+01  0.65566066327E+02  0.12700000000E+01 0.  1.
         -4    1    3    3    0  501  0.28607764423E+02 -0.68341347909E+02 -0.12298106521E+02  0.75111918784E+02  0.12700000000E+01 0.  1.
          2    1    1    2  502    0 -0.94760752252E+02 -0.73458785476E+01  0.14411650507E+03  0.17263582806E+03  0.00000000000E+00 0. -1.
          1    1    1    2  503    0  0.31814995616E+02  0.20192958712E+02 -0.14029106443E+03  0.14526366471E+03  0.00000000000E+00 0. -1.
<mgrwt>
<rscale>  0 0.58130904E+02</rscale>
<asrwt>0</asrwt>
<pdfrwt beam="2">  1        2 0.35449114E-01 0.37682218E+02</pdfrwt>
<pdfrwt beam="1">  1        1 0.35101267E-01 0.89676305E+02</pdfrwt>
<totfact> 0.23422090E+03</totfact>
</mgrwt>
</event>
<event>
 7    1  0.6493044E-004  0.4360946E+02  0.7546771E-02  0.1567386E+00
         -2   -1    0    0    0  501 -0.00000000000E+00  0.00000000000E+00  0.27019896063E+03  0.27019896063E+03  0.00000000000E+00 0.  1.
          2   -1    0    0  503    0  0.00000000000E+00 -0.00000000000E+00 -0.15656932913E+03  0.15656932913E+03  0.00000000000E+00 0. -1.
         25    2    1    2    0    0 -0.99093635941E+01  0.34582275363E+02  0.51563607121E+02  0.13991319844E+03  0.12499107273E+03 0.  0.
          4    1    3    3  502    0 -0.42198415548E+02 -0.32454096193E+01 -0.24578378427E+02  0.48958641162E+02  0.12700000000E+01 0.  1.
         -4    1    3    3    0  502  0.32289051954E+02  0.37827684983E+02  0.76141985548E+02  0.90954557282E+02  0.12700000000E+01 0.  1.
          1    1    1    2  503    0 -0.24192036793E+02 -0.60168662194E+01 -0.10811717375E+03  0.11095395704E+03  0.00000000000E+00 0. -1.
         -1    1    1    2    0  501  0.34101400387E+02 -0.28565409144E+02  0.17018319813E+03  0.17590113426E+03  0.00000000000E+00 0.  1.
<mgrwt>
<rscale>  0 0.32971842E+02</rscale>
<asrwt>0</asrwt>
<pdfrwt beam="2">  1        2 0.24087589E-01 0.24929046E+02</pdfrwt>
<pdfrwt beam="1">  1       -2 0.41569071E-01 0.43609464E+02</pdfrwt>
<totfact> 0.11291919E+03</totfact>
</mgrwt>
</event>
<event>
 7    1  0.6493044E-004  0.4899855E+02  0.7546771E-02  0.1510295E+00
         -1   -1    0    0    0  501 -0.00000000000E+00  0.00000000000E+00  0.37009422831E+03  0.37009422831E+03  0.00000000000E+00 0.  1.
          1   -1    0    0  503    0  0.00000000000E+00 -0.00000000000E+00 -0.61643144298E+03  0.61643144298E+03  0.00000000000E+00 0. -1.
         25    2    1    2    0    0 -0.14294656921E+02 -0.15862339672E+02  0.91079705113E+02  0.15612714458E+03  0.12499688618E+03 0.  0.
          4    1    3    3  502    0  0.32120494903E+01  0.48220355493E+02  0.72491351445E+02  0.87132823207E+02  0.12700000000E+01 0.  1.
         -4    1    3    3    0  502 -0.17506706411E+02 -0.64082695165E+02  0.18588353668E+02  0.68994321369E+02  0.12700000000E+01 0.  1.
          2    1    1    2  503    0  0.11363950097E+02  0.47924366466E+02 -0.58181142334E+03  0.58389247005E+03  0.00000000000E+00 0. -1.
         -2    1    1    2    0  501  0.29307068245E+01 -0.32062026794E+02  0.24439450355E+03  0.24650605666E+03  0.00000000000E+00 0.  1.
<mgrwt>
<rscale>  0 0.39718288E+02</rscale>
<asrwt>0</asrwt>
<pdfrwt beam="2">  1        1 0.94835607E-01 0.48998555E+02</pdfrwt>
<pdfrwt beam="1">  1       -1 0.56937574E-01 0.32195692E+02</pdfrwt>
<totfact> 0.11973129E+02</totfact>
</mgrwt>
</event>
<event>
 7    1  0.6493044E-004  0.5196505E+02  0.7546771E-02  0.1531428E+00
          2   -1    0    0  503    0  0.00000000000E+00  0.00000000000E+00  0.87940366760E+03  0.87940366760E+03  0.00000000000E+00 0. -1.
          1   -1    0    0  502    0 -0.00000000000E+00 -0.00000000000E+00 -0.17684857503E+04  0.17684857503E+04  0.00000000000E+00 0. -1.
         25    2    1    2    0    0 -0.48714700525E+02  0.51103835827E+02  0.51627431352E+03  0.53586231383E+03  0.12499811398E+03 0.  0.
          4    1    3    3  501    0 -0.50558349661E+02 -0.22176435702E+02  0.11064025203E+03  0.12365605238E+03  0.12700000000E+01 0.  1.
         -4    1    3    3    0  501  0.18436491357E+01  0.73280271529E+02  0.40563406149E+03  0.41220626145E+03  0.12700000000E+01 0.  1.
          2    1    1    2  502    0  0.22719788594E+02 -0.46722773649E+02 -0.17578157205E+04  0.17585833258E+04  0.00000000000E+00 0. -1.
          1    1    1    2  503    0  0.25994911931E+02 -0.43810621780E+01  0.35245932428E+03  0.35344377831E+03  0.00000000000E+00 0. -1.
<mgrwt>
<rscale>  0 0.37011851E+02</rscale>
<asrwt>0</asrwt>
<pdfrwt beam="1">  1        2 0.13529287E+00 0.26361509E+02</pdfrwt>
<pdfrwt beam="2">  1        1 0.27207473E+00 0.51965049E+02</pdfrwt>
<totfact> 0.27253642E+01</totfact>
</mgrwt>
</event>
<event>
 7    1  0.6493044E-004  0.9714335E+02  0.7546771E-02  0.1355994E+00
          1   -1    0    0  502    0 -0.00000000000E+00  0.00000000000E+00  0.11443181094E+04  0.11443181094E+04  0.00000000000E+00 0. -1.
          2   -1    0    0  503    0  0.00000000000E+00 -0.00000000000E+00 -0.23773780056E+03  0.23773780056E+03  0.00000000000E+00 0. -1.
         25    2    1    2    0    0 -0.14446783817E+02  0.65947314921E+02  0.19608760773E+03  0.24213326618E+03  0.12498164176E+03 0.  0.
          4    1    3    3  501    0  0.21342345755E+02  0.94044824536E+02  0.13712167653E+03  0.16764215406E+03  0.12700000000E+01 0. -1.
         -4    1    3    3    0  501 -0.35789129572E+02 -0.28097509615E+02  0.58965931196E+02  0.74491112114E+02  0.12700000000E+01 0. -1.
          2    1    1    2  502    0 -0.26745784471E+02 -0.98032921795E+02  0.91919153093E+03  0.92479125281E+03  0.00000000000E+00 0. -1.
          1    1    1    2  503    0  0.41192568288E+02  0.32085606874E+02 -0.20869882977E+03  0.21513139101E+03  0.00000000000E+00 0. -1.
<mgrwt>
<rscale>  0 0.71219760E+02</rscale>
<asrwt>0</asrwt>
<pdfrwt beam="2">  1        2 0.36575047E-01 0.52214115E+02</pdfrwt>
<pdfrwt beam="1">  1        1 0.17604894E+00 0.97143352E+02</pdfrwt>
<totfact> 0.25350133E+02</totfact>
</mgrwt>
</event>
<event>
 7    1  0.6493044E-004  0.1390855E+03  0.7546771E-02  0.1290390E+00
          1   -1    0    0  502    0 -0.00000000000E+00  0.00000000000E+00  0.24236047958E+03  0.24236047958E+03  0.00000000000E+00 0. -1.
          2   -1    0    0  503    0  0.00000000000E+00 -0.00000000000E+00 -0.58485387050E+03  0.58485387050E+03  0.00000000000E+00 0. -1.
         25    2    1    2    0    0 -0.41814182177E+02  0.18300471631E+03 -0.24179272090E+03  0.33064822052E+03  0.12500149530E+03 0.  0.
          4    1    3    3  501    0 -0.67958102937E+02  0.10552702113E+03 -0.20632742556E+03  0.24150957617E+03  0.12700000000E+01 0. -1.
         -4    1    3    3    0  501  0.26143920760E+02  0.77477695174E+02 -0.35465295344E+02  0.89138644347E+02  0.12700000000E+01 0. -1.
          2    1    1    2  502    0  0.28234478442E+02 -0.58954947367E+02  0.17885304224E+03  0.19042395414E+03  0.00000000000E+00 0. -1.
          1    1    1    2  503    0  0.13579703735E+02 -0.12404976894E+03 -0.27955371226E+03  0.30614217541E+03  0.00000000000E+00 0. -1.
<mgrwt>
<rscale>  0 0.95350029E+02</rscale>
<asrwt>0</asrwt>
<pdfrwt beam="2">  1        2 0.89977519E-01 0.13908546E+03</pdfrwt>
<pdfrwt beam="1">  1        1 0.37286228E-01 0.65367206E+02</pdfrwt>
<totfact> 0.81537616E+02</totfact>
</mgrwt>
</event>
<event>
 7    1  0.6493044E-004  0.5354582E+02  0.7546771E-02  0.1469039E+00
          1   -1    0    0  503    0  0.00000000000E+00  0.00000000000E+00  0.73370429912E+03  0.73370429912E+03  0.00000000000E+00 0. -1.
         -1   -1    0    0    0  501 -0.00000000000E+00 -0.00000000000E+00 -0.15517749992E+03  0.15517749992E+03  0.00000000000E+00 0.  1.
         25    2    1    2    0    0  0.33882129742E+02  0.45473888217E+02  0.18849128690E+03  0.23317786967E+03  0.12500832149E+03 0.  0.
          4    1    3    3  502    0  0.18919560638E+02 -0.43281424997E+02  0.64850226509E+02  0.80239618037E+02  0.12700000000E+01 0.  1.
         -4    1    3    3    0  502  0.14962569104E+02  0.88755313213E+02  0.12364106039E+03  0.15293825163E+03  0.12700000000E+01 0.  1.
          2    1    1    2  503    0  0.18809162923E+02 -0.34482025149E+02  0.51664082302E+03  0.51813177347E+03  0.00000000000E+00 0. -1.
         -2    1    1    2    0  501 -0.52691292665E+02 -0.10991863068E+02 -0.12660531072E+03  0.13757215590E+03  0.00000000000E+00 0.  1.
<mgrwt>
<rscale>  0 0.45860609E+02</rscale>
<asrwt>0</asrwt>
<pdfrwt beam="1">  1        1 0.11287758E+00 0.39278425E+02</pdfrwt>
<pdfrwt beam="2">  1       -1 0.23873462E-01 0.53545819E+02</pdfrwt>
<totfact> 0.41523388E+02</totfact>
</mgrwt>
</event>
<event>
 7    1  0.6493044E-004  0.4469070E+02  0.7546771E-02  0.1565692E+00
          1   -1    0    0  503    0  0.00000000000E+00  0.00000000000E+00  0.69097883288E+03  0.69097883288E+03  0.00000000000E+00 0. -1.
         -1   -1    0    0    0  501 -0.00000000000E+00 -0.00000000000E+00 -0.70248321124E+03  0.70248321124E+03  0.00000000000E+00 0.  1.
         25    2    1    2    0    0  0.66532078696E+02 -0.93758728431E+01 -0.50021164627E+03  0.51993798307E+03  0.12493754713E+03 0.  0.
          4    1    3    3  502    0  0.66089848500E+02 -0.20903129148E+02 -0.11313511829E+03  0.13268751552E+03  0.12700000000E+01 0. -1.
         -4    1    3    3    0  502  0.44223019543E+00  0.11527256305E+02 -0.38707652798E+03  0.38725046755E+03  0.12700000000E+01 0. -1.
          2    1    1    2  503    0 -0.44624311534E+02 -0.17833317644E+01  0.67959432819E+03  0.68106017381E+03  0.00000000000E+00 0. -1.
         -2    1    1    2    0  501 -0.21907767162E+02  0.11159204608E+02 -0.19088706027E+03  0.19246388723E+03  0.00000000000E+00 0.  1.
<mgrwt>
<rscale>  0 0.33147726E+02</rscale>
<asrwt>0</asrwt>
<pdfrwt beam="1">  1        1 0.10630444E+00 0.44690704E+02</pdfrwt>
<pdfrwt beam="2">  1       -1 0.10807434E+00 0.24586137E+02</pdfrwt>
<totfact> 0.29648881E+01</totfact>
</mgrwt>
</event>
<event>
 7    1  0.1137374E-003  0.5214105E+02  0.7546771E-02  0.1478425E+00
          3   -1    0    0  503    0  0.00000000000E+00  0.00000000000E+00  0.40827266359E+04  0.40827266359E+04  0.00000000000E+00 0. -1.
         -3   -1    0    0    0  501 -0.00000000000E+00 -0.00000000000E+00 -0.50239595081E+01  0.50239595081E+01  0.00000000000E+00 0.  1.
         25    2    1    2    0    0  0.58207218280E+02 -0.16332225226E+01  0.31961791822E+04  0.31991525736E+04  0.12500030916E+03 0.  0.
          4    1    3    3  502    0  0.13841419037E+02 -0.36467047232E+02  0.26038237192E+04  0.26041161656E+04  0.12700000000E+01 0. -1.
         -4    1    3    3    0  502  0.44365799243E+02  0.34833824709E+02  0.59235546292E+03  0.59503640799E+03  0.12700000000E+01 0. -1.
          2    1    1    2  503    0 -0.18515113022E+02 -0.32871503889E+02  0.65348972822E+03  0.65457785639E+03  0.00000000000E+00 0. -1.
         -2    1    1    2    0  501 -0.39692105258E+02  0.34504726411E+02  0.22803376602E+03  0.23402016539E+03  0.00000000000E+00 0.  1.
<mgrwt>
<rscale>  0 0.44352432E+02</rscale>
<asrwt>0</asrwt>
<pdfrwt beam="1">  1        3 0.62810914E+00 0.37727247E+02</pdfrwt>
<pdfrwt beam="2">  1       -3 0.77292011E-03 0.52141049E+02</pdfrwt>
<totfact> 0.11816057E+01</totfact>
</mgrwt>
</event>
<event>
 7    1  0.6493044E-004  0.1229673E+03  0.7546771E-02  0.1284924E+00
         -2   -1    0    0    0  501 -0.00000000000E+00  0.00000000000E+00  0.26742328609E+03  0.26742328609E+03  0.00000000000E+00 0.  1.
          2   -1    0    0  503    0  0.00000000000E+00 -0.00000000000E+00 -0.65017299012E+03  0.65017299012E+03  0.00000000000E+00 0. -1.
         25    2    1    2    0    0  0.16679385213E+03  0.92737818952E+02 -0.17977688635E+03  0.29045619527E+03  0.12499832131E+03 0.  0.
          4    1    3    3  502    0  0.12090240479E+03  0.12282806876E+03 -0.14697034614E+03  0.22650832546E+03  0.12700000000E+01 0. -1.
         -4    1    3    3    0  502  0.45891447338E+02 -0.30090249805E+02 -0.32806540211E+02  0.63947869806E+02  0.12700000000E+01 0. -1.
          1    1    1    2  503    0 -0.75982658385E+02 -0.16870551569E+02 -0.39444630611E+03  0.40205207162E+03  0.00000000000E+00 0. -1.
         -1    1    1    2    0  501 -0.90811193745E+02 -0.75867267383E+02  0.19147348843E+03  0.22508800933E+03  0.00000000000E+00 0.  1.
<mgrwt>
<rscale>  0 0.97831048E+02</rscale>
<asrwt>0</asrwt>
<pdfrwt beam="2">  1        2 0.10002661E+00 0.77833026E+02</pdfrwt>
<pdfrwt beam="1">  1       -2 0.41142044E-01 0.12296726E+03</pdfrwt>
<totfact> 0.26902955E+02</totfact>
</mgrwt>
</event>
<event>
 7    1  0.6493044E-004  0.4394387E+02  0.7546771E-02  0.1519952E+00
          1   -1    0    0  503    0  0.00000000000E+00  0.00000000000E+00  0.16498863662E+03  0.16498863662E+03  0.00000000000E+00 0. -1.
         -1   -1    0    0    0  501 -0.00000000000E+00 -0.00000000000E+00 -0.16083299669E+03  0.16083299669E+03  0.00000000000E+00 0.  1.
         25    2    1    2    0    0 -0.35711506640E+02  0.16904410690E+02 -0.19009372917E+02  0.13245444812E+03  0.12498701437E+03 0.  0.
          4    1    3    3  502    0  0.14486325953E+02  0.11666381202E+02 -0.62870481238E+02  0.65576431750E+02  0.12700000000E+01 0. -1.
         -4    1    3    3    0  502 -0.50197832593E+02  0.52380294887E+01  0.43861108322E+02  0.66878016367E+02  0.12700000000E+01 0. -1.
          2    1    1    2  503    0  0.41972783362E+02  0.16147517786E+02  0.99914564337E+02  0.10956905147E+03  0.00000000000E+00 0. -1.
         -2    1    1    2    0  501 -0.62612767223E+01 -0.33051928476E+02 -0.76749551488E+02  0.83798133725E+02  0.00000000000E+00 0.  1.
<mgrwt>
<rscale>  0 0.38448164E+02</rscale>
<asrwt>0</asrwt>
<pdfrwt beam="1">  1        1 0.25382867E-01 0.43943869E+02</pdfrwt>
<pdfrwt beam="2">  1       -1 0.24743538E-01 0.33639762E+02</pdfrwt>
<totfact> 0.23900770E+03</totfact>
</mgrwt>
</event>
<event>
 7    1  0.6493044E-004  0.7234656E+02  0.7546771E-02  0.1409296E+00
          1   -1    0    0  502    0 -0.00000000000E+00  0.00000000000E+00  0.43970828122E+03  0.43970828122E+03  0.00000000000E+00 0. -1.
          2   -1    0    0  503    0  0.00000000000E+00 -0.00000000000E+00 -0.19982703537E+03  0.19982703537E+03  0.00000000000E+00 0. -1.
         25    2    1    2    0    0  0.75572632612E+02  0.81424387570E+02  0.22009705523E+03  0.27643006507E+03  0.12501885244E+03 0.  0.
          4    1    3    3  501    0  0.77112173732E+02  0.11202849550E+03  0.18796315923E+03  0.23200955426E+03  0.12700000000E+01 0. -1.
         -4    1    3    3    0  501 -0.15395411201E+01 -0.30604107925E+02  0.32133895999E+02  0.44420510813E+02  0.12700000000E+01 0. -1.
          2    1    1    2  502    0 -0.41344400724E+02 -0.18910946327E+02  0.18111447125E+03  0.18673359381E+03  0.00000000000E+00 0. -1.
          1    1    1    2  503    0 -0.34228231888E+02 -0.62513441244E+02 -0.16133028063E+03  0.17637165771E+03  0.00000000000E+00 0. -1.
<mgrwt>
<rscale>  0 0.57351291E+02</rscale>
<asrwt>0</asrwt>
<pdfrwt beam="2">  1        2 0.30742621E-01 0.72346563E+02</pdfrwt>
<pdfrwt beam="1">  1        1 0.67647428E-01 0.45464089E+02</pdfrwt>
<totfact> 0.12467432E+03</totfact>
</mgrwt>
</event>
<event>
 7    1  0.6493044E-004  0.7037404E+02  0.7546771E-02  0.1458035E+00
          1   -1    0    0  502    0 -0.00000000000E+00  0.00000000000E+00  0.10289819129E+03  0.10289819129E+03  0.00000000000E+00 0. -1.
          2   -1    0    0  503    0  0.00000000000E+00 -0.00000000000E+00 -0.38250524956E+03  0.38250524956E+03  0.00000000000E+00 0. -1.
         25    2    1    2    0    0 -0.13073863610E+02  0.54588071850E+02 -0.61780117136E+02  0.15030611099E+03  0.12499744249E+03 0.  0.
          4    1    3    3  501    0  0.36375796573E+02 -0.24345839329E+02 -0.22163463673E+02  0.49079022922E+02  0.12700000000E+01 0. -1.
         -4    1    3    3    0  501 -0.49449660184E+02  0.78933911179E+02 -0.39616653462E+02  0.10122708806E+03  0.12700000000E+01 0. -1.
          2    1    1    2  502    0  0.27927571994E+02  0.16347040627E+02  0.48934404058E+02  0.58666437725E+02  0.00000000000E+00 0. -1.
          1    1    1    2  503    0 -0.14853708384E+02 -0.70935112477E+02 -0.26676134520E+03  0.27643089214E+03  0.00000000000E+00 0. -1.
<mgrwt>
<rscale>  0 0.47721168E+02</rscale>
<asrwt>0</asrwt>
<pdfrwt beam="2">  1        2 0.58846961E-01 0.70374043E+02</pdfrwt>
<pdfrwt beam="1">  1        1 0.15830491E-01 0.32360084E+02</pdfrwt>
<totfact> 0.35811365E+03</totfact>
</mgrwt>
</event>
<event>
 7    1  0.6493044E-004  0.1114999E+03  0.7546771E-02  0.1398292E+00
          2   -1    0    0  503    0  0.00000000000E+00  0.00000000000E+00  0.62358171809E+03  0.62358171809E+03  0.00000000000E+00 0. -1.
          1   -1    0    0  502    0 -0.00000000000E+00 -0.00000000000E+00 -0.43378516986E+03  0.43378516986E+03  0.00000000000E+00 0. -1.
         25    2    1    2    0    0 -0.82783516151E+02 -0.17410870969E+02 -0.27538517286E+01  0.15095466850E+03  0.12499391692E+03 0.  0.
          4    1    3    3  501    0 -0.27809097927E+02  0.53666284700E+02 -0.77450783291E+01  0.60950924352E+02  0.12700000000E+01 0.  1.
         -4    1    3    3    0  501 -0.54974418223E+02 -0.71077155670E+02  0.49912266005E+01  0.90003744145E+02  0.12700000000E+01 0.  1.
          2    1    1    2  502    0 -0.30591486525E+02  0.99513170713E+01 -0.35031252995E+03  0.35178649263E+03  0.00000000000E+00 0. -1.
          1    1    1    2  503    0  0.11337500268E+03  0.74595538980E+01  0.54286292991E+03  0.55462572682E+03  0.00000000000E+00 0. -1.
<mgrwt>
<rscale>  0 0.59890560E+02</rscale>
<asrwt>0</asrwt>
<pdfrwt beam="1">  1        2 0.95935650E-01 0.11149986E+03</pdfrwt>
<pdfrwt beam="2">  1        1 0.66736179E-01 0.32169361E+02</pdfrwt>
<totfact> 0.37958342E+02</totfact>
</mgrwt>
</event>
<event>
 7    1  0.6493044E-004  0.2696136E+02  0.7546771E-02  0.1663780E+00
         -2   -1    0    0    0  501 -0.00000000000E+00  0.00000000000E+00  0.51233397595E+01  0.51233397595E+01  0.00000000000E+00 0.  1.
          2   -1    0    0  503    0  0.00000000000E+00 -0.00000000000E+00 -0.24942057317E+04  0.24942057317E+04  0.00000000000E+00 0. -1.
         25    2    1    2    0    0 -0.14948213113E+02 -0.15323381471E+02 -0.14185149002E+04  0.14241729699E+04  0.12500348316E+03 0.  0.
          4    1    3    3  502    0 -0.16778748213E+02 -0.69277118052E+02 -0.69547106573E+03  0.69911548520E+03  0.12700000000E+01 0. -1.
         -4    1    3    3    0  502  0.18305351001E+01  0.53953736582E+02 -0.72304383450E+03  0.72505748466E+03  0.12700000000E+01 0. -1.
          3    1    1    2  503    0 -0.43185253164E+01  0.27563393800E+02 -0.10106957155E+04  0.10110807187E+04  0.00000000000E+00 0. -1.
         -1    1    1    2    0  501  0.19266738430E+02 -0.12240012329E+02 -0.59871776247E+02  0.64075382968E+02  0.00000000000E+00 0.  1.
<mgrwt>
<rscale>  0 0.24807647E+02</rscale>
<asrwt>0</asrwt>
<pdfrwt beam="2">  1        2 0.38372439E+00 0.26961361E+02</pdfrwt>
<pdfrwt beam="1">  1       -2 0.78820523E-03 0.22825974E+02</pdfrwt>
<totfact> 0.10703797E+04</totfact>
</mgrwt>
</event>
<event>
 7    1  0.6493044E-004  0.8276492E+02  0.7546771E-02  0.1355618E+00
          1   -1    0    0  502    0 -0.00000000000E+00  0.00000000000E+00  0.11658928171E+04  0.11658928171E+04  0.00000000000E+00 0. -1.
          2   -1    0    0  503    0  0.00000000000E+00 -0.00000000000E+00 -0.13746100507E+03  0.13746100507E+03  0.00000000000E+00 0. -1.
         25    2    1    2    0    0 -0.19391052099E+02  0.18945257547E+02  0.18042647692E+03  0.22115867342E+03  0.12499003789E+03 0.  0.
          4    1    3    3  501    0  0.31127837981E+02  0.25344154114E+02  0.16213636667E+03  0.16703617196E+03  0.12700000000E+01 0. -1.
         -4    1    3    3    0  501 -0.50518890080E+02 -0.63988965668E+01  0.18290110249E+02  0.54122501468E+02  0.12700000000E+01 0. -1.
          2    1    1    2  502    0  0.69589403201E+02 -0.54440896433E+02  0.95484765133E+03  0.95892676127E+03  0.00000000000E+00 0. -1.
          1    1    1    2  503    0 -0.50198351102E+02  0.35495638886E+02 -0.10684231618E+03  0.12326838751E+03  0.00000000000E+00 0. -1.
<mgrwt>
<rscale>  0 0.71333046E+02</rscale>
<asrwt>0</asrwt>
<pdfrwt beam="2">  1        2 0.21147848E-01 0.61480199E+02</pdfrwt>
<pdfrwt beam="1">  1        1 0.17936812E+00 0.82764915E+02</pdfrwt>
<totfact> 0.44576375E+02</totfact>
</mgrwt>
</event>
<event>
 7    1  0.6493044E-004  0.3111366E+03  0.7546771E-02  0.1272697E+00
          1   -1    0    0  502    0 -0.00000000000E+00  0.00000000000E+00  0.37380376349E+04  0.37380376349E+04  0.00000000000E+00 0. -1.
          2   -1    0    0  503    0  0.00000000000E+00 -0.00000000000E+00 -0.11506759760E+04  0.11506759760E+04  0.00000000000E+00 0. -1.
         25    2    1    2    0    0 -0.31350939194E+02  0.29806856118E+03 -0.52611323739E+02  0.32897073593E+03  0.12500418059E+03 0.  0.
          4    1    3    3  501    0  0.32113815302E+01  0.93237705436E+02 -0.75446685378E+02  0.11998915751E+03  0.12700000000E+01 0.  1.
         -4    1    3    3    0  501 -0.34562320724E+02  0.20483085574E+03  0.22835361639E+02  0.20898157842E+03  0.12700000000E+01 0.  1.
          2    1    1    2  502    0  0.65276209018E+02 -0.30468412499E+03  0.35928011227E+04  0.36062880233E+04  0.00000000000E+00 0. -1.
          1    1    1    2  503    0 -0.33925269824E+02  0.66155638141E+01 -0.95282814008E+03  0.95345485165E+03  0.00000000000E+00 0. -1.
<mgrwt>
<rscale>  0 0.10370252E+03</rscale>
<asrwt>0</asrwt>
<pdfrwt beam="2">  1        2 0.17702707E+00 0.34564282E+02</pdfrwt>
<pdfrwt beam="1">  1        1 0.57508271E+00 0.31113658E+03</pdfrwt>
<totfact> 0.66779309E-01</totfact>
</mgrwt>
</event>
<event>
 7    1  0.6493044E-004  0.1365584E+03  0.7546771E-02  0.1250468E+00
          1   -1    0    0  502    0 -0.00000000000E+00  0.00000000000E+00  0.35405312669E+03  0.35405312669E+03  0.00000000000E+00 0. -1.
          2   -1    0    0  503    0  0.00000000000E+00 -0.00000000000E+00 -0.87941932629E+03  0.87941932629E+03  0.00000000000E+00 0. -1.
         25    2    1    2    0    0 -0.20828591992E+03 -0.17902998061E+02 -0.78274808614E+02  0.25584341404E+03  0.12500146025E+03 0.  0.
          4    1    3    3  501    0 -0.11879612099E+03 -0.30562099720E+02  0.17772661539E+02  0.12395176764E+03  0.12700000000E+01 0. -1.
         -4    1    3    3    0  501 -0.89489798929E+02  0.12659101659E+02 -0.96047470153E+02  0.13189164640E+03  0.12700000000E+01 0. -1.
          2    1    1    2  502    0  0.11803429752E+03  0.55903758140E+02  0.24553774278E+03  0.27811168385E+03  0.00000000000E+00 0. -1.
          1    1    1    2  503    0  0.90251622400E+02 -0.38000760079E+02 -0.69262913377E+03  0.69951735509E+03  0.00000000000E+00 0. -1.
<mgrwt>
<rscale>  0 0.11563975E+03</rscale>
<asrwt>0</asrwt>
<pdfrwt beam="2">  1        2 0.13529528E+00 0.97925549E+02</pdfrwt>
<pdfrwt beam="1">  1        1 0.54469712E-01 0.13655835E+03</pdfrwt>
<totfact> 0.31897905E+02</totfact>
</mgrwt>
</event>
<event>
 7    1  0.6493044E-004  0.5868794E+02  0.7546771E-02  0.1428158E+00
          1   -1    0    0  503    0  0.00000000000E+00  0.00000000000E+00  0.16954855024E+04  0.16954855024E+04  0.00000000000E+00 0. -1.
         -1   -1    0    0    0  501 -0.00000000000E+00 -0.00000000000E+00 -0.11251458025E+03  0.11251458025E+03  0.00000000000E+00 0.  1.
         25    2    1    2    0    0  0.56995468950E+02  0.28295835649E+02  0.12706871547E+03  0.18926260827E+03  0.12499895457E+03 0.  0.
          4    1    3    3  502    0  0.91346429349E+02  0.44760315359E+02  0.98772548853E+02  0.14179310735E+03  0.12700000000E+01 0. -1.
         -4    1    3    3    0  502 -0.34350960398E+02 -0.16464479710E+02  0.28296166620E+02  0.47469500922E+02  0.12700000000E+01 0. -1.
          2    1    1    2  503    0 -0.39135243074E+02  0.28586881002E+02  0.15259685112E+04  0.15267379193E+04  0.00000000000E+00 0. -1.
         -2    1    1    2    0  501 -0.17860225876E+02 -0.56882716651E+02 -0.70066304482E+02  0.91999555138E+02  0.00000000000E+00 0.  1.
<mgrwt>
<rscale>  0 0.53331632E+02</rscale>
<asrwt>0</asrwt>
<pdfrwt beam="1">  1        1 0.26084390E+00 0.48464183E+02</pdfrwt>
<pdfrwt beam="2">  1       -1 0.17309937E-01 0.58687939E+02</pdfrwt>
<totfact> 0.15435430E+02</totfact>
</mgrwt>
</event>
<event>
 7    1  0.6493044E-004  0.6179727E+02  0.7546771E-02  0.1402932E+00
          2   -1    0    0  503    0  0.00000000000E+00  0.00000000000E+00  0.10307356850E+04  0.10307356850E+04  0.00000000000E+00 0.  1.
         -2   -1    0    0    0  501 -0.00000000000E+00 -0.00000000000E+00 -0.18450456379E+02  0.18450456379E+02  0.00000000000E+00 0. -1.
         25    2    1    2    0    0  0.65626219542E+02  0.77825611206E+01  0.57791778854E+03  0.59496273941E+03  0.12499728806E+03 0.  0.
          4    1    3    3  502    0  0.18826831489E+02  0.60244122496E+02  0.37331069315E+03  0.37861100143E+03  0.12700000000E+01 0. -1.
         -4    1    3    3    0  502  0.46799388053E+02 -0.52461561375E+02  0.20460709539E+03  0.21635173798E+03  0.12700000000E+01 0. -1.
          3    1    1    2  503    0 -0.37105114834E+02 -0.55917804892E+02  0.31927763604E+03  0.32625419434E+03  0.00000000000E+00 0. -1.
         -3    1    1    2    0  501 -0.28521104708E+02  0.48135243771E+02  0.11508980401E+03  0.12796920760E+03  0.00000000000E+00 0.  1.
<mgrwt>
<rscale>  0 0.58801244E+02</rscale>
<asrwt>0</asrwt>
<pdfrwt beam="1">  1        2 0.15857468E+00 0.61797271E+02</pdfrwt>
<pdfrwt beam="2">  1       -2 0.28385326E-02 0.55950470E+02</pdfrwt>
<totfact> 0.10428531E+04</totfact>
</mgrwt>
</event>
<event>
 7    1  0.6493044E-004  0.1259374E+03  0.7546771E-02  0.1244080E+00
          2   -1    0    0  503    0  0.00000000000E+00  0.00000000000E+00  0.19050189207E+03  0.19050189207E+03  0.00000000000E+00 0. -1.
          1   -1    0    0  502    0 -0.00000000000E+00 -0.00000000000E+00 -0.17872076998E+04  0.17872076998E+04  0.00000000000E+00 0. -1.
         25    2    1    2    0    0 -0.13145039408E+02  0.98658786661E+02 -0.71324259428E+03  0.73092139282E+03  0.12499894381E+03 0.  0.
          4    1    3    3  501    0 -0.46940840304E+02  0.75463821470E+02 -0.64653919371E+03  0.65261992977E+03  0.12700000000E+01 0. -1.
         -4    1    3    3    0  501  0.33795800896E+02  0.23194965190E+02 -0.66703400570E+02  0.78301463052E+02  0.12700000000E+01 0. -1.
          2    1    1    2  502    0  0.11194545515E+03 -0.16899530784E+02 -0.10390283730E+04  0.10451781374E+04  0.00000000000E+00 0. -1.
          1    1    1    2  503    0 -0.98800415747E+02 -0.81759255877E+02  0.15556515955E+03  0.20161006160E+03  0.00000000000E+00 0. -1.
<mgrwt>
<rscale>  0 0.11940629E+03</rscale>
<asrwt>0</asrwt>
<pdfrwt beam="1">  1        2 0.29307984E-01 0.12593742E+03</pdfrwt>
<pdfrwt beam="2">  1        1 0.27495503E+00 0.11321386E+03</pdfrwt>
<totfact> 0.12308599E+02</totfact>
</mgrwt>
</event>
<event>
 7    1  0.6493044E-004  0.5791085E+02  0.7546771E-02  0.1528546E+00
          2   -1    0    0  503    0  0.00000000000E+00  0.00000000000E+00  0.14443441782E+03  0.14443441782E+03  0.00000000000E+00 0. -1.
          1   -1    0    0  502    0 -0.00000000000E+00 -0.00000000000E+00 -0.13219728549E+04  0.13219728549E+04  0.00000000000E+00 0. -1.
         25    2    1    2    0    0 -0.81305743183E+02  0.73950643742E+01 -0.91488172197E+03  0.92698322612E+03  0.12499610183E+03 0.  0.
          4    1    3    3  501    0 -0.13125078371E+02 -0.22137105188E+02 -0.68297663746E+03  0.68346252225E+03  0.12700000000E+01 0.  1.
         -4    1    3    3    0  501 -0.68180664812E+02  0.29532169562E+02 -0.23190508451E+03  0.24352070388E+03  0.12700000000E+01 0.  1.
          2    1    1    2  502    0  0.23603435339E+02 -0.49109594705E+01 -0.39463021339E+03  0.39536596339E+03  0.00000000000E+00 0. -1.
          1    1    1    2  503    0  0.57702307844E+02 -0.24841049036E+01  0.13197349825E+03  0.14405808324E+03  0.00000000000E+00 0. -1.
<mgrwt>
<rscale>  0 0.37365326E+02</rscale>
<asrwt>0</asrwt>
<pdfrwt beam="1">  1        2 0.22220679E-01 0.57910848E+02</pdfrwt>
<pdfrwt beam="2">  1        1 0.20338044E+00 0.24108913E+02</pdfrwt>
<totfact> 0.37229329E+02</totfact>
</mgrwt>
</event>
<event>
 7    1  0.6493044E-004  0.8498380E+02  0.7546771E-02  0.1350734E+00
          2   -1    0    0  503    0  0.00000000000E+00  0.00000000000E+00  0.17308935636E+04  0.17308935636E+04  0.00000000000E+00 0. -1.
         -2   -1    0    0    0  501 -0.00000000000E+00 -0.00000000000E+00 -0.71665681018E+02  0.71665681018E+02  0.00000000000E+00 0.  1.
         25    2    1    2    0    0  0.22690977116E+02  0.26886095845E+02  0.32450671366E+03  0.34952561335E+03  0.12500321829E+03 0.  0.
          4    1    3    3  502    0  0.56896640585E+02  0.37575664278E+02  0.93367113340E+02  0.11562088483E+03  0.12700000000E+01 0.  1.
         -4    1    3    3    0  502 -0.34205663469E+02 -0.10689568432E+02  0.23113960032E+03  0.23390472851E+03  0.12700000000E+01 0.  1.
          1    1    1    2  503    0 -0.84587536300E+02 -0.34874960692E+02  0.13754627930E+04  0.13785025241E+04  0.00000000000E+00 0. -1.
         -1    1    1    2    0  501  0.61896559184E+02  0.79888648467E+01 -0.40741624055E+02  0.74531107136E+02  0.00000000000E+00 0.  1.
<mgrwt>
<rscale>  0 0.72827452E+02</rscale>
<asrwt>0</asrwt>
<pdfrwt beam="1">  1        2 0.26629129E+00 0.84983805E+02</pdfrwt>
<pdfrwt beam="2">  1       -2 0.11025491E-01 0.62409983E+02</pdfrwt>
<totfact> 0.59625714E+02</totfact>
</mgrwt>
</event>
<event>
 7    1  0.6493044E-004  0.1189005E+03  0.7546771E-02  0.1429757E+00
         -2   -1    0    0    0  501 -0.00000000000E+00  0.00000000000E+00  0.10291567699E+04  0.10291567699E+04  0.00000000000E+00 0.  1.
          2   -1    0    0  503    0  0.00000000000E+00 -0.00000000000E+00 -0.13771789331E+04  0.13771789331E+04  0.00000000000E+00 0. -1.
         25    2    1    2    0    0 -0.12959139300E+03  0.56017814857E+02 -0.27946932475E+03  0.33713546319E+03  0.12500116937E+03 0.  0.
          4    1    3    3  502    0 -0.14332663051E+03  0.13805636416E+02 -0.20753926079E+03  0.25260102193E+03  0.12700000000E+01 0. -1.
         -4    1    3    3    0  502  0.13735237511E+02  0.42212178441E+02 -0.71930063954E+02  0.84534441257E+02  0.12700000000E+01 0. -1.
          1    1    1    2  503    0  0.23439475382E+02 -0.30153516256E+01 -0.10652267847E+04  0.10654889039E+04  0.00000000000E+00 0. -1.
         -1    1    1    2    0  501  0.10615191762E+03 -0.53002463232E+02  0.99667394631E+03  0.10037113360E+04  0.00000000000E+00 0.  1.
<mgrwt>
<rscale>  0 0.53008785E+02</rscale>
<asrwt>0</asrwt>
<pdfrwt beam="2">  1        2 0.21187368E+00 0.23632633E+02</pdfrwt>
<pdfrwt beam="1">  1       -2 0.15833181E+00 0.11890047E+03</pdfrwt>
<totfact> 0.56033688E+00</totfact>
</mgrwt>
</event>
<event>
 7    1  0.6493044E-004  0.6355442E+02  0.7546771E-02  0.1400939E+00
         -2   -1    0    0    0  501  0.00000000000E+00  0.00000000000E+00  0.82106094070E+03  0.82106094070E+03  0.00000000000E+00 0.  1.
         -1   -1    0    0    0  502 -0.00000000000E+00 -0.00000000000E+00 -0.66232927793E+02  0.66232927793E+02  0.00000000000E+00 0.  1.
         25    2    1    2    0    0  0.73809604727E+02 -0.68471612837E+02  0.17292701821E+03  0.23593479374E+03  0.12500101502E+03 0.  0.
          4    1    3    3  503    0  0.69226978350E+02  0.62196031112E+01  0.32349273744E+02  0.76675591984E+02  0.12700000000E+01 0.  1.
         -4    1    3    3    0  503  0.45826263777E+01 -0.74691215948E+02  0.14057774447E+03  0.15925920176E+03  0.12700000000E+01 0.  1.
         -2    1    1    2    0  502 -0.54476623185E+02  0.93105578214E+01 -0.10026258291E+02  0.56168628397E+02  0.00000000000E+00 0.  1.
         -1    1    1    2    0  501 -0.19332981542E+02  0.59161055015E+02  0.59192725298E+03  0.59519044635E+03  0.00000000000E+00 0.  1.
<mgrwt>
<rscale>  0 0.59265775E+02</rscale>
<asrwt>0</asrwt>
<pdfrwt beam="1">  1       -2 0.12631706E+00 0.63554421E+02</pdfrwt>
<pdfrwt beam="2">  1       -1 0.10189682E-01 0.55266527E+02</pdfrwt>
<totfact> 0.20561207E+02</totfact>
</mgrwt>
</event>
<event>
 7    1  0.6493044E-004  0.6714024E+02  0.7546771E-02  0.1530121E+00
          1   -1    0    0  502    0 -0.00000000000E+00  0.00000000000E+00  0.24691401508E+04  0.24691401508E+04  0.00000000000E+00 0. -1.
          2   -1    0    0  503    0  0.00000000000E+00 -0.00000000000E+00 -0.39792953829E+02  0.39792953829E+02  0.00000000000E+00 0. -1.
         25    2    1    2    0    0  0.69210556383E+02 -0.52402172193E+02  0.17510426687E+03  0.23199748978E+03  0.12500096889E+03 0.  0.
          4    1    3    3  501    0  0.74438338609E+02 -0.21345930450E+02  0.29268770497E+02  0.82794859913E+02  0.12700000000E+01 0. -1.
         -4    1    3    3    0  501 -0.52277822259E+01 -0.31056241743E+02  0.14583549637E+03  0.14920262987E+03  0.12700000000E+01 0. -1.
          2    1    1    2  502    0 -0.55697938571E+02  0.36880099130E+02  0.22553376981E+04  0.22563267792E+04  0.00000000000E+00 0. -1.
          1    1    1    2  503    0 -0.13512617812E+02  0.15522073063E+02 -0.10947679373E+01  0.20608835705E+02  0.00000000000E+00 0. -1.
<mgrwt>
<rscale>  0 0.37171608E+02</rscale>
<asrwt>0</asrwt>
<pdfrwt beam="2">  1        2 0.61219948E-02 0.20579737E+02</pdfrwt>
<pdfrwt beam="1">  1        1 0.37986760E+00 0.67140235E+02</pdfrwt>
<totfact> 0.26184196E+02</totfact>
</mgrwt>
</event>
<event>
 7    1  0.6493044E-004  0.8102614E+02  0.7546771E-02  0.1332557E+00
          2   -1    0    0  503    0  0.00000000000E+00  0.00000000000E+00  0.14946734743E+03  0.14946734743E+03  0.00000000000E+00 0. -1.
          1   -1    0    0  502    0 -0.00000000000E+00 -0.00000000000E+00 -0.29967171619E+03  0.29967171619E+03  0.00000000000E+00 0. -1.
         25    2    1    2    0    0 -0.86326042191E+02 -0.43502415858E+02 -0.19292812657E+03  0.24938046740E+03  0.12499883901E+03 0.  0.
          4    1    3    3  501    0 -0.37303098813E+02 -0.41683801041E+02 -0.61804171780E+01  0.56292725168E+02  0.12700000000E+01 0. -1.
         -4    1    3    3    0  501 -0.49022943378E+02 -0.18186148163E+01 -0.18674770939E+03  0.19308774223E+03  0.12700000000E+01 0. -1.
          2    1    1    2  502    0  0.10640312757E+02  0.75848761871E+02 -0.37097182831E+02  0.85102596358E+02  0.00000000000E+00 0. -1.
          1    1    1    2  503    0  0.75685729434E+02 -0.32346346013E+02  0.79820940636E+02  0.11465599986E+03  0.00000000000E+00 0. -1.
<mgrwt>
<rscale>  0 0.78777596E+02</rscale>
<asrwt>0</asrwt>
<pdfrwt beam="1">  1        2 0.22994977E-01 0.81026135E+02</pdfrwt>
<pdfrwt beam="2">  1        1 0.46103340E-01 0.76591455E+02</pdfrwt>
<totfact> 0.27146039E+03</totfact>
</mgrwt>
</event>
<event>
 7    1  0.6493044E-004  0.1039453E+03  0.7546771E-02  0.1371481E+00
          1   -1    0    0  502    0 -0.00000000000E+00  0.00000000000E+00  0.14955773386E+04  0.14955773386E+04  0.00000000000E+00 0. -1.
          2   -1    0    0  503    0  0.00000000000E+00 -0.00000000000E+00 -0.48159222251E+03  0.48159222251E+03  0.00000000000E+00 0. -1.
         25    2    1    2    0    0 -0.31102595426E+01 -0.93905867449E+02 -0.78625664167E+02  0.17502538507E+03  0.12499561871E+03 0.  0.
          4    1    3    3  501    0 -0.57798771399E+02 -0.22541022800E+02 -0.52789057433E+02  0.81468356856E+02  0.12700000000E+01 0. -1.
         -4    1    3    3    0  501  0.54688511857E+02 -0.71364844649E+02 -0.25836606734E+02  0.93557028215E+02  0.12700000000E+01 0. -1.
          2    1    1    2  502    0  0.42544830877E+02 -0.53006275171E+01  0.14390196281E+04  0.14396581710E+04  0.00000000000E+00 0. -1.
          1    1    1    2  503    0 -0.39434571335E+02  0.99206494966E+02 -0.34640884779E+03  0.36248600509E+03  0.00000000000E+00 0. -1.
<mgrwt>
<rscale>  0 0.66757203E+02</rscale>
<asrwt>0</asrwt>
<pdfrwt beam="2">  1        2 0.74091112E-01 0.10394526E+03</pdfrwt>
<pdfrwt beam="1">  1        1 0.23008882E+00 0.42873760E+02</pdfrwt>
<totfact> 0.77512989E+01</totfact>
</mgrwt>
</event>
<event>
 7    1  0.6493044E-004  0.8163165E+02  0.7546771E-02  0.1456652E+00
         -1   -1    0    0    0  501 -0.00000000000E+00  0.00000000000E+00  0.30557846162E+03  0.30557846162E+03  0.00000000000E+00 0.  1.
          1   -1    0    0  503    0  0.00000000000E+00 -0.00000000000E+00 -0.71937713133E+03  0.71937713133E+03  0.00000000000E+00 0. -1.
         25    2    1    2    0    0  0.20353609070E+02  0.57001263101E+02 -0.59161585926E+02  0.15095923602E+03  0.12500073716E+03 0.  0.
          4    1    3    3  502    0  0.42564201301E+02  0.47312647366E+02 -0.90922625578E+02  0.11098979491E+03  0.12700000000E+01 0. -1.
         -4    1    3    3    0  502 -0.22210592231E+02  0.96886157347E+01  0.31761039652E+02  0.39969441100E+02  0.12700000000E+01 0. -1.
          2    1    1    2  503    0 -0.11731237084E+02  0.25622213711E+02 -0.60733789347E+03  0.60799131293E+03  0.00000000000E+00 0. -1.
         -2    1    1    2    0  501 -0.86223719863E+01 -0.82623476811E+02  0.25270080968E+03  0.26600504400E+03  0.00000000000E+00 0.  1.
<mgrwt>
<rscale>  0 0.47962386E+02</rscale>
<asrwt>0</asrwt>
<pdfrwt beam="2">  1        1 0.11067340E+00 0.28180131E+02</pdfrwt>
<pdfrwt beam="1">  1       -1 0.47012072E-01 0.81631648E+02</pdfrwt>
<totfact> 0.14004161E+02</totfact>
</mgrwt>
</event>
<event>
 7    1  0.6493044E-004  0.6367478E+02  0.7546771E-02  0.1458131E+00
          2   -1    0    0  503    0  0.00000000000E+00  0.00000000000E+00  0.24136081645E+04  0.24136081645E+04  0.00000000000E+00 0. -1.
          1   -1    0    0  502    0 -0.00000000000E+00 -0.00000000000E+00 -0.65183770888E+01  0.65183770888E+01  0.00000000000E+00 0. -1.
         25    2    1    2    0    0  0.34238916859E+02 -0.25890799423E+02  0.11555747219E+04  0.11631070216E+04  0.12498947477E+03 0.  0.
          4    1    3    3  501    0 -0.30978759916E+02 -0.46625504496E+02  0.72145327972E+03  0.72362287757E+03  0.12700000000E+01 0. -1.
         -4    1    3    3    0  501  0.65217676775E+02  0.20734705074E+02  0.43412144222E+03  0.43948414403E+03  0.12700000000E+01 0. -1.
          2    1    1    2  502    0 -0.69804535219E+02  0.29415024449E+02  0.64119206670E+03  0.64565097631E+03  0.00000000000E+00 0. -1.
          1    1    1    2  503    0  0.35565618360E+02 -0.35242250268E+01  0.61032299879E+03  0.61136854370E+03  0.00000000000E+00 0. -1.
<mgrwt>
<rscale>  0 0.47704549E+02</rscale>
<asrwt>0</asrwt>
<pdfrwt beam="1">  1        2 0.37132362E+00 0.35739801E+02</pdfrwt>
<pdfrwt beam="2">  1        1 0.10028292E-02 0.63674782E+02</pdfrwt>
<totfact> 0.10303234E+04</totfact>
</mgrwt>
</event>
<event>
 7    1  0.6493044E-004  0.1361654E+03  0.7546771E-02  0.1313766E+00
          2   -1    0    0  503    0  0.00000000000E+00  0.00000000000E+00  0.28157671220E+04  0.28157671220E+04  0.00000000000E+00 0. -1.
          1   -1    0    0  502    0 -0.00000000000E+00 -0.00000000000E+00 -0.23098098900E+02  0.23098098900E+02  0.00000000000E+00 0. -1.
         25    2    1    2    0    0  0.33136639737E+02  0.87469373520E+02  0.40663218949E+03  0.43557249155E+03  0.12499891867E+03 0.  0.
          4    1    3    3  501    0  0.47203866834E+02  0.89634711742E+02  0.40875759495E+03  0.42112583740E+03  0.12700000000E+01 0. -1.
         -4    1    3    3    0  501 -0.14067227097E+02 -0.21653382220E+01 -0.21254054607E+01  0.14446654152E+02  0.12700000000E+01 0. -1.
          2    1    1    2  502    0 -0.79105084526E+01  0.53278983916E+02  0.10717095231E+03  0.11994515118E+03  0.00000000000E+00 0. -1.
          1    1    1    2  503    0 -0.25226131285E+02 -0.14074835744E+03  0.22788658813E+04  0.22833475782E+04  0.00000000000E+00 0. -1.
<mgrwt>
<rscale>  0 0.85640420E+02</rscale>
<asrwt>0</asrwt>
<pdfrwt beam="1">  1        2 0.43319467E+00 0.13616540E+03</pdfrwt>
<pdfrwt beam="2">  1        1 0.35535559E-02 0.53863033E+02</pdfrwt>
<totfact> 0.90758762E+02</totfact>
</mgrwt>
</event>
<event>
 7    1  0.6493044E-004  0.5230408E+02  0.7546771E-02  0.1572495E+00
          2   -1    0    0  503    0  0.00000000000E+00  0.00000000000E+00  0.21274503462E+04  0.21274503462E+04  0.00000000000E+00 0. -1.
         -2   -1    0    0    0  501 -0.00000000000E+00 -0.00000000000E+00 -0.28028593080E+02  0.28028593080E+02  0.00000000000E+00 0.  1.
         25    2    1    2    0    0 -0.17480470685E+02  0.59822658771E+02  0.10200387066E+04  0.10295583343E+04  0.12500833346E+03 0.  0.
          4    1    3    3  502    0 -0.62663644832E+02  0.62588210065E+02  0.80132522627E+03  0.80620577248E+03  0.12700000000E+01 0. -1.
         -4    1    3    3    0  502  0.45183174148E+02 -0.27655512937E+01  0.21871348035E+03  0.22335256185E+03  0.12700000000E+01 0. -1.
          1    1    1    2  503    0  0.18585151709E+02 -0.77367951672E+01  0.10732777247E+04  0.10734665063E+04  0.00000000000E+00 0. -1.
         -1    1    1    2    0  501 -0.11046810239E+01 -0.52085863604E+02  0.61053217959E+01  0.52454098618E+02  0.00000000000E+00 0.  1.
<mgrwt>
<rscale>  0 0.32449111E+02</rscale>
<asrwt>0</asrwt>
<pdfrwt beam="1">  1        2 0.32729993E+00 0.20131216E+02</pdfrwt>
<pdfrwt beam="2">  1       -2 0.43120929E-02 0.52304083E+02</pdfrwt>
<totfact> 0.18212552E+03</totfact>
</mgrwt>
</event>
<event>
 7    1  0.6493044E-004  0.1153002E+03  0.7546771E-02  0.1260795E+00
          2   -1    0    0  503    0  0.00000000000E+00  0.00000000000E+00  0.60759557661E+03  0.60759557661E+03  0.00000000000E+00 0. -1.
         -2   -1    0    0    0  501 -0.00000000000E+00 -0.00000000000E+00 -0.13162595514E+03  0.13162595514E+03  0.00000000000E+00 0.  1.
         25    2    1    2    0    0 -0.13928371976E+02  0.96660579495E+02  0.36093876086E+02  0.16268445988E+03  0.12500479359E+03 0.  0.
          4    1    3    3  502    0  0.48016551198E+02  0.81886498068E+02  0.21725273879E+02  0.97388850388E+02  0.12700000000E+01 0. -1.
         -4    1    3    3    0  502 -0.61944923174E+02  0.14774081427E+02  0.14368602207E+02  0.65295609488E+02  0.12700000000E+01 0. -1.
          1    1    1    2  503    0  0.10251110718E+03  0.21356613658E+02  0.41360412573E+03  0.42665326069E+03  0.00000000000E+00 0. -1.
         -1    1    1    2    0  501 -0.88582735207E+02 -0.11801719315E+03  0.26271619656E+02  0.14988381119E+03  0.00000000000E+00 0.  1.
<mgrwt>
<rscale>  0 0.10987871E+03</rscale>
<asrwt>0</asrwt>
<pdfrwt beam="1">  1        2 0.93476241E-01 0.10471214E+03</pdfrwt>
<pdfrwt beam="2">  1       -2 0.20250147E-01 0.11530020E+03</pdfrwt>
<totfact> 0.10209057E+03</totfact>
</mgrwt>
</event>
<event>
 7    1  0.6493044E-004  0.1555367E+03  0.7546771E-02  0.1239850E+00
         -2   -1    0    0    0  501 -0.00000000000E+00  0.00000000000E+00  0.42656640940E+03  0.42656640940E+03  0.00000000000E+00 0.  1.
          2   -1    0    0  503    0  0.00000000000E+00 -0.00000000000E+00 -0.70105494048E+03  0.70105494048E+03  0.00000000000E+00 0. -1.
         25    2    1    2    0    0  0.12898375373E+03 -0.14517270443E+02 -0.16961094367E+03  0.24746869763E+03  0.12500129689E+03 0.  0.
          4    1    3    3  502    0  0.10032834714E+03  0.34182339452E+01 -0.18485920644E+03  0.21036159504E+03  0.12700000000E+01 0. -1.
         -4    1    3    3    0  502  0.28655406588E+02 -0.17935504388E+02  0.15248262773E+02  0.37107102581E+02  0.12700000000E+01 0. -1.
          1    1    1    2  503    0  0.85963908170E+01  0.95291692159E+02 -0.47108451357E+03  0.48070263517E+03  0.00000000000E+00 0. -1.
         -1    1    1    2    0  501 -0.13758014455E+03 -0.80774421716E+02  0.36620692616E+03  0.39945001708E+03  0.00000000000E+00 0.  1.
<mgrwt>
<rscale>  0 0.12198992E+03</rscale>
<asrwt>0</asrwt>
<pdfrwt beam="2">  1        2 0.10785461E+00 0.95678652E+02</pdfrwt>
<pdfrwt beam="1">  1       -2 0.65625602E-01 0.15553669E+03</pdfrwt>
<totfact> 0.96525588E+01</totfact>
</mgrwt>
</event>
<event>
 7    1  0.6493044E-004  0.6626901E+02  0.7546771E-02  0.1412589E+00
         -2   -1    0    0    0  501 -0.00000000000E+00  0.00000000000E+00  0.22260193703E+03  0.22260193703E+03  0.00000000000E+00 0.  1.
          2   -1    0    0  503    0  0.00000000000E+00 -0.00000000000E+00 -0.36648733055E+03  0.36648733055E+03  0.00000000000E+00 0. -1.
         25    2    1    2    0    0  0.91882556189E+02 -0.66684310738E+02  0.10127626529E+03  0.19690480811E+03  0.12500168046E+03 0.  0.
          4    1    3    3  502    0 -0.15848814830E+02 -0.66665428990E+01 -0.18287966590E+02  0.25133450773E+02  0.12700000000E+01 0.  1.
         -4    1    3    3    0  502  0.10773137102E+03 -0.60017767839E+02  0.11956423188E+03  0.17177135734E+03  0.12700000000E+01 0.  1.
          1    1    1    2  503    0 -0.53502461701E+02  0.37235644937E+02 -0.30690251884E+03  0.31374856610E+03  0.00000000000E+00 0. -1.
         -1    1    1    2    0  501 -0.38380094488E+02  0.29448665801E+02  0.61740860035E+02  0.78435893367E+02  0.00000000000E+00 0.  1.
<mgrwt>
<rscale>  0 0.56620156E+02</rscale>
<asrwt>0</asrwt>
<pdfrwt beam="2">  1        2 0.56382666E-01 0.66269010E+02</pdfrwt>
<pdfrwt beam="1">  1       -2 0.34246452E-01 0.48376188E+02</pdfrwt>
<totfact> 0.68928091E+02</totfact>
</mgrwt>
</event>
<event>
 7    1  0.6493044E-004  0.1331947E+03  0.7546771E-02  0.1284103E+00
          1   -1    0    0  503    0  0.00000000000E+00  0.00000000000E+00  0.36292735545E+02  0.36292735545E+02  0.00000000000E+00 0. -1.
         -1   -1    0    0    0  501 -0.00000000000E+00 -0.00000000000E+00 -0.24346265000E+04  0.24346265000E+04  0.00000000000E+00 0.  1.
         25    2    1    2    0    0  0.16339033880E+03 -0.21217383607E+02 -0.43050769442E+03  0.47760800417E+03  0.12500380198E+03 0.  0.
          4    1    3    3  502    0  0.43944017091E+02 -0.19760221553E+02 -0.23870630079E+02  0.53786270314E+02  0.12700000000E+01 0. -1.
         -4    1    3    3    0  502  0.11944632171E+03 -0.14571620543E+01 -0.40663706434E+03  0.42382173386E+03  0.12700000000E+01 0. -1.
          2    1    1    2  503    0 -0.11330486206E+03 -0.31085407157E+02 -0.27639463237E+03  0.30033029669E+03  0.00000000000E+00 0. -1.
         -2    1    1    2    0  501 -0.50085476739E+02  0.52302790765E+02 -0.16914314376E+04  0.16929809347E+04  0.00000000000E+00 0.  1.
<mgrwt>
<rscale>  0 0.98211409E+02</rscale>
<asrwt>0</asrwt>
<pdfrwt beam="1">  1        1 0.55834963E-02 0.13319468E+03</pdfrwt>
<pdfrwt beam="2">  1       -1 0.37455802E+00 0.72416413E+02</pdfrwt>
<totfact> 0.21386190E+01</totfact>
</mgrwt>
</event>
<event>
 7    1  0.6493044E-004  0.1039724E+03  0.7546771E-02  0.1414329E+00
          1   -1    0    0  502    0 -0.00000000000E+00  0.00000000000E+00  0.29964461898E+03  0.29964461898E+03  0.00000000000E+00 0. -1.
          2   -1    0    0  503    0  0.00000000000E+00 -0.00000000000E+00 -0.97588782240E+03  0.97588782240E+03  0.00000000000E+00 0. -1.
         25    2    1    2    0    0  0.11278886078E+03 -0.32572617802E+02  0.68169009817E+02  0.18453537565E+03  0.12499595362E+03 0.  0.
          4    1    3    3  501    0  0.11722815351E+03 -0.67869422561E+02  0.59142815951E+02  0.14781131240E+03  0.12700000000E+01 0. -1.
         -4    1    3    3    0  501 -0.44392927341E+01  0.35296804759E+02  0.90261938655E+01  0.36724063254E+02  0.12700000000E+01 0. -1.
          2    1    1    2  502    0 -0.91085389200E+01  0.29024138894E+02  0.16899826882E+03  0.17171424223E+03  0.00000000000E+00 0. -1.
          1    1    1    2  503    0 -0.10368032186E+03  0.35484789083E+01 -0.91341048206E+03  0.91928282350E+03  0.00000000000E+00 0. -1.
<mgrwt>
<rscale>  0 0.56238967E+02</rscale>
<asrwt>0</asrwt>
<pdfrwt beam="2">  1        2 0.15013659E+00 0.10397235E+03</pdfrwt>
<pdfrwt beam="1">  1        1 0.46099173E-01 0.30419831E+02</pdfrwt>
<totfact> 0.34003576E+02</totfact>
</mgrwt>
</event>
<event>
 7    1  0.6493044E-004  0.6814941E+02  0.7546771E-02  0.1382869E+00
          2   -1    0    0  503    0  0.00000000000E+00  0.00000000000E+00  0.18448600502E+04  0.18448600502E+04  0.00000000000E+00 0. -1.
         -2   -1    0    0    0  501 -0.00000000000E+00 -0.00000000000E+00 -0.56197000612E+02  0.56197000612E+02  0.00000000000E+00 0.  1.
         25    2    1    2    0    0 -0.23658005142E+02 -0.13131035974E+02  0.24395665311E+03  0.27544795904E+03  0.12499841691E+03 0.  0.
          4    1    3    3  502    0 -0.66235867450E+02 -0.94692499852E+01  0.21131313356E+03  0.22165673946E+03  0.12700000000E+01 0.  1.
         -4    1    3    3    0  502  0.42577862308E+02 -0.36617859888E+01  0.32643519551E+02  0.53791219581E+02  0.12700000000E+01 0.  1.
          1    1    1    2  503    0 -0.47631606528E+02  0.35774818247E+02  0.15495109029E+04  0.15506555536E+04  0.00000000000E+00 0. -1.
         -1    1    1    2    0  501  0.71289611670E+02 -0.22643782273E+02 -0.48045064338E+01  0.74953538207E+02  0.00000000000E+00 0.  1.
<mgrwt>
<rscale>  0 0.63715565E+02</rscale>
<asrwt>0</asrwt>
<pdfrwt beam="1">  1        2 0.28382458E+00 0.59570190E+02</pdfrwt>
<pdfrwt beam="2">  1       -2 0.86456938E-02 0.68149408E+02</pdfrwt>
<totfact> 0.79405971E+02</totfact>
</mgrwt>
</event>
<event>
 7    1  0.6493044E-004  0.2454905E+03  0.7546771E-02  0.1184237E+00
          1   -1    0    0  502    0 -0.00000000000E+00  0.00000000000E+00  0.25713929711E+04  0.25713929711E+04  0.00000000000E+00 0. -1.
          2   -1    0    0  503    0  0.00000000000E+00 -0.00000000000E+00 -0.23381264161E+03  0.23381264161E+03  0.00000000000E+00 0. -1.
         25    2    1    2    0    0  0.20833447254E+03  0.30442576482E+02  0.10133350189E+04  0.10424987701E+04  0.12500328854E+03 0.  0.
          4    1    3    3  501    0 -0.50812891725E+01 -0.15555473643E+02  0.19007608940E+03  0.19078345033E+03  0.12700000000E+01 0.  1.
         -4    1    3    3    0  501  0.21341576171E+03  0.45998050125E+02  0.82325892950E+03  0.85171531973E+03  0.12700000000E+01 0.  1.
          2    1    1    2  502    0 -0.20459244134E+01  0.10956154209E+03  0.14698912274E+04  0.14739701956E+04  0.00000000000E+00 0. -1.
          1    1    1    2  503    0 -0.20628854812E+03 -0.14000411857E+03 -0.14564591673E+03  0.28873664707E+03  0.00000000000E+00 0. -1.
<mgrwt>
<rscale>  0 0.16401526E+03</rscale>
<asrwt>0</asrwt>
<pdfrwt beam="2">  1        2 0.35971177E-01 0.24549048E+03</pdfrwt>
<pdfrwt beam="1">  1        1 0.39559890E+00 0.10958064E+03</pdfrwt>
<totfact> 0.31629673E+01</totfact>
</mgrwt>
</event>
<event>
 7    1  0.6493044E-004  0.1859640E+03  0.7546771E-02  0.1275262E+00
          2   -1    0    0  503    0  0.00000000000E+00  0.00000000000E+00  0.15521602477E+04  0.15521602477E+04  0.00000000000E+00 0. -1.
         -2   -1    0    0    0  501 -0.00000000000E+00 -0.00000000000E+00 -0.36318550413E+03  0.36318550413E+03  0.00000000000E+00 0.  1.
         25    2    1    2    0    0  0.23253566231E+02 -0.14830227282E+03  0.49096161698E+03  0.52840396042E+03  0.12503257001E+03 0.  0.
          4    1    3    3  502    0  0.24078853147E+02 -0.70973090950E+02  0.77682523366E+02  0.10794979455E+03  0.12700000000E+01 0. -1.
         -4    1    3    3    0  502 -0.82528691569E+00 -0.77329181872E+02  0.41327909362E+03  0.42045416586E+03  0.12700000000E+01 0. -1.
          3    1    1    2  503    0  0.50833851287E+02 -0.24481632282E+02  0.10159854482E+04  0.10175509135E+04  0.00000000000E+00 0. -1.
         -1    1    1    2    0  501 -0.74087417518E+02  0.17278390510E+03 -0.31797232163E+03  0.36939087783E+03  0.00000000000E+00 0.  1.
<mgrwt>
<rscale>  0 0.10243263E+03</rscale>
<asrwt>0</asrwt>
<pdfrwt beam="1">  1        2 0.23879388E+00 0.56421900E+02</pdfrwt>
<pdfrwt beam="2">  1       -2 0.55874694E-01 0.18596402E+03</pdfrwt>
<totfact> 0.45484868E+01</totfact>
</mgrwt>
</event>
<event>
 7    1  0.6493044E-004  0.4643249E+02  0.7546771E-02  0.1525528E+00
          2   -1    0    0  503    0  0.00000000000E+00  0.00000000000E+00  0.14632511239E+04  0.14632511239E+04  0.00000000000E+00 0. -1.
          1   -1    0    0  502    0 -0.00000000000E+00 -0.00000000000E+00 -0.54309569600E+03  0.54309569600E+03  0.00000000000E+00 0. -1.
         25    2    1    2    0    0 -0.67930475313E+02 -0.35513921595E+02  0.70648181687E+01  0.14684239601E+03  0.12504794883E+03 0.  0.
          4    1    3    3  501    0  0.18473309774E+02  0.25154670159E+02 -0.20943876727E+02  0.37606907307E+02  0.12700000000E+01 0.  1.
         -4    1    3    3    0  501 -0.86403785087E+02 -0.60668591754E+02  0.28008694895E+02  0.10923548870E+03  0.12700000000E+01 0.  1.
          2    1    1    2  502    0  0.25520742483E+02  0.17020473641E+02 -0.47232319309E+03  0.47331828989E+03  0.00000000000E+00 0. -1.
          1    1    1    2  503    0  0.42409732831E+02  0.18493447954E+02  0.13854138028E+04  0.13861861340E+04  0.00000000000E+00 0. -1.
<mgrwt>
<rscale>  0 0.37740611E+02</rscale>
<asrwt>0</asrwt>
<pdfrwt beam="1">  1        2 0.22511556E+00 0.46432486E+02</pdfrwt>
<pdfrwt beam="2">  1        1 0.83553184E-01 0.30675802E+02</pdfrwt>
<totfact> 0.96561659E+01</totfact>
</mgrwt>
</event>
<event>
 7    1  0.6493044E-004  0.8855032E+02  0.7546771E-02  0.1417577E+00
          2   -1    0    0  503    0  0.00000000000E+00  0.00000000000E+00  0.36403421651E+03  0.36403421651E+03  0.00000000000E+00 0. -1.
         -2   -1    0    0    0  501 -0.00000000000E+00 -0.00000000000E+00 -0.21358228239E+03  0.21358228239E+03  0.00000000000E+00 0.  1.
         25    2    1    2    0    0 -0.88831295560E+02 -0.29876335891E+02  0.56964990248E+02  0.16629371929E+03  0.12499998578E+03 0.  0.
          4    1    3    3  502    0  0.27458008295E+02  0.31327287096E+01  0.32980322614E+02  0.43047308724E+02  0.12700000000E+01 0. -1.
         -4    1    3    3    0  502 -0.11628930385E+03 -0.33009064600E+02  0.23984667634E+02  0.12324641057E+03  0.12700000000E+01 0. -1.
          1    1    1    2  503    0  0.32564545693E+00  0.34829908724E+02  0.23868028088E+03  0.24120842661E+03  0.00000000000E+00 0. -1.
         -1    1    1    2    0  501  0.88505650103E+02 -0.49535728334E+01 -0.14519333701E+03  0.17011435300E+03  0.00000000000E+00 0.  1.
<mgrwt>
<rscale>  0 0.55536785E+02</rscale>
<asrwt>0</asrwt>
<pdfrwt beam="1">  1        2 0.56005264E-01 0.34831431E+02</pdfrwt>
<pdfrwt beam="2">  1       -2 0.32858813E-01 0.88550323E+02</pdfrwt>
<totfact> 0.75619275E+02</totfact>
</mgrwt>
</event>
<event>
 7    1  0.6493044E-004  0.1077385E+03  0.7546771E-02  0.1376595E+00
          1   -1    0    0  503    0  0.00000000000E+00  0.00000000000E+00  0.66196842454E+03  0.66196842454E+03  0.00000000000E+00 0. -1.
         -1   -1    0    0    0  501 -0.00000000000E+00 -0.00000000000E+00 -0.26290247369E+03  0.26290247369E+03  0.00000000000E+00 0.  1.
         25    2    1    2    0    0  0.29094536107E+02 -0.12392763584E+03  0.22210628373E+03  0.28488255262E+03  0.12498926578E+03 0.  0.
          4    1    3    3  502    0 -0.35848507933E+01  0.19412071889E+02  0.72403451000E+02  0.75056993724E+02  0.12700000000E+01 0.  1.
         -4    1    3    3    0  502  0.32679386900E+02 -0.14333970773E+03  0.14970283273E+03  0.20982555890E+03  0.12700000000E+01 0.  1.
          2    1    1    2  503    0 -0.51201888984E+02  0.91001103761E+02  0.40002329077E+03  0.41342649586E+03  0.00000000000E+00 0. -1.
         -2    1    1    2    0  501  0.22107352877E+02  0.32926532078E+02 -0.22306362365E+03  0.22656184974E+03  0.00000000000E+00 0.  1.
<mgrwt>
<rscale>  0 0.65367240E+02</rscale>
<asrwt>0</asrwt>
<pdfrwt beam="1">  1        1 0.10184130E+00 0.10773849E+03</pdfrwt>
<pdfrwt beam="2">  1       -1 0.40446535E-01 0.39659697E+02</pdfrwt>
<totfact> 0.19200101E+02</totfact>
</mgrwt>
</event>
<event>
 7    1  0.6493044E-004  0.7546216E+02  0.7546771E-02  0.1409947E+00
         -2   -1    0    0    0  501 -0.00000000000E+00  0.00000000000E+00  0.16681075395E+02  0.16681075395E+02  0.00000000000E+00 0.  1.
          2   -1    0    0  503    0  0.00000000000E+00 -0.00000000000E+00 -0.14932723226E+04  0.14932723226E+04  0.00000000000E+00 0. -1.
         25    2    1    2    0    0  0.13011032150E+01  0.10567697946E+03 -0.59583199987E+03  0.61790861697E+03  0.12500387996E+03 0.  0.
          4    1    3    3  502    0 -0.30355811628E+02  0.57606583830E+02 -0.10393784576E+03  0.12265676696E+03  0.12700000000E+01 0. -1.
         -4    1    3    3    0  502  0.31656914843E+02  0.48070395629E+02 -0.49189415411E+03  0.49525185002E+03  0.12700000000E+01 0. -1.
          1    1    1    2  503    0  0.20871894092E+02 -0.68408331758E+02 -0.76655286217E+03  0.76988221587E+03  0.00000000000E+00 0. -1.
         -1    1    1    2    0  501 -0.22172997307E+02 -0.37268647701E+02 -0.11420638518E+03  0.12216256517E+03  0.00000000000E+00 0.  1.
<mgrwt>
<rscale>  0 0.57205577E+02</rscale>
<asrwt>0</asrwt>
<pdfrwt beam="2">  1        2 0.22973417E+00 0.75462160E+02</pdfrwt>
<pdfrwt beam="1">  1       -2 0.25663197E-02 0.43365815E+02</pdfrwt>
<totfact> 0.65120226E+03</totfact>
</mgrwt>
</event>
<event>
 7    1  0.6493044E-004  0.1073818E+03  0.7546771E-02  0.1315177E+00
          1   -1    0    0  502    0 -0.00000000000E+00  0.00000000000E+00  0.60178191831E+03  0.60178191831E+03  0.00000000000E+00 0. -1.
          2   -1    0    0  503    0  0.00000000000E+00 -0.00000000000E+00 -0.14621273954E+04  0.14621273954E+04  0.00000000000E+00 0. -1.
         25    2    1    2    0    0 -0.50903894642E+02 -0.16594198254E+03 -0.43979582822E+03  0.48905367662E+03  0.12500072015E+03 0.  0.
          4    1    3    3  501    0 -0.34802309599E+01  0.20834780661E+02 -0.46042659847E+02  0.50672867676E+02  0.12700000000E+01 0. -1.
         -4    1    3    3    0  501 -0.47423663682E+02 -0.18677676320E+03 -0.39375316837E+03  0.43838080894E+03  0.12700000000E+01 0. -1.
          2    1    1    2  502    0  0.37637970758E+02  0.99821378438E+02  0.57106815505E+03  0.58094729722E+03  0.00000000000E+00 0. -1.
          1    1    1    2  503    0  0.13265923885E+02  0.66120604099E+02 -0.99161780391E+03  0.99390833987E+03  0.00000000000E+00 0. -1.
<mgrwt>
<rscale>  0 0.85097852E+02</rscale>
<asrwt>0</asrwt>
<pdfrwt beam="2">  1        2 0.22494267E+00 0.67438261E+02</pdfrwt>
<pdfrwt beam="1">  1        1 0.92581835E-01 0.10738184E+03</pdfrwt>
<totfact> 0.79039825E+01</totfact>
</mgrwt>
</event>
<event>
 7    1  0.6493044E-004  0.9078741E+02  0.7546771E-02  0.1430611E+00
          2   -1    0    0  503    0  0.00000000000E+00  0.00000000000E+00  0.77713067940E+03  0.77713067940E+03  0.00000000000E+00 0. -1.
          1   -1    0    0  502    0 -0.00000000000E+00 -0.00000000000E+00 -0.90614835283E+02  0.90614835283E+02  0.00000000000E+00 0. -1.
         25    2    1    2    0    0  0.70807674331E+01 -0.10323786617E+03  0.36239420018E+03  0.39706698185E+03  0.12499774986E+03 0.  0.
          4    1    3    3  501    0  0.22094671245E+02 -0.55571348618E+02  0.42713382078E+02  0.73500987702E+02  0.12700000000E+01 0.  1.
         -4    1    3    3    0  501 -0.15013903812E+02 -0.47666517548E+02  0.31968081810E+03  0.32356599414E+03  0.12700000000E+01 0.  1.
          2    1    1    2  502    0 -0.31447306803E+02  0.84478896172E+02 -0.44672595128E+02  0.10060446192E+03  0.00000000000E+00 0. -1.
          1    1    1    2  503    0  0.24366539369E+02  0.18758969993E+02  0.36879423906E+03  0.37007407091E+03  0.00000000000E+00 0. -1.
<mgrwt>
<rscale>  0 0.52837564E+02</rscale>
<asrwt>0</asrwt>
<pdfrwt beam="1">  1        2 0.11955856E+00 0.30751052E+02</pdfrwt>
<pdfrwt beam="2">  1        1 0.13940744E-01 0.90787405E+02</pdfrwt>
<totfact> 0.21102308E+03</totfact>
</mgrwt>
</event>
<event>
 7    1  0.6493044E-004  0.1533364E+03  0.7546771E-02  0.1291058E+00
          2   -1    0    0  503    0  0.00000000000E+00  0.00000000000E+00  0.23484146175E+04  0.23484146175E+04  0.00000000000E+00 0. -1.
          1   -1    0    0  502    0 -0.00000000000E+00 -0.00000000000E+00 -0.25381675007E+03  0.25381675007E+03  0.00000000000E+00 0. -1.
         25    2    1    2    0    0 -0.14878935424E+03  0.42005545257E+02  0.34353270166E+03  0.39691575948E+03  0.12499866096E+03 0.  0.
          4    1    3    3  501    0 -0.14828820250E+03 -0.71266779703E+01  0.23819782122E+03  0.28067774310E+03  0.12700000000E+01 0.  1.
         -4    1    3    3    0  501 -0.50115173450E+00  0.49132223228E+02  0.10533488044E+03  0.11623801637E+03  0.12700000000E+01 0.  1.
          2    1    1    2  502    0  0.15307715335E+03  0.16760844841E+02 -0.20052753772E+03  0.25283360968E+03  0.00000000000E+00 0. -1.
          1    1    1    2  503    0 -0.42877991176E+01 -0.58766390098E+02  0.19515927034E+04  0.19524819984E+04  0.00000000000E+00 0. -1.
<mgrwt>
<rscale>  0 0.95052528E+02</rscale>
<asrwt>0</asrwt>
<pdfrwt beam="1">  1        2 0.36129454E+00 0.58922609E+02</pdfrwt>
<pdfrwt beam="2">  1        1 0.39048732E-01 0.15333644E+03</pdfrwt>
<totfact> 0.86643707E+01</totfact>
</mgrwt>
</event>
<event>
 7    1  0.6493044E-004  0.1658494E+03  0.7546771E-02  0.1292395E+00
         -1   -1    0    0    0  501 -0.00000000000E+00  0.00000000000E+00  0.14203608293E+04  0.14203608293E+04  0.00000000000E+00 0.  1.
          1   -1    0    0  503    0  0.00000000000E+00 -0.00000000000E+00 -0.64115175062E+02  0.64115175062E+02  0.00000000000E+00 0. -1.
         25    2    1    2    0    0 -0.10418747777E+03  0.17032335751E+03  0.39251143366E+03  0.45778746028E+03  0.12505621377E+03 0.  0.
          4    1    3    3  502    0 -0.26484448710E+02  0.14425377240E+03  0.19548549841E+03  0.24439060920E+03  0.12700000000E+01 0. -1.
         -4    1    3    3    0  502 -0.77703029063E+02  0.26069585113E+02  0.19702593525E+03  0.21339685109E+03  0.12700000000E+01 0. -1.
          2    1    1    2  503    0  0.49875270412E+02 -0.20174166342E+02  0.42049062991E+01  0.53964996278E+02  0.00000000000E+00 0. -1.
         -2    1    1    2    0  501  0.54312207361E+02 -0.15014919117E+03  0.95952931427E+03  0.97272354778E+03  0.00000000000E+00 0.  1.
<mgrwt>
<rscale>  0 0.94460851E+02</rscale>
<asrwt>0</asrwt>
<pdfrwt beam="2">  1        1 0.98638742E-02 0.53800926E+02</pdfrwt>
<pdfrwt beam="1">  1       -1 0.21851703E+00 0.16584942E+03</pdfrwt>
<totfact> 0.78320658E+01</totfact>
</mgrwt>
</event>
<event>
 7    1  0.6493044E-004  0.1274763E+03  0.7546771E-02  0.1365505E+00
          2   -1    0    0  503    0  0.00000000000E+00  0.00000000000E+00  0.73828372710E+03  0.73828372710E+03  0.00000000000E+00 0. -1.
          1   -1    0    0  502    0 -0.00000000000E+00 -0.00000000000E+00 -0.41618764492E+03  0.41618764492E+03  0.00000000000E+00 0. -1.
         25    2    1    2    0    0  0.78668852003E+02 -0.61982854152E+02  0.97145029645E+02  0.18731731172E+03  0.12497982238E+03 0.  0.
          4    1    3    3  501    0 -0.24024723628E+02 -0.39727156364E+02  0.35246562538E+01  0.46577574002E+02  0.12700000000E+01 0. -1.
         -4    1    3    3    0  501  0.10269357563E+03 -0.22255697787E+02  0.93620373392E+02  0.14073973772E+03  0.12700000000E+01 0. -1.
          2    1    1    2  502    0  0.10950260676E+02 -0.35066495657E+02 -0.36284356006E+03  0.36469852811E+03  0.00000000000E+00 0. -1.
          1    1    1    2  503    0 -0.89619112680E+02  0.97049349809E+02  0.58779461260E+03  0.60245553218E+03  0.00000000000E+00 0. -1.
<mgrwt>
<rscale>  0 0.68432646E+02</rscale>
<asrwt>0</asrwt>
<pdfrwt beam="1">  1        2 0.11358211E+00 0.12747628E+03</pdfrwt>
<pdfrwt beam="2">  1        1 0.64028869E-01 0.36736458E+02</pdfrwt>
<totfact> 0.32566422E+02</totfact>
</mgrwt>
</event>
<event>
 7    1  0.6493044E-004  0.6946577E+02  0.7546771E-02  0.1472378E+00
          2   -1    0    0  503    0  0.00000000000E+00  0.00000000000E+00  0.33700412291E+04  0.33700412291E+04  0.00000000000E+00 0. -1.
         -2   -1    0    0    0  501 -0.00000000000E+00 -0.00000000000E+00 -0.93067929584E+01  0.93067929584E+01  0.00000000000E+00 0.  1.
         25    2    1    2    0    0  0.51937914902E+01  0.50391541766E+02  0.25092362057E+04  0.25128585128E+04  0.12500114525E+03 0.  0.
          4    1    3    3  502    0 -0.40647230020E+01  0.53527733506E+02  0.24948003941E+04  0.24953781997E+04  0.12700000000E+01 0.  1.
         -4    1    3    3    0  502  0.92585144922E+01 -0.31361917405E+01  0.14435811645E+02  0.17480313129E+02  0.12700000000E+01 0.  1.
          1    1    1    2  503    0 -0.23236694496E+02  0.18274780859E+02  0.68306616529E+03  0.68370556364E+03  0.00000000000E+00 0. -1.
         -1    1    1    2    0  501  0.18042903006E+02 -0.68666322624E+02  0.16843206515E+03  0.18278394564E+03  0.00000000000E+00 0.  1.
<mgrwt>
<rscale>  0 0.45316075E+02</rscale>
<asrwt>0</asrwt>
<pdfrwt beam="1">  1        2 0.51846691E+00 0.29561996E+02</pdfrwt>
<pdfrwt beam="2">  1       -2 0.14318170E-02 0.69465767E+02</pdfrwt>
<totfact> 0.19548073E+03</totfact>
</mgrwt>
</event>
<event>
 7    1  0.6493044E-004  0.1013959E+03  0.7546771E-02  0.1356619E+00
          1   -1    0    0  502    0 -0.00000000000E+00  0.00000000000E+00  0.30570250476E+04  0.30570250476E+04  0.00000000000E+00 0. -1.
          2   -1    0    0  503    0  0.00000000000E+00 -0.00000000000E+00 -0.13803100724E+04  0.13803100724E+04  0.00000000000E+00 0. -1.
         25    2    1    2    0    0  0.10600526074E+03  0.91948005114E+02  0.40439896891E+03  0.44593192877E+03  0.12500083235E+03 0.  0.
          4    1    3    3  501    0  0.69798881790E+02  0.56242796155E+01  0.28884157158E+03  0.29721134364E+03  0.12700000000E+01 0.  1.
         -4    1    3    3    0  501  0.36206378954E+02  0.86323725498E+02  0.11555739734E+03  0.14872058513E+03  0.12700000000E+01 0.  1.
          2    1    1    2  502    0 -0.88984143860E+02 -0.45189163390E+02  0.26304576764E+04  0.26323502475E+04  0.00000000000E+00 0. -1.
          1    1    1    2  503    0 -0.17021116884E+02 -0.46758841724E+02 -0.13581416701E+04  0.13590529437E+04  0.00000000000E+00 0. -1.
<mgrwt>
<rscale>  0 0.71031777E+02</rscale>
<asrwt>0</asrwt>
<pdfrwt beam="2">  1        2 0.21235540E+00 0.49760503E+02</pdfrwt>
<pdfrwt beam="1">  1        1 0.47031155E+00 0.10139595E+03</pdfrwt>
<totfact> 0.19205214E+00</totfact>
</mgrwt>
</event>
<event>
 7    1  0.6493044E-004  0.8244719E+02  0.7546771E-02  0.1372409E+00
          2   -1    0    0  503    0  0.00000000000E+00  0.00000000000E+00  0.58913738037E+02  0.58913738037E+02  0.00000000000E+00 0. -1.
          1   -1    0    0  502    0 -0.00000000000E+00 -0.00000000000E+00 -0.78716700299E+03  0.78716700299E+03  0.00000000000E+00 0. -1.
         25    2    1    2    0    0  0.20420753229E+02  0.28514458192E+02 -0.13981027903E+03  0.19078749762E+03  0.12499149426E+03 0.  0.
          4    1    3    3  501    0  0.40961834022E+02 -0.13455207039E+02  0.24825414663E+00  0.43134545008E+02  0.12700000000E+01 0.  1.
         -4    1    3    3    0  501 -0.20541080793E+02  0.41969665231E+02 -0.14005853317E+03  0.14765295261E+03  0.12700000000E+01 0.  1.
          2    1    1    2  502    0 -0.46051483132E+02 -0.75635574583E+02 -0.59472904606E+03  0.60128538771E+03  0.00000000000E+00 0. -1.
          1    1    1    2  503    0  0.25630729902E+02  0.47121116391E+02  0.62860601359E+01  0.54007855700E+02  0.00000000000E+00 0. -1.
<mgrwt>
<rscale>  0 0.66502121E+02</rscale>
<asrwt>0</asrwt>
<pdfrwt beam="1">  1        2 0.90636523E-02 0.53640786E+02</pdfrwt>
<pdfrwt beam="2">  1        1 0.12110261E+00 0.82447189E+02</pdfrwt>
<totfact> 0.22144884E+03</totfact>
</mgrwt>
</event>
<event>
 7    1  0.6493044E-004  0.1008654E+03  0.7546771E-02  0.1392527E+00
          1   -1    0    0  502    0 -0.00000000000E+00  0.00000000000E+00  0.74546755447E+03  0.74546755447E+03  0.00000000000E+00 0. -1.
          2   -1    0    0  503    0  0.00000000000E+00 -0.00000000000E+00 -0.54287222460E+02  0.54287222460E+02  0.00000000000E+00 0. -1.
         25    2    1    2    0    0  0.60446097877E+02  0.63669442668E+02  0.14130098421E+03  0.20808072363E+03  0.12499636286E+03 0.  0.
          4    1    3    3  501    0 -0.12826689613E+02 -0.35550663063E+01  0.99187186124E+02  0.10008433071E+03  0.12700000000E+01 0. -1.
         -4    1    3    3    0  501  0.73272787491E+02  0.67224508975E+02  0.42113798081E+02  0.10799639291E+03  0.12700000000E+01 0. -1.
          2    1    1    2  502    0 -0.92949685619E+02 -0.45508287778E+02  0.54426831826E+03  0.55402044238E+03  0.00000000000E+00 0. -1.
          1    1    1    2  503    0  0.32503587742E+02 -0.18161154891E+02  0.56110295444E+01  0.37653610924E+02  0.00000000000E+00 0. -1.
<mgrwt>
<rscale>  0 0.61282474E+02</rscale>
<asrwt>0</asrwt>
<pdfrwt beam="2">  1        2 0.83518809E-02 0.37233194E+02</pdfrwt>
<pdfrwt beam="1">  1        1 0.11468731E+00 0.10086542E+03</pdfrwt>
<totfact> 0.25399525E+03</totfact>
</mgrwt>
</event>
<event>
 7    1  0.6493044E-004  0.4600350E+02  0.7546771E-02  0.1517196E+00
          1   -1    0    0  502    0 -0.00000000000E+00  0.00000000000E+00  0.15641858927E+04  0.15641858927E+04  0.00000000000E+00 0. -1.
          2   -1    0    0  503    0  0.00000000000E+00 -0.00000000000E+00 -0.19034720581E+03  0.19034720581E+03  0.00000000000E+00 0. -1.
         25    2    1    2    0    0 -0.11823937243E+02  0.16505746743E+02  0.99362633128E+02  0.16097243435E+03  0.12500778613E+03 0.  0.
          4    1    3    3  501    0 -0.60399045706E+02 -0.22271503441E+02  0.53605456790E+02  0.83780800219E+02  0.12700000000E+01 0.  1.
         -4    1    3    3    0  501  0.48575108463E+02  0.38777250184E+02  0.45757176338E+02  0.77191634135E+02  0.12700000000E+01 0.  1.
          2    1    1    2  502    0 -0.32668680194E+02 -0.20412887765E+01  0.14303972637E+04  0.14307717294E+04  0.00000000000E+00 0. -1.
          1    1    1    2  503    0  0.44492617437E+02 -0.14464457967E+02 -0.15592120999E+03  0.16278893475E+03  0.00000000000E+00 0. -1.
<mgrwt>
<rscale>  0 0.38804697E+02</rscale>
<asrwt>0</asrwt>
<pdfrwt beam="2">  1        2 0.29284187E-01 0.46003497E+02</pdfrwt>
<pdfrwt beam="1">  1        1 0.24064398E+00 0.32732393E+02</pdfrwt>
<totfact> 0.18962262E+02</totfact>
</mgrwt>
</event>
<event>
 7    1  0.6493044E-004  0.1769454E+03  0.7546771E-02  0.1245774E+00
          2   -1    0    0  503    0  0.00000000000E+00  0.00000000000E+00  0.48341419866E+03  0.48341419866E+03  0.00000000000E+00 0. -1.
          1   -1    0    0  502    0 -0.00000000000E+00 -0.00000000000E+00 -0.15764226412E+04  0.15764226412E+04  0.00000000000E+00 0. -1.
         25    2    1    2    0    0 -0.21968016237E+01 -0.18511734262E+03 -0.29053056760E+02  0.22526339189E+03  0.12500503645E+03 0.  0.
          4    1    3    3  501    0 -0.12900902605E+02  0.15361006992E+02 -0.12819984051E+02  0.23840275059E+02  0.12700000000E+01 0.  1.
         -4    1    3    3    0  501  0.10704100981E+02 -0.20047834962E+03 -0.16233072709E+02  0.20142311683E+03  0.12700000000E+01 0.  1.
          2    1    1    2  502    0 -0.75238774881E+02  0.24778581893E+02 -0.14275365639E+04  0.14297326648E+04  0.00000000000E+00 0. -1.
          1    1    1    2  503    0  0.77435576505E+02  0.16033876073E+03  0.36358117811E+03  0.40484078324E+03  0.00000000000E+00 0. -1.
<mgrwt>
<rscale>  0 0.11839150E+03</rscale>
<asrwt>0</asrwt>
<pdfrwt beam="1">  1        2 0.74371414E-01 0.17694541E+03</pdfrwt>
<pdfrwt beam="2">  1        1 0.24252656E+00 0.79213959E+02</pdfrwt>
<totfact> 0.64024459E+01</totfact>
</mgrwt>
</event>
<event>
 7    1  0.6493044E-004  0.8689603E+02  0.7546771E-02  0.1332162E+00
          1   -1    0    0  502    0 -0.00000000000E+00  0.00000000000E+00  0.12582152216E+04  0.12582152216E+04  0.00000000000E+00 0. -1.
          2   -1    0    0  503    0  0.00000000000E+00 -0.00000000000E+00 -0.18976033246E+04  0.18976033246E+04  0.00000000000E+00 0. -1.
         25    2    1    2    0    0 -0.15192178750E+03 -0.10595638089E+02 -0.36577393094E+03  0.41546307854E+03  0.12500601589E+03 0.  0.
          4    1    3    3  501    0  0.59576745360E+01 -0.32946666956E+02 -0.10064914107E+03  0.10607940068E+03  0.12700000000E+01 0.  1.
         -4    1    3    3    0  501 -0.15787946203E+03  0.22351028867E+02 -0.26512478987E+03  0.30938367786E+03  0.12700000000E+01 0.  1.
          2    1    1    2  502    0  0.82237413538E+02  0.27329132351E+02  0.12309944872E+04  0.12340410451E+04  0.00000000000E+00 0. -1.
          1    1    1    2  503    0  0.69684373958E+02 -0.16733494262E+02 -0.15046086593E+04  0.15063144225E+04  0.00000000000E+00 0. -1.
<mgrwt>
<rscale>  0 0.78914093E+02</rscale>
<asrwt>0</asrwt>
<pdfrwt beam="2">  1        2 0.29193897E+00 0.71665346E+02</pdfrwt>
<pdfrwt beam="1">  1        1 0.19357157E+00 0.86896029E+02</pdfrwt>
<totfact> 0.15114130E+01</totfact>
</mgrwt>
</event>
<event>
 7    1  0.6493044E-004  0.5065028E+02  0.7546771E-02  0.1452313E+00
          2   -1    0    0  503    0  0.00000000000E+00  0.00000000000E+00  0.23491764211E+04  0.23491764211E+04  0.00000000000E+00 0. -1.
          1   -1    0    0  502    0 -0.00000000000E+00 -0.00000000000E+00 -0.67557984041E+03  0.67557984041E+03  0.00000000000E+00 0. -1.
         25    2    1    2    0    0 -0.58065240942E+00 -0.95911294660E+02 -0.16638034227E+03  0.22914292994E+03  0.12499900178E+03 0.  0.
          4    1    3    3  501    0  0.20261943987E+01 -0.20039924326E+02  0.19678713642E+02  0.28188095028E+02  0.12700000000E+01 0.  1.
         -4    1    3    3    0  501 -0.26068468081E+01 -0.75871370334E+02 -0.18605905592E+03  0.20095483491E+03  0.12700000000E+01 0.  1.
          2    1    1    2  502    0  0.89537828823E+01  0.46019988544E+02 -0.47639133433E+03  0.47869271249E+03  0.00000000000E+00 0. -1.
          1    1    1    2  503    0 -0.83731304729E+01  0.49891306116E+02  0.23163682573E+04  0.23169206191E+04  0.00000000000E+00 0. -1.
<mgrwt>
<rscale>  0 0.48730214E+02</rscale>
<asrwt>0</asrwt>
<pdfrwt beam="1">  1        2 0.36141175E+00 0.50650280E+02</pdfrwt>
<pdfrwt beam="2">  1        1 0.10393536E+00 0.46882935E+02</pdfrwt>
<totfact> 0.26180172E+01</totfact>
</mgrwt>
</event>
<event>
 7    1  0.6493044E-004  0.9692623E+02  0.7546771E-02  0.1420875E+00
          2   -1    0    0  503    0  0.00000000000E+00  0.00000000000E+00  0.11578203933E+04  0.11578203933E+04  0.00000000000E+00 0. -1.
          1   -1    0    0  502    0 -0.00000000000E+00 -0.00000000000E+00 -0.62639321715E+02  0.62639321715E+02  0.00000000000E+00 0. -1.
         25    2    1    2    0    0 -0.11022556986E+03  0.46384082701E+02  0.49190854487E+03  0.52143984302E+03  0.12499733592E+03 0.  0.
          4    1    3    3  501    0 -0.83085461924E+02  0.81847806854E+02  0.25572083143E+03  0.28106407454E+03  0.12700000000E+01 0.  1.
         -4    1    3    3    0  501 -0.27140107939E+02 -0.35463724153E+02  0.23618771344E+03  0.24037576847E+03  0.12700000000E+01 0.  1.
          2    1    1    2  502    0  0.79658842424E+02 -0.51689550370E+02  0.95306914462E-02  0.94959680310E+02  0.00000000000E+00 0. -1.
          1    1    1    2  503    0  0.30566727439E+02  0.53054676687E+01  0.60326299600E+03  0.60406019167E+03  0.00000000000E+00 0. -1.
<mgrwt>
<rscale>  0 0.54836254E+02</rscale>
<asrwt>0</asrwt>
<pdfrwt beam="1">  1        2 0.17812620E+00 0.31023746E+02</pdfrwt>
<pdfrwt beam="2">  1        1 0.96368196E-02 0.96926229E+02</pdfrwt>
<totfact> 0.20811475E+03</totfact>
</mgrwt>
</event>
<event>
 7    1  0.6493044E-004  0.6621196E+02  0.7546771E-02  0.1445337E+00
          1   -1    0    0  502    0 -0.00000000000E+00  0.00000000000E+00  0.66197274698E+03  0.66197274698E+03  0.00000000000E+00 0. -1.
          2   -1    0    0  503    0  0.00000000000E+00 -0.00000000000E+00 -0.20144725469E+03  0.20144725469E+03  0.00000000000E+00 0. -1.
         25    2    1    2    0    0  0.45828087923E+02 -0.25501817028E+02  0.30440848354E+03  0.33322745641E+03  0.12500182615E+03 0.  0.
          4    1    3    3  501    0  0.34612286854E+02  0.49111132841E+02  0.13528025985E+03  0.14802795471E+03  0.12700000000E+01 0.  1.
         -4    1    3    3    0  501  0.11215801069E+02 -0.74612949869E+02  0.16912822369E+03  0.18519950170E+03  0.12700000000E+01 0.  1.
          2    1    1    2  502    0 -0.71387221423E+02 -0.22914855009E+01  0.33747252239E+03  0.34494795210E+03  0.00000000000E+00 0. -1.
          1    1    1    2  503    0  0.25559133500E+02  0.27793302529E+02 -0.18135551363E+03  0.18524459316E+03  0.00000000000E+00 0. -1.
<mgrwt>
<rscale>  0 0.50000927E+02</rscale>
<asrwt>0</asrwt>
<pdfrwt beam="2">  1        2 0.30991886E-01 0.37758932E+02</pdfrwt>
<pdfrwt beam="1">  1        1 0.10184196E+00 0.66211955E+02</pdfrwt>
<totfact> 0.71139023E+02</totfact>
</mgrwt>
</event>
<event>
 7    1  0.6493044E-004  0.5755547E+02  0.7546771E-02  0.1421026E+00
         -1   -1    0    0    0  502 -0.00000000000E+00  0.00000000000E+00  0.19153110863E+03  0.19153110863E+03  0.00000000000E+00 0.  1.
         -2   -1    0    0    0  501  0.00000000000E+00 -0.00000000000E+00 -0.35723262116E+03  0.35723262116E+03  0.00000000000E+00 0.  1.
         25    2    1    2    0    0 -0.42097352418E+02 -0.28920748261E+02 -0.19793611277E+03  0.23961899840E+03  0.12501985001E+03 0.  0.
          4    1    3    3  503    0 -0.58397687406E+01  0.70843775594E+01 -0.18715053918E+03  0.18737990426E+03  0.12700000000E+01 0.  1.
         -4    1    3    3    0  503 -0.36257583677E+02 -0.36005125820E+02 -0.10785573592E+02  0.52239094146E+02  0.12700000000E+01 0.  1.
         -2    1    1    2    0  502 -0.21103122424E+02  0.47727766808E+02  0.15840665455E+03  0.16678114314E+03  0.00000000000E+00 0.  1.
         -1    1    1    2    0  501  0.63200474842E+02 -0.18807018547E+02 -0.12617205432E+03  0.14236358825E+03  0.00000000000E+00 0.  1.
<mgrwt>
<rscale>  0 0.54804526E+02</rscale>
<asrwt>0</asrwt>
<pdfrwt beam="2">  1       -2 0.54958864E-01 0.57555467E+02</pdfrwt>
<pdfrwt beam="1">  1       -1 0.29466325E-01 0.52185070E+02</pdfrwt>
<totfact> 0.24287054E+02</totfact>
</mgrwt>
</event>
<event>
 7    1  0.6493044E-004  0.7749113E+02  0.7546771E-02  0.1363873E+00
          1   -1    0    0  502    0 -0.00000000000E+00  0.00000000000E+00  0.43751165923E+03  0.43751165923E+03  0.00000000000E+00 0. -1.
          2   -1    0    0  503    0  0.00000000000E+00 -0.00000000000E+00 -0.97739795105E+03  0.97739795105E+03  0.00000000000E+00 0. -1.
         25    2    1    2    0    0 -0.12549568275E+03 -0.32315682953E+02 -0.43759959884E+03  0.47319326290E+03  0.12499994160E+03 0.  0.
          4    1    3    3  501    0 -0.86911934392E+02 -0.79895083497E+02 -0.30757990316E+03  0.32946004073E+03  0.12700000000E+01 0. -1.
         -4    1    3    3    0  501 -0.38583748359E+02  0.47579400544E+02 -0.13001969567E+03  0.14373322217E+03  0.12700000000E+01 0. -1.
          2    1    1    2  502    0  0.61188573636E+02  0.29995258001E+01  0.41506398155E+03  0.41956066007E+03  0.00000000000E+00 0. -1.
          1    1    1    2  503    0  0.64307109115E+02  0.29316157153E+02 -0.51735067453E+03  0.52215568731E+03  0.00000000000E+00 0. -1.
<mgrwt>
<rscale>  0 0.68900404E+02</rscale>
<asrwt>0</asrwt>
<pdfrwt beam="2">  1        2 0.15036891E+00 0.77491133E+02</pdfrwt>
<pdfrwt beam="1">  1        1 0.67309487E-01 0.61262049E+02</pdfrwt>
<totfact> 0.21820979E+02</totfact>
</mgrwt>
</event>
<event>
 7    1  0.6493044E-004  0.5619007E+02  0.7546771E-02  0.1502472E+00
         -2   -1    0    0    0  501  0.00000000000E+00  0.00000000000E+00  0.38924567380E+03  0.38924567380E+03  0.00000000000E+00 0.  1.
         -1   -1    0    0    0  502 -0.00000000000E+00 -0.00000000000E+00 -0.10952769147E+03  0.10952769147E+03  0.00000000000E+00 0.  1.
         25    2    1    2    0    0  0.43974197133E+02  0.58013334473E+01  0.19998997120E+03  0.23997474346E+03  0.12499801373E+03 0.  0.
          4    1    3    3  503    0  0.81496717464E+02  0.21622262998E+02  0.16870987840E+03  0.18861037401E+03  0.12700000000E+01 0.  1.
         -4    1    3    3    0  503 -0.37522520331E+02 -0.15820929551E+02  0.31280092800E+02  0.51364369454E+02  0.12700000000E+01 0.  1.
         -2    1    1    2    0  502 -0.44593782192E+02 -0.35406566631E+02 -0.78972260175E+02  0.97359376785E+02  0.00000000000E+00 0.  1.
         -1    1    1    2    0  501  0.61958505868E+00  0.29605233184E+02  0.15870027131E+03  0.16143924501E+03  0.00000000000E+00 0.  1.
<mgrwt>
<rscale>  0 0.40790741E+02</rscale>
<asrwt>0</asrwt>
<pdfrwt beam="1">  1       -2 0.59883949E-01 0.29611716E+02</pdfrwt>
<pdfrwt beam="2">  1       -1 0.16850414E-01 0.56190075E+02</pdfrwt>
<totfact> 0.49628073E+02</totfact>
</mgrwt>
</event>
<event>
 7    1  0.6493044E-004  0.1336366E+03  0.7546771E-02  0.1271705E+00
         -2   -1    0    0    0  501 -0.00000000000E+00  0.00000000000E+00  0.22421487521E+03  0.22421487521E+03  0.00000000000E+00 0.  1.
          2   -1    0    0  503    0  0.00000000000E+00 -0.00000000000E+00 -0.13078942911E+04  0.13078942911E+04  0.00000000000E+00 0. -1.
         25    2    1    2    0    0 -0.32433088419E+02  0.71762762204E+02 -0.18165560451E+03  0.23414826002E+03  0.12499939903E+03 0.  0.
          4    1    3    3  502    0 -0.55971578335E+02  0.37794410349E+02 -0.24836540357E+02  0.71970144309E+02  0.12700000000E+01 0.  1.
         -4    1    3    3    0  502  0.23538489916E+02  0.33968351855E+02 -0.15681906415E+03  0.16217811571E+03  0.12700000000E+01 0.  1.
          1    1    1    2  503    0 -0.28335320499E+01 -0.14495644305E+03 -0.10866337893E+04  0.10962633768E+04  0.00000000000E+00 0. -1.
         -1    1    1    2    0  501  0.35266620469E+02  0.73193680851E+02  0.18460997794E+03  0.20169752946E+03  0.00000000000E+00 0.  1.
<mgrwt>
<rscale>  0 0.10419958E+03</rscale>
<asrwt>0</asrwt>
<pdfrwt beam="2">  1        2 0.20121451E+00 0.13363661E+03</pdfrwt>
<pdfrwt beam="1">  1       -2 0.34494595E-01 0.81246843E+02</pdfrwt>
<totfact> 0.14318291E+02</totfact>
</mgrwt>
</event>
<event>
 7    1  0.6493044E-004  0.4280074E+02  0.7546771E-02  0.1524468E+00
          2   -1    0    0  503    0  0.00000000000E+00  0.00000000000E+00  0.18084133644E+04  0.18084133644E+04  0.00000000000E+00 0. -1.
          1   -1    0    0  502    0 -0.00000000000E+00 -0.00000000000E+00 -0.98123914241E+03  0.98123914241E+03  0.00000000000E+00 0. -1.
         25    2    1    2    0    0 -0.64909652266E+02 -0.13800727953E+02 -0.23301636853E+03  0.27262892504E+03  0.12500471878E+03 0.  0.
          4    1    3    3  501    0  0.82077418878E+01  0.38194070721E+02 -0.13128741164E+03  0.13698230331E+03  0.12700000000E+01 0. -1.
         -4    1    3    3    0  501 -0.73117394154E+02 -0.51994798674E+02 -0.10172895689E+03  0.13564662173E+03  0.12700000000E+01 0. -1.
          2    1    1    2  502    0  0.41110414723E+02 -0.97953948452E+01 -0.72764633966E+03  0.72887256196E+03  0.00000000000E+00 0. -1.
          1    1    1    2  503    0  0.23799237544E+02  0.23596122798E+02  0.17878369302E+04  0.17881510198E+04  0.00000000000E+00 0. -1.
<mgrwt>
<rscale>  0 0.37873726E+02</rscale>
<asrwt>0</asrwt>
<pdfrwt beam="1">  1        2 0.27821744E+00 0.33513888E+02</pdfrwt>
<pdfrwt beam="2">  1        1 0.15095987E+00 0.42800737E+02</pdfrwt>
<totfact> 0.29503614E+01</totfact>
</mgrwt>
</event>
<event>
 7    1  0.6493044E-004  0.7385363E+02  0.7546771E-02  0.1367638E+00
          2   -1    0    0  503    0  0.00000000000E+00  0.00000000000E+00  0.14106767773E+04  0.14106767773E+04  0.00000000000E+00 0. -1.
         -2   -1    0    0    0  501 -0.00000000000E+00 -0.00000000000E+00 -0.26704616738E+03  0.26704616738E+03  0.00000000000E+00 0.  1.
         25    2    1    2    0    0  0.35850673038E+02 -0.26233290341E+01  0.63779426429E+03  0.65092312480E+03  0.12500895258E+03 0.  0.
          4    1    3    3  502    0  0.49056095606E+02  0.44824674165E+02  0.20913945848E+03  0.21944629850E+03  0.12700000000E+01 0.  1.
         -4    1    3    3    0  502 -0.13205422568E+02 -0.47448003199E+02  0.42865480580E+03  0.43147682630E+03  0.12700000000E+01 0.  1.
          1    1    1    2  503    0 -0.76340609176E+02  0.49964079395E+02  0.75982513698E+03  0.76528330481E+03  0.00000000000E+00 0. -1.
         -1    1    1    2    0  501  0.40489936137E+02 -0.47340750361E+02 -0.25398879130E+03  0.26151651511E+03  0.00000000000E+00 0.  1.
<mgrwt>
<rscale>  0 0.67828175E+02</rscale>
<asrwt>0</asrwt>
<pdfrwt beam="1">  1        2 0.21702719E+00 0.73853632E+02</pdfrwt>
<pdfrwt beam="2">  1       -2 0.41084026E-01 0.62294314E+02</pdfrwt>
<totfact> 0.95240470E+01</totfact>
</mgrwt>
</event>
<event>
 7    1  0.6493044E-004  0.1179887E+03  0.7546771E-02  0.1310825E+00
          1   -1    0    0  503    0  0.00000000000E+00  0.00000000000E+00  0.16478312570E+04  0.16478312570E+04  0.00000000000E+00 0. -1.
         -1   -1    0    0    0  501 -0.00000000000E+00 -0.00000000000E+00 -0.17259617000E+03  0.17259617000E+03  0.00000000000E+00 0.  1.
         25    2    1    2    0    0  0.10018410762E+02 -0.64017855155E+02  0.61161241178E+03  0.62760870284E+03  0.12499714923E+03 0.  0.
          4    1    3    3  502    0 -0.11545649183E+02 -0.58483822379E+02  0.10690523542E+03  0.12240915715E+03  0.12700000000E+01 0. -1.
         -4    1    3    3    0  502  0.21564059945E+02 -0.55340327758E+01  0.50470717636E+03  0.50519954569E+03  0.12700000000E+01 0. -1.
          2    1    1    2  503    0  0.49644599449E+02 -0.40130914915E+02  0.10051912269E+04  0.10072162028E+04  0.00000000000E+00 0. -1.
         -2    1    1    2    0  501 -0.59663010211E+02  0.10414877007E+03 -0.14156855169E+03  0.18560252133E+03  0.00000000000E+00 0.  1.
<mgrwt>
<rscale>  0 0.86786884E+02</rscale>
<asrwt>0</asrwt>
<pdfrwt beam="1">  1        1 0.25351249E+00 0.63836327E+02</pdfrwt>
<pdfrwt beam="2">  1       -1 0.26553258E-01 0.11798867E+03</pdfrwt>
<totfact> 0.82894022E+01</totfact>
</mgrwt>
</event>
<event>
 7    1  0.6493044E-004  0.7963950E+03  0.7546771E-02  0.1186741E+00
          1   -1    0    0  502    0 -0.00000000000E+00  0.00000000000E+00  0.51754213566E+03  0.51754213566E+03  0.00000000000E+00 0. -1.
          2   -1    0    0  503    0  0.00000000000E+00 -0.00000000000E+00 -0.28260565785E+04  0.28260565785E+04  0.00000000000E+00 0. -1.
         25    2    1    2    0    0 -0.39016927904E+03 -0.70146278744E+03 -0.63765369875E+03  0.10327194458E+04  0.12500042312E+03 0.  0.
          4    1    3    3  501    0 -0.10021462069E+03 -0.21319888184E+03 -0.25937737164E+03  0.35039259016E+03  0.12700000000E+01 0.  1.
         -4    1    3    3    0  501 -0.28995465835E+03 -0.48826390560E+03 -0.37827632711E+03  0.68232685567E+03  0.12700000000E+01 0.  1.
          2    1    1    2  502    0  0.35789192112E+03  0.70756756079E+03 -0.17163469777E+03  0.81129338082E+03  0.00000000000E+00 0. -1.
          1    1    1    2  503    0  0.32277357927E+02 -0.61047733516E+01 -0.14992260463E+04  0.14995858875E+04  0.00000000000E+00 0. -1.
<mgrwt>
<rscale>  0 0.16174442E+03</rscale>
<asrwt>0</asrwt>
<pdfrwt beam="2">  1        2 0.43477795E+00 0.32849598E+02</pdfrwt>
<pdfrwt beam="1">  1        1 0.79621864E-01 0.79639502E+03</pdfrwt>
<totfact> 0.21022811E+01</totfact>
</mgrwt>
</event>
<event>
 7    1  0.6493044E-004  0.1614879E+03  0.7546771E-02  0.1204946E+00
          1   -1    0    0  502    0 -0.00000000000E+00  0.00000000000E+00  0.48805686743E+03  0.48805686743E+03  0.00000000000E+00 0. -1.
          2   -1    0    0  503    0  0.00000000000E+00 -0.00000000000E+00 -0.15682645841E+03  0.15682645841E+03  0.00000000000E+00 0. -1.
         25    2    1    2    0    0 -0.24529611829E+02 -0.17436235617E+03  0.20618456349E+03  0.29856986814E+03  0.12501183479E+03 0.  0.
          4    1    3    3  501    0 -0.43058883899E+02 -0.28211792163E+01  0.35872316696E+02  0.56128981283E+02  0.12700000000E+01 0. -1.
         -4    1    3    3    0  501  0.18529272069E+02 -0.17154117695E+03  0.17031224679E+03  0.24244088686E+03  0.12700000000E+01 0. -1.
          2    1    1    2  502    0  0.12703511860E+03  0.38538572227E+02  0.11536434335E+03  0.17587516773E+03  0.00000000000E+00 0. -1.
          1    1    1    2  503    0 -0.10250550677E+03  0.13582378394E+03  0.96815021935E+01  0.17043828997E+03  0.00000000000E+00 0. -1.
<mgrwt>
<rscale>  0 0.14641676E+03</rscale>
<asrwt>0</asrwt>
<pdfrwt beam="2">  1        2 0.24127148E-01 0.16148787E+03</pdfrwt>
<pdfrwt beam="1">  1        1 0.75085671E-01 0.13275219E+03</pdfrwt>
<totfact> 0.14215525E+03</totfact>
</mgrwt>
</event>
<event>
 7    1  0.6493044E-004  0.3722397E+02  0.7546771E-02  0.1537383E+00
          2   -1    0    0  503    0  0.00000000000E+00  0.00000000000E+00  0.20475044816E+04  0.20475044816E+04  0.00000000000E+00 0. -1.
          1   -1    0    0  502    0 -0.00000000000E+00 -0.00000000000E+00 -0.29851173921E+02  0.29851173921E+02  0.00000000000E+00 0. -1.
         25    2    1    2    0    0 -0.17991235621E+02  0.47469183435E+02  0.31428821818E+03  0.34201765200E+03  0.12498792845E+03 0.  0.
          4    1    3    3  501    0  0.50994579320E+02  0.33238324724E+01  0.94119971432E+02  0.10710591442E+03  0.12700000000E+01 0. -1.
         -4    1    3    3    0  501 -0.68985814941E+02  0.44145350962E+02  0.22016824674E+03  0.23491173757E+03  0.12700000000E+01 0. -1.
          2    1    1    2  502    0  0.32794789352E+02 -0.13306176055E+02  0.40582610074E+01  0.35623335221E+02  0.00000000000E+00 0. -1.
          1    1    1    2  503    0 -0.14803553731E+02 -0.34163007380E+02  0.16993068285E+04  0.16997146683E+04  0.00000000000E+00 0. -1.
<mgrwt>
<rscale>  0 0.36296129E+02</rscale>
<asrwt>0</asrwt>
<pdfrwt beam="1">  1        2 0.31500058E+00 0.37223966E+02</pdfrwt>
<pdfrwt beam="2">  1        1 0.45924899E-02 0.35391419E+02</pdfrwt>
<totfact> 0.18268057E+03</totfact>
</mgrwt>
</event>
<event>
 7    1  0.6493044E-004  0.5390069E+02  0.7546771E-02  0.1500363E+00
         -1   -1    0    0    0  501 -0.00000000000E+00  0.00000000000E+00  0.17892948917E+02  0.17892948917E+02  0.00000000000E+00 0.  1.
          1   -1    0    0  503    0  0.00000000000E+00 -0.00000000000E+00 -0.86966295201E+03  0.86966295201E+03  0.00000000000E+00 0. -1.
         25    2    1    2    0    0 -0.47400505836E+02 -0.30070141228E+02 -0.38276704127E+03  0.40655560865E+03  0.12500333475E+03 0.  0.
          4    1    3    3  502    0 -0.77761750322E+02 -0.14470359515E+02 -0.13519602961E+03  0.15663926851E+03  0.12700000000E+01 0.  1.
         -4    1    3    3    0  502  0.30361244486E+02 -0.15599781713E+02 -0.24757101166E+03  0.24991634015E+03  0.12700000000E+01 0.  1.
          2    1    1    2  503    0 -0.80939969021E+01  0.30255237115E+02 -0.32765839527E+03  0.32915181323E+03  0.00000000000E+00 0. -1.
         -2    1    1    2    0  501  0.55494502738E+02 -0.18509588748E+00 -0.14134456655E+03  0.15184847905E+03  0.00000000000E+00 0.  1.
<mgrwt>
<rscale>  0 0.41086814E+02</rscale>
<asrwt>0</asrwt>
<pdfrwt beam="2">  1        1 0.13379429E+00 0.31319198E+02</pdfrwt>
<pdfrwt beam="1">  1       -1 0.27527616E-02 0.53900687E+02</pdfrwt>
<totfact> 0.80925582E+03</totfact>
</mgrwt>
</event>
<event>
 7    1  0.6493044E-004  0.2432124E+03  0.7546771E-02  0.1205496E+00
          2   -1    0    0  503    0  0.00000000000E+00  0.00000000000E+00  0.29119181249E+04  0.29119181249E+04  0.00000000000E+00 0. -1.
          1   -1    0    0  502    0 -0.00000000000E+00 -0.00000000000E+00 -0.21455560898E+03  0.21455560898E+03  0.00000000000E+00 0. -1.
         25    2    1    2    0    0 -0.30099009462E+03  0.11510865894E+03  0.74401819150E+03  0.82038639306E+03  0.12500289677E+03 0.  0.
          4    1    3    3  501    0 -0.25735074795E+03  0.77189507957E+02  0.47972575700E+03  0.54984183402E+03  0.12700000000E+01 0. -1.
         -4    1    3    3    0  501 -0.43639346676E+02  0.37919150984E+02  0.26429243450E+03  0.27054455904E+03  0.12700000000E+01 0. -1.
          2    1    1    2  502    0  0.21635872662E+03 -0.92400622150E+02 -0.96561873035E+02  0.25430919937E+03  0.00000000000E+00 0. -1.
          1    1    1    2  503    0  0.84631368003E+02 -0.22708036790E+02  0.20499061974E+04  0.20517781414E+04  0.00000000000E+00 0. -1.
<mgrwt>
<rscale>  0 0.14598446E+03</rscale>
<asrwt>0</asrwt>
<pdfrwt beam="1">  1        2 0.44798738E+00 0.87624902E+02</pdfrwt>
<pdfrwt beam="2">  1        1 0.33008557E-01 0.24321241E+03</pdfrwt>
<totfact> 0.50824968E+01</totfact>
</mgrwt>
</event>
<event>
 7    1  0.6493044E-004  0.1931484E+03  0.7546771E-02  0.1382637E+00
          1   -1    0    0  502    0 -0.00000000000E+00  0.00000000000E+00  0.40650747966E+03  0.40650747966E+03  0.00000000000E+00 0. -1.
          2   -1    0    0  503    0  0.00000000000E+00 -0.00000000000E+00 -0.36815596882E+03  0.36815596882E+03  0.00000000000E+00 0. -1.
         25    2    1    2    0    0  0.16151116285E+03  0.10028740602E+03  0.22882209464E+03  0.32268864795E+03  0.12499997196E+03 0.  0.
          4    1    3    3  501    0  0.12091007506E+03  0.12422354215E+03  0.20900988394E+03  0.27154645857E+03  0.12700000000E+01 0.  1.
         -4    1    3    3    0  501  0.40601087790E+02 -0.23936136123E+02  0.19812210695E+02  0.51142189383E+02  0.12700000000E+01 0.  1.
          2    1    1    2  502    0 -0.17829193333E+03 -0.87565475318E+02  0.54599213251E+02  0.20600194185E+03  0.00000000000E+00 0. -1.
          1    1    1    2  503    0  0.16780770482E+02 -0.12721930706E+02 -0.24506979705E+03  0.24597285868E+03  0.00000000000E+00 0. -1.
<mgrwt>
<rscale>  0 0.63775624E+02</rscale>
<asrwt>0</asrwt>
<pdfrwt beam="2">  1        2 0.56639380E-01 0.21058057E+02</pdfrwt>
<pdfrwt beam="1">  1        1 0.62539612E-01 0.19314840E+03</pdfrwt>
<totfact> 0.70770740E+02</totfact>
</mgrwt>
</event>
<event>
 7    1  0.6493044E-004  0.3149896E+02  0.7546771E-02  0.1610015E+00
          1   -1    0    0  502    0 -0.00000000000E+00  0.00000000000E+00  0.73230492388E+03  0.73230492388E+03  0.00000000000E+00 0. -1.
          2   -1    0    0  503    0  0.00000000000E+00 -0.00000000000E+00 -0.38210625468E+03  0.38210625468E+03  0.00000000000E+00 0. -1.
         25    2    1    2    0    0  0.10386914162E+02  0.22193945887E+02 -0.10099783575E+03  0.16255936568E+03  0.12499810128E+03 0.  0.
          4    1    3    3  501    0 -0.50513848732E+02  0.69951062394E+01 -0.82697209311E+02  0.97164920382E+02  0.12700000000E+01 0. -1.
         -4    1    3    3    0  501  0.60900762894E+02  0.15198839647E+02 -0.18300626442E+02  0.65394445298E+02  0.12700000000E+01 0. -1.
          2    1    1    2  502    0  0.15711625573E+02 -0.27354812569E+02  0.70046131968E+03  0.70117130669E+03  0.00000000000E+00 0. -1.
          1    1    1    2  503    0 -0.26098539736E+02  0.51608666826E+01 -0.24926481473E+03  0.25068050619E+03  0.00000000000E+00 0. -1.
<mgrwt>
<rscale>  0 0.28948153E+02</rscale>
<asrwt>0</asrwt>
<pdfrwt beam="2">  1        2 0.58785578E-01 0.26603916E+02</pdfrwt>
<pdfrwt beam="1">  1        1 0.11266230E+00 0.31498955E+02</pdfrwt>
<totfact> 0.33366706E+02</totfact>
</mgrwt>
</event>
<event>
 7    1  0.6493044E-004  0.8808947E+02  0.7546771E-02  0.1319436E+00
          2   -1    0    0  503    0  0.00000000000E+00  0.00000000000E+00  0.28990999200E+03  0.28990999200E+03  0.00000000000E+00 0. -1.
          1   -1    0    0  502    0 -0.00000000000E+00 -0.00000000000E+00 -0.38367875502E+03  0.38367875502E+03  0.00000000000E+00 0. -1.
         25    2    1    2    0    0  0.31132808503E+02  0.17499354546E+02  0.41769239078E+02  0.13655400442E+03  0.12500739024E+03 0.  0.
          4    1    3    3  501    0  0.54091329722E+02 -0.32225400878E+02 -0.67980288705E+01  0.63341728027E+02  0.12700000000E+01 0.  1.
         -4    1    3    3    0  501 -0.22958521220E+02  0.49724755423E+02  0.48567267948E+02  0.73212276392E+02  0.12700000000E+01 0.  1.
          2    1    1    2  502    0  0.14353792491E+02  0.77812896797E+02 -0.31719176064E+03  0.32691205435E+03  0.00000000000E+00 0. -1.
          1    1    1    2  503    0 -0.45486600994E+02 -0.95312251343E+02  0.18165375854E+03  0.21012268825E+03  0.00000000000E+00 0. -1.
<mgrwt>
<rscale>  0 0.83487376E+02</rscale>
<asrwt>0</asrwt>
<pdfrwt beam="1">  1        2 0.44601538E-01 0.88089470E+02</pdfrwt>
<pdfrwt beam="2">  1        1 0.59027500E-01 0.79125712E+02</pdfrwt>
<totfact> 0.99371302E+02</totfact>
</mgrwt>
</event>
<event>
 7    1  0.6493044E-004  0.9523441E+02  0.7546771E-02  0.1322202E+00
          2   -1    0    0  503    0  0.00000000000E+00  0.00000000000E+00  0.10436484459E+04  0.10436484459E+04  0.00000000000E+00 0. -1.
          1   -1    0    0  502    0 -0.00000000000E+00 -0.00000000000E+00 -0.68958248251E+02  0.68958248251E+02  0.00000000000E+00 0. -1.
         25    2    1    2    0    0  0.62364613096E+02  0.17902053883E+02  0.99991339463E+02  0.17274941341E+03  0.12503704797E+03 0.  0.
          4    1    3    3  501    0  0.93843982006E+02  0.36248341762E+02  0.89894730179E+02  0.13491964517E+03  0.12700000000E+01 0. -1.
         -4    1    3    3    0  501 -0.31479368909E+02 -0.18346287879E+02  0.10096609285E+02  0.37829768238E+02  0.12700000000E+01 0. -1.
          2    1    1    2  502    0 -0.12683512188E+03  0.12794955064E+02  0.10038795571E+03  0.16226090308E+03  0.00000000000E+00 0. -1.
          1    1    1    2  503    0  0.64470508781E+02 -0.30697008948E+02  0.77431090251E+03  0.77759637769E+03  0.00000000000E+00 0. -1.
<mgrwt>
<rscale>  0 0.82463723E+02</rscale>
<asrwt>0</asrwt>
<pdfrwt beam="1">  1        2 0.16056129E+00 0.71405552E+02</pdfrwt>
<pdfrwt beam="2">  1        1 0.10608962E-01 0.95234410E+02</pdfrwt>
<totfact> 0.20094583E+03</totfact>
</mgrwt>
</event>
<event>
 7    1  0.6493044E-004  0.1020194E+03  0.7546771E-02  0.1400211E+00
          2   -1    0    0  503    0  0.00000000000E+00  0.00000000000E+00  0.64463130166E+02  0.64463130166E+02  0.00000000000E+00 0. -1.
          1   -1    0    0  502    0 -0.00000000000E+00 -0.00000000000E+00 -0.58923742745E+03  0.58923742745E+03  0.00000000000E+00 0. -1.
         25    2    1    2    0    0 -0.34338191987E+02 -0.12000417652E+03 -0.36546500319E+03  0.40591981986E+03  0.12500447105E+03 0.  0.
          4    1    3    3  501    0 -0.36358453720E+01 -0.10168913091E+03 -0.35402836616E+03  0.36836340163E+03  0.12700000000E+01 0.  1.
         -4    1    3    3    0  501 -0.30702346615E+02 -0.18315045612E+02 -0.11436637037E+02  0.37556418229E+02  0.12700000000E+01 0.  1.
          2    1    1    2  502    0  0.26257628898E+02  0.86332288340E+02 -0.18421332116E+03  0.20512745984E+03  0.00000000000E+00 0. -1.
          1    1    1    2  503    0  0.80805630889E+01  0.33671888181E+02  0.24904027068E+02  0.42653277925E+02  0.00000000000E+00 0. -1.
<mgrwt>
<rscale>  0 0.59436673E+02</rscale>
<asrwt>0</asrwt>
<pdfrwt beam="1">  1        2 0.99174050E-02 0.34627901E+02</pdfrwt>
<pdfrwt beam="2">  1        1 0.90651908E-01 0.10201941E+03</pdfrwt>
<totfact> 0.28536637E+03</totfact>
</mgrwt>
</event>
<event>
 7    1  0.6493044E-004  0.1877435E+03  0.7546771E-02  0.1320639E+00
         -2   -1    0    0    0  501 -0.00000000000E+00  0.00000000000E+00  0.70242488412E+03  0.70242488412E+03  0.00000000000E+00 0.  1.
          2   -1    0    0  503    0  0.00000000000E+00 -0.00000000000E+00 -0.29191800990E+03  0.29191800990E+03  0.00000000000E+00 0. -1.
         25    2    1    2    0    0  0.14012905332E+03 -0.16639071995E+03 -0.94958103859E+02  0.26826194950E+03  0.12500163516E+03 0.  0.
          4    1    3    3  502    0  0.57016404242E+02 -0.12887397519E+03 -0.10607741395E+03  0.17638991605E+03  0.12700000000E+01 0.  1.
         -4    1    3    3    0  502  0.83112649074E+02 -0.37516744753E+02  0.11119310089E+02  0.91872033447E+02  0.12700000000E+01 0.  1.
          1    1    1    2  503    0 -0.84382913082E+01  0.35746582998E+02 -0.92753973818E+02  0.99761328256E+02  0.00000000000E+00 0. -1.
         -1    1    1    2    0  501 -0.13169076201E+03  0.13064413695E+03  0.59821895190E+03  0.62631961627E+03  0.00000000000E+00 0.  1.
<mgrwt>
<rscale>  0 0.83039987E+02</rscale>
<asrwt>0</asrwt>
<pdfrwt beam="2">  1        2 0.44910463E-01 0.36729048E+02</pdfrwt>
<pdfrwt beam="1">  1       -2 0.10806537E+00 0.18774348E+03</pdfrwt>
<totfact> 0.80860823E+01</totfact>
</mgrwt>
</event>
<event>
 7    1  0.6493044E-004  0.5175930E+02  0.7546771E-02  0.1449414E+00
         -2   -1    0    0    0  501 -0.00000000000E+00  0.00000000000E+00  0.11172193419E+02  0.11172193419E+02  0.00000000000E+00 0.  1.
          2   -1    0    0  503    0  0.00000000000E+00 -0.00000000000E+00 -0.30788999844E+04  0.30788999844E+04  0.00000000000E+00 0. -1.
         25    2    1    2    0    0  0.23938820375E+02 -0.62972253398E+02 -0.14221206637E+04  0.14291915148E+04  0.12499052704E+03 0.  0.
          4    1    3    3  502    0  0.25668653965E+02 -0.95644189453E+02 -0.12544827660E+04  0.12583859956E+04  0.12700000000E+01 0.  1.
         -4    1    3    3    0  502 -0.17298335893E+01  0.32671936055E+02 -0.16763789772E+03  0.17080551918E+03  0.12700000000E+01 0.  1.
          3    1    1    2  503    0  0.20373662063E+02  0.47708162591E+02 -0.15766543728E+04  0.15775075804E+04  0.00000000000E+00 0. -1.
         -1    1    1    2    0  501 -0.44312482438E+02  0.15264090807E+02 -0.68952754434E+02  0.83373082659E+02  0.00000000000E+00 0.  1.
<mgrwt>
<rscale>  0 0.49252849E+02</rscale>
<asrwt>0</asrwt>
<pdfrwt beam="2">  1        2 0.47367745E+00 0.51759295E+02</pdfrwt>
<pdfrwt beam="1">  1       -2 0.17187971E-02 0.46867778E+02</pdfrwt>
<totfact> 0.18663712E+03</totfact>
</mgrwt>
</event>
<event>
 7    1  0.6493044E-004  0.1003345E+03  0.7546771E-02  0.1300503E+00
         -1   -1    0    0    0  501 -0.00000000000E+00  0.00000000000E+00  0.64576459715E+02  0.64576459715E+02  0.00000000000E+00 0.  1.
          1   -1    0    0  503    0  0.00000000000E+00 -0.00000000000E+00 -0.88928405105E+03  0.88928405105E+03  0.00000000000E+00 0. -1.
         25    2    1    2    0    0 -0.62540732007E+02  0.14611935399E+03 -0.31170537969E+03  0.37154714741E+03  0.12499932101E+03 0.  0.
          4    1    3    3  502    0 -0.48378014005E+01 -0.10830098202E+02 -0.10496741501E+03  0.10564310893E+03  0.12700000000E+01 0. -1.
         -4    1    3    3    0  502 -0.57702930606E+02  0.15694945219E+03 -0.20673796467E+03  0.26590403848E+03  0.12700000000E+01 0. -1.
          2    1    1    2  503    0  0.61110486018E+02 -0.55411843872E+02 -0.47801651332E+03  0.48508221051E+03  0.00000000000E+00 0. -1.
         -2    1    1    2    0  501  0.14302459888E+01 -0.90707510121E+02 -0.34985698324E+02  0.97231152843E+02  0.00000000000E+00 0.  1.
<mgrwt>
<rscale>  0 0.90976987E+02</rscale>
<asrwt>0</asrwt>
<pdfrwt beam="2">  1        1 0.13681292E+00 0.82492205E+02</pdfrwt>
<pdfrwt beam="1">  1       -1 0.99348409E-02 0.10033448E+03</pdfrwt>
<totfact> 0.12101052E+03</totfact>
</mgrwt>
</event>
<event>
 7    1  0.6493044E-004  0.2032777E+03  0.7546771E-02  0.1375175E+00
          1   -1    0    0  502    0 -0.00000000000E+00  0.00000000000E+00  0.14188380171E+04  0.14188380171E+04  0.00000000000E+00 0. -1.
          2   -1    0    0  503    0  0.00000000000E+00 -0.00000000000E+00 -0.27078818431E+03  0.27078818431E+03  0.00000000000E+00 0. -1.
         25    2    1    2    0    0 -0.19071053367E+03 -0.99140361846E+01  0.95847822250E+03  0.98527876205E+03  0.12499976068E+03 0.  0.
          4    1    3    3  501    0 -0.82786319166E+02  0.54362216103E+02  0.33809433283E+03  0.35230415265E+03  0.12700000000E+01 0. -1.
         -4    1    3    3    0  501 -0.10792421450E+03 -0.64276252288E+02  0.62038388967E+03  0.63297460940E+03  0.12700000000E+01 0. -1.
          2    1    1    2  502    0 -0.12989326725E+02  0.16838508139E+02  0.40628859057E+03  0.40684478219E+03  0.00000000000E+00 0. -1.
          1    1    1    2  503    0  0.20369986039E+03 -0.69244719540E+01 -0.21671698033E+03  0.29750265713E+03  0.00000000000E+00 0. -1.
<mgrwt>
<rscale>  0 0.65749349E+02</rscale>
<asrwt>0</asrwt>
<pdfrwt beam="2">  1        2 0.41659721E-01 0.20327773E+03</pdfrwt>
<pdfrwt beam="1">  1        1 0.21828277E+00 0.21266358E+02</pdfrwt>
<totfact> 0.17203233E+02</totfact>
</mgrwt>
</event>
<event>
 7    1  0.6493044E-004  0.5163505E+02  0.7546771E-02  0.1520026E+00
          2   -1    0    0  503    0  0.00000000000E+00  0.00000000000E+00  0.69160378653E+03  0.69160378653E+03  0.00000000000E+00 0. -1.
          1   -1    0    0  502    0 -0.00000000000E+00 -0.00000000000E+00 -0.10122567501E+03  0.10122567501E+03  0.00000000000E+00 0. -1.
         25    2    1    2    0    0 -0.10922513086E+02 -0.21521666182E+02  0.19139131287E+03  0.22986504736E+03  0.12499928779E+03 0.  0.
          4    1    3    3  501    0 -0.62893012995E+02  0.13399661882E+02  0.88272375009E+02  0.10921862072E+03  0.12700000000E+01 0. -1.
         -4    1    3    3    0  501  0.51970499910E+02 -0.34921328064E+02  0.10311893786E+03  0.12064642664E+03  0.12700000000E+01 0. -1.
          2    1    1    2  502    0  0.23580166481E+02  0.47184724030E+02 -0.73026299348E+02  0.90084753590E+02  0.00000000000E+00 0. -1.
          1    1    1    2  503    0 -0.12657653396E+02 -0.25663057848E+02  0.47201309800E+03  0.47287966060E+03  0.00000000000E+00 0. -1.
<mgrwt>
<rscale>  0 0.38438631E+02</rscale>
<asrwt>0</asrwt>
<pdfrwt beam="1">  1        2 0.10640058E+00 0.28614834E+02</pdfrwt>
<pdfrwt beam="2">  1        1 0.15573181E-01 0.51635048E+02</pdfrwt>
<totfact> 0.20334392E+03</totfact>
</mgrwt>
</event>
<event>
 7    1  0.6493044E-004  0.5791739E+02  0.7546771E-02  0.1446192E+00
          1   -1    0    0  502    0 -0.00000000000E+00  0.00000000000E+00  0.35624484712E+03  0.35624484712E+03  0.00000000000E+00 0. -1.
          2   -1    0    0  503    0  0.00000000000E+00 -0.00000000000E+00 -0.12227964681E+03  0.12227964681E+03  0.00000000000E+00 0. -1.
         25    2    1    2    0    0 -0.89489831023E+02  0.26006633362E+02  0.17471269545E+02  0.15689167917E+03  0.12499991559E+03 0.  0.
          4    1    3    3  501    0 -0.10963949521E+03  0.50592928112E+00 -0.15310889334E+02  0.11071183815E+03  0.12700000000E+01 0.  1.
         -4    1    3    3    0  501  0.20149664191E+02  0.25500704081E+02  0.32782158879E+02  0.46179841017E+02  0.12700000000E+01 0.  1.
          2    1    1    2  502    0  0.37047203971E+02 -0.21619122318E+02  0.25362482685E+03  0.25722642665E+03  0.00000000000E+00 0. -1.
          1    1    1    2  503    0  0.52442627051E+02 -0.43875110434E+01 -0.37130896081E+02  0.64406388107E+02  0.00000000000E+00 0. -1.
<mgrwt>
<rscale>  0 0.49842745E+02</rscale>
<asrwt>0</asrwt>
<pdfrwt beam="2">  1        2 0.18812254E-01 0.57917385E+02</pdfrwt>
<pdfrwt beam="1">  1        1 0.54806899E-01 0.42893843E+02</pdfrwt>
<totfact> 0.27141787E+03</totfact>
</mgrwt>
</event>
<event>
 7    1  0.6493044E-004  0.1086285E+03  0.7546771E-02  0.1388430E+00
         -1   -1    0    0    0  501 -0.00000000000E+00  0.00000000000E+00  0.90615582378E+02  0.90615582378E+02  0.00000000000E+00 0.  1.
          1   -1    0    0  503    0  0.00000000000E+00 -0.00000000000E+00 -0.15399186182E+04  0.15399186182E+04  0.00000000000E+00 0. -1.
         25    2    1    2    0    0 -0.72823984800E+02 -0.24055333998E+02 -0.33896045202E+03  0.36932494113E+03  0.12499892900E+03 0.  0.
          4    1    3    3  502    0 -0.89448304162E+02 -0.30441545466E+02 -0.13614384473E+03  0.16572400600E+03  0.12700000000E+01 0. -1.
         -4    1    3    3    0  502  0.16624319362E+02  0.63862114685E+01 -0.20281660729E+03  0.20360093512E+03  0.12700000000E+01 0. -1.
          2    1    1    2  503    0 -0.33739507196E+02 -0.11755108927E+02 -0.11434561720E+04  0.11440142281E+04  0.00000000000E+00 0. -1.
         -2    1    1    2    0  501  0.10656349200E+03  0.35810442925E+02  0.33113588160E+02  0.11719503134E+03  0.00000000000E+00 0.  1.
<mgrwt>
<rscale>  0 0.62298884E+02</rscale>
<asrwt>0</asrwt>
<pdfrwt beam="2">  1        1 0.23691055E+00 0.35728657E+02</pdfrwt>
<pdfrwt beam="1">  1       -1 0.13940859E-01 0.10862852E+03</pdfrwt>
<totfact> 0.28686714E+02</totfact>
</mgrwt>
</event>
<event>
 7    1  0.6493044E-004  0.4029642E+02  0.7546771E-02  0.1531797E+00
          2   -1    0    0  503    0  0.00000000000E+00  0.00000000000E+00  0.28733744606E+03  0.28733744606E+03  0.00000000000E+00 0. -1.
          1   -1    0    0  502    0 -0.00000000000E+00 -0.00000000000E+00 -0.74883680345E+03  0.74883680345E+03  0.00000000000E+00 0. -1.
         25    2    1    2    0    0  0.32948370633E+01  0.57959001095E+01  0.80492489468E+02  0.14882545192E+03  0.12500210346E+03 0.  0.
          4    1    3    3  501    0  0.20747283307E+02 -0.34571233674E+02 -0.15512822505E+02  0.43218983380E+02  0.12700000000E+01 0.  1.
         -4    1    3    3    0  501 -0.17452446244E+02  0.40367133783E+02  0.96005311973E+02  0.10560646854E+03  0.12700000000E+01 0.  1.
          2    1    1    2  502    0 -0.13777135582E+02 -0.38047734038E+02 -0.71242560021E+03  0.71357387520E+03  0.00000000000E+00 0. -1.
          1    1    1    2  503    0  0.10482298519E+02  0.32251833929E+02  0.17043375335E+03  0.17377492240E+03  0.00000000000E+00 0. -1.
<mgrwt>
<rscale>  0 0.36966921E+02</rscale>
<asrwt>0</asrwt>
<pdfrwt beam="1">  1        2 0.44205761E-01 0.33912525E+02</pdfrwt>
<pdfrwt beam="2">  1        1 0.11520566E+00 0.40296416E+02</pdfrwt>
<totfact> 0.42639782E+02</totfact>
</mgrwt>
</event>
<event>
 7    1  0.6493044E-004  0.9004847E+02  0.7546771E-02  0.1464939E+00
          2   -1    0    0  503    0  0.00000000000E+00  0.00000000000E+00  0.17318259775E+04  0.17318259775E+04  0.00000000000E+00 0. -1.
          1   -1    0    0  502    0 -0.00000000000E+00 -0.00000000000E+00 -0.17663624381E+04  0.17663624381E+04  0.00000000000E+00 0. -1.
         25    2    1    2    0    0  0.93865960904E+02 -0.64127182644E+02 -0.38317612545E+02  0.17324953260E+03  0.12499618772E+03 0.  0.
          4    1    3    3  501    0  0.83179018212E+02 -0.41011001816E+02 -0.81257943606E+02  0.12330903308E+03  0.12700000000E+01 0. -1.
         -4    1    3    3    0  501  0.10686942692E+02 -0.23116180828E+02  0.42940331061E+02  0.49940499514E+02  0.12700000000E+01 0. -1.
          2    1    1    2  502    0 -0.73943782327E+02  0.50645165654E+02 -0.16592825104E+04  0.16617012563E+04  0.00000000000E+00 0. -1.
          1    1    1    2  503    0 -0.19922178577E+02  0.13482016990E+02  0.16630636623E+04  0.16632376267E+04  0.00000000000E+00 0. -1.
<mgrwt>
<rscale>  0 0.46541851E+02</rscale>
<asrwt>0</asrwt>
<pdfrwt beam="1">  1        2 0.26643477E+00 0.24055311E+02</pdfrwt>
<pdfrwt beam="2">  1        1 0.27174807E+00 0.90048469E+02</pdfrwt>
<totfact> 0.96499644E+00</totfact>
</mgrwt>
</event>
<event>
 7    1  0.6493044E-004  0.5702972E+02  0.7546771E-02  0.1420901E+00
          2   -1    0    0  503    0  0.00000000000E+00  0.00000000000E+00  0.22887566564E+04  0.22887566564E+04  0.00000000000E+00 0. -1.
         -2   -1    0    0    0  501 -0.00000000000E+00 -0.00000000000E+00 -0.92573693259E+01  0.92573693259E+01  0.00000000000E+00 0.  1.
         25    2    1    2    0    0  0.24825753136E+02 -0.31809275796E+01  0.92745292971E+03  0.93617335767E+03  0.12500072984E+03 0.  0.
          4    1    3    3  502    0  0.96295114890E+01 -0.63321967517E+02  0.40243240098E+03  0.40749950837E+03  0.12700000000E+01 0.  1.
         -4    1    3    3    0  502  0.15196241647E+02  0.60141039937E+02  0.52502052873E+03  0.52867384930E+03  0.12700000000E+01 0.  1.
          1    1    1    2  503    0 -0.48712070159E+01 -0.56821304506E+02  0.11164630086E+04  0.11179186190E+04  0.00000000000E+00 0. -1.
         -1    1    1    2    0  501 -0.19954546120E+02  0.60002232086E+02  0.23558334882E+03  0.24392204904E+03  0.00000000000E+00 0.  1.
<mgrwt>
<rscale>  0 0.54830669E+02</rscale>
<asrwt>0</asrwt>
<pdfrwt beam="1">  1        2 0.35211596E+00 0.57029723E+02</pdfrwt>
<pdfrwt beam="2">  1       -2 0.14242125E-02 0.52716411E+02</pdfrwt>
<totfact> 0.63856779E+03</totfact>
</mgrwt>
</event>
<event>
 7    1  0.6493044E-004  0.5166986E+02  0.7546771E-02  0.1471425E+00
          2   -1    0    0  503    0  0.00000000000E+00  0.00000000000E+00  0.18362043293E+03  0.18362043293E+03  0.00000000000E+00 0. -1.
          1   -1    0    0  502    0 -0.00000000000E+00 -0.00000000000E+00 -0.62400142501E+03  0.62400142501E+03  0.00000000000E+00 0. -1.
         25    2    1    2    0    0 -0.31815223820E+02 -0.23067711579E+01 -0.47130268946E+02  0.13734565167E+03  0.12500014449E+03 0.  0.
          4    1    3    3  501    0 -0.29193252921E+02 -0.22452722798E+02  0.36145238553E+02  0.51618426431E+02  0.12700000000E+01 0.  1.
         -4    1    3    3    0  501 -0.26219708990E+01  0.20145951640E+02 -0.83275507498E+02  0.85727225244E+02  0.12700000000E+01 0.  1.
          2    1    1    2  502    0 -0.69068601892E+00 -0.40009284363E+02 -0.52583590412E+03  0.52735625334E+03  0.00000000000E+00 0. -1.
          1    1    1    2  503    0  0.32505909839E+02  0.42316055521E+02  0.13258518098E+03  0.14291995292E+03  0.00000000000E+00 0. -1.
<mgrwt>
<rscale>  0 0.45470675E+02</rscale>
<asrwt>0</asrwt>
<pdfrwt beam="1">  1        2 0.28249298E-01 0.51669864E+02</pdfrwt>
<pdfrwt beam="2">  1        1 0.96000218E-01 0.40015246E+02</pdfrwt>
<totfact> 0.87230839E+02</totfact>
</mgrwt>
</event>
<event>
 7    1  0.6493044E-004  0.1486607E+03  0.7546771E-02  0.1232293E+00
         -1   -1    0    0    0  501 -0.00000000000E+00  0.00000000000E+00  0.39323695819E+03  0.39323695819E+03  0.00000000000E+00 0.  1.
          1   -1    0    0  503    0  0.00000000000E+00 -0.00000000000E+00 -0.33783408485E+03  0.33783408485E+03  0.00000000000E+00 0. -1.
         25    2    1    2    0    0 -0.11118603025E+03 -0.14893042735E+03  0.11591942201E+03  0.25220062771E+03  0.12500095481E+03 0.  0.
          4    1    3    3  502    0 -0.75721694510E+02 -0.69402574118E+02 -0.53947092098E+01  0.10286499940E+03  0.12700000000E+01 0. -1.
         -4    1    3    3    0  502 -0.35464335739E+02 -0.79527853232E+02  0.12131413122E+03  0.14933562831E+03  0.12700000000E+01 0. -1.
          2    1    1    2  503    0  0.14088735875E+03  0.44947151409E+02 -0.23259854202E+03  0.27562941793E+03  0.00000000000E+00 0. -1.
         -2    1    1    2    0  501 -0.29701328505E+02  0.10398327594E+03  0.17208199335E+03  0.20324099740E+03  0.00000000000E+00 0.  1.
<mgrwt>
<rscale>  0 0.12679298E+03</rscale>
<asrwt>0</asrwt>
<pdfrwt beam="2">  1        1 0.51974474E-01 0.14866067E+03</pdfrwt>
<pdfrwt beam="1">  1       -1 0.60497994E-01 0.10814199E+03</pdfrwt>
<totfact> 0.22173049E+02</totfact>
</mgrwt>
</event>
<event>
 7    1  0.6493044E-004  0.1036712E+03  0.7546771E-02  0.1301612E+00
          1   -1    0    0  503    0  0.00000000000E+00  0.00000000000E+00  0.25816360360E+04  0.25816360360E+04  0.00000000000E+00 0. -1.
         -1   -1    0    0    0  501 -0.00000000000E+00 -0.00000000000E+00 -0.22856507467E+02  0.22856507467E+02  0.00000000000E+00 0.  1.
         25    2    1    2    0    0  0.13767721190E+03  0.93659724038E+02  0.91978896348E+03  0.94306109691E+03  0.12500134634E+03 0.  0.
          4    1    3    3  502    0  0.26706676430E+02  0.62869326998E+02  0.58584760472E+03  0.58981762240E+03  0.12700000000E+01 0. -1.
         -4    1    3    3    0  502  0.11097053547E+03  0.30790397040E+02  0.33394135876E+03  0.35324347451E+03  0.12700000000E+01 0. -1.
          2    1    1    2  503    0 -0.55166168377E+02 -0.56584877025E+02  0.14474436512E+04  0.14495993508E+04  0.00000000000E+00 0. -1.
         -2    1    1    2    0  501 -0.82511043520E+02 -0.37074847012E+02  0.19154691382E+03  0.21183209572E+03  0.00000000000E+00 0.  1.
<mgrwt>
<rscale>  0 0.90513801E+02</rscale>
<asrwt>0</asrwt>
<pdfrwt beam="1">  1        1 0.39717454E+00 0.79026290E+02</pdfrwt>
<pdfrwt beam="2">  1       -1 0.35163878E-02 0.10367117E+03</pdfrwt>
<totfact> 0.45455568E+02</totfact>
</mgrwt>
</event>
<event>
 7    1  0.6493044E-004  0.8484168E+02  0.7546771E-02  0.1421172E+00
          2   -1    0    0  503    0  0.00000000000E+00  0.00000000000E+00  0.29158496792E+04  0.29158496792E+04  0.00000000000E+00 0. -1.
         -2   -1    0    0    0  501 -0.00000000000E+00 -0.00000000000E+00 -0.18159226899E+03  0.18159226899E+03  0.00000000000E+00 0.  1.
         25    2    1    2    0    0 -0.58572634117E+02  0.93694393412E+02  0.65999420043E+03  0.68075410486E+03  0.12499765541E+03 0.  0.
          4    1    3    3  502    0 -0.27394692042E+02 -0.29169307850E+02  0.15262956460E+03  0.15779326526E+03  0.12700000000E+01 0. -1.
         -4    1    3    3    0  502 -0.31177942075E+02  0.12286370126E+03  0.50736463583E+03  0.52296083960E+03  0.12700000000E+01 0. -1.
          1    1    1    2  503    0 -0.24723065884E+01 -0.35275243050E+02  0.22349025308E+04  0.22351822694E+04  0.00000000000E+00 0. -1.
         -1    1    1    2    0  501  0.61044940705E+02 -0.58419150363E+02 -0.16063932103E+03  0.18150557395E+03  0.00000000000E+00 0.  1.
<mgrwt>
<rscale>  0 0.54773646E+02</rscale>
<asrwt>0</asrwt>
<pdfrwt beam="1">  1        2 0.44859222E+00 0.35361774E+02</pdfrwt>
<pdfrwt beam="2">  1       -2 0.27937274E-01 0.84841679E+02</pdfrwt>
<totfact> 0.37050992E+01</totfact>
</mgrwt>
</event>
<event>
 7    1  0.6493044E-004  0.5700643E+02  0.7546771E-02  0.1415993E+00
          1   -1    0    0  503    0  0.00000000000E+00  0.00000000000E+00  0.13803067618E+04  0.13803067618E+04  0.00000000000E+00 0. -1.
         -1   -1    0    0    0  501 -0.00000000000E+00 -0.00000000000E+00 -0.25597357766E+03  0.25597357766E+03  0.00000000000E+00 0.  1.
         25    2    1    2    0    0  0.37969803644E+02  0.10879438584E+02 -0.33557739344E+02  0.13532252896E+03  0.12500398714E+03 0.  0.
          4    1    3    3  502    0 -0.36752753422E+01 -0.50191910443E+02 -0.35109859231E+02  0.61376303554E+02  0.12700000000E+01 0. -1.
         -4    1    3    3    0  502  0.41645078986E+02  0.61071349027E+02  0.15521198874E+01  0.73946225406E+02  0.12700000000E+01 0. -1.
          2    1    1    2  503    0  0.45791408357E+01 -0.54579592775E+02  0.13234180975E+04  0.13245510036E+04  0.00000000000E+00 0. -1.
         -2    1    1    2    0  501 -0.42548944480E+02  0.43700154191E+02 -0.16552717404E+03  0.17640680683E+03  0.00000000000E+00 0.  1.
<mgrwt>
<rscale>  0 0.55877713E+02</rscale>
<asrwt>0</asrwt>
<pdfrwt beam="1">  1        1 0.21235488E+00 0.54771347E+02</pdfrwt>
<pdfrwt beam="2">  1       -1 0.39380551E-01 0.57006428E+02</pdfrwt>
<totfact> 0.63255520E+01</totfact>
</mgrwt>
</event>
<event>
 7    1  0.6493044E-004  0.5548922E+02  0.7546771E-02  0.1459876E+00
         -2   -1    0    0    0  501 -0.00000000000E+00  0.00000000000E+00  0.23400416683E+02  0.23400416683E+02  0.00000000000E+00 0.  1.
          2   -1    0    0  503    0  0.00000000000E+00 -0.00000000000E+00 -0.65924742322E+03  0.65924742322E+03  0.00000000000E+00 0. -1.
         25    2    1    2    0    0 -0.33791724522E+02  0.46326109619E+02 -0.29670628235E+03  0.32703150404E+03  0.12500799003E+03 0.  0.
          4    1    3    3  502    0 -0.42365476409E+02 -0.29078117015E+02 -0.18478766264E+03  0.19180318987E+03  0.12700000000E+01 0.  1.
         -4    1    3    3    0  502  0.85737518869E+01  0.75404226633E+02 -0.11191861971E+03  0.13522831417E+03  0.12700000000E+01 0.  1.
          1    1    1    2  503    0  0.56179327566E+02 -0.12582625055E+02 -0.26455461831E+03  0.27074634876E+03  0.00000000000E+00 0. -1.
         -1    1    1    2    0  501 -0.22387603044E+02 -0.33743484564E+02 -0.74586105873E+02  0.84869987098E+02  0.00000000000E+00 0.  1.
<mgrwt>
<rscale>  0 0.47402785E+02</rscale>
<asrwt>0</asrwt>
<pdfrwt beam="2">  1        2 0.10142268E+00 0.55489222E+02</pdfrwt>
<pdfrwt beam="1">  1       -2 0.36000640E-02 0.40494784E+02</pdfrwt>
<totfact> 0.12291743E+04</totfact>
</mgrwt>
</event>
<event>
 7    1  0.6493044E-004  0.5768709E+03  0.7546771E-02  0.1157788E+00
          2   -1    0    0  503    0  0.00000000000E+00  0.00000000000E+00  0.15897450744E+04  0.15897450744E+04  0.00000000000E+00 0. -1.
          1   -1    0    0  502    0 -0.00000000000E+00 -0.00000000000E+00 -0.20505688635E+04  0.20505688635E+04  0.00000000000E+00 0. -1.
         25    2    1    2    0    0  0.46518066305E+03  0.41337036214E+03 -0.40999999592E+03  0.75564123774E+03  0.12500231175E+03 0.  0.
          4    1    3    3  501    0  0.33928215349E+03  0.24359445521E+03 -0.22326615777E+03  0.47360323942E+03  0.12700000000E+01 0.  1.
         -4    1    3    3    0  501  0.12589850956E+03  0.16977590694E+03 -0.18673383815E+03  0.28203799832E+03  0.12700000000E+01 0.  1.
          2    1    1    2  502    0 -0.40726654574E+03 -0.38838653338E+03 -0.14130468032E+04  0.15209902717E+04  0.00000000000E+00 0. -1.
          1    1    1    2  503    0 -0.57914117307E+02 -0.24983828756E+02  0.13622230100E+04  0.13636824285E+04  0.00000000000E+00 0. -1.
<mgrwt>
<rscale>  0 0.19074886E+03</rscale>
<asrwt>0</asrwt>
<pdfrwt beam="1">  1        2 0.24457617E+00 0.63073264E+02</pdfrwt>
<pdfrwt beam="2">  1        1 0.31547213E+00 0.57687086E+03</pdfrwt>
<totfact> 0.55008459E+00</totfact>
</mgrwt>
</event>
<event>
 7    1  0.6493044E-004  0.7114222E+02  0.7546771E-02  0.1428789E+00
         -1   -1    0    0    0  501 -0.00000000000E+00  0.00000000000E+00  0.76841523465E+02  0.76841523465E+02  0.00000000000E+00 0.  1.
          1   -1    0    0  503    0  0.00000000000E+00 -0.00000000000E+00 -0.87883436475E+03  0.87883436475E+03  0.00000000000E+00 0. -1.
         25    2    1    2    0    0  0.10877558770E+03  0.75012378806E+01 -0.47562527647E+03  0.50371988781E+03  0.12500369878E+03 0.  0.
          4    1    3    3  502    0 -0.18644206242E+02  0.17294767973E+02 -0.17804850634E+03  0.17985994256E+03  0.12700000000E+01 0.  1.
         -4    1    3    3    0  502  0.12741979395E+03 -0.97935300927E+01 -0.29757677013E+03  0.32385994526E+03  0.12700000000E+01 0.  1.
          2    1    1    2  503    0 -0.39753106635E+02  0.16833272287E+01 -0.36845278431E+03  0.37059492353E+03  0.00000000000E+00 0. -1.
         -2    1    1    2    0  501 -0.69022481069E+02 -0.91845651092E+01  0.42085219501E+02  0.81361076871E+02  0.00000000000E+00 0.  1.
<mgrwt>
<rscale>  0 0.53203934E+02</rscale>
<asrwt>0</asrwt>
<pdfrwt beam="2">  1        1 0.13520528E+00 0.39788731E+02</pdfrwt>
<pdfrwt beam="1">  1       -1 0.11821774E-01 0.71142218E+02</pdfrwt>
<totfact> 0.96598241E+02</totfact>
</mgrwt>
</event>
<event>
 7    1  0.6493044E-004  0.1079009E+03  0.7546771E-02  0.1264708E+00
          2   -1    0    0  503    0  0.00000000000E+00  0.00000000000E+00  0.13438991691E+03  0.13438991691E+03  0.00000000000E+00 0. -1.
          1   -1    0    0  502    0 -0.00000000000E+00 -0.00000000000E+00 -0.41323475752E+03  0.41323475752E+03  0.00000000000E+00 0. -1.
         25    2    1    2    0    0 -0.55935797320E+02 -0.10030368375E+03 -0.72712539272E+01  0.16990400374E+03  0.12499942783E+03 0.  0.
          4    1    3    3  501    0 -0.49579114372E+02 -0.21769803519E+02 -0.55472925679E+02  0.77529809175E+02  0.12700000000E+01 0.  1.
         -4    1    3    3    0  501 -0.63566829476E+01 -0.78533880229E+02  0.48201671752E+02  0.92374194565E+02  0.12700000000E+01 0.  1.
          2    1    1    2  502    0  0.11355011442E+03  0.93221834648E+01 -0.23972294272E+03  0.26541970698E+03  0.00000000000E+00 0. -1.
          1    1    1    2  503    0 -0.57614317101E+02  0.90981500283E+02 -0.31850643972E+02  0.11230096371E+03  0.00000000000E+00 0. -1.
<mgrwt>
<rscale>  0 0.10779518E+03</rscale>
<asrwt>0</asrwt>
<pdfrwt beam="1">  1        2 0.20675372E-01 0.10768957E+03</pdfrwt>
<pdfrwt beam="2">  1        1 0.63574578E-01 0.10790090E+03</pdfrwt>
<totfact> 0.20709981E+03</totfact>
</mgrwt>
</event>
<event>
 7    1  0.6493044E-004  0.2069246E+03  0.7546771E-02  0.1280453E+00
          1   -1    0    0  502    0 -0.00000000000E+00  0.00000000000E+00  0.62483760847E+03  0.62483760847E+03  0.00000000000E+00 0. -1.
          2   -1    0    0  503    0  0.00000000000E+00 -0.00000000000E+00 -0.60014081700E+03  0.60014081700E+03  0.00000000000E+00 0. -1.
         25    2    1    2    0    0 -0.59842073089E+02  0.16225816434E+03  0.10133648890E+03  0.23622718164E+03  0.12500164701E+03 0.  0.
          4    1    3    3  501    0  0.96496167460E+01  0.10375360474E+03  0.10136742474E+03  0.14537844853E+03  0.12700000000E+01 0. -1.
         -4    1    3    3    0  501 -0.69491689835E+02  0.58504559609E+02 -0.30935839942E-01  0.90848733113E+02  0.12700000000E+01 0. -1.
          2    1    1    2  502    0  0.85273824917E+02 -0.20326700212E+03  0.42820244799E+03  0.48160817667E+03  0.00000000000E+00 0. -1.
          1    1    1    2  503    0 -0.25431751828E+02  0.41008837780E+02 -0.50484214542E+03  0.50714306716E+03  0.00000000000E+00 0. -1.
<mgrwt>
<rscale>  0 0.99925198E+02</rscale>
<asrwt>0</asrwt>
<pdfrwt beam="2">  1        2 0.92329356E-01 0.48254521E+02</pdfrwt>
<pdfrwt beam="1">  1        1 0.96128864E-01 0.20692455E+03</pdfrwt>
<totfact> 0.24071592E+02</totfact>
</mgrwt>
</event>
<event>
 7    1  0.6493044E-004  0.1039215E+03  0.7546771E-02  0.1378657E+00
          1   -1    0    0  503    0  0.00000000000E+00  0.00000000000E+00  0.32301194437E+04  0.32301194437E+04  0.00000000000E+00 0. -1.
         -1   -1    0    0    0  501 -0.00000000000E+00 -0.00000000000E+00 -0.48699083240E+03  0.48699083240E+03  0.00000000000E+00 0.  1.
         25    2    1    2    0    0  0.15032752512E+02 -0.62430848510E+02 -0.59467753495E+02  0.15259483678E+03  0.12500070405E+03 0.  0.
          4    1    3    3  502    0  0.39236990640E+02 -0.48401628605E+02  0.22279673653E+02  0.66183501299E+02  0.12700000000E+01 0.  1.
         -4    1    3    3    0  502 -0.24204238128E+02 -0.14029219905E+02 -0.81747427148E+02  0.86411335482E+02  0.12700000000E+01 0.  1.
          2    1    1    2  503    0 -0.17310491767E+02  0.10279508490E+03  0.31816272820E+04  0.31833345166E+04  0.00000000000E+00 0. -1.
         -2    1    1    2    0  501  0.22777392556E+01 -0.40364236393E+02 -0.37903091722E+03  0.38118092277E+03  0.00000000000E+00 0.  1.
<mgrwt>
<rscale>  0 0.64818101E+02</rscale>
<asrwt>0</asrwt>
<pdfrwt beam="1">  1        1 0.49694144E+00 0.10392152E+03</pdfrwt>
<pdfrwt beam="2">  1       -1 0.74921669E-01 0.40428451E+02</pdfrwt>
<totfact> 0.11692894E+00</totfact>
</mgrwt>
</event>
<event>
 7    1  0.6493044E-004  0.7008237E+02  0.7546771E-02  0.1367758E+00
          2   -1    0    0  503    0  0.00000000000E+00  0.00000000000E+00  0.18633973450E+04  0.18633973450E+04  0.00000000000E+00 0. -1.
         -2   -1    0    0    0  501 -0.00000000000E+00 -0.00000000000E+00 -0.81041438686E+02  0.81041438686E+02  0.00000000000E+00 0.  1.
         25    2    1    2    0    0  0.10197257160E+02 -0.12829065577E+02  0.32776026752E+03  0.35117102334E+03  0.12500290273E+03 0.  0.
          4    1    3    3  502    0 -0.33893816607E+02  0.32872072626E+02  0.22848468607E+03  0.23331572736E+03  0.12700000000E+01 0.  1.
         -4    1    3    3    0  502  0.44091073767E+02 -0.45701138204E+02  0.99275581449E+02  0.11785529598E+03  0.12700000000E+01 0.  1.
          1    1    1    2  503    0 -0.31064884071E+02 -0.57756906648E+02  0.15034786910E+04  0.15049083233E+04  0.00000000000E+00 0. -1.
         -1    1    1    2    0  501  0.20867626911E+02  0.70585972225E+02 -0.48883052177E+02  0.88359437063E+02  0.00000000000E+00 0.  1.
<mgrwt>
<rscale>  0 0.67794415E+02</rscale>
<asrwt>0</asrwt>
<pdfrwt beam="1">  1        2 0.28667648E+00 0.65581150E+02</pdfrwt>
<pdfrwt beam="2">  1       -2 0.12467915E-01 0.70082375E+02</pdfrwt>
<totfact> 0.43741843E+02</totfact>
</mgrwt>
</event>
<event>
 7    1  0.6493044E-004  0.1984717E+03  0.7546771E-02  0.1245067E+00
          2   -1    0    0  503    0  0.00000000000E+00  0.00000000000E+00  0.66078091997E+03  0.66078091997E+03  0.00000000000E+00 0. -1.
          1   -1    0    0  502    0 -0.00000000000E+00 -0.00000000000E+00 -0.14474858072E+04  0.14474858072E+04  0.00000000000E+00 0. -1.
         25    2    1    2    0    0  0.49678450058E+01 -0.20302575938E+03 -0.35848589423E+02  0.24115208765E+03  0.12500027823E+03 0.  0.
          4    1    3    3  501    0 -0.35719006649E+02 -0.18628721619E+03 -0.96479601059E+01  0.18993017240E+03  0.12700000000E+01 0. -1.
         -4    1    3    3    0  501  0.40686851654E+02 -0.16738543194E+02 -0.26200629317E+02  0.51221915255E+02  0.12700000000E+01 0. -1.
          2    1    1    2  502    0  0.68844554489E+02  0.17874151814E+02 -0.12901788373E+04  0.12921379533E+04  0.00000000000E+00 0. -1.
          1    1    1    2  503    0 -0.73812399494E+02  0.18515160757E+03  0.53932253952E+03  0.57497668626E+03  0.00000000000E+00 0. -1.
<mgrwt>
<rscale>  0 0.11881374E+03</rscale>
<asrwt>0</asrwt>
<pdfrwt beam="1">  1        2 0.10165860E+00 0.19847165E+03</pdfrwt>
<pdfrwt beam="2">  1        1 0.22269012E+00 0.71127055E+02</pdfrwt>
<totfact> 0.54564880E+01</totfact>
</mgrwt>
</event>
<event>
 7    1  0.6493044E-004  0.5648228E+02  0.7546771E-02  0.1415174E+00
          1   -1    0    0  502    0 -0.00000000000E+00  0.00000000000E+00  0.34442136567E+03  0.34442136567E+03  0.00000000000E+00 0. -1.
          2   -1    0    0  503    0  0.00000000000E+00 -0.00000000000E+00 -0.19613571885E+04  0.19613571885E+04  0.00000000000E+00 0. -1.
         25    2    1    2    0    0  0.76183401911E+01  0.97594699016E+02 -0.88258904867E+02  0.18164944527E+03  0.12499648914E+03 0.  0.
          4    1    3    3  501    0 -0.15187948922E+01  0.12232799418E+03 -0.43807340747E+02  0.12995053252E+03  0.12700000000E+01 0. -1.
         -4    1    3    3    0  501  0.91371350832E+01 -0.24733295167E+02 -0.44451564119E+02  0.51698912754E+02  0.12700000000E+01 0. -1.
          2    1    1    2  502    0  0.22821543677E+02 -0.51030040953E+02  0.29467415183E+03  0.29992956455E+03  0.00000000000E+00 0. -1.
          1    1    1    2  503    0 -0.30439883868E+02 -0.46564658063E+02 -0.18233510698E+04  0.18241995444E+04  0.00000000000E+00 0. -1.
<mgrwt>
<rscale>  0 0.56055231E+02</rscale>
<asrwt>0</asrwt>
<pdfrwt beam="2">  1        2 0.30174726E+00 0.55631411E+02</pdfrwt>
<pdfrwt beam="1">  1        1 0.52987902E-01 0.56482280E+02</pdfrwt>
<totfact> 0.93445444E+01</totfact>
</mgrwt>
</event>
<event>
 7    1  0.6493044E-004  0.5742021E+02  0.7546771E-02  0.1453408E+00
         -1   -1    0    0    0  501 -0.00000000000E+00  0.00000000000E+00  0.51188047368E+02  0.51188047368E+02  0.00000000000E+00 0.  1.
          3   -1    0    0  503    0  0.00000000000E+00 -0.00000000000E+00 -0.22483461168E+04  0.22483461168E+04  0.00000000000E+00 0. -1.
         25    2    1    2    0    0 -0.34210776324E+02 -0.64835232465E+02 -0.10706166140E+04  0.10803792474E+04  0.12500159770E+03 0.  0.
          4    1    3    3  502    0 -0.14735934937E+02  0.33732149629E+02 -0.46759898500E+03  0.46904736367E+03  0.12700000000E+01 0. -1.
         -4    1    3    3    0  502 -0.19474841387E+02 -0.98567382094E+02 -0.60301762901E+03  0.61133188372E+03  0.12700000000E+01 0. -1.
          2    1    1    2  503    0 -0.59292997880E+01  0.56362840910E+02 -0.11629344742E+04  0.11643146128E+04  0.00000000000E+00 0. -1.
         -2    1    1    2    0  501  0.40140076112E+02  0.84723915545E+01  0.36393018715E+02  0.54840303976E+02  0.00000000000E+00 0.  1.
<mgrwt>
<rscale>  0 0.48534872E+02</rscale>
<asrwt>0</asrwt>
<pdfrwt beam="2">  1        3 0.34589944E+00 0.57420212E+02</pdfrwt>
<pdfrwt beam="1">  1       -1 0.78750833E-02 0.41024470E+02</pdfrwt>
<totfact> 0.10226865E+01</totfact>
</mgrwt>
</event>
<event>
 7    1  0.6493044E-004  0.6911882E+02  0.7546771E-02  0.1363418E+00
          1   -1    0    0  502    0 -0.00000000000E+00  0.00000000000E+00  0.22306989035E+04  0.22306989035E+04  0.00000000000E+00 0. -1.
          2   -1    0    0  503    0  0.00000000000E+00 -0.00000000000E+00 -0.23453088687E+03  0.23453088687E+03  0.00000000000E+00 0. -1.
         25    2    1    2    0    0  0.12728398526E+02 -0.79271701156E+02 -0.62957377630E+01  0.14869607551E+03  0.12499948730E+03 0.  0.
          4    1    3    3  501    0 -0.33493604776E+02  0.14987140645E+02  0.18061953068E+02  0.40918003302E+02  0.12700000000E+01 0.  1.
         -4    1    3    3    0  501  0.46222003303E+02 -0.94258841801E+02 -0.24357690831E+02  0.10777807221E+03  0.12700000000E+01 0.  1.
          2    1    1    2  502    0  0.50606300249E+02  0.47078796498E+02  0.21508791870E+04  0.21519894721E+04  0.00000000000E+00 0. -1.
          1    1    1    2  503    0 -0.63334698775E+02  0.32192904657E+02 -0.14841543265E+03  0.16454424277E+03  0.00000000000E+00 0. -1.
<mgrwt>
<rscale>  0 0.69031558E+02</rscale>
<asrwt>0</asrwt>
<pdfrwt beam="2">  1        2 0.36081676E-01 0.68944409E+02</pdfrwt>
<pdfrwt beam="1">  1        1 0.34318443E+00 0.69118816E+02</pdfrwt>
<totfact> 0.54679255E+01</totfact>
</mgrwt>
</event>
<event>
 7    1  0.6493044E-004  0.4424933E+02  0.7546771E-02  0.1589617E+00
          1   -1    0    0  502    0 -0.00000000000E+00  0.00000000000E+00  0.70031958086E+03  0.70031958086E+03  0.00000000000E+00 0. -1.
          2   -1    0    0  503    0  0.00000000000E+00 -0.00000000000E+00 -0.19896470189E+02  0.19896470189E+02  0.00000000000E+00 0. -1.
         25    2    1    2    0    0 -0.26194313258E+02 -0.33648376816E+02  0.56509816812E+03  0.58033915175E+03  0.12505693158E+03 0.  0.
          4    1    3    3  501    0 -0.30024063610E+02  0.81872914394E+01  0.51044193188E+03  0.51139129329E+03  0.12700000000E+01 0. -1.
         -4    1    3    3    0  501  0.38297503524E+01 -0.41835668255E+02  0.54656236243E+02  0.68947858461E+02  0.12700000000E+01 0. -1.
          2    1    1    2  502    0  0.18674518129E+02 -0.10474486190E+02  0.80119832612E+02  0.82931538429E+02  0.00000000000E+00 0. -1.
          3    1    1    2  503    0  0.75197951293E+01  0.44122863006E+02  0.35205109943E+02  0.56945360871E+02  0.00000000000E+00 0. -1.
<mgrwt>
<rscale>  0 0.30780590E+02</rscale>
<asrwt>0</asrwt>
<pdfrwt beam="2">  1        2 0.30609960E-02 0.44249332E+02</pdfrwt>
<pdfrwt beam="1">  1        1 0.10774145E+00 0.21411504E+02</pdfrwt>
<totfact> 0.10603811E+04</totfact>
</mgrwt>
</event>
<event>
 7    1  0.6493044E-004  0.1460925E+03  0.7546771E-02  0.1286014E+00
          1   -1    0    0  502    0 -0.00000000000E+00  0.00000000000E+00  0.47451371223E+02  0.47451371223E+02  0.00000000000E+00 0. -1.
          2   -1    0    0  503    0  0.00000000000E+00 -0.00000000000E+00 -0.23504705847E+04  0.23504705847E+04  0.00000000000E+00 0. -1.
         25    2    1    2    0    0  0.73189855303E+02 -0.13502899815E+03 -0.57794839331E+03  0.61093452533E+03  0.12500825430E+03 0.  0.
          4    1    3    3  501    0  0.76759547449E+02 -0.93129092201E+02 -0.54296992816E+03  0.55622208849E+03  0.12700000000E+01 0.  1.
         -4    1    3    3    0  501 -0.35696921459E+01 -0.41899905944E+02 -0.34978465158E+02  0.54712436840E+02  0.12700000000E+01 0.  1.
          2    1    1    2  502    0  0.44540901011E+02  0.47124049982E+02 -0.99699738684E+01  0.65604636486E+02  0.00000000000E+00 0. -1.
          1    1    1    2  503    0 -0.11773075631E+03  0.87904948164E+02 -0.17151008463E+04  0.17213827941E+04  0.00000000000E+00 0. -1.
<mgrwt>
<rscale>  0 0.97329461E+02</rscale>
<asrwt>0</asrwt>
<pdfrwt beam="2">  1        2 0.36161088E+00 0.14609251E+03</pdfrwt>
<pdfrwt beam="1">  1        1 0.73002106E-02 0.64842640E+02</pdfrwt>
<totfact> 0.62842231E+02</totfact>
</mgrwt>
</event>
<event>
 7    1  0.6493044E-004  0.1000256E+03  0.7546771E-02  0.1430586E+00
          1   -1    0    0  502    0 -0.00000000000E+00  0.00000000000E+00  0.88525328445E+03  0.88525328445E+03  0.00000000000E+00 0. -1.
          2   -1    0    0  503    0  0.00000000000E+00 -0.00000000000E+00 -0.16160724901E+03  0.16160724901E+03  0.00000000000E+00 0. -1.
         25    2    1    2    0    0  0.90871002171E+02 -0.95834675556E+01  0.49847454594E+03  0.52196839607E+03  0.12499900664E+03 0.  0.
          4    1    3    3  501    0  0.65809220245E+02  0.96306870827E+01  0.48153813684E+03  0.48611129768E+03  0.12700000000E+01 0.  1.
         -4    1    3    3    0  501  0.25061781926E+02 -0.19214154638E+02  0.16936409105E+02  0.35857098393E+02  0.12700000000E+01 0.  1.
          2    1    1    2  502    0 -0.10577711831E+03 -0.14019920153E+02  0.36604471365E+03  0.38127954222E+03  0.00000000000E+00 0. -1.
          1    1    1    2  503    0  0.14906116143E+02  0.23603387709E+02 -0.14087322416E+03  0.14361259518E+03  0.00000000000E+00 0. -1.
<mgrwt>
<rscale>  0 0.52842508E+02</rscale>
<asrwt>0</asrwt>
<pdfrwt beam="2">  1        2 0.24862654E-01 0.27916164E+02</pdfrwt>
<pdfrwt beam="1">  1        1 0.13619281E+00 0.10002558E+03</pdfrwt>
<totfact> 0.56806127E+02</totfact>
</mgrwt>
</event>
<event>
 7    1  0.6493044E-004  0.1077830E+03  0.7546771E-02  0.1281376E+00
          1   -1    0    0  502    0 -0.00000000000E+00  0.00000000000E+00  0.18171721154E+04  0.18171721154E+04  0.00000000000E+00 0. -1.
          2   -1    0    0  503    0  0.00000000000E+00 -0.00000000000E+00 -0.20588564456E+04  0.20588564456E+04  0.00000000000E+00 0. -1.
         25    2    1    2    0    0  0.17576295717E+03 -0.35511988552E+02  0.51705061288E+02  0.22461367321E+03  0.12499668149E+03 0.  0.
          4    1    3    3  501    0  0.17861806884E+03 -0.64131972763E+02  0.45403071045E+02  0.19514193861E+03  0.12700000000E+01 0.  1.
         -4    1    3    3    0  501 -0.28551116670E+01  0.28619984211E+02  0.63019902426E+01  0.29471734592E+02  0.12700000000E+01 0.  1.
          2    1    1    2  502    0 -0.71012420773E+02  0.58226037332E+02  0.16762989063E+04  0.16788123953E+04  0.00000000000E+00 0. -1.
          1    1    1    2  503    0 -0.10475053640E+03 -0.22714048780E+02 -0.19696882978E+04  0.19726024924E+04  0.00000000000E+00 0. -1.
<mgrwt>
<rscale>  0 0.99488107E+02</rscale>
<asrwt>0</asrwt>
<pdfrwt beam="2">  1        2 0.31674714E+00 0.10778303E+03</pdfrwt>
<pdfrwt beam="1">  1        1 0.27956494E+00 0.91831560E+02</pdfrwt>
<totfact> 0.52473511E+00</totfact>
</mgrwt>
</event>
<event>
 7    1  0.6493044E-004  0.8310302E+02  0.7546771E-02  0.1398533E+00
          1   -1    0    0  502    0 -0.00000000000E+00  0.00000000000E+00  0.33476837723E+03  0.33476837723E+03  0.00000000000E+00 0. -1.
          2   -1    0    0  503    0  0.00000000000E+00 -0.00000000000E+00 -0.16246009371E+04  0.16246009371E+04  0.00000000000E+00 0. -1.
         25    2    1    2    0    0 -0.32881153818E+02  0.41186128326E+02  0.12249274078E+03  0.18277582405E+03  0.12500025148E+03 0.  0.
          4    1    3    3  501    0 -0.48784869222E+02 -0.33526576406E+02  0.51013653916E+02  0.78153698418E+02  0.12700000000E+01 0.  1.
         -4    1    3    3    0  501  0.15903715404E+02  0.74712704732E+02  0.71479086868E+02  0.10462212563E+03  0.12700000000E+01 0.  1.
          2    1    1    2  502    0  0.15253467290E+02  0.40288218431E+02  0.17848015167E+03  0.18360548290E+03  0.00000000000E+00 0. -1.
          1    1    1    2  503    0  0.17627686527E+02 -0.81474346758E+02 -0.15908054524E+04  0.15929880074E+04  0.00000000000E+00 0. -1.
<mgrwt>
<rscale>  0 0.59833129E+02</rscale>
<asrwt>0</asrwt>
<pdfrwt beam="2">  1        2 0.24993860E+00 0.83103021E+02</pdfrwt>
<pdfrwt beam="1">  1        1 0.51502828E-01 0.43079099E+02</pdfrwt>
<totfact> 0.13628303E+02</totfact>
</mgrwt>
</event>
<event>
 7    1  0.6493044E-004  0.2193038E+03  0.7546771E-02  0.1283040E+00
          1   -1    0    0  502    0 -0.00000000000E+00  0.00000000000E+00  0.82892216062E+03  0.82892216062E+03  0.00000000000E+00 0. -1.
          2   -1    0    0  503    0  0.00000000000E+00 -0.00000000000E+00 -0.13029418541E+04  0.13029418541E+04  0.00000000000E+00 0. -1.
         25    2    1    2    0    0  0.19013018031E+03 -0.53203334574E+01  0.28762473330E+03  0.36678213387E+03  0.12499342027E+03 0.  0.
          4    1    3    3  501    0  0.17800967581E+03  0.38413363183E+02  0.22610774378E+03  0.29032629204E+03  0.12700000000E+01 0.  1.
         -4    1    3    3    0  501  0.12120504504E+02 -0.43733696640E+02  0.61516989517E+02  0.76455841834E+02  0.12700000000E+01 0.  1.
          2    1    1    2  502    0  0.28176025784E+02  0.34348858702E+02  0.49111097340E+03  0.49311633589E+03  0.00000000000E+00 0. -1.
          1    1    1    2  503    0 -0.21830620610E+03 -0.29028525244E+02 -0.12527554002E+04  0.12719655450E+04  0.00000000000E+00 0. -1.
<mgrwt>
<rscale>  0 0.98706367E+02</rscale>
<asrwt>0</asrwt>
<pdfrwt beam="2">  1        2 0.20045259E+00 0.21930381E+03</pdfrwt>
<pdfrwt beam="1">  1        1 0.12752649E+00 0.44426710E+02</pdfrwt>
<totfact> 0.58414229E+01</totfact>
</mgrwt>
</event>
<event>
 7    1  0.6493044E-004  0.1451206E+03  0.7546771E-02  0.1342508E+00
         -1   -1    0    0    0  501 -0.00000000000E+00  0.00000000000E+00  0.45685509404E+03  0.45685509404E+03  0.00000000000E+00 0.  1.
          1   -1    0    0  503    0  0.00000000000E+00 -0.00000000000E+00 -0.10728509098E+04  0.10728509098E+04  0.00000000000E+00 0. -1.
         25    2    1    2    0    0 -0.16469831596E+03  0.63973373422E+02 -0.15124776371E+03  0.26404518131E+03  0.12500337579E+03 0.  0.
          4    1    3    3  502    0 -0.12051490852E+03  0.78674563241E+02 -0.49603997519E+02  0.15223567107E+03  0.12700000000E+01 0. -1.
         -4    1    3    3    0  502 -0.44183407445E+02 -0.14701189819E+02 -0.10164376619E+03  0.11180951024E+03  0.12700000000E+01 0. -1.
          2    1    1    2  503    0  0.25601039549E+02 -0.29710362888E+02 -0.85192722646E+03  0.85282947772E+03  0.00000000000E+00 0. -1.
         -2    1    1    2    0  501  0.13909727641E+03 -0.34263010534E+02  0.38717917439E+03  0.41283134483E+03  0.00000000000E+00 0.  1.
<mgrwt>
<rscale>  0 0.75441789E+02</rscale>
<asrwt>0</asrwt>
<pdfrwt beam="2">  1        1 0.16505399E+00 0.39218859E+02</pdfrwt>
<pdfrwt beam="1">  1       -1 0.70285399E-01 0.14512058E+03</pdfrwt>
<totfact> 0.35450799E+01</totfact>
</mgrwt>
</event>
<event>
 7    1  0.6493044E-004  0.1016654E+03  0.7546771E-02  0.1368057E+00
         -2   -1    0    0    0  501 -0.00000000000E+00  0.00000000000E+00  0.53740054526E+02  0.53740054526E+02  0.00000000000E+00 0.  1.
          2   -1    0    0  503    0  0.00000000000E+00 -0.00000000000E+00 -0.18234114796E+04  0.18234114796E+04  0.00000000000E+00 0. -1.
         25    2    1    2    0    0 -0.55006959808E+02  0.47797369296E+02 -0.68508191355E+03  0.70019413591E+03  0.12499698219E+03 0.  0.
          4    1    3    3  502    0 -0.68684818742E+02 -0.42507517772E+01 -0.55733442164E+03  0.56156828940E+03  0.12700000000E+01 0.  1.
         -4    1    3    3    0  502  0.13677858933E+02  0.52048121073E+02 -0.12774749191E+03  0.13862584652E+03  0.12700000000E+01 0.  1.
          1    1    1    2  503    0  0.66715778179E+02 -0.91346776452E+02 -0.11161801980E+04  0.11218972605E+04  0.00000000000E+00 0. -1.
         -1    1    1    2    0  501 -0.11708818371E+02  0.43549407156E+02  0.31590686509E+02  0.55060137717E+02  0.00000000000E+00 0.  1.
<mgrwt>
<rscale>  0 0.67710433E+02</rscale>
<asrwt>0</asrwt>
<pdfrwt beam="2">  1        2 0.28052481E+00 0.10166544E+03</pdfrwt>
<pdfrwt beam="1">  1       -2 0.82677017E-02 0.45095979E+02</pdfrwt>
<totfact> 0.79519002E+02</totfact>
</mgrwt>
</event>
<event>
 7    1  0.6493044E-004  0.7373202E+02  0.7546771E-02  0.1387576E+00
          1   -1    0    0  503    0  0.00000000000E+00  0.00000000000E+00  0.13751610575E+04  0.13751610575E+04  0.00000000000E+00 0. -1.
         -1   -1    0    0    0  501 -0.00000000000E+00 -0.00000000000E+00 -0.26803411306E+03  0.26803411306E+03  0.00000000000E+00 0.  1.
         25    2    1    2    0    0 -0.22891176879E+02  0.11828980775E+02  0.32645802576E+03  0.35052074478E+03  0.12500407662E+03 0.  0.
          4    1    3    3  502    0 -0.37958816066E+02  0.43122311123E+02  0.64981514063E+02  0.86744541636E+02  0.12700000000E+01 0. -1.
         -4    1    3    3    0  502  0.15067639187E+02 -0.31293330348E+02  0.26147651170E+03  0.26377620315E+03  0.12700000000E+01 0. -1.
          2    1    1    2  503    0 -0.51658015720E+02 -0.11859804109E+02  0.10305488942E+04  0.10319109598E+04  0.00000000000E+00 0. -1.
         -2    1    1    2    0  501  0.74549192600E+02  0.30823334492E-01 -0.24987997549E+03  0.26076346604E+03  0.00000000000E+00 0.  1.
<mgrwt>
<rscale>  0 0.62513517E+02</rscale>
<asrwt>0</asrwt>
<pdfrwt beam="1">  1        1 0.21156324E+00 0.53001939E+02</pdfrwt>
<pdfrwt beam="2">  1       -1 0.41236018E-01 0.73732016E+02</pdfrwt>
<totfact> 0.59185384E+01</totfact>
</mgrwt>
</event>
<event>
 7    1  0.6493044E-004  0.8297629E+02  0.7546771E-02  0.1405357E+00
         -2   -1    0    0    0  501 -0.00000000000E+00  0.00000000000E+00  0.54026073154E+02  0.54026073154E+02  0.00000000000E+00 0.  1.
          2   -1    0    0  503    0  0.00000000000E+00 -0.00000000000E+00 -0.57873680122E+03  0.57873680122E+03  0.00000000000E+00 0. -1.
         25    2    1    2    0    0 -0.29230076461E+01  0.49820237868E+02 -0.23912986002E+03  0.27440866571E+03  0.12500570303E+03 0.  0.
          4    1    3    3  502    0  0.60353024653E+02  0.16283465001E+02 -0.10032064379E+03  0.11820948899E+03  0.12700000000E+01 0. -1.
         -4    1    3    3    0  502 -0.63276032299E+02  0.33536772867E+02 -0.13880921622E+03  0.15619917672E+03  0.12700000000E+01 0. -1.
          1    1    1    2  503    0 -0.78026856383E+01  0.40130319715E+02 -0.26142338567E+03  0.26460066334E+03  0.00000000000E+00 0. -1.
         -1    1    1    2    0  501  0.10725693284E+02 -0.89950557582E+02 -0.24157482374E+02  0.93753545322E+02  0.00000000000E+00 0.  1.
<mgrwt>
<rscale>  0 0.58242793E+02</rscale>
<asrwt>0</asrwt>
<pdfrwt beam="2">  1        2 0.89036436E-01 0.40881835E+02</pdfrwt>
<pdfrwt beam="1">  1       -2 0.83117031E-02 0.82976289E+02</pdfrwt>
<totfact> 0.44833224E+03</totfact>
</mgrwt>
</event>
<event>
 7    1  0.6493044E-004  0.2635452E+03  0.7546771E-02  0.1326355E+00
         -1   -1    0    0    0  501 -0.00000000000E+00  0.00000000000E+00  0.12034698633E+04  0.12034698633E+04  0.00000000000E+00 0.  1.
          1   -1    0    0  503    0  0.00000000000E+00 -0.00000000000E+00 -0.15773791286E+04  0.15773791286E+04  0.00000000000E+00 0. -1.
         25    2    1    2    0    0 -0.24850916902E+03  0.11940724084E+03 -0.20598890727E+03  0.36614542086E+03  0.12496456717E+03 0.  0.
          4    1    3    3  502    0 -0.44469228459E+02  0.27428392151E+02  0.12098854900E+02  0.53645355490E+02  0.12700000000E+01 0.  1.
         -4    1    3    3    0  502 -0.20403994056E+03  0.91978848685E+02 -0.21808776217E+03  0.31250006537E+03  0.12700000000E+01 0.  1.
          2    1    1    2  503    0  0.21275083856E+02  0.12878498059E+02 -0.12758038258E+04  0.12760461931E+04  0.00000000000E+00 0. -1.
         -2    1    1    2    0  501  0.22723408516E+03 -0.13228573889E+03  0.11078834678E+04  0.11386573780E+04  0.00000000000E+00 0.  1.
<mgrwt>
<rscale>  0 0.80958009E+02</rscale>
<asrwt>0</asrwt>
<pdfrwt beam="2">  1        1 0.24267371E+00 0.24869357E+02</pdfrwt>
<pdfrwt beam="1">  1       -1 0.18514921E+00 0.26354518E+03</pdfrwt>
<totfact> 0.17548564E+00</totfact>
</mgrwt>
</event>
<event>
 7    1  0.6493044E-004  0.1524878E+03  0.7546771E-02  0.1206192E+00
          1   -1    0    0  502    0 -0.00000000000E+00  0.00000000000E+00  0.54280581181E+03  0.54280581181E+03  0.00000000000E+00 0. -1.
          2   -1    0    0  503    0  0.00000000000E+00 -0.00000000000E+00 -0.86858534875E+03  0.86858534875E+03  0.00000000000E+00 0. -1.
         25    2    1    2    0    0 -0.51258100621E+02 -0.76388276434E+01 -0.47087377556E+02  0.14327986198E+03  0.12500461255E+03 0.  0.
          4    1    3    3  501    0  0.15121905527E+02 -0.20501815074E+02  0.30891584940E+02  0.40061195292E+02  0.12700000000E+01 0. -1.
         -4    1    3    3    0  501 -0.66380006148E+02  0.12862987431E+02 -0.77978962495E+02  0.10321866669E+03  0.12700000000E+01 0. -1.
          2    1    1    2  502    0  0.11022008735E+02  0.15472247827E+03  0.47472168717E+03  0.49942087484E+03  0.00000000000E+00 0. -1.
          3    1    1    2  503    0  0.40236091887E+02 -0.14708365063E+03 -0.75341384654E+03  0.76869042373E+03  0.00000000000E+00 0. -1.
<mgrwt>
<rscale>  0 0.14543878E+03</rscale>
<asrwt>0</asrwt>
<pdfrwt beam="2">  1        2 0.13362851E+00 0.15248785E+03</pdfrwt>
<pdfrwt beam="1">  1        1 0.83508587E-01 0.13871558E+03</pdfrwt>
<totfact> 0.18404147E+02</totfact>
</mgrwt>
</event>
<event>
 7    1  0.6493044E-004  0.6975692E+02  0.7546771E-02  0.1362116E+00
          1   -1    0    0  502    0 -0.00000000000E+00  0.00000000000E+00  0.17578811038E+04  0.17578811038E+04  0.00000000000E+00 0. -1.
          2   -1    0    0  503    0  0.00000000000E+00 -0.00000000000E+00 -0.14424723754E+04  0.14424723754E+04  0.00000000000E+00 0. -1.
         25    2    1    2    0    0  0.59194229476E+02 -0.48604959585E+02 -0.26799224016E+02  0.14902879748E+03  0.12499994068E+03 0.  0.
          4    1    3    3  501    0  0.67713073152E+02  0.25030565217E+02 -0.17653088889E+02  0.74329226541E+02  0.12700000000E+01 0. -1.
         -4    1    3    3    0  501 -0.85188436762E+01 -0.73635524801E+02 -0.91461351270E+01  0.74699570937E+02  0.12700000000E+01 0. -1.
          2    1    1    2  502    0  0.65779212967E+01  0.69666261025E+02  0.16951637256E+04  0.16966074129E+04  0.00000000000E+00 0. -1.
          3    1    1    2  503    0 -0.65772150773E+02 -0.21061301440E+02 -0.13529557732E+04  0.13547172688E+04  0.00000000000E+00 0. -1.
<mgrwt>
<rscale>  0 0.69408570E+02</rscale>
<asrwt>0</asrwt>
<pdfrwt beam="2">  1        2 0.22191883E+00 0.69061959E+02</pdfrwt>
<pdfrwt beam="1">  1        1 0.27044325E+00 0.69756920E+02</pdfrwt>
<totfact> 0.12570266E+01</totfact>
</mgrwt>
</event>
<event>
 7    1  0.6493044E-004  0.4121658E+02  0.7546771E-02  0.1515472E+00
         -2   -1    0    0    0  501 -0.00000000000E+00  0.00000000000E+00  0.18601840852E+03  0.18601840852E+03  0.00000000000E+00 0.  1.
          2   -1    0    0  503    0  0.00000000000E+00 -0.00000000000E+00 -0.11075083811E+04  0.11075083811E+04  0.00000000000E+00 0. -1.
         25    2    1    2    0    0 -0.17702091590E+02 -0.20492868970E+01 -0.61181175579E+03  0.62470623179E+03  0.12500675137E+03 0.  0.
          4    1    3    3  502    0  0.55506425910E+01 -0.12264474935E+02 -0.12107423279E+01  0.13575926326E+02  0.12700000000E+01 0.  1.
         -4    1    3    3    0  502 -0.23252734181E+02  0.10215188038E+02 -0.61060101347E+03  0.61113030547E+03  0.12700000000E+01 0.  1.
          1    1    1    2  503    0  0.26176356064E+02  0.38024500795E+02 -0.48624272347E+03  0.48842916621E+03  0.00000000000E+00 0. -1.
         -1    1    1    2    0  501 -0.84742644740E+01 -0.35975213898E+02  0.17656450665E+03  0.18039139165E+03  0.00000000000E+00 0.  1.
<mgrwt>
<rscale>  0 0.39030219E+02</rscale>
<asrwt>0</asrwt>
<pdfrwt beam="2">  1        2 0.17038591E+00 0.41216584E+02</pdfrwt>
<pdfrwt beam="1">  1       -2 0.28618216E-01 0.36959832E+02</pdfrwt>
<totfact> 0.26988802E+02</totfact>
</mgrwt>
</event>
<event>
 7    1  0.6493044E-004  0.9145717E+02  0.7546771E-02  0.1350528E+00
          2   -1    0    0  503    0  0.00000000000E+00  0.00000000000E+00  0.70442376442E+03  0.70442376442E+03  0.00000000000E+00 0. -1.
          1   -1    0    0  502    0 -0.00000000000E+00 -0.00000000000E+00 -0.34110213100E+03  0.34110213100E+03  0.00000000000E+00 0. -1.
         25    2    1    2    0    0  0.71010404344E+02 -0.91480102164E+02 -0.23595329155E+03  0.29105054193E+03  0.12500150219E+03 0.  0.
          4    1    3    3  501    0  0.10312005865E+03 -0.80191572339E+02 -0.15184219435E+03  0.20030501655E+03  0.12700000000E+01 0.  1.
         -4    1    3    3    0  501 -0.32109654302E+02 -0.11288529825E+02 -0.84111097202E+02  0.90745525386E+02  0.12700000000E+01 0.  1.
          2    1    1    2  502    0 -0.70716113873E+02  0.33386505426E+02 -0.56282349764E+02  0.96349003113E+02  0.00000000000E+00 0. -1.
          1    1    1    2  503    0 -0.29429047182E+00  0.58093596738E+02  0.65555727474E+03  0.65812635037E+03  0.00000000000E+00 0. -1.
<mgrwt>
<rscale>  0 0.72891316E+02</rscale>
<asrwt>0</asrwt>
<pdfrwt beam="1">  1        2 0.10837289E+00 0.58094342E+02</pdfrwt>
<pdfrwt beam="2">  1        1 0.52477251E-01 0.91457166E+02</pdfrwt>
<totfact> 0.44612755E+02</totfact>
</mgrwt>
</event>
<event>
 7    1  0.6493044E-004  0.1741093E+03  0.7546771E-02  0.1244671E+00
          2   -1    0    0  503    0  0.00000000000E+00  0.00000000000E+00  0.56167397184E+03  0.56167397184E+03  0.00000000000E+00 0. -1.
          1   -1    0    0  502    0 -0.00000000000E+00 -0.00000000000E+00 -0.70003376205E+03  0.70003376205E+03  0.00000000000E+00 0. -1.
         25    2    1    2    0    0  0.57976317325E+02  0.13218398661E+03 -0.15134952062E+03  0.24365200223E+03  0.12500304441E+03 0.  0.
          4    1    3    3  501    0  0.85988804279E+02  0.12449831010E+03 -0.15212856712E+03  0.21456611455E+03  0.12700000000E+01 0. -1.
         -4    1    3    3    0  501 -0.28012486954E+02  0.76856765118E+01  0.77904649791E+00  0.29085887682E+02  0.12700000000E+01 0. -1.
          2    1    1    2  502    0  0.79085985464E+02 -0.19285917976E+02 -0.48373942443E+03  0.49054089583E+03  0.00000000000E+00 0. -1.
          1    1    1    2  503    0 -0.13706230279E+03 -0.11289806863E+03  0.49672915484E+03  0.52751483583E+03  0.00000000000E+00 0. -1.
<mgrwt>
<rscale>  0 0.11905091E+03</rscale>
<asrwt>0</asrwt>
<pdfrwt beam="1">  1        2 0.86411380E-01 0.17410934E+03</pdfrwt>
<pdfrwt beam="2">  1        1 0.10769750E+00 0.81403561E+02</pdfrwt>
<totfact> 0.22293484E+02</totfact>
</mgrwt>
</event>
<event>
 7    1  0.8013566E-004  0.4335132E+02  0.7546771E-02  0.1515903E+00
         -2   -1    0    0    0  501 -0.00000000000E+00  0.00000000000E+00  0.34495958644E+02  0.34495958644E+02  0.00000000000E+00 0. -1.
          2   -1    0    0  503    0  0.00000000000E+00 -0.00000000000E+00 -0.41371693588E+03  0.41371693588E+03  0.00000000000E+00 0.  1.
         25    2    1    2    0    0 -0.22083803141E+02 -0.44904302525E+02 -0.19681318875E+03  0.23846875376E+03  0.12501129752E+03 0.  0.
          4    1    3    3  502    0  0.48347704980E+02 -0.13001579201E+01 -0.48023788382E+02  0.68169554333E+02  0.12700000000E+01 0. -1.
         -4    1    3    3    0  502 -0.70431508121E+02 -0.43604144605E+02 -0.14878940037E+03  0.17029919942E+03  0.12700000000E+01 0. -1.
          1    1    1    2  503    0  0.34921041686E+02  0.28624916501E+01 -0.17668440474E+02  0.39240881739E+02  0.00000000000E+00 0. -1.
         -1    1    1    2    0  501 -0.12837238544E+02  0.42041810875E+02 -0.16473934802E+03  0.17050325903E+03  0.00000000000E+00 0.  1.
<mgrwt>
<rscale>  0 0.38973718E+02</rscale>
<asrwt>0</asrwt>
<pdfrwt beam="2">  1        2 0.63648765E-01 0.35038165E+02</pdfrwt>
<pdfrwt beam="1">  1       -2 0.53070701E-02 0.43351320E+02</pdfrwt>
<totfact> 0.11667572E+04</totfact>
</mgrwt>
</event>
<event>
 7    1  0.6493044E-004  0.1128200E+03  0.7546771E-02  0.1258828E+00
          1   -1    0    0  503    0  0.00000000000E+00  0.00000000000E+00  0.31814450848E+04  0.31814450848E+04  0.00000000000E+00 0. -1.
         -1   -1    0    0    0  501 -0.00000000000E+00 -0.00000000000E+00 -0.52298000230E+02  0.52298000230E+02  0.00000000000E+00 0.  1.
         25    2    1    2    0    0  0.71861184980E+02  0.46108249641E+01  0.56872207316E+03  0.58673120984E+03  0.12499370579E+03 0.  0.
          4    1    3    3  502    0  0.22803642509E+01 -0.43349344903E+02  0.82639947191E+02  0.93355982863E+02  0.12700000000E+01 0.  1.
         -4    1    3    3    0  502  0.69580820729E+02  0.47960169867E+02  0.48608212597E+03  0.49337522697E+03  0.12700000000E+01 0.  1.
          2    1    1    2  503    0 -0.30225683547E+02  0.10869567544E+03  0.25157771503E+04  0.25183055835E+04  0.00000000000E+00 0. -1.
         -2    1    1    2    0  501 -0.41635501433E+02 -0.11330650040E+03  0.44647861037E+02  0.12870629164E+03  0.00000000000E+00 0.  1.
<mgrwt>
<rscale>  0 0.11094583E+03</rscale>
<asrwt>0</asrwt>
<pdfrwt beam="1">  1        1 0.48945294E+00 0.11281995E+03</pdfrwt>
<pdfrwt beam="2">  1       -1 0.80458487E-02 0.10910283E+03</pdfrwt>
<totfact> 0.50258912E+01</totfact>
</mgrwt>
</event>
<event>
 7    1  0.6493044E-004  0.6310540E+02  0.7546771E-02  0.1495133E+00
         -2   -1    0    0    0  501  0.00000000000E+00  0.00000000000E+00  0.44458980614E+03  0.44458980614E+03  0.00000000000E+00 0.  1.
         -1   -1    0    0    0  502 -0.00000000000E+00 -0.00000000000E+00 -0.79540012131E+03  0.79540012131E+03  0.00000000000E+00 0.  1.
         25    2    1    2    0    0  0.40650789891E+02 -0.19915085614E+02  0.38164776140E+02  0.13831177933E+03  0.12499800322E+03 0.  0.
          4    1    3    3  503    0 -0.17098055454E+02 -0.23443341426E+02 -0.34707196848E+02  0.45256338458E+02  0.12700000000E+01 0. -1.
         -4    1    3    3    0  503  0.57748845345E+02  0.35282558125E+01  0.72871972989E+02  0.93055440868E+02  0.12700000000E+01 0. -1.
         -2    1    1    2    0  502  0.23460754590E+02  0.14788450448E+02 -0.74216349318E+03  0.74268146327E+03  0.00000000000E+00 0.  1.
         -1    1    1    2    0  501 -0.64111544481E+02  0.51266351657E+01  0.35318840187E+03  0.35899668486E+03  0.00000000000E+00 0.  1.
<mgrwt>
<rscale>  0 0.41834029E+02</rscale>
<asrwt>0</asrwt>
<pdfrwt beam="1">  1       -2 0.68398432E-01 0.63105396E+02</pdfrwt>
<pdfrwt beam="2">  1       -1 0.12236925E+00 0.27732747E+02</pdfrwt>
<totfact> 0.10933209E+01</totfact>
</mgrwt>
</event>
<event>
 7    1  0.6493044E-004  0.8100182E+02  0.7546771E-02  0.1333411E+00
         -1   -1    0    0    0  502 -0.00000000000E+00  0.00000000000E+00  0.25205421419E+04  0.25205421419E+04  0.00000000000E+00 0.  1.
         -2   -1    0    0    0  501  0.00000000000E+00 -0.00000000000E+00 -0.28658532688E+03  0.28658532688E+03  0.00000000000E+00 0.  1.
         25    2    1    2    0    0  0.23250013587E+02 -0.20072139694E+01  0.14275835530E+03  0.19117969724E+03  0.12500054636E+03 0.  0.
          4    1    3    3  503    0  0.16724575276E+02 -0.53210858861E+02  0.12447199764E+03  0.13640380499E+03  0.12700000000E+01 0. -1.
         -4    1    3    3    0  503  0.65254383110E+01  0.51203644891E+02  0.18286357654E+02  0.54775892248E+02  0.12700000000E+01 0. -1.
         -2    1    1    2    0  502 -0.29346056119E+02  0.77805707733E+02  0.23473115261E+04  0.23487840087E+04  0.00000000000E+00 0.  1.
         -1    1    1    2    0  501  0.60960425327E+01 -0.75798493764E+02 -0.25611306637E+03  0.26716376281E+03  0.00000000000E+00 0.  1.
<mgrwt>
<rscale>  0 0.78483378E+02</rscale>
<asrwt>0</asrwt>
<pdfrwt beam="2">  1       -2 0.44090052E-01 0.76043234E+02</pdfrwt>
<pdfrwt beam="1">  1       -1 0.38777570E+00 0.81001823E+02</pdfrwt>
<totfact> 0.46922665E-01</totfact>
</mgrwt>
</event>
<event>
 7    1  0.6493044E-004  0.1307431E+03  0.7546771E-02  0.1296685E+00
          2   -1    0    0  503    0  0.00000000000E+00  0.00000000000E+00  0.42545479214E+03  0.42545479214E+03  0.00000000000E+00 0. -1.
         -2   -1    0    0    0  501 -0.00000000000E+00 -0.00000000000E+00 -0.68624248004E+03  0.68624248004E+03  0.00000000000E+00 0.  1.
         25    2    1    2    0    0 -0.16668947702E+03  0.58823600609E+02 -0.12484669779E+03  0.24991244222E+03  0.12499573228E+03 0.  0.
          4    1    3    3  502    0  0.10585283010E+02 -0.16318964844E+02  0.15995659684E+01  0.19558331761E+02  0.12700000000E+01 0. -1.
         -4    1    3    3    0  502 -0.17727476003E+03  0.75142565453E+02 -0.12644626376E+03  0.23035411046E+03  0.12700000000E+01 0. -1.
          1    1    1    2  503    0  0.64130724685E+02  0.13705052336E+02  0.35193741875E+03  0.35799514665E+03  0.00000000000E+00 0. -1.
         -1    1    1    2    0  501  0.10255875233E+03 -0.72528652946E+02 -0.48787840886E+03  0.50378968331E+03  0.00000000000E+00 0.  1.
<mgrwt>
<rscale>  0 0.92595769E+02</rscale>
<asrwt>0</asrwt>
<pdfrwt beam="1">  1        2 0.65454583E-01 0.65578795E+02</pdfrwt>
<pdfrwt beam="2">  1       -2 0.10557577E+00 0.13074312E+03</pdfrwt>
<totfact> 0.58933333E+01</totfact>
</mgrwt>
</event>
<event>
 7    1  0.6493044E-004  0.4079225E+02  0.7546771E-02  0.1577084E+00
          2   -1    0    0  503    0  0.00000000000E+00  0.00000000000E+00  0.97905251978E+03  0.97905251978E+03  0.00000000000E+00 0. -1.
          1   -1    0    0  502    0 -0.00000000000E+00 -0.00000000000E+00 -0.18450947514E+03  0.18450947514E+03  0.00000000000E+00 0. -1.
         25    2    1    2    0    0 -0.10927877553E+02  0.41920147708E+02  0.89088057667E+03  0.90064993830E+03  0.12500156873E+03 0.  0.
          4    1    3    3  501    0  0.13658442587E-01  0.84060974738E+02  0.68991336128E+03  0.69501676716E+03  0.12700000000E+01 0. -1.
         -4    1    3    3    0  501 -0.10941535995E+02 -0.42140827030E+02  0.20096721539E+03  0.20563317114E+03  0.12700000000E+01 0. -1.
          2    1    1    2  502    0  0.30864028902E+02 -0.26692778872E+02 -0.17533829616E+03  0.18002391737E+03  0.00000000000E+00 0. -1.
          1    1    1    2  503    0 -0.19936151349E+02 -0.15227368836E+02  0.79000764137E+02  0.82888139239E+02  0.00000000000E+00 0. -1.
<mgrwt>
<rscale>  0 0.31989481E+02</rscale>
<asrwt>0</asrwt>
<pdfrwt beam="1">  1        2 0.15062346E+00 0.25086309E+02</pdfrwt>
<pdfrwt beam="2">  1        1 0.28386074E-01 0.40792247E+02</pdfrwt>
<totfact> 0.64904563E+02</totfact>
</mgrwt>
</event>
<event>
 7    1  0.6493044E-004  0.3671607E+02  0.7546771E-02  0.1584543E+00
          1   -1    0    0  503    0  0.00000000000E+00  0.00000000000E+00  0.24783043786E+04  0.24783043786E+04  0.00000000000E+00 0. -1.
         -1   -1    0    0    0  501 -0.00000000000E+00 -0.00000000000E+00 -0.14796913345E+03  0.14796913345E+03  0.00000000000E+00 0.  1.
         25    2    1    2    0    0 -0.21010195581E+02  0.53775708573E+02  0.34591761334E+03  0.37230722694E+03  0.12498168211E+03 0.  0.
          4    1    3    3  502    0 -0.62343489028E+02 -0.22754987427E+01  0.11164448632E+03  0.12789836881E+03  0.12700000000E+01 0. -1.
         -4    1    3    3    0  502  0.41333293447E+02  0.56051207315E+02  0.23427312702E+03  0.24440885813E+03  0.12700000000E+01 0. -1.
          2    1    1    2  503    0  0.76066493537E+00 -0.36498904829E+02  0.21177188088E+04  0.21180334516E+04  0.00000000000E+00 0. -1.
         -2    1    1    2    0  501  0.20249530646E+02 -0.17276803744E+02 -0.13330117702E+03  0.13593283354E+03  0.00000000000E+00 0.  1.
<mgrwt>
<rscale>  0 0.31262080E+02</rscale>
<asrwt>0</asrwt>
<pdfrwt beam="1">  1        1 0.38127757E+00 0.36716069E+02</pdfrwt>
<pdfrwt beam="2">  1       -1 0.22764484E-01 0.26618254E+02</pdfrwt>
<totfact> 0.33486496E+01</totfact>
</mgrwt>
</event>
<event>
 7    1  0.6493044E-004  0.4987301E+02  0.7546771E-02  0.1543279E+00
          2   -1    0    0  503    0  0.00000000000E+00  0.00000000000E+00  0.98406816174E+03  0.98406816174E+03  0.00000000000E+00 0. -1.
         -2   -1    0    0    0  501 -0.00000000000E+00 -0.00000000000E+00 -0.10920417001E+03  0.10920417001E+03  0.00000000000E+00 0.  1.
         25    2    1    2    0    0  0.66507646383E+01  0.37309287142E+02 -0.36919744124E+02  0.13573233726E+03  0.12499593711E+03 0.  0.
          4    1    3    3  502    0  0.65015365894E+02  0.24962343826E+02 -0.10368313669E+02  0.70421809405E+02  0.12700000000E+01 0.  1.
         -4    1    3    3    0  502 -0.58364601255E+02  0.12346943316E+02 -0.26551430456E+02  0.65310527851E+02  0.12700000000E+01 0.  1.
          1    1    1    2  503    0  0.16811600547E+02 -0.47094603481E+02  0.92671169023E+03  0.92805985173E+03  0.00000000000E+00 0. -1.
         -1    1    1    2    0  501 -0.23462365185E+02  0.97853163389E+01 -0.14927954367E+02  0.29480142766E+02  0.00000000000E+00 0.  1.
<mgrwt>
<rscale>  0 0.35606591E+02</rscale>
<asrwt>0</asrwt>
<pdfrwt beam="1">  1        2 0.15139510E+00 0.49873008E+02</pdfrwt>
<pdfrwt beam="2">  1       -2 0.16800642E-01 0.25421153E+02</pdfrwt>
<totfact> 0.73664098E+02</totfact>
</mgrwt>
</event>
<event>
 7    1  0.6493044E-004  0.6763393E+02  0.7546771E-02  0.1503857E+00
         -1   -1    0    0    0  501 -0.00000000000E+00  0.00000000000E+00  0.39829756830E+03  0.39829756830E+03  0.00000000000E+00 0.  1.
          1   -1    0    0  503    0  0.00000000000E+00 -0.00000000000E+00 -0.27981695945E+03  0.27981695945E+03  0.00000000000E+00 0. -1.
         25    2    1    2    0    0  0.19124464431E+02 -0.71528024970E+02 -0.97108363992E+02  0.17474902711E+03  0.12500073850E+03 0.  0.
          4    1    3    3  502    0 -0.25773193029E+02  0.23919639072E+02 -0.66956156646E+01  0.35816906362E+02  0.12700000000E+01 0. -1.
         -4    1    3    3    0  502  0.44897657460E+02 -0.95447664042E+02 -0.90412748327E+02  0.13893212075E+03  0.12700000000E+01 0. -1.
          2    1    1    2  503    0  0.18752090877E+02  0.15563370203E+02 -0.13964783487E+03  0.14175816445E+03  0.00000000000E+00 0. -1.
         -2    1    1    2    0  501 -0.37876555308E+02  0.55964654766E+02  0.35523680772E+03  0.36160733618E+03  0.00000000000E+00 0.  1.
<mgrwt>
<rscale>  0 0.40597866E+02</rscale>
<asrwt>0</asrwt>
<pdfrwt beam="2">  1        1 0.43048763E-01 0.24369231E+02</pdfrwt>
<pdfrwt beam="1">  1       -1 0.61276549E-01 0.67633926E+02</pdfrwt>
<totfact> 0.27206244E+02</totfact>
</mgrwt>
</event>
<event>
 7    1  0.6493044E-004  0.7175419E+02  0.7546771E-02  0.1478395E+00
          2   -1    0    0  503    0  0.00000000000E+00  0.00000000000E+00  0.14141437342E+03  0.14141437342E+03  0.00000000000E+00 0. -1.
          1   -1    0    0  502    0 -0.00000000000E+00 -0.00000000000E+00 -0.22663222439E+04  0.22663222439E+04  0.00000000000E+00 0. -1.
         25    2    1    2    0    0  0.53938832264E+02  0.96252368743E+01 -0.33633338134E+03  0.36296893745E+03  0.12499705333E+03 0.  0.
          4    1    3    3  501    0  0.49924166608E+02 -0.53147850996E+02 -0.19788210945E+03  0.21089347695E+03  0.12700000000E+01 0.  1.
         -4    1    3    3    0  501  0.40146656564E+01  0.62773087870E+02 -0.13845127189E+03  0.15207546051E+03  0.12700000000E+01 0.  1.
          2    1    1    2  502    0 -0.71936440326E+02  0.11062530666E+02 -0.19145042037E+04  0.19158871514E+04  0.00000000000E+00 0. -1.
          1    1    1    2  503    0  0.17997608062E+02 -0.20687767541E+02  0.12592971452E+03  0.12888052848E+03  0.00000000000E+00 0. -1.
<mgrwt>
<rscale>  0 0.44357117E+02</rscale>
<asrwt>0</asrwt>
<pdfrwt beam="1">  1        2 0.21756060E-01 0.27420752E+02</pdfrwt>
<pdfrwt beam="2">  1        1 0.34866492E+00 0.71754189E+02</pdfrwt>
<totfact> 0.85056534E+01</totfact>
</mgrwt>
</event>
<event>
 7    1  0.6493044E-004  0.3116401E+02  0.7546771E-02  0.1624435E+00
          2   -1    0    0  503    0  0.00000000000E+00  0.00000000000E+00  0.17690912741E+04  0.17690912741E+04  0.00000000000E+00 0. -1.
          1   -1    0    0  502    0 -0.00000000000E+00 -0.00000000000E+00 -0.88423884765E+03  0.88423884765E+03  0.00000000000E+00 0. -1.
         25    2    1    2    0    0  0.70231140963E+01 -0.48173790861E+02  0.60010674524E+03  0.61491815905E+03  0.12500479349E+03 0.  0.
          4    1    3    3  501    0  0.17462035963E+01 -0.48093269965E+00 -0.62678001999E+01  0.66467091562E+01  0.12700000000E+01 0.  1.
         -4    1    3    3    0  501  0.52769104999E+01 -0.47692858161E+02  0.60637454544E+03  0.60827144990E+03  0.12700000000E+01 0.  1.
          2    1    1    2  502    0 -0.16098933691E+02  0.18735390309E+02 -0.87645484824E+03  0.87680288065E+03  0.00000000000E+00 0. -1.
          1    1    1    2  503    0  0.90758195948E+01  0.29438400552E+02  0.11612005295E+04  0.11616090821E+04  0.00000000000E+00 0. -1.
<mgrwt>
<rscale>  0 0.27745531E+02</rscale>
<asrwt>0</asrwt>
<pdfrwt beam="1">  1        2 0.27216789E+00 0.31164012E+02</pdfrwt>
<pdfrwt beam="2">  1        1 0.13603675E+00 0.24702035E+02</pdfrwt>
<totfact> 0.37681406E+01</totfact>
</mgrwt>
</event>
<event>
 7    1  0.6493044E-004  0.4474900E+02  0.7546771E-02  0.1479460E+00
          1   -1    0    0  502    0 -0.00000000000E+00  0.00000000000E+00  0.20537868697E+02  0.20537868697E+02  0.00000000000E+00 0. -1.
          2   -1    0    0  503    0  0.00000000000E+00 -0.00000000000E+00 -0.10881161712E+04  0.10881161712E+04  0.00000000000E+00 0. -1.
         25    2    1    2    0    0  0.61278418653E+01  0.96650435944E+01 -0.32378887743E+03  0.34726420202E+03  0.12498890089E+03 0.  0.
          4    1    3    3  501    0 -0.39836749402E+02  0.49984782673E+02 -0.17974667557E+03  0.19077716158E+03  0.12700000000E+01 0. -1.
         -4    1    3    3    0  501  0.45964591267E+02 -0.40319739078E+02 -0.14404220185E+03  0.15648704044E+03  0.12700000000E+01 0. -1.
          2    1    1    2  502    0 -0.44539737559E+02 -0.30374444448E+02 -0.81823980507E+02  0.97987544532E+02  0.00000000000E+00 0. -1.
          1    1    1    2  503    0  0.38411895693E+02  0.20709400853E+02 -0.66196544456E+03  0.66340229334E+03  0.00000000000E+00 0. -1.
<mgrwt>
<rscale>  0 0.44190461E+02</rscale>
<asrwt>0</asrwt>
<pdfrwt beam="2">  1        2 0.16740247E+00 0.43638893E+02</pdfrwt>
<pdfrwt beam="1">  1        1 0.31596724E-02 0.44749000E+02</pdfrwt>
<totfact> 0.90602157E+03</totfact>
</mgrwt>
</event>
<event>
 7    1  0.6493044E-004  0.1240632E+03  0.7546771E-02  0.1240732E+00
          1   -1    0    0  502    0 -0.00000000000E+00  0.00000000000E+00  0.99703115403E+03  0.99703115403E+03  0.00000000000E+00 0. -1.
          2   -1    0    0  503    0  0.00000000000E+00 -0.00000000000E+00 -0.19150474097E+03  0.19150474097E+03  0.00000000000E+00 0. -1.
         25    2    1    2    0    0  0.10822184453E+02  0.17799942741E+02  0.41777657240E+03  0.43657277319E+03  0.12499825682E+03 0.  0.
          4    1    3    3  501    0  0.35779313490E+02  0.55351096821E+02  0.13515246737E+03  0.15037189075E+03  0.12700000000E+01 0. -1.
         -4    1    3    3    0  501 -0.24957129037E+02 -0.37551154080E+02  0.28262410503E+03  0.28620088244E+03  0.12700000000E+01 0. -1.
          2    1    1    2  502    0 -0.10858928427E+03  0.60000275469E+02  0.54053742942E+03  0.55459208281E+03  0.00000000000E+00 0. -1.
          1    1    1    2  503    0  0.97767099813E+02 -0.77800218210E+02 -0.15278758875E+03  0.19737103900E+03  0.00000000000E+00 0. -1.
<mgrwt>
<rscale>  0 0.12144519E+03</rscale>
<asrwt>0</asrwt>
<pdfrwt beam="2">  1        2 0.29462268E-01 0.11888247E+03</pdfrwt>
<pdfrwt beam="1">  1        1 0.15338941E+00 0.12406315E+03</pdfrwt>
<totfact> 0.40503592E+02</totfact>
</mgrwt>
</event>
<event>
 7    1  0.6493044E-004  0.3919155E+02  0.7546771E-02  0.1518883E+00
          2   -1    0    0  503    0  0.00000000000E+00  0.00000000000E+00  0.21307711611E+03  0.21307711611E+03  0.00000000000E+00 0. -1.
         -2   -1    0    0    0  501 -0.00000000000E+00 -0.00000000000E+00 -0.24980985948E+04  0.24980985948E+04  0.00000000000E+00 0.  1.
         25    2    1    2    0    0 -0.63210858959E+02  0.38530419258E+02 -0.21475546211E+03  0.25927808313E+03  0.12500003995E+03 0.  0.
          4    1    3    3  502    0 -0.77041646091E+02  0.67203594826E+02 -0.11177885901E+03  0.15148552608E+03  0.12700000000E+01 0. -1.
         -4    1    3    3    0  502  0.13830787133E+02 -0.28673175568E+02 -0.10297660311E+03  0.10779255706E+03  0.12700000000E+01 0. -1.
          1    1    1    2  503    0  0.37447400605E+02 -0.10611678284E+02  0.18866964390E+03  0.19264254477E+03  0.00000000000E+00 0. -1.
         -1    1    1    2    0  501  0.25763458353E+02 -0.27918740974E+02 -0.22589356605E+04  0.22592550830E+04  0.00000000000E+00 0.  1.
<mgrwt>
<rscale>  0 0.38585907E+02</rscale>
<asrwt>0</asrwt>
<pdfrwt beam="1">  1        2 0.32781094E-01 0.39191545E+02</pdfrwt>
<pdfrwt beam="2">  1       -2 0.38432287E+00 0.37989629E+02</pdfrwt>
<totfact> 0.23489188E+00</totfact>
</mgrwt>
</event>
<event>
 7    1  0.6493044E-004  0.6739444E+02  0.7546771E-02  0.1398612E+00
          2   -1    0    0  503    0  0.00000000000E+00  0.00000000000E+00  0.17832994612E+03  0.17832994612E+03  0.00000000000E+00 0. -1.
         -2   -1    0    0    0  501 -0.00000000000E+00 -0.00000000000E+00 -0.34463153629E+03  0.34463153629E+03  0.00000000000E+00 0.  1.
         25    2    1    2    0    0  0.17771535071E+02 -0.11353612526E+02 -0.90014172424E+02  0.15550475944E+03  0.12503778227E+03 0.  0.
          4    1    3    3  502    0  0.66263270936E+02  0.19779292827E+02 -0.49225293842E+02  0.84892779161E+02  0.12700000000E+01 0. -1.
         -4    1    3    3    0  502 -0.48491735865E+02 -0.31132905353E+02 -0.40788878583E+02  0.70611980279E+02  0.12700000000E+01 0. -1.
          1    1    1    2  503    0 -0.35374488526E+02  0.61437313648E+02  0.13344633896E+03  0.15110864743E+03  0.00000000000E+00 0. -1.
         -1    1    1    2    0  501  0.17602953456E+02 -0.50083701122E+02 -0.20973375670E+03  0.21634807554E+03  0.00000000000E+00 0.  1.
<mgrwt>
<rscale>  0 0.59814513E+02</rscale>
<asrwt>0</asrwt>
<pdfrwt beam="1">  1        2 0.27435376E-01 0.67394441E+02</pdfrwt>
<pdfrwt beam="2">  1       -2 0.53020236E-01 0.53087108E+02</pdfrwt>
<totfact> 0.64428789E+02</totfact>
</mgrwt>
</event>
<event>
 7    1  0.6493044E-004  0.8504780E+02  0.7546771E-02  0.1328429E+00
          1   -1    0    0  502    0 -0.00000000000E+00  0.00000000000E+00  0.31907512724E+03  0.31907512724E+03  0.00000000000E+00 0. -1.
          2   -1    0    0  503    0  0.00000000000E+00 -0.00000000000E+00 -0.53896462225E+03  0.53896462225E+03  0.00000000000E+00 0. -1.
         25    2    1    2    0    0  0.38049136336E+01  0.27539533947E+02 -0.16232565414E+03  0.20675428627E+03  0.12499925441E+03 0.  0.
          4    1    3    3  501    0  0.11895148206E+02 -0.49240679091E+02 -0.69491451670E+02  0.86004731169E+02  0.12700000000E+01 0. -1.
         -4    1    3    3    0  501 -0.80902345725E+01  0.76780213038E+02 -0.92834202468E+02  0.12074955510E+03  0.12700000000E+01 0. -1.
          2    1    1    2  502    0  0.85042036796E+02  0.98967682484E+00  0.28438652627E+03  0.29683130531E+03  0.00000000000E+00 0. -1.
          1    1    1    2  503    0 -0.88846950429E+02 -0.28529210772E+02 -0.34195036715E+03  0.35445415792E+03  0.00000000000E+00 0. -1.
<mgrwt>
<rscale>  0 0.80219820E+02</rscale>
<asrwt>0</asrwt>
<pdfrwt beam="2">  1        2 0.82917633E-01 0.75665919E+02</pdfrwt>
<pdfrwt beam="1">  1        1 0.49088482E-01 0.85047795E+02</pdfrwt>
<totfact> 0.64810710E+02</totfact>
</mgrwt>
</event>
<event>
 7    1  0.6493044E-004  0.6826447E+02  0.7546771E-02  0.1372619E+00
          1   -1    0    0  502    0 -0.00000000000E+00  0.00000000000E+00  0.11390006544E+04  0.11390006544E+04  0.00000000000E+00 0. -1.
          2   -1    0    0  503    0  0.00000000000E+00 -0.00000000000E+00 -0.18805457970E+03  0.18805457970E+03  0.00000000000E+00 0. -1.
         25    2    1    2    0    0  0.89363630983E+02 -0.10846721244E+02  0.23572951002E+03  0.28159700021E+03  0.12499983492E+03 0.  0.
          4    1    3    3  501    0  0.35734591119E+02 -0.36689531440E+02  0.15596857990E+02  0.53553315480E+02  0.12700000000E+01 0.  1.
         -4    1    3    3    0  501  0.53629039863E+02  0.25842810196E+02  0.22013265203E+03  0.22804368473E+03  0.12700000000E+01 0.  1.
          2    1    1    2  502    0 -0.47852412564E+02 -0.43505318911E+02  0.87200651939E+03  0.87440147302E+03  0.00000000000E+00 0. -1.
          1    1    1    2  503    0 -0.41511218419E+02  0.54352040156E+02 -0.15678995474E+03  0.17105676084E+03  0.00000000000E+00 0. -1.
<mgrwt>
<rscale>  0 0.66444353E+02</rscale>
<asrwt>0</asrwt>
<pdfrwt beam="2">  1        2 0.28931475E-01 0.68264474E+02</pdfrwt>
<pdfrwt beam="1">  1        1 0.17523087E+00 0.64672762E+02</pdfrwt>
<totfact> 0.33903037E+02</totfact>
</mgrwt>
</event>
<event>
 7    1  0.6493044E-004  0.5099013E+02  0.7546771E-02  0.1564492E+00
          1   -1    0    0  502    0 -0.00000000000E+00  0.00000000000E+00  0.12731168486E+04  0.12731168486E+04  0.00000000000E+00 0. -1.
          2   -1    0    0  503    0  0.00000000000E+00 -0.00000000000E+00 -0.17189730926E+02  0.17189730926E+02  0.00000000000E+00 0. -1.
         25    2    1    2    0    0  0.41092088161E+01  0.54490818152E+02  0.56678718424E+03  0.58297466240E+03  0.12500243966E+03 0.  0.
          4    1    3    3  501    0  0.62065809485E+01  0.94804018603E+02  0.36339322916E+03  0.37560960516E+03  0.12700000000E+01 0. -1.
         -4    1    3    3    0  501 -0.20973721323E+01 -0.40313200451E+02  0.20339395508E+03  0.20736505724E+03  0.12700000000E+01 0. -1.
          2    1    1    2  502    0 -0.23724295215E+02 -0.45181261642E+02  0.68281211690E+03  0.68471641982E+03  0.00000000000E+00 0. -1.
          1    1    1    2  503    0  0.19615086399E+02 -0.93095565105E+01  0.63278165527E+01  0.22615497324E+02  0.00000000000E+00 0. -1.
<mgrwt>
<rscale>  0 0.33273229E+02</rscale>
<asrwt>0</asrwt>
<pdfrwt beam="2">  1        2 0.26445750E-02 0.21712196E+02</pdfrwt>
<pdfrwt beam="1">  1        1 0.19586406E+00 0.50990134E+02</pdfrwt>
<totfact> 0.42818276E+03</totfact>
</mgrwt>
</event>
<event>
 7    1  0.6493044E-004  0.6345058E+02  0.7546771E-02  0.1535976E+00
         -2   -1    0    0    0  501 -0.00000000000E+00  0.00000000000E+00  0.21967377883E+03  0.21967377883E+03  0.00000000000E+00 0.  1.
          2   -1    0    0  503    0  0.00000000000E+00 -0.00000000000E+00 -0.27198255798E+03  0.27198255798E+03  0.00000000000E+00 0. -1.
         25    2    1    2    0    0  0.47903113262E+02 -0.20145056866E+01  0.55299680098E+02  0.14485430537E+03  0.12500379463E+03 0.  0.
          4    1    3    3  502    0  0.17299541970E+02 -0.13099433562E+02 -0.39241096283E+02  0.44859177985E+02  0.12700000000E+01 0. -1.
         -4    1    3    3    0  502  0.30603571292E+02  0.11084927876E+02  0.94540776381E+02  0.99995127384E+02  0.12700000000E+01 0. -1.
          1    1    1    2  503    0 -0.62980514294E+02 -0.12537694524E+02 -0.22169442845E+03  0.23080762243E+03  0.00000000000E+00 0. -1.
         -1    1    1    2    0  501  0.15077401032E+02  0.14552200211E+02  0.11408596921E+03  0.11599440902E+03  0.00000000000E+00 0.  1.
<mgrwt>
<rscale>  0 0.36463412E+02</rscale>
<asrwt>0</asrwt>
<pdfrwt beam="2">  1        2 0.41843470E-01 0.63450578E+02</pdfrwt>
<pdfrwt beam="1">  1       -2 0.33795966E-01 0.20954583E+02</pdfrwt>
<totfact> 0.93373504E+02</totfact>
</mgrwt>
</event>
<event>
 7    1  0.6493044E-004  0.9393281E+02  0.7546771E-02  0.1433962E+00
         -2   -1    0    0    0  501 -0.00000000000E+00  0.00000000000E+00  0.62149371662E+02  0.62149371662E+02  0.00000000000E+00 0.  1.
          2   -1    0    0  503    0  0.00000000000E+00 -0.00000000000E+00 -0.10719901999E+04  0.10719901999E+04  0.00000000000E+00 0. -1.
         25    2    1    2    0    0 -0.70191431399E+02  0.19709141105E+02 -0.14848491525E+03  0.20733393606E+03  0.12499721476E+03 0.  0.
          4    1    3    3  502    0 -0.18876911694E+02  0.10941953690E+02  0.20830026226E+02  0.30192168491E+02  0.12700000000E+01 0. -1.
         -4    1    3    3    0  502 -0.51314519705E+02  0.87671874151E+01 -0.16931494148E+03  0.17714176756E+03  0.12700000000E+01 0. -1.
          3    1    1    2  503    0  0.84869792072E+02 -0.44694720698E+02 -0.88452084187E+03  0.88970647933E+03  0.00000000000E+00 0. -1.
         -1    1    1    2    0  501 -0.14678360673E+02  0.24985579593E+02  0.23164928876E+02  0.37099156183E+02  0.00000000000E+00 0.  1.
<mgrwt>
<rscale>  0 0.52172785E+02</rscale>
<asrwt>0</asrwt>
<pdfrwt beam="2">  1        2 0.16492156E+00 0.93932808E+02</pdfrwt>
<pdfrwt beam="1">  1       -2 0.95614422E-02 0.28978155E+02</pdfrwt>
<totfact> 0.15234611E+03</totfact>
</mgrwt>
</event>
<event>
 7    1  0.6493044E-004  0.1141475E+03  0.7546771E-02  0.1341127E+00
          1   -1    0    0  502    0 -0.00000000000E+00  0.00000000000E+00  0.17878061451E+04  0.17878061451E+04  0.00000000000E+00 0. -1.
          2   -1    0    0  503    0  0.00000000000E+00 -0.00000000000E+00 -0.96035301849E+02  0.96035301849E+02  0.00000000000E+00 0. -1.
         25    2    1    2    0    0  0.56092051417E+02  0.73119352988E+02  0.92780380787E+02  0.18090805897E+03  0.12500707472E+03 0.  0.
          4    1    3    3  501    0  0.17021353448E+02  0.46648877477E+01  0.10018091077E+03  0.10173158523E+03  0.12700000000E+01 0.  1.
         -4    1    3    3    0  501  0.39070697968E+02  0.68454465240E+02 -0.74005299802E+01  0.79176473747E+02  0.12700000000E+01 0.  1.
          2    1    1    2  502    0 -0.13393949646E+02  0.48649144186E+02  0.15698315265E+04  0.15706422759E+04  0.00000000000E+00 0. -1.
          1    1    1    2  503    0 -0.42698101771E+02 -0.12176849717E+03  0.29158935965E+02  0.13229111212E+03  0.00000000000E+00 0. -1.
<mgrwt>
<rscale>  0 0.75893348E+02</rscale>
<asrwt>0</asrwt>
<pdfrwt beam="2">  1        2 0.14774663E-01 0.11414753E+03</pdfrwt>
<pdfrwt beam="1">  1        1 0.27504707E+00 0.50459262E+02</pdfrwt>
<totfact> 0.29039665E+02</totfact>
</mgrwt>
</event>
<event>
 7    1  0.6493044E-004  0.1944962E+03  0.7546771E-02  0.1226018E+00
         -2   -1    0    0    0  501 -0.00000000000E+00  0.00000000000E+00  0.19746001973E+03  0.19746001973E+03  0.00000000000E+00 0.  1.
          2   -1    0    0  503    0  0.00000000000E+00 -0.00000000000E+00 -0.11081860357E+04  0.11081860357E+04  0.00000000000E+00 0. -1.
         25    2    1    2    0    0  0.79710924996E+02  0.16702930848E+03 -0.14124322066E+03  0.26424708828E+03  0.12499701929E+03 0.  0.
          4    1    3    3  502    0 -0.23771648039E+02  0.92860795616E+02 -0.65382970184E+02  0.11603777102E+03  0.12700000000E+01 0.  1.
         -4    1    3    3    0  502  0.10348257303E+03  0.74168512859E+02 -0.75860250479E+02  0.14820931727E+03  0.12700000000E+01 0.  1.
          1    1    1    2  503    0 -0.80383176127E+02  0.36295563905E+02 -0.82573752643E+03  0.83043439568E+03  0.00000000000E+00 0. -1.
         -1    1    1    2    0  501  0.67225113128E+00 -0.20332487238E+03  0.56254731102E+02  0.21096457148E+03  0.00000000000E+00 0.  1.
<mgrwt>
<rscale>  0 0.13097367E+03</rscale>
<asrwt>0</asrwt>
<pdfrwt beam="2">  1        2 0.17049016E+00 0.88197636E+02</pdfrwt>
<pdfrwt beam="1">  1       -2 0.30378464E-01 0.19449616E+03</pdfrwt>
<totfact> 0.24157236E+02</totfact>
</mgrwt>
</event>
<event>
 7    1  0.6493044E-004  0.4673230E+02  0.7546771E-02  0.1585523E+00
          2   -1    0    0  503    0  0.00000000000E+00  0.00000000000E+00  0.29598492634E+03  0.29598492634E+03  0.00000000000E+00 0. -1.
         -2   -1    0    0    0  501 -0.00000000000E+00 -0.00000000000E+00 -0.15938717917E+03  0.15938717917E+03  0.00000000000E+00 0.  1.
         25    2    1    2    0    0 -0.35633617323E+02 -0.47534139382E+02  0.13569412090E+03  0.19382626448E+03  0.12500590892E+03 0.  0.
          4    1    3    3  502    0 -0.60465132507E+02 -0.24516422015E+02  0.14472757331E+03  0.15876010384E+03  0.12700000000E+01 0.  1.
         -4    1    3    3    0  502  0.24831515184E+02 -0.23017717366E+02 -0.90334524078E+01  0.35066160632E+02  0.12700000000E+01 0.  1.
          1    1    1    2  503    0  0.36561504547E+02  0.26767095595E+02  0.12643263673E+03  0.13430723232E+03  0.00000000000E+00 0. -1.
         -1    1    1    2    0  501 -0.92788722391E+00  0.20767043787E+02 -0.12552901046E+03  0.12723860872E+03  0.00000000000E+00 0.  1.
<mgrwt>
<rscale>  0 0.31168253E+02</rscale>
<asrwt>0</asrwt>
<pdfrwt beam="1">  1        2 0.45536142E-01 0.46732302E+02</pdfrwt>
<pdfrwt beam="2">  1       -2 0.24521105E-01 0.20787763E+02</pdfrwt>
<totfact> 0.14709456E+03</totfact>
</mgrwt>
</event>
<event>
 7    1  0.6837275E-004  0.8125897E+02  0.7546771E-02  0.1330774E+00
          1   -1    0    0  502    0 -0.00000000000E+00  0.00000000000E+00  0.94643124440E+03  0.94643124440E+03  0.00000000000E+00 0. -1.
          2   -1    0    0  503    0  0.00000000000E+00 -0.00000000000E+00 -0.23203770782E+04  0.23203770782E+04  0.00000000000E+00 0. -1.
         25    2    1    2    0    0  0.10462327072E+03  0.35543636453E+02  0.36970991757E+03  0.40561120278E+03  0.12500258318E+03 0.  0.
          4    1    3    3  501    0 -0.54536034260E+00  0.58955638541E+02  0.12361668517E+03  0.13696263172E+03  0.12700000000E+01 0.  1.
         -4    1    3    3    0  501  0.10516863106E+03 -0.23412002088E+02  0.24609323240E+03  0.26864857107E+03  0.12700000000E+01 0.  1.
          2    1    1    2  502    0 -0.68144410077E+02  0.37072164183E+02  0.55535681576E+03  0.56074878403E+03  0.00000000000E+00 0. -1.
          1    1    1    2  503    0 -0.36478860642E+02 -0.72615800636E+02 -0.22990125672E+04  0.23004483358E+04  0.00000000000E+00 0. -1.
<mgrwt>
<rscale>  0 0.79396034E+02</rscale>
<asrwt>0</asrwt>
<pdfrwt beam="2">  1        2 0.35698109E+00 0.81258969E+02</pdfrwt>
<pdfrwt beam="1">  1        1 0.14560481E+00 0.77575808E+02</pdfrwt>
<totfact> 0.15138365E+01</totfact>
</mgrwt>
</event>
