<event>
 3    0  0.1696205E+001  0.1250000E+03  0.7546771E-02  0.1235069E+00
         21   -1    0    0  502  501  0.00000000000E+00  0.00000000000E+00  0.27470463899E+02  0.27470463899E+02  0.00000000000E+00 0. -1.
         21   -1    0    0  501  502 -0.00000000000E+00 -0.00000000000E+00 -0.14219818108E+03  0.14219818108E+03  0.00000000000E+00 0. -1.
         25    1    1    2    0    0  0.00000000000E+00  0.00000000000E+00 -0.11472771719E+03  0.16966864498E+03  0.12500000000E+03 0.  0.
<mgrwt>
<rscale>  2 0.12500000E+03</rscale>
<asrwt>0</asrwt>
<pdfrwt beam="1">  1       21 0.42262253E-02 0.12500000E+03</pdfrwt>
<pdfrwt beam="2">  1       21 0.21876643E-01 0.12500000E+03</pdfrwt>
<totfact> 0.68356937E+06</totfact>
</mgrwt>
</event>
<event>
 3    0  0.1695639E+001  0.1250000E+03  0.7546771E-02  0.1235069E+00
         21   -1    0    0  502  501  0.00000000000E+00  0.00000000000E+00  0.13268202281E+03  0.13268202281E+03  0.00000000000E+00 0. -1.
         21   -1    0    0  501  502 -0.00000000000E+00 -0.00000000000E+00 -0.29440687722E+02  0.29440687722E+02  0.00000000000E+00 0. -1.
         25    1    1    2    0    0  0.00000000000E+00  0.00000000000E+00  0.10324133509E+03  0.16212271054E+03  0.12500000000E+03 0.  0.
<mgrwt>
<rscale>  2 0.12500000E+03</rscale>
<asrwt>0</asrwt>
<pdfrwt beam="1">  1       21 0.20412619E-01 0.12500000E+03</pdfrwt>
<pdfrwt beam="2">  1       21 0.45293366E-02 0.12500000E+03</pdfrwt>
<totfact> 0.69261049E+06</totfact>
</mgrwt>
</event>
<event>
 3    0  0.1626078E+001  0.1250000E+03  0.7546771E-02  0.1235069E+00
         21   -1    0    0  502  501  0.00000000000E+00  0.00000000000E+00  0.12725959482E+02  0.12725959482E+02  0.00000000000E+00 0.  1.
         21   -1    0    0  501  502 -0.00000000000E+00 -0.00000000000E+00 -0.30695131519E+03  0.30695131519E+03  0.00000000000E+00 0.  1.
         25    1    1    2    0    0  0.00000000000E+00  0.00000000000E+00 -0.29422535571E+03  0.31967727467E+03  0.12500000000E+03 0.  0.
<mgrwt>
<rscale>  2 0.12500000E+03</rscale>
<asrwt>0</asrwt>
<pdfrwt beam="1">  1       21 0.19578399E-02 0.12500000E+03</pdfrwt>
<pdfrwt beam="2">  1       21 0.47223279E-01 0.12500000E+03</pdfrwt>
<totfact> 0.53858927E+06</totfact>
</mgrwt>
</event>
<event>
 3    0  0.1368989E+001  0.1250000E+03  0.7546771E-02  0.1235069E+00
         21   -1    0    0  502  501  0.00000000000E+00  0.00000000000E+00  0.21112739721E+04  0.21112739721E+04  0.00000000000E+00 0.  1.
         21   -1    0    0  501  502 -0.00000000000E+00 -0.00000000000E+00 -0.18501862154E+01  0.18501862154E+01  0.00000000000E+00 0.  1.
         25    1    1    2    0    0  0.00000000000E+00  0.00000000000E+00  0.21094237858E+04  0.21131241583E+04  0.12500000000E+03 0.  0.
<mgrwt>
<rscale>  2 0.12500000E+03</rscale>
<asrwt>0</asrwt>
<pdfrwt beam="1">  1       21 0.32480945E+00 0.12500000E+03</pdfrwt>
<pdfrwt beam="2">  1       21 0.28464572E-03 0.12500000E+03</pdfrwt>
<totfact> 0.68968411E+05</totfact>
</mgrwt>
</event>
<event>
 3    0  0.1634040E+001  0.1250000E+03  0.7546771E-02  0.1235069E+00
         21   -1    0    0  502  501  0.00000000000E+00  0.00000000000E+00  0.22663557663E+03  0.22663557663E+03  0.00000000000E+00 0. -1.
         21   -1    0    0  501  502 -0.00000000000E+00 -0.00000000000E+00 -0.17235819981E+02  0.17235819981E+02  0.00000000000E+00 0. -1.
         25    1    1    2    0    0  0.00000000000E+00  0.00000000000E+00  0.20939975665E+03  0.24387139661E+03  0.12500000000E+03 0.  0.
<mgrwt>
<rscale>  2 0.12500000E+03</rscale>
<asrwt>0</asrwt>
<pdfrwt beam="1">  1       21 0.34867010E-01 0.12500000E+03</pdfrwt>
<pdfrwt beam="2">  1       21 0.26516648E-02 0.12500000E+03</pdfrwt>
<totfact> 0.60460036E+06</totfact>
</mgrwt>
</event>
<event>
 3    0  0.1368989E+001  0.1250000E+03  0.7546771E-02  0.1235069E+00
         21   -1    0    0  502  501  0.00000000000E+00  0.00000000000E+00  0.24947301690E+01  0.24947301690E+01  0.00000000000E+00 0. -1.
         21   -1    0    0  501  502 -0.00000000000E+00 -0.00000000000E+00 -0.15658006018E+04  0.15658006018E+04  0.00000000000E+00 0. -1.
         25    1    1    2    0    0  0.00000000000E+00  0.00000000000E+00 -0.15633058716E+04  0.15682953320E+04  0.12500000000E+03 0.  0.
<mgrwt>
<rscale>  2 0.12500000E+03</rscale>
<asrwt>0</asrwt>
<pdfrwt beam="1">  1       21 0.38380509E-03 0.12500000E+03</pdfrwt>
<pdfrwt beam="2">  1       21 0.24089212E+00 0.12500000E+03</pdfrwt>
<totfact> 0.13010054E+06</totfact>
</mgrwt>
</event>
<event>
 3    0  0.1368989E+001  0.1250000E+03  0.7546771E-02  0.1235069E+00
         21   -1    0    0  502  501  0.00000000000E+00  0.00000000000E+00  0.15402231565E+04  0.15402231565E+04  0.00000000000E+00 0. -1.
         21   -1    0    0  501  502 -0.00000000000E+00 -0.00000000000E+00 -0.25361584675E+01  0.25361584675E+01  0.00000000000E+00 0. -1.
         25    1    1    2    0    0  0.00000000000E+00  0.00000000000E+00  0.15376869980E+04  0.15427593149E+04  0.12500000000E+03 0.  0.
<mgrwt>
<rscale>  2 0.12500000E+03</rscale>
<asrwt>0</asrwt>
<pdfrwt beam="1">  1       21 0.23695666E+00 0.12500000E+03</pdfrwt>
<pdfrwt beam="2">  1       21 0.39017946E-03 0.12500000E+03</pdfrwt>
<totfact> 0.13370571E+06</totfact>
</mgrwt>
</event>
<event>
 3    0  0.1633578E+001  0.1250000E+03  0.7546771E-02  0.1235069E+00
         21   -1    0    0  502  501  0.00000000000E+00  0.00000000000E+00  0.15674351941E+02  0.15674351941E+02  0.00000000000E+00 0.  1.
         21   -1    0    0  501  502 -0.00000000000E+00 -0.00000000000E+00 -0.24921285516E+03  0.24921285516E+03  0.00000000000E+00 0.  1.
         25    1    1    2    0    0  0.00000000000E+00  0.00000000000E+00 -0.23353850322E+03  0.26488720710E+03  0.12500000000E+03 0.  0.
<mgrwt>
<rscale>  2 0.12500000E+03</rscale>
<asrwt>0</asrwt>
<pdfrwt beam="1">  1       21 0.24114389E-02 0.12500000E+03</pdfrwt>
<pdfrwt beam="2">  1       21 0.38340437E-01 0.12500000E+03</pdfrwt>
<totfact> 0.58504210E+06</totfact>
</mgrwt>
</event>
<event>
 3    0  0.1656702E+001  0.1250000E+03  0.7546771E-02  0.1235069E+00
         21   -1    0    0  502  501  0.00000000000E+00  0.00000000000E+00  0.20905056958E+03  0.20905056958E+03  0.00000000000E+00 0. -1.
         21   -1    0    0  501  502 -0.00000000000E+00 -0.00000000000E+00 -0.18685670209E+02  0.18685670209E+02  0.00000000000E+00 0. -1.
         25    1    1    2    0    0  0.00000000000E+00  0.00000000000E+00  0.19036489937E+03  0.22773623978E+03  0.12500000000E+03 0.  0.
<mgrwt>
<rscale>  2 0.12500000E+03</rscale>
<asrwt>0</asrwt>
<pdfrwt beam="1">  1       21 0.32161625E-01 0.12500000E+03</pdfrwt>
<pdfrwt beam="2">  1       21 0.28747186E-02 0.12500000E+03</pdfrwt>
<totfact> 0.62039988E+06</totfact>
</mgrwt>
</event>
<event>
 3    0  0.1749858E+001  0.1250000E+03  0.7546771E-02  0.1235069E+00
         21   -1    0    0  502  501  0.00000000000E+00  0.00000000000E+00  0.76302878827E+02  0.76302878827E+02  0.00000000000E+00 0.  1.
         21   -1    0    0  501  502 -0.00000000000E+00 -0.00000000000E+00 -0.51194005522E+02  0.51194005522E+02  0.00000000000E+00 0.  1.
         25    1    1    2    0    0  0.00000000000E+00  0.00000000000E+00  0.25108873304E+02  0.12749688435E+03  0.12500000000E+03 0.  0.
<mgrwt>
<rscale>  2 0.12500000E+03</rscale>
<asrwt>0</asrwt>
<pdfrwt beam="1">  1       21 0.11738904E-01 0.12500000E+03</pdfrwt>
<pdfrwt beam="2">  1       21 0.78760009E-02 0.12500000E+03</pdfrwt>
<totfact> 0.73701640E+06</totfact>
</mgrwt>
</event>
<event>
 3    0  0.1670314E+001  0.1250000E+03  0.7546771E-02  0.1235069E+00
         21   -1    0    0  502  501  0.00000000000E+00  0.00000000000E+00  0.19471750842E+03  0.19471750842E+03  0.00000000000E+00 0.  1.
         21   -1    0    0  501  502 -0.00000000000E+00 -0.00000000000E+00 -0.20061113311E+02  0.20061113311E+02  0.00000000000E+00 0.  1.
         25    1    1    2    0    0  0.00000000000E+00  0.00000000000E+00  0.17465639511E+03  0.21477862173E+03  0.12500000000E+03 0.  0.
<mgrwt>
<rscale>  2 0.12500000E+03</rscale>
<asrwt>0</asrwt>
<pdfrwt beam="1">  1       21 0.29956539E-01 0.12500000E+03</pdfrwt>
<pdfrwt beam="2">  1       21 0.30863253E-02 0.12500000E+03</pdfrwt>
<totfact> 0.63360251E+06</totfact>
</mgrwt>
</event>
<event>
 3    0  0.1726331E+001  0.1250000E+03  0.7546771E-02  0.1235069E+00
         21   -1    0    0  502  501  0.00000000000E+00  0.00000000000E+00  0.60308681827E+02  0.60308681827E+02  0.00000000000E+00 0. -1.
         21   -1    0    0  501  502 -0.00000000000E+00 -0.00000000000E+00 -0.64770939800E+02  0.64770939800E+02  0.00000000000E+00 0. -1.
         25    1    1    2    0    0  0.00000000000E+00  0.00000000000E+00 -0.44622579731E+01  0.12507962163E+03  0.12500000000E+03 0.  0.
<mgrwt>
<rscale>  2 0.12500000E+03</rscale>
<asrwt>0</asrwt>
<pdfrwt beam="1">  1       21 0.92782589E-02 0.12500000E+03</pdfrwt>
<pdfrwt beam="2">  1       21 0.99647598E-02 0.12500000E+03</pdfrwt>
<totfact> 0.74032827E+06</totfact>
</mgrwt>
</event>
<event>
 3    0  0.1640315E+001  0.1250000E+03  0.7546771E-02  0.1235069E+00
         21   -1    0    0  502  501  0.00000000000E+00  0.00000000000E+00  0.24600368684E+03  0.24600368684E+03  0.00000000000E+00 0.  1.
         21   -1    0    0  501  502 -0.00000000000E+00 -0.00000000000E+00 -0.15878827062E+02  0.15878827062E+02  0.00000000000E+00 0.  1.
         25    1    1    2    0    0  0.00000000000E+00  0.00000000000E+00  0.23012485978E+03  0.26188251390E+03  0.12500000000E+03 0.  0.
<mgrwt>
<rscale>  2 0.12500000E+03</rscale>
<asrwt>0</asrwt>
<pdfrwt beam="1">  1       21 0.37846718E-01 0.12500000E+03</pdfrwt>
<pdfrwt beam="2">  1       21 0.24428966E-02 0.12500000E+03</pdfrwt>
<totfact> 0.58777158E+06</totfact>
</mgrwt>
</event>
<event>
 3    0  0.1368989E+001  0.1250000E+03  0.7546771E-02  0.1235069E+00
         21   -1    0    0  502  501  0.00000000000E+00  0.00000000000E+00  0.18063296690E+01  0.18063296690E+01  0.00000000000E+00 0.  1.
         21   -1    0    0  501  502 -0.00000000000E+00 -0.00000000000E+00 -0.21625343740E+04  0.21625343740E+04  0.00000000000E+00 0.  1.
         25    1    1    2    0    0  0.00000000000E+00  0.00000000000E+00 -0.21607280443E+04  0.21643407036E+04  0.12500000000E+03 0.  0.
<mgrwt>
<rscale>  2 0.12500000E+03</rscale>
<asrwt>0</asrwt>
<pdfrwt beam="1">  1       21 0.27789774E-03 0.12500000E+03</pdfrwt>
<pdfrwt beam="2">  1       21 0.33269655E+00 0.12500000E+03</pdfrwt>
<totfact> 0.64538492E+05</totfact>
</mgrwt>
</event>
<event>
 3    0  0.1641591E+001  0.1250000E+03  0.7546771E-02  0.1235069E+00
         21   -1    0    0  502  501  0.00000000000E+00  0.00000000000E+00  0.18111429721E+02  0.18111429721E+02  0.00000000000E+00 0. -1.
         21   -1    0    0  501  502 -0.00000000000E+00 -0.00000000000E+00 -0.21567872113E+03  0.21567872113E+03  0.00000000000E+00 0. -1.
         25    1    1    2    0    0  0.00000000000E+00  0.00000000000E+00 -0.19756729141E+03  0.23379015085E+03  0.12500000000E+03 0.  0.
<mgrwt>
<rscale>  2 0.12500000E+03</rscale>
<asrwt>0</asrwt>
<pdfrwt beam="1">  1       21 0.27863738E-02 0.12500000E+03</pdfrwt>
<pdfrwt beam="2">  1       21 0.33181342E-01 0.12500000E+03</pdfrwt>
<totfact> 0.61438803E+06</totfact>
</mgrwt>
</event>
<event>
 3    0  0.1541339E+001  0.1250000E+03  0.7546771E-02  0.1235069E+00
         21   -1    0    0  502  501  0.00000000000E+00  0.00000000000E+00  0.11304518163E+02  0.11304518163E+02  0.00000000000E+00 0. -1.
         21   -1    0    0  501  502 -0.00000000000E+00 -0.00000000000E+00 -0.34554767780E+03  0.34554767780E+03  0.00000000000E+00 0. -1.
         25    1    1    2    0    0  0.00000000000E+00  0.00000000000E+00 -0.33424315964E+03  0.35685219596E+03  0.12500000000E+03 0.  0.
<mgrwt>
<rscale>  2 0.12500000E+03</rscale>
<asrwt>0</asrwt>
<pdfrwt beam="1">  1       21 0.17391567E-02 0.12500000E+03</pdfrwt>
<pdfrwt beam="2">  1       21 0.53161179E-01 0.12500000E+03</pdfrwt>
<totfact> 0.51036327E+06</totfact>
</mgrwt>
</event>
<event>
 3    0  0.1725575E+001  0.1250000E+03  0.7546771E-02  0.1235069E+00
         21   -1    0    0  502  501  0.00000000000E+00  0.00000000000E+00  0.57255972451E+02  0.57255972451E+02  0.00000000000E+00 0. -1.
         21   -1    0    0  501  502 -0.00000000000E+00 -0.00000000000E+00 -0.68224323730E+02  0.68224323730E+02  0.00000000000E+00 0. -1.
         25    1    1    2    0    0  0.00000000000E+00  0.00000000000E+00 -0.10968351279E+02  0.12548029618E+03  0.12500000000E+03 0.  0.
<mgrwt>
<rscale>  2 0.12500000E+03</rscale>
<asrwt>0</asrwt>
<pdfrwt beam="1">  1       21 0.88086112E-02 0.12500000E+03</pdfrwt>
<pdfrwt beam="2">  1       21 0.10496050E-01 0.12500000E+03</pdfrwt>
<totfact> 0.73978153E+06</totfact>
</mgrwt>
</event>
<event>
 3    0  0.1400572E+001  0.1250000E+03  0.7546771E-02  0.1235069E+00
         21   -1    0    0  502  501  0.00000000000E+00  0.00000000000E+00  0.61335654466E+01  0.61335654466E+01  0.00000000000E+00 0. -1.
         21   -1    0    0  501  502 -0.00000000000E+00 -0.00000000000E+00 -0.63686448510E+03  0.63686448510E+03  0.00000000000E+00 0. -1.
         25    1    1    2    0    0  0.00000000000E+00  0.00000000000E+00 -0.63073091966E+03  0.64299805055E+03  0.12500000000E+03 0.  0.
<mgrwt>
<rscale>  2 0.12500000E+03</rscale>
<asrwt>0</asrwt>
<pdfrwt beam="1">  1       21 0.94362521E-03 0.12500000E+03</pdfrwt>
<pdfrwt beam="2">  1       21 0.97979177E-01 0.12500000E+03</pdfrwt>
<totfact> 0.35217418E+06</totfact>
</mgrwt>
</event>
<event>
 3    0  0.1493012E+001  0.1250000E+03  0.7546771E-02  0.1235069E+00
         21   -1    0    0  502  501  0.00000000000E+00  0.00000000000E+00  0.83263859132E+01  0.83263859132E+01  0.00000000000E+00 0.  1.
         21   -1    0    0  501  502 -0.00000000000E+00 -0.00000000000E+00 -0.46914111845E+03  0.46914111845E+03  0.00000000000E+00 0.  1.
         25    1    1    2    0    0  0.00000000000E+00  0.00000000000E+00 -0.46081473254E+03  0.47746750437E+03  0.12500000000E+03 0.  0.
<mgrwt>
<rscale>  2 0.12500000E+03</rscale>
<asrwt>0</asrwt>
<pdfrwt beam="1">  1       21 0.12809824E-02 0.12500000E+03</pdfrwt>
<pdfrwt beam="2">  1       21 0.72175561E-01 0.12500000E+03</pdfrwt>
<totfact> 0.43293023E+06</totfact>
</mgrwt>
</event>
<event>
 3    0  0.1739217E+001  0.1250000E+03  0.7546771E-02  0.1235069E+00
         21   -1    0    0  502  501  0.00000000000E+00  0.00000000000E+00  0.42036108446E+02  0.42036108446E+02  0.00000000000E+00 0.  1.
         21   -1    0    0  501  502 -0.00000000000E+00 -0.00000000000E+00 -0.92926061532E+02  0.92926061532E+02  0.00000000000E+00 0.  1.
         25    1    1    2    0    0  0.00000000000E+00  0.00000000000E+00 -0.50889953086E+02  0.13496216998E+03  0.12500000000E+03 0.  0.
<mgrwt>
<rscale>  2 0.12500000E+03</rscale>
<asrwt>0</asrwt>
<pdfrwt beam="1">  1       21 0.64670937E-02 0.12500000E+03</pdfrwt>
<pdfrwt beam="2">  1       21 0.14296317E-01 0.12500000E+03</pdfrwt>
<totfact> 0.72701481E+06</totfact>
</mgrwt>
</event>
<event>
 3    0  0.1384634E+001  0.1250000E+03  0.7546771E-02  0.1235069E+00
         21   -1    0    0  502  501  0.00000000000E+00  0.00000000000E+00  0.64692870246E+03  0.64692870246E+03  0.00000000000E+00 0. -1.
         21   -1    0    0  501  502 -0.00000000000E+00 -0.00000000000E+00 -0.60381460664E+01  0.60381460664E+01  0.00000000000E+00 0. -1.
         25    1    1    2    0    0  0.00000000000E+00  0.00000000000E+00  0.64089055639E+03  0.65296684852E+03  0.12500000000E+03 0.  0.
<mgrwt>
<rscale>  2 0.12500000E+03</rscale>
<asrwt>0</asrwt>
<pdfrwt beam="1">  1       21 0.99527438E-01 0.12500000E+03</pdfrwt>
<pdfrwt beam="2">  1       21 0.92894606E-03 0.12500000E+03</pdfrwt>
<totfact> 0.34801459E+06</totfact>
</mgrwt>
</event>
<event>
 3    0  0.1534047E+001  0.1250000E+03  0.7546771E-02  0.1235069E+00
         21   -1    0    0  502  501  0.00000000000E+00  0.00000000000E+00  0.10000237424E+02  0.10000237424E+02  0.00000000000E+00 0. -1.
         21   -1    0    0  501  502 -0.00000000000E+00 -0.00000000000E+00 -0.39061572585E+03  0.39061572585E+03  0.00000000000E+00 0. -1.
         25    1    1    2    0    0  0.00000000000E+00  0.00000000000E+00 -0.38061548843E+03  0.40061596328E+03  0.12500000000E+03 0.  0.
<mgrwt>
<rscale>  2 0.12500000E+03</rscale>
<asrwt>0</asrwt>
<pdfrwt beam="1">  1       21 0.15384983E-02 0.12500000E+03</pdfrwt>
<pdfrwt beam="2">  1       21 0.60094718E-01 0.12500000E+03</pdfrwt>
<totfact> 0.48000525E+06</totfact>
</mgrwt>
</event>
<event>
 3    0  0.1412221E+001  0.1250000E+03  0.7546771E-02  0.1235069E+00
         21   -1    0    0  502  501  0.00000000000E+00  0.00000000000E+00  0.67219483342E+03  0.67219483342E+03  0.00000000000E+00 0. -1.
         21   -1    0    0  501  502 -0.00000000000E+00 -0.00000000000E+00 -0.58111871823E+01  0.58111871823E+01  0.00000000000E+00 0. -1.
         25    1    1    2    0    0  0.00000000000E+00  0.00000000000E+00  0.66638364624E+03  0.67800602060E+03  0.12500000000E+03 0.  0.
<mgrwt>
<rscale>  2 0.12500000E+03</rscale>
<asrwt>0</asrwt>
<pdfrwt beam="1">  1       21 0.10341453E+00 0.12500000E+03</pdfrwt>
<pdfrwt beam="2">  1       21 0.89402933E-03 0.12500000E+03</pdfrwt>
<totfact> 0.33775472E+06</totfact>
</mgrwt>
</event>
<event>
 3    0  0.1713701E+001  0.1250000E+03  0.7546771E-02  0.1235069E+00
         21   -1    0    0  502  501  0.00000000000E+00  0.00000000000E+00  0.39863712300E+02  0.39863712300E+02  0.00000000000E+00 0. -1.
         21   -1    0    0  501  502 -0.00000000000E+00 -0.00000000000E+00 -0.97990121205E+02  0.97990121205E+02  0.00000000000E+00 0. -1.
         25    1    1    2    0    0  0.00000000000E+00  0.00000000000E+00 -0.58126408905E+02  0.13785383351E+03  0.12500000000E+03 0.  0.
<mgrwt>
<rscale>  2 0.12500000E+03</rscale>
<asrwt>0</asrwt>
<pdfrwt beam="1">  1       21 0.61328789E-02 0.12500000E+03</pdfrwt>
<pdfrwt beam="2">  1       21 0.15075403E-01 0.12500000E+03</pdfrwt>
<totfact> 0.72320739E+06</totfact>
</mgrwt>
</event>
<event>
 3    0  0.1625856E+001  0.1250000E+03  0.7546771E-02  0.1235069E+00
         21   -1    0    0  502  501  0.00000000000E+00  0.00000000000E+00  0.16101864054E+02  0.16101864054E+02  0.00000000000E+00 0. -1.
         21   -1    0    0  501  502 -0.00000000000E+00 -0.00000000000E+00 -0.24259613589E+03  0.24259613589E+03  0.00000000000E+00 0. -1.
         25    1    1    2    0    0  0.00000000000E+00  0.00000000000E+00 -0.22649427183E+03  0.25869799994E+03  0.12500000000E+03 0.  0.
<mgrwt>
<rscale>  2 0.12500000E+03</rscale>
<asrwt>0</asrwt>
<pdfrwt beam="1">  1       21 0.24772099E-02 0.12500000E+03</pdfrwt>
<pdfrwt beam="2">  1       21 0.37322481E-01 0.12500000E+03</pdfrwt>
<totfact> 0.59068814E+06</totfact>
</mgrwt>
</event>
<event>
 3    0  0.1368989E+001  0.1250000E+03  0.7546771E-02  0.1235069E+00
         21   -1    0    0  502  501  0.00000000000E+00  0.00000000000E+00  0.45413622906E+01  0.45413622906E+01  0.00000000000E+00 0.  1.
         21   -1    0    0  501  502 -0.00000000000E+00 -0.00000000000E+00 -0.86014938910E+03  0.86014938910E+03  0.00000000000E+00 0.  1.
         25    1    1    2    0    0  0.00000000000E+00  0.00000000000E+00 -0.85560802681E+03  0.86469075139E+03  0.12500000000E+03 0.  0.
<mgrwt>
<rscale>  2 0.12500000E+03</rscale>
<asrwt>0</asrwt>
<pdfrwt beam="1">  1       21 0.69867176E-03 0.12500000E+03</pdfrwt>
<pdfrwt beam="2">  1       21 0.13233056E+00 0.12500000E+03</pdfrwt>
<totfact> 0.27328155E+06</totfact>
</mgrwt>
</event>
<event>
 3    0  0.1722443E+001  0.1250000E+03  0.7546771E-02  0.1235069E+00
         21   -1    0    0  502  501  0.00000000000E+00  0.00000000000E+00  0.75298193028E+02  0.75298193028E+02  0.00000000000E+00 0. -1.
         21   -1    0    0  501  502 -0.00000000000E+00 -0.00000000000E+00 -0.51877074906E+02  0.51877074906E+02  0.00000000000E+00 0. -1.
         25    1    1    2    0    0  0.00000000000E+00  0.00000000000E+00  0.23421118122E+02  0.12717526793E+03  0.12500000000E+03 0.  0.
<mgrwt>
<rscale>  2 0.12500000E+03</rscale>
<asrwt>0</asrwt>
<pdfrwt beam="1">  1       21 0.11584337E-01 0.12500000E+03</pdfrwt>
<pdfrwt beam="2">  1       21 0.79810884E-02 0.12500000E+03</pdfrwt>
<totfact> 0.73745296E+06</totfact>
</mgrwt>
</event>
<event>
 3    0  0.1744168E+001  0.1250000E+03  0.7546771E-02  0.1235069E+00
         21   -1    0    0  502  501  0.00000000000E+00  0.00000000000E+00  0.43401384375E+02  0.43401384375E+02  0.00000000000E+00 0.  1.
         21   -1    0    0  501  502 -0.00000000000E+00 -0.00000000000E+00 -0.90002889453E+02  0.90002889453E+02  0.00000000000E+00 0.  1.
         25    1    1    2    0    0  0.00000000000E+00  0.00000000000E+00 -0.46601505078E+02  0.13340427383E+03  0.12500000000E+03 0.  0.
<mgrwt>
<rscale>  2 0.12500000E+03</rscale>
<asrwt>0</asrwt>
<pdfrwt beam="1">  1       21 0.66771361E-02 0.12500000E+03</pdfrwt>
<pdfrwt beam="2">  1       21 0.13846598E-01 0.12500000E+03</pdfrwt>
<totfact> 0.72908462E+06</totfact>
</mgrwt>
</event>
<event>
 3    0  0.1751039E+001  0.1250000E+03  0.7546771E-02  0.1235069E+00
         21   -1    0    0  502  501  0.00000000000E+00  0.00000000000E+00  0.64521670749E+02  0.64521670749E+02  0.00000000000E+00 0.  1.
         21   -1    0    0  501  502 -0.00000000000E+00 -0.00000000000E+00 -0.60541674675E+02  0.60541674675E+02  0.00000000000E+00 0.  1.
         25    1    1    2    0    0  0.00000000000E+00  0.00000000000E+00  0.39799960739E+01  0.12506334542E+03  0.12500000000E+03 0.  0.
<mgrwt>
<rscale>  2 0.12500000E+03</rscale>
<asrwt>0</asrwt>
<pdfrwt beam="1">  1       21 0.99264109E-02 0.12500000E+03</pdfrwt>
<pdfrwt beam="2">  1       21 0.93141038E-02 0.12500000E+03</pdfrwt>
<totfact> 0.74035026E+06</totfact>
</mgrwt>
</event>
<event>
 3    0  0.1374475E+001  0.1250000E+03  0.7546771E-02  0.1235069E+00
         21   -1    0    0  502  501  0.00000000000E+00  0.00000000000E+00  0.69535458249E+03  0.69535458249E+03  0.00000000000E+00 0. -1.
         21   -1    0    0  501  502 -0.00000000000E+00 -0.00000000000E+00 -0.56176375310E+01  0.56176375310E+01  0.00000000000E+00 0. -1.
         25    1    1    2    0    0  0.00000000000E+00  0.00000000000E+00  0.68973694496E+03  0.70097222002E+03  0.12500000000E+03 0.  0.
<mgrwt>
<rscale>  2 0.12500000E+03</rscale>
<asrwt>0</asrwt>
<pdfrwt beam="1">  1       21 0.10697756E+00 0.12500000E+03</pdfrwt>
<pdfrwt beam="2">  1       21 0.86425248E-03 0.12500000E+03</pdfrwt>
<totfact> 0.32872708E+06</totfact>
</mgrwt>
</event>
<event>
 3    0  0.1603059E+001  0.1250000E+03  0.7546771E-02  0.1235069E+00
         21   -1    0    0  502  501  0.00000000000E+00  0.00000000000E+00  0.13065710326E+02  0.13065710326E+02  0.00000000000E+00 0.  1.
         21   -1    0    0  501  502 -0.00000000000E+00 -0.00000000000E+00 -0.29896958548E+03  0.29896958548E+03  0.00000000000E+00 0.  1.
         25    1    1    2    0    0  0.00000000000E+00  0.00000000000E+00 -0.28590387515E+03  0.31203529580E+03  0.12500000000E+03 0.  0.
<mgrwt>
<rscale>  2 0.12500000E+03</rscale>
<asrwt>0</asrwt>
<pdfrwt beam="1">  1       21 0.20101095E-02 0.12500000E+03</pdfrwt>
<pdfrwt beam="2">  1       21 0.45995316E-01 0.12500000E+03</pdfrwt>
<totfact> 0.54470593E+06</totfact>
</mgrwt>
</event>
<event>
 3    0  0.1724809E+001  0.1250000E+03  0.7546771E-02  0.1235069E+00
         21   -1    0    0  502  501  0.00000000000E+00  0.00000000000E+00  0.56158379311E+02  0.56158379311E+02  0.00000000000E+00 0. -1.
         21   -1    0    0  501  502 -0.00000000000E+00 -0.00000000000E+00 -0.69557740944E+02  0.69557740944E+02  0.00000000000E+00 0. -1.
         25    1    1    2    0    0  0.00000000000E+00  0.00000000000E+00 -0.13399361633E+02  0.12571612026E+03  0.12500000000E+03 0.  0.
<mgrwt>
<rscale>  2 0.12500000E+03</rscale>
<asrwt>0</asrwt>
<pdfrwt beam="1">  1       21 0.86397507E-02 0.12500000E+03</pdfrwt>
<pdfrwt beam="2">  1       21 0.10701191E-01 0.12500000E+03</pdfrwt>
<totfact> 0.73945300E+06</totfact>
</mgrwt>
</event>
<event>
 3    0  0.1720003E+001  0.1250000E+03  0.7546771E-02  0.1235069E+00
         21   -1    0    0  502  501  0.00000000000E+00  0.00000000000E+00  0.45781523686E+02  0.45781523686E+02  0.00000000000E+00 0. -1.
         21   -1    0    0  501  502 -0.00000000000E+00 -0.00000000000E+00 -0.85323722007E+02  0.85323722007E+02  0.00000000000E+00 0. -1.
         25    1    1    2    0    0  0.00000000000E+00  0.00000000000E+00 -0.39542198321E+02  0.13110524569E+03  0.12500000000E+03 0.  0.
<mgrwt>
<rscale>  2 0.12500000E+03</rscale>
<asrwt>0</asrwt>
<pdfrwt beam="1">  1       21 0.70433114E-02 0.12500000E+03</pdfrwt>
<pdfrwt beam="2">  1       21 0.13126726E-01 0.12500000E+03</pdfrwt>
<totfact> 0.73216492E+06</totfact>
</mgrwt>
</event>
<event>
 3    0  0.1750874E+001  0.1250000E+03  0.7546771E-02  0.1235069E+00
         21   -1    0    0  502  501  0.00000000000E+00  0.00000000000E+00  0.65238719557E+02  0.65238719557E+02  0.00000000000E+00 0.  1.
         21   -1    0    0  501  502 -0.00000000000E+00 -0.00000000000E+00 -0.59876251810E+02  0.59876251810E+02  0.00000000000E+00 0.  1.
         25    1    1    2    0    0  0.00000000000E+00  0.00000000000E+00  0.53624677471E+01  0.12511497137E+03  0.12500000000E+03 0.  0.
<mgrwt>
<rscale>  2 0.12500000E+03</rscale>
<asrwt>0</asrwt>
<pdfrwt beam="1">  1       21 0.10036726E-01 0.12500000E+03</pdfrwt>
<pdfrwt beam="2">  1       21 0.92117310E-02 0.12500000E+03</pdfrwt>
<totfact> 0.74028053E+06</totfact>
</mgrwt>
</event>
<event>
 3    0  0.1663982E+001  0.1250000E+03  0.7546771E-02  0.1235069E+00
         21   -1    0    0  502  501  0.00000000000E+00  0.00000000000E+00  0.17422479702E+03  0.17422479702E+03  0.00000000000E+00 0. -1.
         21   -1    0    0  501  502 -0.00000000000E+00 -0.00000000000E+00 -0.22420746454E+02  0.22420746454E+02  0.00000000000E+00 0. -1.
         25    1    1    2    0    0  0.00000000000E+00  0.00000000000E+00  0.15180405056E+03  0.19664554347E+03  0.12500000000E+03 0.  0.
<mgrwt>
<rscale>  2 0.12500000E+03</rscale>
<asrwt>0</asrwt>
<pdfrwt beam="1">  1       21 0.26803814E-01 0.12500000E+03</pdfrwt>
<pdfrwt beam="2">  1       21 0.34493457E-02 0.12500000E+03</pdfrwt>
<totfact> 0.65291372E+06</totfact>
</mgrwt>
</event>
<event>
 3    0  0.1591240E+001  0.1250000E+03  0.7546771E-02  0.1235069E+00
         21   -1    0    0  502  501  0.00000000000E+00  0.00000000000E+00  0.27917191390E+03  0.27917191390E+03  0.00000000000E+00 0. -1.
         21   -1    0    0  501  502 -0.00000000000E+00 -0.00000000000E+00 -0.13992274314E+02  0.13992274314E+02  0.00000000000E+00 0. -1.
         25    1    1    2    0    0  0.00000000000E+00  0.00000000000E+00  0.26517963958E+03  0.29316418821E+03  0.12500000000E+03 0.  0.
<mgrwt>
<rscale>  2 0.12500000E+03</rscale>
<asrwt>0</asrwt>
<pdfrwt beam="1">  1       21 0.42949521E-01 0.12500000E+03</pdfrwt>
<pdfrwt beam="2">  1       21 0.21526578E-02 0.12500000E+03</pdfrwt>
<totfact> 0.56029086E+06</totfact>
</mgrwt>
</event>
<event>
 3    0  0.1368989E+001  0.1250000E+03  0.7546771E-02  0.1235069E+00
         21   -1    0    0  502  501  0.00000000000E+00  0.00000000000E+00  0.11958526368E+04  0.11958526368E+04  0.00000000000E+00 0.  1.
         21   -1    0    0  501  502 -0.00000000000E+00 -0.00000000000E+00 -0.32664977940E+01  0.32664977940E+01  0.00000000000E+00 0.  1.
         25    1    1    2    0    0  0.00000000000E+00  0.00000000000E+00  0.11925861390E+04  0.11991191346E+04  0.12500000000E+03 0.  0.
<mgrwt>
<rscale>  2 0.12500000E+03</rscale>
<asrwt>0</asrwt>
<pdfrwt beam="1">  1       21 0.18397698E+00 0.12500000E+03</pdfrwt>
<pdfrwt beam="2">  1       21 0.50253908E-03 0.12500000E+03</pdfrwt>
<totfact> 0.19160972E+06</totfact>
</mgrwt>
</event>
<event>
 3    0  0.1703235E+001  0.1250000E+03  0.7546771E-02  0.1235069E+00
         21   -1    0    0  502  501  0.00000000000E+00  0.00000000000E+00  0.35706281563E+02  0.35706281563E+02  0.00000000000E+00 0. -1.
         21   -1    0    0  501  502 -0.00000000000E+00 -0.00000000000E+00 -0.10939951821E+03  0.10939951821E+03  0.00000000000E+00 0. -1.
         25    1    1    2    0    0  0.00000000000E+00  0.00000000000E+00 -0.73693236643E+02  0.14510579977E+03  0.12500000000E+03 0.  0.
<mgrwt>
<rscale>  2 0.12500000E+03</rscale>
<asrwt>0</asrwt>
<pdfrwt beam="1">  1       21 0.54932741E-02 0.12500000E+03</pdfrwt>
<pdfrwt beam="2">  1       21 0.16830695E-01 0.12500000E+03</pdfrwt>
<totfact> 0.71379562E+06</totfact>
</mgrwt>
</event>
<event>
 3    0  0.1368989E+001  0.1250000E+03  0.7546771E-02  0.1235069E+00
         21   -1    0    0  502  501  0.00000000000E+00  0.00000000000E+00  0.16672270624E+01  0.16672270624E+01  0.00000000000E+00 0.  1.
         21   -1    0    0  501  502 -0.00000000000E+00 -0.00000000000E+00 -0.23429622084E+04  0.23429622084E+04  0.00000000000E+00 0.  1.
         25    1    1    2    0    0  0.00000000000E+00  0.00000000000E+00 -0.23412949813E+04  0.23446294354E+04  0.12500000000E+03 0.  0.
<mgrwt>
<rscale>  2 0.12500000E+03</rscale>
<asrwt>0</asrwt>
<pdfrwt beam="1">  1       21 0.25649641E-03 0.12500000E+03</pdfrwt>
<pdfrwt beam="2">  1       21 0.36045582E+00 0.12500000E+03</pdfrwt>
<totfact> 0.50492464E+05</totfact>
</mgrwt>
</event>
<event>
 3    0  0.1645556E+001  0.1250000E+03  0.7546771E-02  0.1235069E+00
         21   -1    0    0  502  501  0.00000000000E+00  0.00000000000E+00  0.21364452239E+03  0.21364452239E+03  0.00000000000E+00 0. -1.
         21   -1    0    0  501  502 -0.00000000000E+00 -0.00000000000E+00 -0.18283876209E+02  0.18283876209E+02  0.00000000000E+00 0. -1.
         25    1    1    2    0    0  0.00000000000E+00  0.00000000000E+00  0.19536064618E+03  0.23192839860E+03  0.12500000000E+03 0.  0.
<mgrwt>
<rscale>  2 0.12500000E+03</rscale>
<asrwt>0</asrwt>
<pdfrwt beam="1">  1       21 0.32868386E-01 0.12500000E+03</pdfrwt>
<pdfrwt beam="2">  1       21 0.28129042E-02 0.12500000E+03</pdfrwt>
<totfact> 0.61622593E+06</totfact>
</mgrwt>
</event>
<event>
 3    0  0.1701548E+001  0.1250000E+03  0.7546771E-02  0.1235069E+00
         21   -1    0    0  502  501  0.00000000000E+00  0.00000000000E+00  0.32245168935E+02  0.32245168935E+02  0.00000000000E+00 0. -1.
         21   -1    0    0  501  502 -0.00000000000E+00 -0.00000000000E+00 -0.12114217816E+03  0.12114217816E+03  0.00000000000E+00 0. -1.
         25    1    1    2    0    0  0.00000000000E+00  0.00000000000E+00 -0.88897009228E+02  0.15338734710E+03  0.12500000000E+03 0.  0.
<mgrwt>
<rscale>  2 0.12500000E+03</rscale>
<asrwt>0</asrwt>
<pdfrwt beam="1">  1       21 0.49607953E-02 0.12500000E+03</pdfrwt>
<pdfrwt beam="2">  1       21 0.18637258E-01 0.12500000E+03</pdfrwt>
<totfact> 0.70336237E+06</totfact>
</mgrwt>
</event>
<event>
 3    0  0.1508636E+001  0.1250000E+03  0.7546771E-02  0.1235069E+00
         21   -1    0    0  502  501  0.00000000000E+00  0.00000000000E+00  0.46183936940E+03  0.46183936940E+03  0.00000000000E+00 0.  1.
         21   -1    0    0  501  502 -0.00000000000E+00 -0.00000000000E+00 -0.84580273116E+01  0.84580273116E+01  0.00000000000E+00 0.  1.
         25    1    1    2    0    0  0.00000000000E+00  0.00000000000E+00  0.45338134209E+03  0.47029739671E+03  0.12500000000E+03 0.  0.
<mgrwt>
<rscale>  2 0.12500000E+03</rscale>
<asrwt>0</asrwt>
<pdfrwt beam="1">  1       21 0.71052191E-01 0.12500000E+03</pdfrwt>
<pdfrwt beam="2">  1       21 0.13012353E-02 0.12500000E+03</pdfrwt>
<totfact> 0.43702119E+06</totfact>
</mgrwt>
</event>
<event>
 3    0  0.1368989E+001  0.1250000E+03  0.7546771E-02  0.1235069E+00
         21   -1    0    0  502  501  0.00000000000E+00  0.00000000000E+00  0.36204355062E+04  0.36204355062E+04  0.00000000000E+00 0. -1.
         21   -1    0    0  501  502 -0.00000000000E+00 -0.00000000000E+00 -0.10789447825E+01  0.10789447825E+01  0.00000000000E+00 0. -1.
         25    1    1    2    0    0  0.00000000000E+00  0.00000000000E+00  0.36193565615E+04  0.36215144510E+04  0.12500000000E+03 0.  0.
<mgrwt>
<rscale>  2 0.12500000E+03</rscale>
<asrwt>0</asrwt>
<pdfrwt beam="1">  1       21 0.55698035E+00 0.12500000E+03</pdfrwt>
<pdfrwt beam="2">  1       21 0.16599440E-03 0.12500000E+03</pdfrwt>
<totfact> 0.48638529E+04</totfact>
</mgrwt>
</event>
<event>
 3    0  0.1533500E+001  0.1250000E+03  0.7546771E-02  0.1235069E+00
         21   -1    0    0  502  501  0.00000000000E+00  0.00000000000E+00  0.42129924949E+03  0.42129924949E+03  0.00000000000E+00 0.  1.
         21   -1    0    0  501  502 -0.00000000000E+00 -0.00000000000E+00 -0.92719130280E+01  0.92719130280E+01  0.00000000000E+00 0.  1.
         25    1    1    2    0    0  0.00000000000E+00  0.00000000000E+00  0.41202733646E+03  0.43057116252E+03  0.12500000000E+03 0.  0.
<mgrwt>
<rscale>  2 0.12500000E+03</rscale>
<asrwt>0</asrwt>
<pdfrwt beam="1">  1       21 0.64815254E-01 0.12500000E+03</pdfrwt>
<pdfrwt beam="2">  1       21 0.14264485E-02 0.12500000E+03</pdfrwt>
<totfact> 0.46077575E+06</totfact>
</mgrwt>
</event>
<event>
 3    0  0.1694053E+001  0.1250000E+03  0.7546771E-02  0.1235069E+00
         21   -1    0    0  502  501  0.00000000000E+00  0.00000000000E+00  0.16168850241E+03  0.16168850241E+03  0.00000000000E+00 0.  1.
         21   -1    0    0  501  502 -0.00000000000E+00 -0.00000000000E+00 -0.24159108048E+02  0.24159108048E+02  0.00000000000E+00 0.  1.
         25    1    1    2    0    0  0.00000000000E+00  0.00000000000E+00  0.13752939437E+03  0.18584761046E+03  0.12500000000E+03 0.  0.
<mgrwt>
<rscale>  2 0.12500000E+03</rscale>
<asrwt>0</asrwt>
<pdfrwt beam="1">  1       21 0.24875154E-01 0.12500000E+03</pdfrwt>
<pdfrwt beam="2">  1       21 0.37167860E-02 0.12500000E+03</pdfrwt>
<totfact> 0.66486966E+06</totfact>
</mgrwt>
</event>
<event>
 3    0  0.1726105E+001  0.1250000E+03  0.7546771E-02  0.1235069E+00
         21   -1    0    0  502  501  0.00000000000E+00  0.00000000000E+00  0.61340167186E+02  0.61340167186E+02  0.00000000000E+00 0. -1.
         21   -1    0    0  501  502 -0.00000000000E+00 -0.00000000000E+00 -0.63681763177E+02  0.63681763177E+02  0.00000000000E+00 0. -1.
         25    1    1    2    0    0  0.00000000000E+00  0.00000000000E+00 -0.23415959910E+01  0.12502193036E+03  0.12500000000E+03 0.  0.
<mgrwt>
<rscale>  2 0.12500000E+03</rscale>
<asrwt>0</asrwt>
<pdfrwt beam="1">  1       21 0.94369488E-02 0.12500000E+03</pdfrwt>
<pdfrwt beam="2">  1       21 0.97971944E-02 0.12500000E+03</pdfrwt>
<totfact> 0.74040619E+06</totfact>
</mgrwt>
</event>
<event>
 3    0  0.1714275E+001  0.1250000E+03  0.7546771E-02  0.1235069E+00
         21   -1    0    0  502  501  0.00000000000E+00  0.00000000000E+00  0.13517666230E+03  0.13517666230E+03  0.00000000000E+00 0.  1.
         21   -1    0    0  501  502 -0.00000000000E+00 -0.00000000000E+00 -0.28897369808E+02  0.28897369808E+02  0.00000000000E+00 0.  1.
         25    1    1    2    0    0  0.00000000000E+00  0.00000000000E+00  0.10627929250E+03  0.16407403211E+03  0.12500000000E+03 0.  0.
<mgrwt>
<rscale>  2 0.12500000E+03</rscale>
<asrwt>0</asrwt>
<pdfrwt beam="1">  1       21 0.20796409E-01 0.12500000E+03</pdfrwt>
<pdfrwt beam="2">  1       21 0.44457493E-02 0.12500000E+03</pdfrwt>
<totfact> 0.69025088E+06</totfact>
</mgrwt>
</event>
<event>
 3    0  0.1710347E+001  0.1250000E+03  0.7546771E-02  0.1235069E+00
         21   -1    0    0  502  501  0.00000000000E+00  0.00000000000E+00  0.33352715344E+02  0.33352715344E+02  0.00000000000E+00 0. -1.
         21   -1    0    0  501  502 -0.00000000000E+00 -0.00000000000E+00 -0.11711939972E+03  0.11711939972E+03  0.00000000000E+00 0. -1.
         25    1    1    2    0    0  0.00000000000E+00  0.00000000000E+00 -0.83766684372E+02  0.15047211506E+03  0.12500000000E+03 0.  0.
<mgrwt>
<rscale>  2 0.12500000E+03</rscale>
<asrwt>0</asrwt>
<pdfrwt beam="1">  1       21 0.51311871E-02 0.12500000E+03</pdfrwt>
<pdfrwt beam="2">  1       21 0.18018369E-01 0.12500000E+03</pdfrwt>
<totfact> 0.70699945E+06</totfact>
</mgrwt>
</event>
<event>
 3    0  0.1476349E+001  0.1250000E+03  0.7546771E-02  0.1235069E+00
         21   -1    0    0  502  501  0.00000000000E+00  0.00000000000E+00  0.50001435375E+03  0.50001435375E+03  0.00000000000E+00 0.  1.
         21   -1    0    0  501  502 -0.00000000000E+00 -0.00000000000E+00 -0.78122757291E+01  0.78122757291E+01  0.00000000000E+00 0.  1.
         25    1    1    2    0    0  0.00000000000E+00  0.00000000000E+00  0.49220207802E+03  0.50782662948E+03  0.12500000000E+03 0.  0.
<mgrwt>
<rscale>  2 0.12500000E+03</rscale>
<asrwt>0</asrwt>
<pdfrwt beam="1">  1       21 0.76925260E-01 0.12500000E+03</pdfrwt>
<pdfrwt beam="2">  1       21 0.12018890E-02 0.12500000E+03</pdfrwt>
<totfact> 0.41622779E+06</totfact>
</mgrwt>
</event>
<event>
 3    0  0.1708982E+001  0.1250000E+03  0.7546771E-02  0.1235069E+00
         21   -1    0    0  502  501  0.00000000000E+00  0.00000000000E+00  0.37798592136E+02  0.37798592136E+02  0.00000000000E+00 0. -1.
         21   -1    0    0  501  502 -0.00000000000E+00 -0.00000000000E+00 -0.10334379614E+03  0.10334379614E+03  0.00000000000E+00 0. -1.
         25    1    1    2    0    0  0.00000000000E+00  0.00000000000E+00 -0.65545204000E+02  0.14114238827E+03  0.12500000000E+03 0.  0.
<mgrwt>
<rscale>  2 0.12500000E+03</rscale>
<asrwt>0</asrwt>
<pdfrwt beam="1">  1       21 0.58151681E-02 0.12500000E+03</pdfrwt>
<pdfrwt beam="2">  1       21 0.15899045E-01 0.12500000E+03</pdfrwt>
<totfact> 0.71890521E+06</totfact>
</mgrwt>
</event>
<event>
 3    0  0.1705365E+001  0.1250000E+03  0.7546771E-02  0.1235069E+00
         21   -1    0    0  502  501  0.00000000000E+00  0.00000000000E+00  0.34011161904E+02  0.34011161904E+02  0.00000000000E+00 0. -1.
         21   -1    0    0  501  502 -0.00000000000E+00 -0.00000000000E+00 -0.11485200097E+03  0.11485200097E+03  0.00000000000E+00 0. -1.
         25    1    1    2    0    0  0.00000000000E+00  0.00000000000E+00 -0.80840839067E+02  0.14886316287E+03  0.12500000000E+03 0.  0.
<mgrwt>
<rscale>  2 0.12500000E+03</rscale>
<asrwt>0</asrwt>
<pdfrwt beam="1">  1       21 0.52324863E-02 0.12500000E+03</pdfrwt>
<pdfrwt beam="2">  1       21 0.17669539E-01 0.12500000E+03</pdfrwt>
<totfact> 0.70902301E+06</totfact>
</mgrwt>
</event>
<event>
 3    0  0.1658132E+001  0.1250000E+03  0.7546771E-02  0.1235069E+00
         21   -1    0    0  502  501  0.00000000000E+00  0.00000000000E+00  0.21386325378E+02  0.21386325378E+02  0.00000000000E+00 0. -1.
         21   -1    0    0  501  502 -0.00000000000E+00 -0.00000000000E+00 -0.18265176140E+03  0.18265176140E+03  0.00000000000E+00 0. -1.
         25    1    1    2    0    0  0.00000000000E+00  0.00000000000E+00 -0.16126543602E+03  0.20403808677E+03  0.12500000000E+03 0.  0.
<mgrwt>
<rscale>  2 0.12500000E+03</rscale>
<asrwt>0</asrwt>
<pdfrwt beam="1">  1       21 0.32902039E-02 0.12500000E+03</pdfrwt>
<pdfrwt beam="2">  1       21 0.28100271E-01 0.12500000E+03</pdfrwt>
<totfact> 0.64492307E+06</totfact>
</mgrwt>
</event>
<event>
 3    0  0.1630294E+001  0.1250000E+03  0.7546771E-02  0.1235069E+00
         21   -1    0    0  502  501  0.00000000000E+00  0.00000000000E+00  0.22820438667E+03  0.22820438667E+03  0.00000000000E+00 0. -1.
         21   -1    0    0  501  502 -0.00000000000E+00 -0.00000000000E+00 -0.17117330902E+02  0.17117330902E+02  0.00000000000E+00 0. -1.
         25    1    1    2    0    0  0.00000000000E+00  0.00000000000E+00  0.21108705577E+03  0.24532171758E+03  0.12500000000E+03 0.  0.
<mgrwt>
<rscale>  2 0.12500000E+03</rscale>
<asrwt>0</asrwt>
<pdfrwt beam="1">  1       21 0.35108365E-01 0.12500000E+03</pdfrwt>
<pdfrwt beam="2">  1       21 0.26334357E-02 0.12500000E+03</pdfrwt>
<totfact> 0.60321461E+06</totfact>
</mgrwt>
</event>
<event>
 3    0  0.1431450E+001  0.1250000E+03  0.7546771E-02  0.1235069E+00
         21   -1    0    0  502  501  0.00000000000E+00  0.00000000000E+00  0.76388260765E+01  0.76388260765E+01  0.00000000000E+00 0. -1.
         21   -1    0    0  501  502 -0.00000000000E+00 -0.00000000000E+00 -0.51136784120E+03  0.51136784120E+03  0.00000000000E+00 0. -1.
         25    1    1    2    0    0  0.00000000000E+00  0.00000000000E+00 -0.50372901512E+03  0.51900666727E+03  0.12500000000E+03 0.  0.
<mgrwt>
<rscale>  2 0.12500000E+03</rscale>
<asrwt>0</asrwt>
<pdfrwt beam="1">  1       21 0.11752041E-02 0.12500000E+03</pdfrwt>
<pdfrwt beam="2">  1       21 0.78671971E-01 0.12500000E+03</pdfrwt>
<totfact> 0.41031707E+06</totfact>
</mgrwt>
</event>
<event>
 3    0  0.1489057E+001  0.1250000E+03  0.7546771E-02  0.1235069E+00
         21   -1    0    0  502  501  0.00000000000E+00  0.00000000000E+00  0.49324344912E+03  0.49324344912E+03  0.00000000000E+00 0.  1.
         21   -1    0    0  501  502 -0.00000000000E+00 -0.00000000000E+00 -0.79195172423E+01  0.79195172423E+01  0.00000000000E+00 0.  1.
         25    1    1    2    0    0  0.00000000000E+00  0.00000000000E+00  0.48532393188E+03  0.50116296637E+03  0.12500000000E+03 0.  0.
<mgrwt>
<rscale>  2 0.12500000E+03</rscale>
<asrwt>0</asrwt>
<pdfrwt beam="1">  1       21 0.75883583E-01 0.12500000E+03</pdfrwt>
<pdfrwt beam="2">  1       21 0.12183877E-02 0.12500000E+03</pdfrwt>
<totfact> 0.41981079E+06</totfact>
</mgrwt>
</event>
<event>
 3    0  0.1619837E+001  0.1250000E+03  0.7546771E-02  0.1235069E+00
         21   -1    0    0  502  501  0.00000000000E+00  0.00000000000E+00  0.15145282706E+02  0.15145282706E+02  0.00000000000E+00 0. -1.
         21   -1    0    0  501  502 -0.00000000000E+00 -0.00000000000E+00 -0.25791859260E+03  0.25791859260E+03  0.00000000000E+00 0. -1.
         25    1    1    2    0    0  0.00000000000E+00  0.00000000000E+00 -0.24277330989E+03  0.27306387530E+03  0.12500000000E+03 0.  0.
<mgrwt>
<rscale>  2 0.12500000E+03</rscale>
<asrwt>0</asrwt>
<pdfrwt beam="1">  1       21 0.23300438E-02 0.12500000E+03</pdfrwt>
<pdfrwt beam="2">  1       21 0.39679778E-01 0.12500000E+03</pdfrwt>
<totfact> 0.57771688E+06</totfact>
</mgrwt>
</event>
<event>
 3    0  0.1578168E+001  0.1250000E+03  0.7546771E-02  0.1235069E+00
         21   -1    0    0  502  501  0.00000000000E+00  0.00000000000E+00  0.10273455530E+02  0.10273455530E+02  0.00000000000E+00 0.  1.
         21   -1    0    0  501  502 -0.00000000000E+00 -0.00000000000E+00 -0.38022746957E+03  0.38022746957E+03  0.00000000000E+00 0.  1.
         25    1    1    2    0    0  0.00000000000E+00  0.00000000000E+00 -0.36995401404E+03  0.39050092510E+03  0.12500000000E+03 0.  0.
<mgrwt>
<rscale>  2 0.12500000E+03</rscale>
<asrwt>0</asrwt>
<pdfrwt beam="1">  1       21 0.15805319E-02 0.12500000E+03</pdfrwt>
<pdfrwt beam="2">  1       21 0.58496525E-01 0.12500000E+03</pdfrwt>
<totfact> 0.48677866E+06</totfact>
</mgrwt>
</event>
<event>
 3    0  0.1602139E+001  0.1250000E+03  0.7546771E-02  0.1235069E+00
         21   -1    0    0  502  501  0.00000000000E+00  0.00000000000E+00  0.27441429759E+03  0.27441429759E+03  0.00000000000E+00 0. -1.
         21   -1    0    0  501  502 -0.00000000000E+00 -0.00000000000E+00 -0.14234863250E+02  0.14234863250E+02  0.00000000000E+00 0. -1.
         25    1    1    2    0    0  0.00000000000E+00  0.00000000000E+00  0.26017943434E+03  0.28864916084E+03  0.12500000000E+03 0.  0.
<mgrwt>
<rscale>  2 0.12500000E+03</rscale>
<asrwt>0</asrwt>
<pdfrwt beam="1">  1       21 0.42217580E-01 0.12500000E+03</pdfrwt>
<pdfrwt beam="2">  1       21 0.21899792E-02 0.12500000E+03</pdfrwt>
<totfact> 0.56412867E+06</totfact>
</mgrwt>
</event>
<event>
 3    0  0.1601740E+001  0.1250000E+03  0.7546771E-02  0.1235069E+00
         21   -1    0    0  502  501  0.00000000000E+00  0.00000000000E+00  0.30778829789E+03  0.30778829789E+03  0.00000000000E+00 0. -1.
         21   -1    0    0  501  502 -0.00000000000E+00 -0.00000000000E+00 -0.12691353202E+02  0.12691353202E+02  0.00000000000E+00 0. -1.
         25    1    1    2    0    0  0.00000000000E+00  0.00000000000E+00  0.29509694469E+03  0.32047965109E+03  0.12500000000E+03 0.  0.
<mgrwt>
<rscale>  2 0.12500000E+03</rscale>
<asrwt>0</asrwt>
<pdfrwt beam="1">  1       21 0.47352040E-01 0.12500000E+03</pdfrwt>
<pdfrwt beam="2">  1       21 0.19525161E-02 0.12500000E+03</pdfrwt>
<totfact> 0.53795357E+06</totfact>
</mgrwt>
</event>
<event>
 3    0  0.1368989E+001  0.1250000E+03  0.7546771E-02  0.1235069E+00
         21   -1    0    0  502  501  0.00000000000E+00  0.00000000000E+00  0.21104297562E+04  0.21104297562E+04  0.00000000000E+00 0.  1.
         21   -1    0    0  501  502 -0.00000000000E+00 -0.00000000000E+00 -0.18509263284E+01  0.18509263284E+01  0.00000000000E+00 0.  1.
         25    1    1    2    0    0  0.00000000000E+00  0.00000000000E+00  0.21085788299E+04  0.21122806826E+04  0.12500000000E+03 0.  0.
<mgrwt>
<rscale>  2 0.12500000E+03</rscale>
<asrwt>0</asrwt>
<pdfrwt beam="1">  1       21 0.32467958E+00 0.12500000E+03</pdfrwt>
<pdfrwt beam="2">  1       21 0.28475958E-03 0.12500000E+03</pdfrwt>
<totfact> 0.69043063E+05</totfact>
</mgrwt>
</event>
<event>
 3    0  0.1719847E+001  0.1250000E+03  0.7546771E-02  0.1235069E+00
         21   -1    0    0  502  501  0.00000000000E+00  0.00000000000E+00  0.46964867519E+02  0.46964867519E+02  0.00000000000E+00 0. -1.
         21   -1    0    0  501  502 -0.00000000000E+00 -0.00000000000E+00 -0.83173874565E+02  0.83173874565E+02  0.00000000000E+00 0. -1.
         25    1    1    2    0    0  0.00000000000E+00  0.00000000000E+00 -0.36209007045E+02  0.13013874208E+03  0.12500000000E+03 0.  0.
<mgrwt>
<rscale>  2 0.12500000E+03</rscale>
<asrwt>0</asrwt>
<pdfrwt beam="1">  1       21 0.72253643E-02 0.12500000E+03</pdfrwt>
<pdfrwt beam="2">  1       21 0.12795981E-01 0.12500000E+03</pdfrwt>
<totfact> 0.73346378E+06</totfact>
</mgrwt>
</event>
<event>
 3    0  0.1528720E+001  0.1250000E+03  0.7546771E-02  0.1235069E+00
         21   -1    0    0  502  501  0.00000000000E+00  0.00000000000E+00  0.44061008633E+03  0.44061008633E+03  0.00000000000E+00 0. -1.
         21   -1    0    0  501  502 -0.00000000000E+00 -0.00000000000E+00 -0.88655482958E+01  0.88655482958E+01  0.00000000000E+00 0. -1.
         25    1    1    2    0    0  0.00000000000E+00  0.00000000000E+00  0.43174453804E+03  0.44947563463E+03  0.12500000000E+03 0.  0.
<mgrwt>
<rscale>  2 0.12500000E+03</rscale>
<asrwt>0</asrwt>
<pdfrwt beam="1">  1       21 0.67786150E-01 0.12500000E+03</pdfrwt>
<pdfrwt beam="2">  1       21 0.13639308E-02 0.12500000E+03</pdfrwt>
<totfact> 0.44923669E+06</totfact>
</mgrwt>
</event>
<event>
 3    0  0.1723714E+001  0.1250000E+03  0.7546771E-02  0.1235069E+00
         21   -1    0    0  502  501  0.00000000000E+00  0.00000000000E+00  0.73960188045E+02  0.73960188045E+02  0.00000000000E+00 0. -1.
         21   -1    0    0  501  502 -0.00000000000E+00 -0.00000000000E+00 -0.52815576911E+02  0.52815576911E+02  0.00000000000E+00 0. -1.
         25    1    1    2    0    0  0.00000000000E+00  0.00000000000E+00  0.21144611134E+02  0.12677576496E+03  0.12500000000E+03 0.  0.
<mgrwt>
<rscale>  2 0.12500000E+03</rscale>
<asrwt>0</asrwt>
<pdfrwt beam="1">  1       21 0.11378490E-01 0.12500000E+03</pdfrwt>
<pdfrwt beam="2">  1       21 0.81254734E-02 0.12500000E+03</pdfrwt>
<totfact> 0.73799694E+06</totfact>
</mgrwt>
</event>
<event>
 3    0  0.1710083E+001  0.1250000E+03  0.7546771E-02  0.1235069E+00
         21   -1    0    0  502  501  0.00000000000E+00  0.00000000000E+00  0.16526576195E+03  0.16526576195E+03  0.00000000000E+00 0.  1.
         21   -1    0    0  501  502 -0.00000000000E+00 -0.00000000000E+00 -0.23636172151E+02  0.23636172151E+02  0.00000000000E+00 0.  1.
         25    1    1    2    0    0  0.00000000000E+00  0.00000000000E+00  0.14162958979E+03  0.18890193410E+03  0.12500000000E+03 0.  0.
<mgrwt>
<rscale>  2 0.12500000E+03</rscale>
<asrwt>0</asrwt>
<pdfrwt beam="1">  1       21 0.25425501E-01 0.12500000E+03</pdfrwt>
<pdfrwt beam="2">  1       21 0.36363343E-02 0.12500000E+03</pdfrwt>
<totfact> 0.66144712E+06</totfact>
</mgrwt>
</event>
<event>
 3    0  0.1659184E+001  0.1250000E+03  0.7546771E-02  0.1235069E+00
         21   -1    0    0  502  501  0.00000000000E+00  0.00000000000E+00  0.19933266597E+03  0.19933266597E+03  0.00000000000E+00 0. -1.
         21   -1    0    0  501  502 -0.00000000000E+00 -0.00000000000E+00 -0.19596637515E+02  0.19596637515E+02  0.00000000000E+00 0. -1.
         25    1    1    2    0    0  0.00000000000E+00  0.00000000000E+00  0.17973602846E+03  0.21892930349E+03  0.12500000000E+03 0.  0.
<mgrwt>
<rscale>  2 0.12500000E+03</rscale>
<asrwt>0</asrwt>
<pdfrwt beam="1">  1       21 0.30666563E-01 0.12500000E+03</pdfrwt>
<pdfrwt beam="2">  1       21 0.30148674E-02 0.12500000E+03</pdfrwt>
<totfact> 0.62932143E+06</totfact>
</mgrwt>
</event>
<event>
 3    0  0.1725358E+001  0.1250000E+03  0.7546771E-02  0.1235069E+00
         21   -1    0    0  502  501  0.00000000000E+00  0.00000000000E+00  0.66983015364E+02  0.66983015364E+02  0.00000000000E+00 0. -1.
         21   -1    0    0  501  502 -0.00000000000E+00 -0.00000000000E+00 -0.58317022289E+02  0.58317022289E+02  0.00000000000E+00 0. -1.
         25    1    1    2    0    0  0.00000000000E+00  0.00000000000E+00  0.86659930749E+01  0.12530003765E+03  0.12500000000E+03 0.  0.
<mgrwt>
<rscale>  2 0.12500000E+03</rscale>
<asrwt>0</asrwt>
<pdfrwt beam="1">  1       21 0.10305079E-01 0.12500000E+03</pdfrwt>
<pdfrwt beam="2">  1       21 0.89718496E-02 0.12500000E+03</pdfrwt>
<totfact> 0.74003066E+06</totfact>
</mgrwt>
</event>
<event>
 3    0  0.1664722E+001  0.1250000E+03  0.7546771E-02  0.1235069E+00
         21   -1    0    0  502  501  0.00000000000E+00  0.00000000000E+00  0.19803818069E+02  0.19803818069E+02  0.00000000000E+00 0. -1.
         21   -1    0    0  501  502 -0.00000000000E+00 -0.00000000000E+00 -0.19724731799E+03  0.19724731799E+03  0.00000000000E+00 0. -1.
         25    1    1    2    0    0  0.00000000000E+00  0.00000000000E+00 -0.17744349992E+03  0.21705113606E+03  0.12500000000E+03 0.  0.
<mgrwt>
<rscale>  2 0.12500000E+03</rscale>
<asrwt>0</asrwt>
<pdfrwt beam="1">  1       21 0.30467413E-02 0.12500000E+03</pdfrwt>
<pdfrwt beam="2">  1       21 0.30345741E-01 0.12500000E+03</pdfrwt>
<totfact> 0.63125226E+06</totfact>
</mgrwt>
</event>
<event>
 3    0  0.1368989E+001  0.1250000E+03  0.7546771E-02  0.1235069E+00
         21   -1    0    0  502  501  0.00000000000E+00  0.00000000000E+00  0.12126434762E+04  0.12126434762E+04  0.00000000000E+00 0. -1.
         21   -1    0    0  501  502 -0.00000000000E+00 -0.00000000000E+00 -0.32212683089E+01  0.32212683089E+01  0.00000000000E+00 0. -1.
         25    1    1    2    0    0  0.00000000000E+00  0.00000000000E+00  0.12094222079E+04  0.12158647445E+04  0.12500000000E+03 0.  0.
<mgrwt>
<rscale>  2 0.12500000E+03</rscale>
<asrwt>0</asrwt>
<pdfrwt beam="1">  1       21 0.18656017E+00 0.12500000E+03</pdfrwt>
<pdfrwt beam="2">  1       21 0.49558071E-03 0.12500000E+03</pdfrwt>
<totfact> 0.18830104E+06</totfact>
</mgrwt>
</event>
<event>
 3    0  0.1719134E+001  0.1250000E+03  0.7546771E-02  0.1235069E+00
         21   -1    0    0  502  501  0.00000000000E+00  0.00000000000E+00  0.45468289773E+02  0.45468289773E+02  0.00000000000E+00 0. -1.
         21   -1    0    0  501  502 -0.00000000000E+00 -0.00000000000E+00 -0.85911522503E+02  0.85911522503E+02  0.00000000000E+00 0. -1.
         25    1    1    2    0    0  0.00000000000E+00  0.00000000000E+00 -0.40443232731E+02  0.13137981228E+03  0.12500000000E+03 0.  0.
<mgrwt>
<rscale>  2 0.12500000E+03</rscale>
<asrwt>0</asrwt>
<pdfrwt beam="1">  1       21 0.69951216E-02 0.12500000E+03</pdfrwt>
<pdfrwt beam="2">  1       21 0.13217157E-01 0.12500000E+03</pdfrwt>
<totfact> 0.73179534E+06</totfact>
</mgrwt>
</event>
<event>
 3    0  0.1393626E+001  0.1250000E+03  0.7546771E-02  0.1235069E+00
         21   -1    0    0  502  501  0.00000000000E+00  0.00000000000E+00  0.52249770770E+01  0.52249770770E+01  0.00000000000E+00 0.  1.
         21   -1    0    0  501  502 -0.00000000000E+00 -0.00000000000E+00 -0.74761093540E+03  0.74761093540E+03  0.00000000000E+00 0.  1.
         25    1    1    2    0    0  0.00000000000E+00  0.00000000000E+00 -0.74238595833E+03  0.75283591248E+03  0.12500000000E+03 0.  0.
<mgrwt>
<rscale>  2 0.12500000E+03</rscale>
<asrwt>0</asrwt>
<pdfrwt beam="1">  1       21 0.80384264E-03 0.12500000E+03</pdfrwt>
<pdfrwt beam="2">  1       21 0.11501706E+00 0.12500000E+03</pdfrwt>
<totfact> 0.30969367E+06</totfact>
</mgrwt>
</event>
<event>
 3    0  0.1738387E+001  0.1250000E+03  0.7546771E-02  0.1235069E+00
         21   -1    0    0  502  501  0.00000000000E+00  0.00000000000E+00  0.98374833350E+02  0.98374833350E+02  0.00000000000E+00 0.  1.
         21   -1    0    0  501  502 -0.00000000000E+00 -0.00000000000E+00 -0.39707818219E+02  0.39707818219E+02  0.00000000000E+00 0.  1.
         25    1    1    2    0    0  0.00000000000E+00  0.00000000000E+00  0.58667015131E+02  0.13808265157E+03  0.12500000000E+03 0.  0.
<mgrwt>
<rscale>  2 0.12500000E+03</rscale>
<asrwt>0</asrwt>
<pdfrwt beam="1">  1       21 0.15134590E-01 0.12500000E+03</pdfrwt>
<pdfrwt beam="2">  1       21 0.61088952E-02 0.12500000E+03</pdfrwt>
<totfact> 0.72290613E+06</totfact>
</mgrwt>
</event>
<event>
 3    0  0.1436938E+001  0.1250000E+03  0.7546771E-02  0.1235069E+00
         21   -1    0    0  502  501  0.00000000000E+00  0.00000000000E+00  0.70137508842E+01  0.70137508842E+01  0.00000000000E+00 0.  1.
         21   -1    0    0  501  502 -0.00000000000E+00 -0.00000000000E+00 -0.55694165141E+03  0.55694165141E+03  0.00000000000E+00 0.  1.
         25    1    1    2    0    0  0.00000000000E+00  0.00000000000E+00 -0.54992790052E+03  0.56395540229E+03  0.12500000000E+03 0.  0.
<mgrwt>
<rscale>  2 0.12500000E+03</rscale>
<asrwt>0</asrwt>
<pdfrwt beam="1">  1       21 0.10790386E-02 0.12500000E+03</pdfrwt>
<pdfrwt beam="2">  1       21 0.85683331E-01 0.12500000E+03</pdfrwt>
<totfact> 0.38775146E+06</totfact>
</mgrwt>
</event>
<event>
 3    0  0.1617870E+001  0.1250000E+03  0.7546771E-02  0.1235069E+00
         21   -1    0    0  502  501  0.00000000000E+00  0.00000000000E+00  0.24561451519E+03  0.24561451519E+03  0.00000000000E+00 0. -1.
         21   -1    0    0  501  502 -0.00000000000E+00 -0.00000000000E+00 -0.15903986770E+02  0.15903986770E+02  0.00000000000E+00 0. -1.
         25    1    1    2    0    0  0.00000000000E+00  0.00000000000E+00  0.22971052842E+03  0.26151850196E+03  0.12500000000E+03 0.  0.
<mgrwt>
<rscale>  2 0.12500000E+03</rscale>
<asrwt>0</asrwt>
<pdfrwt beam="1">  1       21 0.37786846E-01 0.12500000E+03</pdfrwt>
<pdfrwt beam="2">  1       21 0.24467674E-02 0.12500000E+03</pdfrwt>
<totfact> 0.58810372E+06</totfact>
</mgrwt>
</event>
<event>
 3    0  0.1504835E+001  0.1250000E+03  0.7546771E-02  0.1235069E+00
         21   -1    0    0  502  501  0.00000000000E+00  0.00000000000E+00  0.40405083920E+03  0.40405083920E+03  0.00000000000E+00 0. -1.
         21   -1    0    0  501  502 -0.00000000000E+00 -0.00000000000E+00 -0.96677190616E+01  0.96677190616E+01  0.00000000000E+00 0. -1.
         25    1    1    2    0    0  0.00000000000E+00  0.00000000000E+00  0.39438312014E+03  0.41371855826E+03  0.12500000000E+03 0.  0.
<mgrwt>
<rscale>  2 0.12500000E+03</rscale>
<asrwt>0</asrwt>
<pdfrwt beam="1">  1       21 0.62161654E-01 0.12500000E+03</pdfrwt>
<pdfrwt beam="2">  1       21 0.14873417E-02 0.12500000E+03</pdfrwt>
<totfact> 0.47144535E+06</totfact>
</mgrwt>
</event>
<event>
 3    0  0.1713286E+001  0.1250000E+03  0.7546771E-02  0.1235069E+00
         21   -1    0    0  502  501  0.00000000000E+00  0.00000000000E+00  0.98560687616E+02  0.98560687616E+02  0.00000000000E+00 0. -1.
         21   -1    0    0  501  502 -0.00000000000E+00 -0.00000000000E+00 -0.39632941840E+02  0.39632941840E+02  0.00000000000E+00 0. -1.
         25    1    1    2    0    0  0.00000000000E+00  0.00000000000E+00  0.58927745776E+02  0.13819362946E+03  0.12500000000E+03 0.  0.
<mgrwt>
<rscale>  2 0.12500000E+03</rscale>
<asrwt>0</asrwt>
<pdfrwt beam="1">  1       21 0.15163183E-01 0.12500000E+03</pdfrwt>
<pdfrwt beam="2">  1       21 0.60973757E-02 0.12500000E+03</pdfrwt>
<totfact> 0.72276012E+06</totfact>
</mgrwt>
</event>
<event>
 3    0  0.1368989E+001  0.1250000E+03  0.7546771E-02  0.1235069E+00
         21   -1    0    0  502  501  0.00000000000E+00  0.00000000000E+00  0.15690899854E+01  0.15690899854E+01  0.00000000000E+00 0.  1.
         21   -1    0    0  501  502 -0.00000000000E+00 -0.00000000000E+00 -0.24895003067E+04  0.24895003067E+04  0.00000000000E+00 0.  1.
         25    1    1    2    0    0  0.00000000000E+00  0.00000000000E+00 -0.24879312168E+04  0.24910693967E+04  0.12500000000E+03 0.  0.
<mgrwt>
<rscale>  2 0.12500000E+03</rscale>
<asrwt>0</asrwt>
<pdfrwt beam="1">  1       21 0.24139700E-03 0.12500000E+03</pdfrwt>
<pdfrwt beam="2">  1       21 0.38300237E+00 0.12500000E+03</pdfrwt>
<totfact> 0.40767206E+05</totfact>
</mgrwt>
</event>
<event>
 3    0  0.1477617E+001  0.1250000E+03  0.7546771E-02  0.1235069E+00
         21   -1    0    0  502  501  0.00000000000E+00  0.00000000000E+00  0.56589826322E+03  0.56589826322E+03  0.00000000000E+00 0.  1.
         21   -1    0    0  501  502 -0.00000000000E+00 -0.00000000000E+00 -0.69027425138E+01  0.69027425138E+01  0.00000000000E+00 0.  1.
         25    1    1    2    0    0  0.00000000000E+00  0.00000000000E+00  0.55899552070E+03  0.57280100573E+03  0.12500000000E+03 0.  0.
<mgrwt>
<rscale>  2 0.12500000E+03</rscale>
<asrwt>0</asrwt>
<pdfrwt beam="1">  1       21 0.87061235E-01 0.12500000E+03</pdfrwt>
<pdfrwt beam="2">  1       21 0.10619608E-02 0.12500000E+03</pdfrwt>
<totfact> 0.38352298E+06</totfact>
</mgrwt>
</event>
<event>
 3    0  0.1420426E+001  0.1250000E+03  0.7546771E-02  0.1235069E+00
         21   -1    0    0  502  501  0.00000000000E+00  0.00000000000E+00  0.55623232777E+03  0.55623232777E+03  0.00000000000E+00 0. -1.
         21   -1    0    0  501  502 -0.00000000000E+00 -0.00000000000E+00 -0.70226950233E+01  0.70226950233E+01  0.00000000000E+00 0. -1.
         25    1    1    2    0    0  0.00000000000E+00  0.00000000000E+00  0.54920963275E+03  0.56325502279E+03  0.12500000000E+03 0.  0.
<mgrwt>
<rscale>  2 0.12500000E+03</rscale>
<asrwt>0</asrwt>
<pdfrwt beam="1">  1       21 0.85574170E-01 0.12500000E+03</pdfrwt>
<pdfrwt beam="2">  1       21 0.10804151E-02 0.12500000E+03</pdfrwt>
<totfact> 0.38808925E+06</totfact>
</mgrwt>
</event>
<event>
 3    0  0.1530851E+001  0.1250000E+03  0.7546771E-02  0.1235069E+00
         21   -1    0    0  502  501  0.00000000000E+00  0.00000000000E+00  0.39125058708E+03  0.39125058708E+03  0.00000000000E+00 0. -1.
         21   -1    0    0  501  502 -0.00000000000E+00 -0.00000000000E+00 -0.99840105778E+01  0.99840105778E+01  0.00000000000E+00 0. -1.
         25    1    1    2    0    0  0.00000000000E+00  0.00000000000E+00  0.38126657651E+03  0.40123459766E+03  0.12500000000E+03 0.  0.
<mgrwt>
<rscale>  2 0.12500000E+03</rscale>
<asrwt>0</asrwt>
<pdfrwt beam="1">  1       21 0.60192386E-01 0.12500000E+03</pdfrwt>
<pdfrwt beam="2">  1       21 0.15360019E-02 0.12500000E+03</pdfrwt>
<totfact> 0.47959574E+06</totfact>
</mgrwt>
</event>
<event>
 3    0  0.1368989E+001  0.1250000E+03  0.7546771E-02  0.1235069E+00
         21   -1    0    0  502  501  0.00000000000E+00  0.00000000000E+00  0.53657112997E+01  0.53657112997E+01  0.00000000000E+00 0.  1.
         21   -1    0    0  501  502 -0.00000000000E+00 -0.00000000000E+00 -0.72800226882E+03  0.72800226882E+03  0.00000000000E+00 0.  1.
         25    1    1    2    0    0  0.00000000000E+00  0.00000000000E+00 -0.72263655752E+03  0.73336798012E+03  0.12500000000E+03 0.  0.
<mgrwt>
<rscale>  2 0.12500000E+03</rscale>
<asrwt>0</asrwt>
<pdfrwt beam="1">  1       21 0.82549393E-03 0.12500000E+03</pdfrwt>
<pdfrwt beam="2">  1       21 0.11200037E+00 0.12500000E+03</pdfrwt>
<totfact> 0.31662662E+06</totfact>
</mgrwt>
</event>
<event>
 3    0  0.1741404E+001  0.1250000E+03  0.7546771E-02  0.1235069E+00
         21   -1    0    0  502  501  0.00000000000E+00  0.00000000000E+00  0.99549946417E+02  0.99549946417E+02  0.00000000000E+00 0.  1.
         21   -1    0    0  501  502 -0.00000000000E+00 -0.00000000000E+00 -0.39239096962E+02  0.39239096962E+02  0.00000000000E+00 0.  1.
         25    1    1    2    0    0  0.00000000000E+00  0.00000000000E+00  0.60310849455E+02  0.13878904338E+03  0.12500000000E+03 0.  0.
<mgrwt>
<rscale>  2 0.12500000E+03</rscale>
<asrwt>0</asrwt>
<pdfrwt beam="1">  1       21 0.15315376E-01 0.12500000E+03</pdfrwt>
<pdfrwt beam="2">  1       21 0.60367842E-02 0.12500000E+03</pdfrwt>
<totfact> 0.72197793E+06</totfact>
</mgrwt>
</event>
<event>
 3    0  0.1376730E+001  0.1250000E+03  0.7546771E-02  0.1235069E+00
         21   -1    0    0  502  501  0.00000000000E+00  0.00000000000E+00  0.69394348304E+03  0.69394348304E+03  0.00000000000E+00 0. -1.
         21   -1    0    0  501  502 -0.00000000000E+00 -0.00000000000E+00 -0.56290607167E+01  0.56290607167E+01  0.00000000000E+00 0. -1.
         25    1    1    2    0    0  0.00000000000E+00  0.00000000000E+00  0.68831442232E+03  0.69957254376E+03  0.12500000000E+03 0.  0.
<mgrwt>
<rscale>  2 0.12500000E+03</rscale>
<asrwt>0</asrwt>
<pdfrwt beam="1">  1       21 0.10676047E+00 0.12500000E+03</pdfrwt>
<pdfrwt beam="2">  1       21 0.86600989E-03 0.12500000E+03</pdfrwt>
<totfact> 0.32926642E+06</totfact>
</mgrwt>
</event>
<event>
 3    0  0.1689087E+001  0.1250000E+03  0.7546771E-02  0.1235069E+00
         21   -1    0    0  502  501  0.00000000000E+00  0.00000000000E+00  0.14767236375E+03  0.14767236375E+03  0.00000000000E+00 0. -1.
         21   -1    0    0  501  502 -0.00000000000E+00 -0.00000000000E+00 -0.26452139729E+02  0.26452139729E+02  0.00000000000E+00 0. -1.
         25    1    1    2    0    0  0.00000000000E+00  0.00000000000E+00  0.12122022402E+03  0.17412450348E+03  0.12500000000E+03 0.  0.
<mgrwt>
<rscale>  2 0.12500000E+03</rscale>
<asrwt>0</asrwt>
<pdfrwt beam="1">  1       21 0.22718825E-01 0.12500000E+03</pdfrwt>
<pdfrwt beam="2">  1       21 0.40695600E-02 0.12500000E+03</pdfrwt>
<totfact> 0.67832031E+06</totfact>
</mgrwt>
</event>
<event>
 3    0  0.1690994E+001  0.1250000E+03  0.7546771E-02  0.1235069E+00
         21   -1    0    0  502  501  0.00000000000E+00  0.00000000000E+00  0.27053496167E+02  0.27053496167E+02  0.00000000000E+00 0. -1.
         21   -1    0    0  501  502 -0.00000000000E+00 -0.00000000000E+00 -0.14438984063E+03  0.14438984063E+03  0.00000000000E+00 0. -1.
         25    1    1    2    0    0  0.00000000000E+00  0.00000000000E+00 -0.11733634446E+03  0.17144333680E+03  0.12500000000E+03 0.  0.
<mgrwt>
<rscale>  2 0.12500000E+03</rscale>
<asrwt>0</asrwt>
<pdfrwt beam="1">  1       21 0.41620764E-02 0.12500000E+03</pdfrwt>
<pdfrwt beam="2">  1       21 0.22213821E-01 0.12500000E+03</pdfrwt>
<totfact> 0.68146947E+06</totfact>
</mgrwt>
</event>
<event>
 3    0  0.1368989E+001  0.1250000E+03  0.7546771E-02  0.1235069E+00
         21   -1    0    0  502  501  0.00000000000E+00  0.00000000000E+00  0.87729941141E+03  0.87729941141E+03  0.00000000000E+00 0.  1.
         21   -1    0    0  501  502 -0.00000000000E+00 -0.00000000000E+00 -0.44525847723E+01  0.44525847723E+01  0.00000000000E+00 0.  1.
         25    1    1    2    0    0  0.00000000000E+00  0.00000000000E+00  0.87284682664E+03  0.88175199618E+03  0.12500000000E+03 0.  0.
<mgrwt>
<rscale>  2 0.12500000E+03</rscale>
<asrwt>0</asrwt>
<pdfrwt beam="1">  1       21 0.13496900E+00 0.12500000E+03</pdfrwt>
<pdfrwt beam="2">  1       21 0.68501374E-03 0.12500000E+03</pdfrwt>
<totfact> 0.26825619E+06</totfact>
</mgrwt>
</event>
<event>
 3    0  0.1748297E+001  0.1250000E+03  0.7546771E-02  0.1235069E+00
         21   -1    0    0  502  501  0.00000000000E+00  0.00000000000E+00  0.71164880190E+02  0.71164880190E+02  0.00000000000E+00 0.  1.
         21   -1    0    0  501  502 -0.00000000000E+00 -0.00000000000E+00 -0.54890136674E+02  0.54890136674E+02  0.00000000000E+00 0.  1.
         25    1    1    2    0    0  0.00000000000E+00  0.00000000000E+00  0.16274743517E+02  0.12605501686E+03  0.12500000000E+03 0.  0.
<mgrwt>
<rscale>  2 0.12500000E+03</rscale>
<asrwt>0</asrwt>
<pdfrwt beam="1">  1       21 0.10948443E-01 0.12500000E+03</pdfrwt>
<pdfrwt beam="2">  1       21 0.84446364E-02 0.12500000E+03</pdfrwt>
<totfact> 0.73898456E+06</totfact>
</mgrwt>
</event>
<event>
 3    0  0.1703376E+001  0.1250000E+03  0.7546771E-02  0.1235069E+00
         21   -1    0    0  502  501  0.00000000000E+00  0.00000000000E+00  0.15184116803E+03  0.15184116803E+03  0.00000000000E+00 0.  1.
         21   -1    0    0  501  502 -0.00000000000E+00 -0.00000000000E+00 -0.25725895359E+02  0.25725895359E+02  0.00000000000E+00 0.  1.
         25    1    1    2    0    0  0.00000000000E+00  0.00000000000E+00  0.12611527267E+03  0.17756706339E+03  0.12500000000E+03 0.  0.
<mgrwt>
<rscale>  2 0.12500000E+03</rscale>
<asrwt>0</asrwt>
<pdfrwt beam="1">  1       21 0.23360179E-01 0.12500000E+03</pdfrwt>
<pdfrwt beam="2">  1       21 0.39578301E-02 0.12500000E+03</pdfrwt>
<totfact> 0.67431737E+06</totfact>
</mgrwt>
</event>
<event>
 3    0  0.1724880E+001  0.1250000E+03  0.7546771E-02  0.1235069E+00
         21   -1    0    0  502  501  0.00000000000E+00  0.00000000000E+00  0.56250701819E+02  0.56250701819E+02  0.00000000000E+00 0. -1.
         21   -1    0    0  501  502 -0.00000000000E+00 -0.00000000000E+00 -0.69443578011E+02  0.69443578011E+02  0.00000000000E+00 0. -1.
         25    1    1    2    0    0  0.00000000000E+00  0.00000000000E+00 -0.13192876192E+02  0.12569427983E+03  0.12500000000E+03 0.  0.
<mgrwt>
<rscale>  2 0.12500000E+03</rscale>
<asrwt>0</asrwt>
<pdfrwt beam="1">  1       21 0.86539542E-02 0.12500000E+03</pdfrwt>
<pdfrwt beam="2">  1       21 0.10683627E-01 0.12500000E+03</pdfrwt>
<totfact> 0.73948331E+06</totfact>
</mgrwt>
</event>
<event>
 3    0  0.1671758E+001  0.1250000E+03  0.7546771E-02  0.1235069E+00
         21   -1    0    0  502  501  0.00000000000E+00  0.00000000000E+00  0.24286670448E+02  0.24286670448E+02  0.00000000000E+00 0. -1.
         21   -1    0    0  501  502 -0.00000000000E+00 -0.00000000000E+00 -0.16083925577E+03  0.16083925577E+03  0.00000000000E+00 0. -1.
         25    1    1    2    0    0  0.00000000000E+00  0.00000000000E+00 -0.13655258533E+03  0.18512592622E+03  0.12500000000E+03 0.  0.
<mgrwt>
<rscale>  2 0.12500000E+03</rscale>
<asrwt>0</asrwt>
<pdfrwt beam="1">  1       21 0.37364109E-02 0.12500000E+03</pdfrwt>
<pdfrwt beam="2">  1       21 0.24744501E-01 0.12500000E+03</pdfrwt>
<totfact> 0.66568316E+06</totfact>
</mgrwt>
</event>
<event>
 3    0  0.1387773E+001  0.1250000E+03  0.7546771E-02  0.1235069E+00
         21   -1    0    0  502  501  0.00000000000E+00  0.00000000000E+00  0.64586143377E+01  0.64586143377E+01  0.00000000000E+00 0. -1.
         21   -1    0    0  501  502 -0.00000000000E+00 -0.00000000000E+00 -0.60481239408E+03  0.60481239408E+03  0.00000000000E+00 0. -1.
         25    1    1    2    0    0  0.00000000000E+00  0.00000000000E+00 -0.59835377974E+03  0.61127100842E+03  0.12500000000E+03 0.  0.
<mgrwt>
<rscale>  2 0.12500000E+03</rscale>
<asrwt>0</asrwt>
<pdfrwt beam="1">  1       21 0.99363305E-03 0.12500000E+03</pdfrwt>
<pdfrwt beam="2">  1       21 0.93048054E-01 0.12500000E+03</pdfrwt>
<totfact> 0.36587826E+06</totfact>
</mgrwt>
</event>
<event>
 3    0  0.1747308E+001  0.1250000E+03  0.7546771E-02  0.1235069E+00
         21   -1    0    0  502  501  0.00000000000E+00  0.00000000000E+00  0.78582512306E+02  0.78582512306E+02  0.00000000000E+00 0.  1.
         21   -1    0    0  501  502 -0.00000000000E+00 -0.00000000000E+00 -0.49708896870E+02  0.49708896870E+02  0.00000000000E+00 0.  1.
         25    1    1    2    0    0  0.00000000000E+00  0.00000000000E+00  0.28873615436E+02  0.12829140918E+03  0.12500000000E+03 0.  0.
<mgrwt>
<rscale>  2 0.12500000E+03</rscale>
<asrwt>0</asrwt>
<pdfrwt beam="1">  1       21 0.12089617E-01 0.12500000E+03</pdfrwt>
<pdfrwt beam="2">  1       21 0.76475226E-02 0.12500000E+03</pdfrwt>
<totfact> 0.73594230E+06</totfact>
</mgrwt>
</event>
<event>
 3    0  0.1748738E+001  0.1250000E+03  0.7546771E-02  0.1235069E+00
         21   -1    0    0  502  501  0.00000000000E+00  0.00000000000E+00  0.77332959500E+02  0.77332959500E+02  0.00000000000E+00 0.  1.
         21   -1    0    0  501  502 -0.00000000000E+00 -0.00000000000E+00 -0.50512097627E+02  0.50512097627E+02  0.00000000000E+00 0.  1.
         25    1    1    2    0    0  0.00000000000E+00  0.00000000000E+00  0.26820861873E+02  0.12784505713E+03  0.12500000000E+03 0.  0.
<mgrwt>
<rscale>  2 0.12500000E+03</rscale>
<asrwt>0</asrwt>
<pdfrwt beam="1">  1       21 0.11897378E-01 0.12500000E+03</pdfrwt>
<pdfrwt beam="2">  1       21 0.77710919E-02 0.12500000E+03</pdfrwt>
<totfact> 0.73654500E+06</totfact>
</mgrwt>
</event>
<event>
 3    0  0.1652800E+001  0.1250000E+03  0.7546771E-02  0.1235069E+00
         21   -1    0    0  502  501  0.00000000000E+00  0.00000000000E+00  0.19324491462E+02  0.19324491462E+02  0.00000000000E+00 0. -1.
         21   -1    0    0  501  502 -0.00000000000E+00 -0.00000000000E+00 -0.20213986006E+03  0.20213986006E+03  0.00000000000E+00 0. -1.
         25    1    1    2    0    0  0.00000000000E+00  0.00000000000E+00 -0.18281536860E+03  0.22146435152E+03  0.12500000000E+03 0.  0.
<mgrwt>
<rscale>  2 0.12500000E+03</rscale>
<asrwt>0</asrwt>
<pdfrwt beam="1">  1       21 0.29729988E-02 0.12500000E+03</pdfrwt>
<pdfrwt beam="2">  1       21 0.31098439E-01 0.12500000E+03</pdfrwt>
<totfact> 0.62673172E+06</totfact>
</mgrwt>
</event>
<event>
 3    0  0.1750369E+001  0.1250000E+03  0.7546771E-02  0.1235069E+00
         21   -1    0    0  502  501  0.00000000000E+00  0.00000000000E+00  0.57921647148E+02  0.57921647148E+02  0.00000000000E+00 0.  1.
         21   -1    0    0  501  502 -0.00000000000E+00 -0.00000000000E+00 -0.67440243714E+02  0.67440243714E+02  0.00000000000E+00 0.  1.
         25    1    1    2    0    0  0.00000000000E+00  0.00000000000E+00 -0.95185965661E+01  0.12536189086E+03  0.12500000000E+03 0.  0.
<mgrwt>
<rscale>  2 0.12500000E+03</rscale>
<asrwt>0</asrwt>
<pdfrwt beam="1">  1       21 0.89110226E-02 0.12500000E+03</pdfrwt>
<pdfrwt beam="2">  1       21 0.10375422E-01 0.12500000E+03</pdfrwt>
<totfact> 0.73994717E+06</totfact>
</mgrwt>
</event>
<event>
 3    0  0.1745102E+001  0.1250000E+03  0.7546771E-02  0.1235069E+00
         21   -1    0    0  502  501  0.00000000000E+00  0.00000000000E+00  0.45872640420E+02  0.45872640420E+02  0.00000000000E+00 0.  1.
         21   -1    0    0  501  502 -0.00000000000E+00 -0.00000000000E+00 -0.85154243668E+02  0.85154243668E+02  0.00000000000E+00 0.  1.
         25    1    1    2    0    0  0.00000000000E+00  0.00000000000E+00 -0.39281603248E+02  0.13102688409E+03  0.12500000000E+03 0.  0.
<mgrwt>
<rscale>  2 0.12500000E+03</rscale>
<asrwt>0</asrwt>
<pdfrwt beam="1">  1       21 0.70573294E-02 0.12500000E+03</pdfrwt>
<pdfrwt beam="2">  1       21 0.13100653E-01 0.12500000E+03</pdfrwt>
<totfact> 0.73227049E+06</totfact>
</mgrwt>
</event>
<event>
 3    0  0.1561365E+001  0.1250000E+03  0.7546771E-02  0.1235069E+00
         21   -1    0    0  502  501  0.00000000000E+00  0.00000000000E+00  0.37076813729E+03  0.37076813729E+03  0.00000000000E+00 0.  1.
         21   -1    0    0  501  502 -0.00000000000E+00 -0.00000000000E+00 -0.10535560117E+02  0.10535560117E+02  0.00000000000E+00 0.  1.
         25    1    1    2    0    0  0.00000000000E+00  0.00000000000E+00  0.36023257718E+03  0.38130369741E+03  0.12500000000E+03 0.  0.
<mgrwt>
<rscale>  2 0.12500000E+03</rscale>
<asrwt>0</asrwt>
<pdfrwt beam="1">  1       21 0.57041242E-01 0.12500000E+03</pdfrwt>
<pdfrwt beam="2">  1       21 0.16208557E-02 0.12500000E+03</pdfrwt>
<totfact> 0.49306456E+06</totfact>
</mgrwt>
</event>
<event>
 3    0  0.1368989E+001  0.1250000E+03  0.7546771E-02  0.1235069E+00
         21   -1    0    0  502  501  0.00000000000E+00  0.00000000000E+00  0.50160382092E+01  0.50160382092E+01  0.00000000000E+00 0.  1.
         21   -1    0    0  501  502 -0.00000000000E+00 -0.00000000000E+00 -0.77875204237E+03  0.77875204237E+03  0.00000000000E+00 0.  1.
         25    1    1    2    0    0  0.00000000000E+00  0.00000000000E+00 -0.77373600416E+03  0.78376808058E+03  0.12500000000E+03 0.  0.
<mgrwt>
<rscale>  2 0.12500000E+03</rscale>
<asrwt>0</asrwt>
<pdfrwt beam="1">  1       21 0.77169790E-03 0.12500000E+03</pdfrwt>
<pdfrwt beam="2">  1       21 0.11980805E+00 0.12500000E+03</pdfrwt>
<totfact> 0.29907708E+06</totfact>
</mgrwt>
</event>
<event>
 3    0  0.1368989E+001  0.1250000E+03  0.7546771E-02  0.1235069E+00
         21   -1    0    0  502  501  0.00000000000E+00  0.00000000000E+00  0.78900659948E+03  0.78900659948E+03  0.00000000000E+00 0.  1.
         21   -1    0    0  501  502 -0.00000000000E+00 -0.00000000000E+00 -0.49508457883E+01  0.49508457883E+01  0.00000000000E+00 0.  1.
         25    1    1    2    0    0  0.00000000000E+00  0.00000000000E+00  0.78405575369E+03  0.79395744527E+03  0.12500000000E+03 0.  0.
<mgrwt>
<rscale>  2 0.12500000E+03</rscale>
<asrwt>0</asrwt>
<pdfrwt beam="1">  1       21 0.12138553E+00 0.12500000E+03</pdfrwt>
<pdfrwt beam="2">  1       21 0.76166921E-03 0.12500000E+03</pdfrwt>
<totfact> 0.29564025E+06</totfact>
</mgrwt>
</event>
<event>
 3    0  0.1628063E+001  0.1250000E+03  0.7546771E-02  0.1235069E+00
         21   -1    0    0  502  501  0.00000000000E+00  0.00000000000E+00  0.27322594344E+03  0.27322594344E+03  0.00000000000E+00 0.  1.
         21   -1    0    0  501  502 -0.00000000000E+00 -0.00000000000E+00 -0.14296775594E+02  0.14296775594E+02  0.00000000000E+00 0.  1.
         25    1    1    2    0    0  0.00000000000E+00  0.00000000000E+00  0.25892916785E+03  0.28752271904E+03  0.12500000000E+03 0.  0.
<mgrwt>
<rscale>  2 0.12500000E+03</rscale>
<asrwt>0</asrwt>
<pdfrwt beam="1">  1       21 0.42034757E-01 0.12500000E+03</pdfrwt>
<pdfrwt beam="2">  1       21 0.21995041E-02 0.12500000E+03</pdfrwt>
<totfact> 0.56509293E+06</totfact>
</mgrwt>
</event>
<event>
 3    0  0.1696587E+001  0.1250000E+03  0.7546771E-02  0.1235069E+00
         21   -1    0    0  502  501  0.00000000000E+00  0.00000000000E+00  0.12672022745E+03  0.12672022745E+03  0.00000000000E+00 0. -1.
         21   -1    0    0  501  502 -0.00000000000E+00 -0.00000000000E+00 -0.30825781159E+02  0.30825781159E+02  0.00000000000E+00 0. -1.
         25    1    1    2    0    0  0.00000000000E+00  0.00000000000E+00  0.95894446295E+02  0.15754600861E+03  0.12500000000E+03 0.  0.
<mgrwt>
<rscale>  2 0.12500000E+03</rscale>
<asrwt>0</asrwt>
<pdfrwt beam="1">  1       21 0.19495419E-01 0.12500000E+03</pdfrwt>
<pdfrwt beam="2">  1       21 0.47424279E-02 0.12500000E+03</pdfrwt>
<totfact> 0.69820597E+06</totfact>
</mgrwt>
</event>
<event>
 3    0  0.1680878E+001  0.1250000E+03  0.7546771E-02  0.1235069E+00
         21   -1    0    0  502  501  0.00000000000E+00  0.00000000000E+00  0.15110561025E+03  0.15110561025E+03  0.00000000000E+00 0. -1.
         21   -1    0    0  501  502 -0.00000000000E+00 -0.00000000000E+00 -0.25851124875E+02  0.25851124875E+02  0.00000000000E+00 0. -1.
         25    1    1    2    0    0  0.00000000000E+00  0.00000000000E+00  0.12525448538E+03  0.17695673513E+03  0.12500000000E+03 0.  0.
<mgrwt>
<rscale>  2 0.12500000E+03</rscale>
<asrwt>0</asrwt>
<pdfrwt beam="1">  1       21 0.23247016E-01 0.12500000E+03</pdfrwt>
<pdfrwt beam="2">  1       21 0.39770962E-02 0.12500000E+03</pdfrwt>
<totfact> 0.67502377E+06</totfact>
</mgrwt>
</event>
<event>
 3    0  0.1429547E+001  0.1250000E+03  0.7546771E-02  0.1235069E+00
         21   -1    0    0  502  501  0.00000000000E+00  0.00000000000E+00  0.51421163892E+03  0.51421163892E+03  0.00000000000E+00 0. -1.
         21   -1    0    0  501  502 -0.00000000000E+00 -0.00000000000E+00 -0.75965802878E+01  0.75965802878E+01  0.00000000000E+00 0. -1.
         25    1    1    2    0    0  0.00000000000E+00  0.00000000000E+00  0.50661505864E+03  0.52180821921E+03  0.12500000000E+03 0.  0.
<mgrwt>
<rscale>  2 0.12500000E+03</rscale>
<asrwt>0</asrwt>
<pdfrwt beam="1">  1       21 0.79109456E-01 0.12500000E+03</pdfrwt>
<pdfrwt beam="2">  1       21 0.11687051E-02 0.12500000E+03</pdfrwt>
<totfact> 0.40885541E+06</totfact>
</mgrwt>
</event>
<event>
 3    0  0.1499975E+001  0.1250000E+03  0.7546771E-02  0.1235069E+00
         21   -1    0    0  502  501  0.00000000000E+00  0.00000000000E+00  0.46630587908E+03  0.46630587908E+03  0.00000000000E+00 0.  1.
         21   -1    0    0  501  502 -0.00000000000E+00 -0.00000000000E+00 -0.83770121185E+01  0.83770121185E+01  0.00000000000E+00 0.  1.
         25    1    1    2    0    0  0.00000000000E+00  0.00000000000E+00  0.45792886696E+03  0.47468289120E+03  0.12500000000E+03 0.  0.
<mgrwt>
<rscale>  2 0.12500000E+03</rscale>
<asrwt>0</asrwt>
<pdfrwt beam="1">  1       21 0.71739346E-01 0.12500000E+03</pdfrwt>
<pdfrwt beam="2">  1       21 0.12887715E-02 0.12500000E+03</pdfrwt>
<totfact> 0.43451222E+06</totfact>
</mgrwt>
</event>
<event>
 3    0  0.1496079E+001  0.1250000E+03  0.7546771E-02  0.1235069E+00
         21   -1    0    0  502  501  0.00000000000E+00  0.00000000000E+00  0.80082661673E+01  0.80082661673E+01  0.00000000000E+00 0.  1.
         21   -1    0    0  501  502 -0.00000000000E+00 -0.00000000000E+00 -0.48777724396E+03  0.48777724396E+03  0.00000000000E+00 0.  1.
         25    1    1    2    0    0  0.00000000000E+00  0.00000000000E+00 -0.47976897779E+03  0.49578551013E+03  0.12500000000E+03 0.  0.
<mgrwt>
<rscale>  2 0.12500000E+03</rscale>
<asrwt>0</asrwt>
<pdfrwt beam="1">  1       21 0.12320409E-02 0.12500000E+03</pdfrwt>
<pdfrwt beam="2">  1       21 0.75042656E-01 0.12500000E+03</pdfrwt>
<totfact> 0.42273557E+06</totfact>
</mgrwt>
</event>
<event>
 3    0  0.1490441E+001  0.1250000E+03  0.7546771E-02  0.1235069E+00
         21   -1    0    0  502  501  0.00000000000E+00  0.00000000000E+00  0.79597929758E+01  0.79597929758E+01  0.00000000000E+00 0.  1.
         21   -1    0    0  501  502 -0.00000000000E+00 -0.00000000000E+00 -0.49074768802E+03  0.49074768802E+03  0.00000000000E+00 0.  1.
         25    1    1    2    0    0  0.00000000000E+00  0.00000000000E+00 -0.48278789505E+03  0.49870748100E+03  0.12500000000E+03 0.  0.
<mgrwt>
<rscale>  2 0.12500000E+03</rscale>
<asrwt>0</asrwt>
<pdfrwt beam="1">  1       21 0.12245832E-02 0.12500000E+03</pdfrwt>
<pdfrwt beam="2">  1       21 0.75499665E-01 0.12500000E+03</pdfrwt>
<totfact> 0.42114246E+06</totfact>
</mgrwt>
</event>
<event>
 3    0  0.1368989E+001  0.1250000E+03  0.7546771E-02  0.1235069E+00
         21   -1    0    0  502  501  0.00000000000E+00  0.00000000000E+00  0.11248338984E+04  0.11248338984E+04  0.00000000000E+00 0.  1.
         21   -1    0    0  501  502 -0.00000000000E+00 -0.00000000000E+00 -0.34727349572E+01  0.34727349572E+01  0.00000000000E+00 0.  1.
         25    1    1    2    0    0  0.00000000000E+00  0.00000000000E+00  0.11213611634E+04  0.11283066333E+04  0.12500000000E+03 0.  0.
<mgrwt>
<rscale>  2 0.12500000E+03</rscale>
<asrwt>0</asrwt>
<pdfrwt beam="1">  1       21 0.17305108E+00 0.12500000E+03</pdfrwt>
<pdfrwt beam="2">  1       21 0.53426781E-03 0.12500000E+03</pdfrwt>
<totfact> 0.20632657E+06</totfact>
</mgrwt>
</event>
<event>
 3    0  0.1622549E+001  0.1250000E+03  0.7546771E-02  0.1235069E+00
         21   -1    0    0  502  501  0.00000000000E+00  0.00000000000E+00  0.13448467586E+02  0.13448467586E+02  0.00000000000E+00 0.  1.
         21   -1    0    0  501  502 -0.00000000000E+00 -0.00000000000E+00 -0.29046060268E+03  0.29046060268E+03  0.00000000000E+00 0.  1.
         25    1    1    2    0    0  0.00000000000E+00  0.00000000000E+00 -0.27701213509E+03  0.30390907026E+03  0.12500000000E+03 0.  0.
<mgrwt>
<rscale>  2 0.12500000E+03</rscale>
<asrwt>0</asrwt>
<pdfrwt beam="1">  1       21 0.20689953E-02 0.12500000E+03</pdfrwt>
<pdfrwt beam="2">  1       21 0.44686241E-01 0.12500000E+03</pdfrwt>
<totfact> 0.55132874E+06</totfact>
</mgrwt>
</event>
<event>
 3    0  0.1706698E+001  0.1250000E+03  0.7546771E-02  0.1235069E+00
         21   -1    0    0  502  501  0.00000000000E+00  0.00000000000E+00  0.15651239153E+03  0.15651239153E+03  0.00000000000E+00 0.  1.
         21   -1    0    0  501  502 -0.00000000000E+00 -0.00000000000E+00 -0.24958087739E+02  0.24958087739E+02  0.00000000000E+00 0.  1.
         25    1    1    2    0    0  0.00000000000E+00  0.00000000000E+00  0.13155430379E+03  0.18147047927E+03  0.12500000000E+03 0.  0.
<mgrwt>
<rscale>  2 0.12500000E+03</rscale>
<asrwt>0</asrwt>
<pdfrwt beam="1">  1       21 0.24078829E-01 0.12500000E+03</pdfrwt>
<pdfrwt beam="2">  1       21 0.38397059E-02 0.12500000E+03</pdfrwt>
<totfact> 0.66983247E+06</totfact>
</mgrwt>
</event>
<event>
 3    0  0.1732380E+001  0.1250000E+03  0.7546771E-02  0.1235069E+00
         21   -1    0    0  502  501  0.00000000000E+00  0.00000000000E+00  0.10415193330E+03  0.10415193330E+03  0.00000000000E+00 0.  1.
         21   -1    0    0  501  502 -0.00000000000E+00 -0.00000000000E+00 -0.37505304764E+02  0.37505304764E+02  0.00000000000E+00 0.  1.
         25    1    1    2    0    0  0.00000000000E+00  0.00000000000E+00  0.66646628533E+02  0.14165723806E+03  0.12500000000E+03 0.  0.
<mgrwt>
<rscale>  2 0.12500000E+03</rscale>
<asrwt>0</asrwt>
<pdfrwt beam="1">  1       21 0.16023374E-01 0.12500000E+03</pdfrwt>
<pdfrwt beam="2">  1       21 0.57700469E-02 0.12500000E+03</pdfrwt>
<totfact> 0.71823691E+06</totfact>
</mgrwt>
</event>
<event>
 3    0  0.1725726E+001  0.1250000E+03  0.7546771E-02  0.1235069E+00
         21   -1    0    0  502  501  0.00000000000E+00  0.00000000000E+00  0.58511785333E+02  0.58511785333E+02  0.00000000000E+00 0. -1.
         21   -1    0    0  501  502 -0.00000000000E+00 -0.00000000000E+00 -0.66760054881E+02  0.66760054881E+02  0.00000000000E+00 0. -1.
         25    1    1    2    0    0  0.00000000000E+00  0.00000000000E+00 -0.82482695476E+01  0.12527184021E+03  0.12500000000E+03 0.  0.
<mgrwt>
<rscale>  2 0.12500000E+03</rscale>
<asrwt>0</asrwt>
<pdfrwt beam="1">  1       21 0.90018132E-02 0.12500000E+03</pdfrwt>
<pdfrwt beam="2">  1       21 0.10270778E-01 0.12500000E+03</pdfrwt>
<totfact> 0.74006873E+06</totfact>
</mgrwt>
</event>
<event>
 3    0  0.1368989E+001  0.1250000E+03  0.7546771E-02  0.1235069E+00
         21   -1    0    0  502  501  0.00000000000E+00  0.00000000000E+00  0.23466184076E+01  0.23466184076E+01  0.00000000000E+00 0.  1.
         21   -1    0    0  501  502 -0.00000000000E+00 -0.00000000000E+00 -0.16646294035E+04  0.16646294035E+04  0.00000000000E+00 0.  1.
         25    1    1    2    0    0  0.00000000000E+00  0.00000000000E+00 -0.16622827850E+04  0.16669760219E+04  0.12500000000E+03 0.  0.
<mgrwt>
<rscale>  2 0.12500000E+03</rscale>
<asrwt>0</asrwt>
<pdfrwt beam="1">  1       21 0.36101786E-03 0.12500000E+03</pdfrwt>
<pdfrwt beam="2">  1       21 0.25609708E+00 0.12500000E+03</pdfrwt>
<totfact> 0.11688122E+06</totfact>
</mgrwt>
</event>
<event>
 3    0  0.1593011E+001  0.1250000E+03  0.7546771E-02  0.1235069E+00
         21   -1    0    0  502  501  0.00000000000E+00  0.00000000000E+00  0.33249209542E+03  0.33249209542E+03  0.00000000000E+00 0.  1.
         21   -1    0    0  501  502 -0.00000000000E+00 -0.00000000000E+00 -0.11748399597E+02  0.11748399597E+02  0.00000000000E+00 0.  1.
         25    1    1    2    0    0  0.00000000000E+00  0.00000000000E+00  0.32074369582E+03  0.34424049502E+03  0.12500000000E+03 0.  0.
<mgrwt>
<rscale>  2 0.12500000E+03</rscale>
<asrwt>0</asrwt>
<pdfrwt beam="1">  1       21 0.51152623E-01 0.12500000E+03</pdfrwt>
<pdfrwt beam="2">  1       21 0.18074463E-02 0.12500000E+03</pdfrwt>
<totfact> 0.51966623E+06</totfact>
</mgrwt>
</event>
<event>
 3    0  0.1650086E+001  0.1250000E+03  0.7546771E-02  0.1235069E+00
         21   -1    0    0  502  501  0.00000000000E+00  0.00000000000E+00  0.16122449509E+02  0.16122449509E+02  0.00000000000E+00 0.  1.
         21   -1    0    0  501  502 -0.00000000000E+00 -0.00000000000E+00 -0.24228638445E+03  0.24228638445E+03  0.00000000000E+00 0.  1.
         25    1    1    2    0    0  0.00000000000E+00  0.00000000000E+00 -0.22616393494E+03  0.25840883396E+03  0.12500000000E+03 0.  0.
<mgrwt>
<rscale>  2 0.12500000E+03</rscale>
<asrwt>0</asrwt>
<pdfrwt beam="1">  1       21 0.24803769E-02 0.12500000E+03</pdfrwt>
<pdfrwt beam="2">  1       21 0.37274828E-01 0.12500000E+03</pdfrwt>
<totfact> 0.59095419E+06</totfact>
</mgrwt>
</event>
<event>
 3    0  0.1691950E+001  0.1250000E+03  0.7546771E-02  0.1235069E+00
         21   -1    0    0  502  501  0.00000000000E+00  0.00000000000E+00  0.29069825548E+02  0.29069825548E+02  0.00000000000E+00 0. -1.
         21   -1    0    0  501  502 -0.00000000000E+00 -0.00000000000E+00 -0.13437473140E+03  0.13437473140E+03  0.00000000000E+00 0. -1.
         25    1    1    2    0    0  0.00000000000E+00  0.00000000000E+00 -0.10530490586E+03  0.16344455695E+03  0.12500000000E+03 0.  0.
<mgrwt>
<rscale>  2 0.12500000E+03</rscale>
<asrwt>0</asrwt>
<pdfrwt beam="1">  1       21 0.44722808E-02 0.12500000E+03</pdfrwt>
<pdfrwt beam="2">  1       21 0.20673036E-01 0.12500000E+03</pdfrwt>
<totfact> 0.69101038E+06</totfact>
</mgrwt>
</event>
<event>
 3    0  0.1650913E+001  0.1250000E+03  0.7546771E-02  0.1235069E+00
         21   -1    0    0  502  501  0.00000000000E+00  0.00000000000E+00  0.16145404278E+02  0.16145404278E+02  0.00000000000E+00 0.  1.
         21   -1    0    0  501  502 -0.00000000000E+00 -0.00000000000E+00 -0.24194191317E+03  0.24194191317E+03  0.00000000000E+00 0.  1.
         25    1    1    2    0    0  0.00000000000E+00  0.00000000000E+00 -0.22579650890E+03  0.25808731745E+03  0.12500000000E+03 0.  0.
<mgrwt>
<rscale>  2 0.12500000E+03</rscale>
<asrwt>0</asrwt>
<pdfrwt beam="1">  1       21 0.24839084E-02 0.12500000E+03</pdfrwt>
<pdfrwt beam="2">  1       21 0.37221833E-01 0.12500000E+03</pdfrwt>
<totfact> 0.59125026E+06</totfact>
</mgrwt>
</event>
<event>
 3    0  0.1368989E+001  0.1250000E+03  0.7546771E-02  0.1235069E+00
         21   -1    0    0  502  501  0.00000000000E+00  0.00000000000E+00  0.40921530054E+01  0.40921530054E+01  0.00000000000E+00 0.  1.
         21   -1    0    0  501  502 -0.00000000000E+00 -0.00000000000E+00 -0.95457085668E+03  0.95457085668E+03  0.00000000000E+00 0.  1.
         25    1    1    2    0    0  0.00000000000E+00  0.00000000000E+00 -0.95047870368E+03  0.95866300969E+03  0.12500000000E+03 0.  0.
<mgrwt>
<rscale>  2 0.12500000E+03</rscale>
<asrwt>0</asrwt>
<pdfrwt beam="1">  1       21 0.62956209E-03 0.12500000E+03</pdfrwt>
<pdfrwt beam="2">  1       21 0.14685704E+00 0.12500000E+03</pdfrwt>
<totfact> 0.24680892E+06</totfact>
</mgrwt>
</event>
<event>
 3    0  0.1744949E+001  0.1250000E+03  0.7546771E-02  0.1235069E+00
         21   -1    0    0  502  501  0.00000000000E+00  0.00000000000E+00  0.94802368348E+02  0.94802368348E+02  0.00000000000E+00 0.  1.
         21   -1    0    0  501  502 -0.00000000000E+00 -0.00000000000E+00 -0.41204139391E+02  0.41204139391E+02  0.00000000000E+00 0.  1.
         25    1    1    2    0    0  0.00000000000E+00  0.00000000000E+00  0.53598228957E+02  0.13600650774E+03  0.12500000000E+03 0.  0.
<mgrwt>
<rscale>  2 0.12500000E+03</rscale>
<asrwt>0</asrwt>
<pdfrwt beam="1">  1       21 0.14584980E-01 0.12500000E+03</pdfrwt>
<pdfrwt beam="2">  1       21 0.63390984E-02 0.12500000E+03</pdfrwt>
<totfact> 0.72563477E+06</totfact>
</mgrwt>
</event>
<event>
 3    0  0.1368989E+001  0.1250000E+03  0.7546771E-02  0.1235069E+00
         21   -1    0    0  502  501  0.00000000000E+00  0.00000000000E+00  0.50300398897E+01  0.50300398897E+01  0.00000000000E+00 0.  1.
         21   -1    0    0  501  502 -0.00000000000E+00 -0.00000000000E+00 -0.77658429867E+03  0.77658429867E+03  0.00000000000E+00 0.  1.
         25    1    1    2    0    0  0.00000000000E+00  0.00000000000E+00 -0.77155425878E+03  0.78161433856E+03  0.12500000000E+03 0.  0.
<mgrwt>
<rscale>  2 0.12500000E+03</rscale>
<asrwt>0</asrwt>
<pdfrwt beam="1">  1       21 0.77385196E-03 0.12500000E+03</pdfrwt>
<pdfrwt beam="2">  1       21 0.11947456E+00 0.12500000E+03</pdfrwt>
<totfact> 0.29981077E+06</totfact>
</mgrwt>
</event>
<event>
 3    0  0.1703197E+001  0.1250000E+03  0.7546771E-02  0.1235069E+00
         21   -1    0    0  502  501  0.00000000000E+00  0.00000000000E+00  0.35700209491E+02  0.35700209491E+02  0.00000000000E+00 0. -1.
         21   -1    0    0  501  502 -0.00000000000E+00 -0.00000000000E+00 -0.10941812543E+03  0.10941812543E+03  0.00000000000E+00 0. -1.
         25    1    1    2    0    0  0.00000000000E+00  0.00000000000E+00 -0.73717915939E+02  0.14511833492E+03  0.12500000000E+03 0.  0.
<mgrwt>
<rscale>  2 0.12500000E+03</rscale>
<asrwt>0</asrwt>
<pdfrwt beam="1">  1       21 0.54923400E-02 0.12500000E+03</pdfrwt>
<pdfrwt beam="2">  1       21 0.16833558E-01 0.12500000E+03</pdfrwt>
<totfact> 0.71377958E+06</totfact>
</mgrwt>
</event>
<event>
 3    0  0.1534927E+001  0.1250000E+03  0.7546771E-02  0.1235069E+00
         21   -1    0    0  502  501  0.00000000000E+00  0.00000000000E+00  0.38927334359E+03  0.38927334359E+03  0.00000000000E+00 0. -1.
         21   -1    0    0  501  502 -0.00000000000E+00 -0.00000000000E+00 -0.10034722552E+02  0.10034722552E+02  0.00000000000E+00 0. -1.
         25    1    1    2    0    0  0.00000000000E+00  0.00000000000E+00  0.37923862104E+03  0.39930806615E+03  0.12500000000E+03 0.  0.
<mgrwt>
<rscale>  2 0.12500000E+03</rscale>
<asrwt>0</asrwt>
<pdfrwt beam="1">  1       21 0.59888195E-01 0.12500000E+03</pdfrwt>
<pdfrwt beam="2">  1       21 0.15438038E-02 0.12500000E+03</pdfrwt>
<totfact> 0.48087285E+06</totfact>
</mgrwt>
</event>
<event>
 3    0  0.1674728E+001  0.1250000E+03  0.7546771E-02  0.1235069E+00
         21   -1    0    0  502  501  0.00000000000E+00  0.00000000000E+00  0.20274921403E+03  0.20274921403E+03  0.00000000000E+00 0.  1.
         21   -1    0    0  501  502 -0.00000000000E+00 -0.00000000000E+00 -0.19266412541E+02  0.19266412541E+02  0.00000000000E+00 0.  1.
         25    1    1    2    0    0  0.00000000000E+00  0.00000000000E+00  0.18348280149E+03  0.22201562657E+03  0.12500000000E+03 0.  0.
<mgrwt>
<rscale>  2 0.12500000E+03</rscale>
<asrwt>0</asrwt>
<pdfrwt beam="1">  1       21 0.31192185E-01 0.12500000E+03</pdfrwt>
<pdfrwt beam="2">  1       21 0.29640636E-02 0.12500000E+03</pdfrwt>
<totfact> 0.62617104E+06</totfact>
</mgrwt>
</event>
<event>
 3    0  0.1725959E+001  0.1250000E+03  0.7546771E-02  0.1235069E+00
         21   -1    0    0  502  501  0.00000000000E+00  0.00000000000E+00  0.65167979046E+02  0.65167979046E+02  0.00000000000E+00 0. -1.
         21   -1    0    0  501  502 -0.00000000000E+00 -0.00000000000E+00 -0.59941248097E+02  0.59941248097E+02  0.00000000000E+00 0. -1.
         25    1    1    2    0    0  0.00000000000E+00  0.00000000000E+00  0.52267309495E+01  0.12510922714E+03  0.12500000000E+03 0.  0.
<mgrwt>
<rscale>  2 0.12500000E+03</rscale>
<asrwt>0</asrwt>
<pdfrwt beam="1">  1       21 0.10025843E-01 0.12500000E+03</pdfrwt>
<pdfrwt beam="2">  1       21 0.92217305E-02 0.12500000E+03</pdfrwt>
<totfact> 0.74028829E+06</totfact>
</mgrwt>
</event>
<event>
 3    0  0.1368989E+001  0.1250000E+03  0.7546771E-02  0.1235069E+00
         21   -1    0    0  502  501  0.00000000000E+00  0.00000000000E+00  0.44514782525E+01  0.44514782525E+01  0.00000000000E+00 0.  1.
         21   -1    0    0  501  502 -0.00000000000E+00 -0.00000000000E+00 -0.87751748486E+03  0.87751748486E+03  0.00000000000E+00 0.  1.
         25    1    1    2    0    0  0.00000000000E+00  0.00000000000E+00 -0.87306600660E+03  0.88196896311E+03  0.12500000000E+03 0.  0.
<mgrwt>
<rscale>  2 0.12500000E+03</rscale>
<asrwt>0</asrwt>
<pdfrwt beam="1">  1       21 0.68484284E-03 0.12500000E+03</pdfrwt>
<pdfrwt beam="2">  1       21 0.13500268E+00 0.12500000E+03</pdfrwt>
<totfact> 0.26819287E+06</totfact>
</mgrwt>
</event>
<event>
 3    0  0.1368989E+001  0.1250000E+03  0.7546771E-02  0.1235069E+00
         21   -1    0    0  502  501  0.00000000000E+00  0.00000000000E+00  0.22950797776E+04  0.22950797776E+04  0.00000000000E+00 0. -1.
         21   -1    0    0  501  502 -0.00000000000E+00 -0.00000000000E+00 -0.17020105524E+01  0.17020105524E+01  0.00000000000E+00 0. -1.
         25    1    1    2    0    0  0.00000000000E+00  0.00000000000E+00  0.22933777670E+04  0.22967817881E+04  0.12500000000E+03 0.  0.
<mgrwt>
<rscale>  2 0.12500000E+03</rscale>
<asrwt>0</asrwt>
<pdfrwt beam="1">  1       21 0.35308672E+00 0.12500000E+03</pdfrwt>
<pdfrwt beam="2">  1       21 0.26184961E-03 0.12500000E+03</pdfrwt>
<totfact> 0.53992693E+05</totfact>
</mgrwt>
</event>
<event>
 3    0  0.1610359E+001  0.1250000E+03  0.7546771E-02  0.1235069E+00
         21   -1    0    0  502  501  0.00000000000E+00  0.00000000000E+00  0.29587174888E+03  0.29587174888E+03  0.00000000000E+00 0.  1.
         21   -1    0    0  501  502 -0.00000000000E+00 -0.00000000000E+00 -0.13202510935E+02  0.13202510935E+02  0.00000000000E+00 0.  1.
         25    1    1    2    0    0  0.00000000000E+00  0.00000000000E+00  0.28266923795E+03  0.30907425982E+03  0.12500000000E+03 0.  0.
<mgrwt>
<rscale>  2 0.12500000E+03</rscale>
<asrwt>0</asrwt>
<pdfrwt beam="1">  1       21 0.45518726E-01 0.12500000E+03</pdfrwt>
<pdfrwt beam="2">  1       21 0.20311557E-02 0.12500000E+03</pdfrwt>
<totfact> 0.54710400E+06</totfact>
</mgrwt>
</event>
<event>
 3    0  0.1457456E+001  0.1250000E+03  0.7546771E-02  0.1235069E+00
         21   -1    0    0  502  501  0.00000000000E+00  0.00000000000E+00  0.73173984107E+01  0.73173984107E+01  0.00000000000E+00 0. -1.
         21   -1    0    0  501  502 -0.00000000000E+00 -0.00000000000E+00 -0.53383043819E+03  0.53383043819E+03  0.00000000000E+00 0. -1.
         25    1    1    2    0    0  0.00000000000E+00  0.00000000000E+00 -0.52651303978E+03  0.54114783660E+03  0.12500000000E+03 0.  0.
<mgrwt>
<rscale>  2 0.12500000E+03</rscale>
<asrwt>0</asrwt>
<pdfrwt beam="1">  1       21 0.11257535E-02 0.12500000E+03</pdfrwt>
<pdfrwt beam="2">  1       21 0.82127765E-01 0.12500000E+03</pdfrwt>
<totfact> 0.39896977E+06</totfact>
</mgrwt>
</event>
<event>
 3    0  0.1726785E+001  0.1250000E+03  0.7546771E-02  0.1235069E+00
         21   -1    0    0  502  501  0.00000000000E+00  0.00000000000E+00  0.10985159356E+03  0.10985159356E+03  0.00000000000E+00 0.  1.
         21   -1    0    0  501  502 -0.00000000000E+00 -0.00000000000E+00 -0.35559338497E+02  0.35559338497E+02  0.00000000000E+00 0.  1.
         25    1    1    2    0    0  0.00000000000E+00  0.00000000000E+00  0.74292255068E+02  0.14541093206E+03  0.12500000000E+03 0.  0.
<mgrwt>
<rscale>  2 0.12500000E+03</rscale>
<asrwt>0</asrwt>
<pdfrwt beam="1">  1       21 0.16900245E-01 0.12500000E+03</pdfrwt>
<pdfrwt beam="2">  1       21 0.54706675E-02 0.12500000E+03</pdfrwt>
<totfact> 0.71340551E+06</totfact>
</mgrwt>
</event>
<event>
 3    0  0.1368989E+001  0.1250000E+03  0.7546771E-02  0.1235069E+00
         21   -1    0    0  502  501  0.00000000000E+00  0.00000000000E+00  0.39835997966E+01  0.39835997966E+01  0.00000000000E+00 0. -1.
         21   -1    0    0  501  502 -0.00000000000E+00 -0.00000000000E+00 -0.98058293992E+03  0.98058293992E+03  0.00000000000E+00 0. -1.
         25    1    1    2    0    0  0.00000000000E+00  0.00000000000E+00 -0.97659934013E+03  0.98456653972E+03  0.12500000000E+03 0.  0.
<mgrwt>
<rscale>  2 0.12500000E+03</rscale>
<asrwt>0</asrwt>
<pdfrwt beam="1">  1       21 0.61286143E-03 0.12500000E+03</pdfrwt>
<pdfrwt beam="2">  1       21 0.15085893E+00 0.12500000E+03</pdfrwt>
<totfact> 0.24008195E+06</totfact>
</mgrwt>
</event>
<event>
 3    0  0.1637049E+001  0.1250000E+03  0.7546771E-02  0.1235069E+00
         21   -1    0    0  502  501  0.00000000000E+00  0.00000000000E+00  0.16420992178E+02  0.16420992178E+02  0.00000000000E+00 0. -1.
         21   -1    0    0  501  502 -0.00000000000E+00 -0.00000000000E+00 -0.23788148473E+03  0.23788148473E+03  0.00000000000E+00 0. -1.
         25    1    1    2    0    0  0.00000000000E+00  0.00000000000E+00 -0.22146049256E+03  0.25430247691E+03  0.12500000000E+03 0.  0.
<mgrwt>
<rscale>  2 0.12500000E+03</rscale>
<asrwt>0</asrwt>
<pdfrwt beam="1">  1       21 0.25263066E-02 0.12500000E+03</pdfrwt>
<pdfrwt beam="2">  1       21 0.36597149E-01 0.12500000E+03</pdfrwt>
<totfact> 0.59475467E+06</totfact>
</mgrwt>
</event>
<event>
 3    0  0.1715281E+001  0.1250000E+03  0.7546771E-02  0.1235069E+00
         21   -1    0    0  502  501  0.00000000000E+00  0.00000000000E+00  0.97481203505E+02  0.97481203505E+02  0.00000000000E+00 0. -1.
         21   -1    0    0  501  502 -0.00000000000E+00 -0.00000000000E+00 -0.40071827794E+02  0.40071827794E+02  0.00000000000E+00 0. -1.
         25    1    1    2    0    0  0.00000000000E+00  0.00000000000E+00  0.57409375711E+02  0.13755303130E+03  0.12500000000E+03 0.  0.
<mgrwt>
<rscale>  2 0.12500000E+03</rscale>
<asrwt>0</asrwt>
<pdfrwt beam="1">  1       21 0.14997108E-01 0.12500000E+03</pdfrwt>
<pdfrwt beam="2">  1       21 0.61648966E-02 0.12500000E+03</pdfrwt>
<totfact> 0.72360165E+06</totfact>
</mgrwt>
</event>
<event>
 3    0  0.1679667E+001  0.1250000E+03  0.7546771E-02  0.1235069E+00
         21   -1    0    0  502  501  0.00000000000E+00  0.00000000000E+00  0.25701165517E+02  0.25701165517E+02  0.00000000000E+00 0. -1.
         21   -1    0    0  501  502 -0.00000000000E+00 -0.00000000000E+00 -0.15198727067E+03  0.15198727067E+03  0.00000000000E+00 0. -1.
         25    1    1    2    0    0  0.00000000000E+00  0.00000000000E+00 -0.12628610515E+03  0.17768843619E+03  0.12500000000E+03 0.  0.
<mgrwt>
<rscale>  2 0.12500000E+03</rscale>
<asrwt>0</asrwt>
<pdfrwt beam="1">  1       21 0.39540254E-02 0.12500000E+03</pdfrwt>
<pdfrwt beam="2">  1       21 0.23382657E-01 0.12500000E+03</pdfrwt>
<totfact> 0.67417706E+06</totfact>
</mgrwt>
</event>
<event>
 3    0  0.1700396E+001  0.1250000E+03  0.7546771E-02  0.1235069E+00
         21   -1    0    0  502  501  0.00000000000E+00  0.00000000000E+00  0.13985719920E+03  0.13985719920E+03  0.00000000000E+00 0. -1.
         21   -1    0    0  501  502 -0.00000000000E+00 -0.00000000000E+00 -0.27930274753E+02  0.27930274753E+02  0.00000000000E+00 0. -1.
         25    1    1    2    0    0  0.00000000000E+00  0.00000000000E+00  0.11192692445E+03  0.16778747396E+03  0.12500000000E+03 0.  0.
<mgrwt>
<rscale>  2 0.12500000E+03</rscale>
<asrwt>0</asrwt>
<pdfrwt beam="1">  1       21 0.21516492E-01 0.12500000E+03</pdfrwt>
<pdfrwt beam="2">  1       21 0.42969654E-02 0.12500000E+03</pdfrwt>
<totfact> 0.68580249E+06</totfact>
</mgrwt>
</event>
<event>
 3    0  0.1666978E+001  0.1250000E+03  0.7546771E-02  0.1235069E+00
         21   -1    0    0  502  501  0.00000000000E+00  0.00000000000E+00  0.23990191069E+02  0.23990191069E+02  0.00000000000E+00 0. -1.
         21   -1    0    0  501  502 -0.00000000000E+00 -0.00000000000E+00 -0.16282696494E+03  0.16282696494E+03  0.00000000000E+00 0. -1.
         25    1    1    2    0    0  0.00000000000E+00  0.00000000000E+00 -0.13883677387E+03  0.18681715601E+03  0.12500000000E+03 0.  0.
<mgrwt>
<rscale>  2 0.12500000E+03</rscale>
<asrwt>0</asrwt>
<pdfrwt beam="1">  1       21 0.36907986E-02 0.12500000E+03</pdfrwt>
<pdfrwt beam="2">  1       21 0.25050303E-01 0.12500000E+03</pdfrwt>
<totfact> 0.66377967E+06</totfact>
</mgrwt>
</event>
<event>
 3    0  0.1465264E+001  0.1250000E+03  0.7546771E-02  0.1235069E+00
         21   -1    0    0  502  501  0.00000000000E+00  0.00000000000E+00  0.53107057510E+03  0.53107057510E+03  0.00000000000E+00 0. -1.
         21   -1    0    0  501  502 -0.00000000000E+00 -0.00000000000E+00 -0.73554254051E+01  0.73554254051E+01  0.00000000000E+00 0. -1.
         25    1    1    2    0    0  0.00000000000E+00  0.00000000000E+00  0.52371514970E+03  0.53842600051E+03  0.12500000000E+03 0.  0.
<mgrwt>
<rscale>  2 0.12500000E+03</rscale>
<asrwt>0</asrwt>
<pdfrwt beam="1">  1       21 0.81703135E-01 0.12500000E+03</pdfrwt>
<pdfrwt beam="2">  1       21 0.11316043E-02 0.12500000E+03</pdfrwt>
<totfact> 0.40033990E+06</totfact>
</mgrwt>
</event>
<event>
 3    0  0.1368989E+001  0.1250000E+03  0.7546771E-02  0.1235069E+00
         21   -1    0    0  502  501  0.00000000000E+00  0.00000000000E+00  0.51669893271E+01  0.51669893271E+01  0.00000000000E+00 0. -1.
         21   -1    0    0  501  502 -0.00000000000E+00 -0.00000000000E+00 -0.75600117451E+03  0.75600117451E+03  0.00000000000E+00 0. -1.
         25    1    1    2    0    0  0.00000000000E+00  0.00000000000E+00 -0.75083418518E+03  0.76116816384E+03  0.12500000000E+03 0.  0.
<mgrwt>
<rscale>  2 0.12500000E+03</rscale>
<asrwt>0</asrwt>
<pdfrwt beam="1">  1       21 0.79492104E-03 0.12500000E+03</pdfrwt>
<pdfrwt beam="2">  1       21 0.11630793E+00 0.12500000E+03</pdfrwt>
<totfact> 0.30679888E+06</totfact>
</mgrwt>
</event>
<event>
 3    0  0.1690400E+001  0.1250000E+03  0.7546771E-02  0.1235069E+00
         21   -1    0    0  502  501  0.00000000000E+00  0.00000000000E+00  0.23950408451E+02  0.23950408451E+02  0.00000000000E+00 0.  1.
         21   -1    0    0  501  502 -0.00000000000E+00 -0.00000000000E+00 -0.16309742725E+03  0.16309742725E+03  0.00000000000E+00 0.  1.
         25    1    1    2    0    0  0.00000000000E+00  0.00000000000E+00 -0.13914701880E+03  0.18704783570E+03  0.12500000000E+03 0.  0.
<mgrwt>
<rscale>  2 0.12500000E+03</rscale>
<asrwt>0</asrwt>
<pdfrwt beam="1">  1       21 0.36846781E-02 0.12500000E+03</pdfrwt>
<pdfrwt beam="2">  1       21 0.25091913E-01 0.12500000E+03</pdfrwt>
<totfact> 0.66352082E+06</totfact>
</mgrwt>
</event>
<event>
 3    0  0.1687390E+001  0.1250000E+03  0.7546771E-02  0.1235069E+00
         21   -1    0    0  502  501  0.00000000000E+00  0.00000000000E+00  0.14534120827E+03  0.14534120827E+03  0.00000000000E+00 0. -1.
         21   -1    0    0  501  502 -0.00000000000E+00 -0.00000000000E+00 -0.26876410664E+02  0.26876410664E+02  0.00000000000E+00 0. -1.
         25    1    1    2    0    0  0.00000000000E+00  0.00000000000E+00  0.11846479761E+03  0.17221761894E+03  0.12500000000E+03 0.  0.
<mgrwt>
<rscale>  2 0.12500000E+03</rscale>
<asrwt>0</asrwt>
<pdfrwt beam="1">  1       21 0.22360185E-01 0.12500000E+03</pdfrwt>
<pdfrwt beam="2">  1       21 0.41348325E-02 0.12500000E+03</pdfrwt>
<totfact> 0.68055717E+06</totfact>
</mgrwt>
</event>
<event>
 3    0  0.1724345E+001  0.1250000E+03  0.7546771E-02  0.1235069E+00
         21   -1    0    0  502  501  0.00000000000E+00  0.00000000000E+00  0.69791574928E+02  0.69791574928E+02  0.00000000000E+00 0. -1.
         21   -1    0    0  501  502 -0.00000000000E+00 -0.00000000000E+00 -0.55970222825E+02  0.55970222825E+02  0.00000000000E+00 0. -1.
         25    1    1    2    0    0  0.00000000000E+00  0.00000000000E+00  0.13821352103E+02  0.12576179775E+03  0.12500000000E+03 0.  0.
<mgrwt>
<rscale>  2 0.12500000E+03</rscale>
<asrwt>0</asrwt>
<pdfrwt beam="1">  1       21 0.10737165E-01 0.12500000E+03</pdfrwt>
<pdfrwt beam="2">  1       21 0.86108035E-02 0.12500000E+03</pdfrwt>
<totfact> 0.73938964E+06</totfact>
</mgrwt>
</event>
<event>
 3    0  0.1716216E+001  0.1250000E+03  0.7546771E-02  0.1235069E+00
         21   -1    0    0  502  501  0.00000000000E+00  0.00000000000E+00  0.44474948608E+02  0.44474948608E+02  0.00000000000E+00 0. -1.
         21   -1    0    0  501  502 -0.00000000000E+00 -0.00000000000E+00 -0.87830343199E+02  0.87830343199E+02  0.00000000000E+00 0. -1.
         25    1    1    2    0    0  0.00000000000E+00  0.00000000000E+00 -0.43355394591E+02  0.13230529181E+03  0.12500000000E+03 0.  0.
<mgrwt>
<rscale>  2 0.12500000E+03</rscale>
<asrwt>0</asrwt>
<pdfrwt beam="1">  1       21 0.68422999E-02 0.12500000E+03</pdfrwt>
<pdfrwt beam="2">  1       21 0.13512360E-01 0.12500000E+03</pdfrwt>
<totfact> 0.73055308E+06</totfact>
</mgrwt>
</event>
<event>
 3    0  0.1635562E+001  0.1250000E+03  0.7546771E-02  0.1235069E+00
         21   -1    0    0  502  501  0.00000000000E+00  0.00000000000E+00  0.24800405199E+03  0.24800405199E+03  0.00000000000E+00 0.  1.
         21   -1    0    0  501  502 -0.00000000000E+00 -0.00000000000E+00 -0.15750750718E+02  0.15750750718E+02  0.00000000000E+00 0.  1.
         25    1    1    2    0    0  0.00000000000E+00  0.00000000000E+00  0.23225330127E+03  0.26375480271E+03  0.12500000000E+03 0.  0.
<mgrwt>
<rscale>  2 0.12500000E+03</rscale>
<asrwt>0</asrwt>
<pdfrwt beam="1">  1       21 0.38154467E-01 0.12500000E+03</pdfrwt>
<pdfrwt beam="2">  1       21 0.24231926E-02 0.12500000E+03</pdfrwt>
<totfact> 0.58606825E+06</totfact>
</mgrwt>
</event>
<event>
 3    0  0.1742051E+001  0.1250000E+03  0.7546771E-02  0.1235069E+00
         21   -1    0    0  502  501  0.00000000000E+00  0.00000000000E+00  0.39440259178E+02  0.39440259178E+02  0.00000000000E+00 0.  1.
         21   -1    0    0  501  502 -0.00000000000E+00 -0.00000000000E+00 -0.99042199047E+02  0.99042199047E+02  0.00000000000E+00 0.  1.
         25    1    1    2    0    0  0.00000000000E+00  0.00000000000E+00 -0.59601939869E+02  0.13848245823E+03  0.12500000000E+03 0.  0.
<mgrwt>
<rscale>  2 0.12500000E+03</rscale>
<asrwt>0</asrwt>
<pdfrwt beam="1">  1       21 0.60677322E-02 0.12500000E+03</pdfrwt>
<pdfrwt beam="2">  1       21 0.15237261E-01 0.12500000E+03</pdfrwt>
<totfact> 0.72238044E+06</totfact>
</mgrwt>
</event>
<event>
 3    0  0.1722197E+001  0.1250000E+03  0.7546771E-02  0.1235069E+00
         21   -1    0    0  502  501  0.00000000000E+00  0.00000000000E+00  0.81626436038E+02  0.81626436038E+02  0.00000000000E+00 0. -1.
         21   -1    0    0  501  502 -0.00000000000E+00 -0.00000000000E+00 -0.47855207082E+02  0.47855207082E+02  0.00000000000E+00 0. -1.
         25    1    1    2    0    0  0.00000000000E+00  0.00000000000E+00  0.33771228956E+02  0.12948164312E+03  0.12500000000E+03 0.  0.
<mgrwt>
<rscale>  2 0.12500000E+03</rscale>
<asrwt>0</asrwt>
<pdfrwt beam="1">  1       21 0.12557913E-01 0.12500000E+03</pdfrwt>
<pdfrwt beam="2">  1       21 0.73623396E-02 0.12500000E+03</pdfrwt>
<totfact> 0.73434276E+06</totfact>
</mgrwt>
</event>
<event>
 3    0  0.1640069E+001  0.1250000E+03  0.7546771E-02  0.1235069E+00
         21   -1    0    0  502  501  0.00000000000E+00  0.00000000000E+00  0.21591930232E+03  0.21591930232E+03  0.00000000000E+00 0. -1.
         21   -1    0    0  501  502 -0.00000000000E+00 -0.00000000000E+00 -0.18091249639E+02  0.18091249639E+02  0.00000000000E+00 0. -1.
         25    1    1    2    0    0  0.00000000000E+00  0.00000000000E+00  0.19782805268E+03  0.23401055196E+03  0.12500000000E+03 0.  0.
<mgrwt>
<rscale>  2 0.12500000E+03</rscale>
<asrwt>0</asrwt>
<pdfrwt beam="1">  1       21 0.33218352E-01 0.12500000E+03</pdfrwt>
<pdfrwt beam="2">  1       21 0.27832693E-02 0.12500000E+03</pdfrwt>
<totfact> 0.61417111E+06</totfact>
</mgrwt>
</event>
<event>
 3    0  0.1619593E+001  0.1250000E+03  0.7546771E-02  0.1235069E+00
         21   -1    0    0  502  501  0.00000000000E+00  0.00000000000E+00  0.12609549531E+02  0.12609549531E+02  0.00000000000E+00 0.  1.
         21   -1    0    0  501  502 -0.00000000000E+00 -0.00000000000E+00 -0.30978505539E+03  0.30978505539E+03  0.00000000000E+00 0.  1.
         25    1    1    2    0    0  0.00000000000E+00  0.00000000000E+00 -0.29717550586E+03  0.32239460492E+03  0.12500000000E+03 0.  0.
<mgrwt>
<rscale>  2 0.12500000E+03</rscale>
<asrwt>0</asrwt>
<pdfrwt beam="1">  1       21 0.19399308E-02 0.12500000E+03</pdfrwt>
<pdfrwt beam="2">  1       21 0.47659237E-01 0.12500000E+03</pdfrwt>
<totfact> 0.53644127E+06</totfact>
</mgrwt>
</event>
<event>
 3    0  0.1740706E+001  0.1250000E+03  0.7546771E-02  0.1235069E+00
         21   -1    0    0  502  501  0.00000000000E+00  0.00000000000E+00  0.88427449536E+02  0.88427449536E+02  0.00000000000E+00 0.  1.
         21   -1    0    0  501  502 -0.00000000000E+00 -0.00000000000E+00 -0.44174631526E+02  0.44174631526E+02  0.00000000000E+00 0.  1.
         25    1    1    2    0    0  0.00000000000E+00  0.00000000000E+00  0.44252818010E+02  0.13260208106E+03  0.12500000000E+03 0.  0.
<mgrwt>
<rscale>  2 0.12500000E+03</rscale>
<asrwt>0</asrwt>
<pdfrwt beam="1">  1       21 0.13604223E-01 0.12500000E+03</pdfrwt>
<pdfrwt beam="2">  1       21 0.67960972E-02 0.12500000E+03</pdfrwt>
<totfact> 0.73015580E+06</totfact>
</mgrwt>
</event>
<event>
 3    0  0.1660388E+001  0.1250000E+03  0.7546771E-02  0.1235069E+00
         21   -1    0    0  502  501  0.00000000000E+00  0.00000000000E+00  0.23763971835E+03  0.23763971835E+03  0.00000000000E+00 0.  1.
         21   -1    0    0  501  502 -0.00000000000E+00 -0.00000000000E+00 -0.16437698324E+02  0.16437698324E+02  0.00000000000E+00 0.  1.
         25    1    1    2    0    0  0.00000000000E+00  0.00000000000E+00  0.22120202003E+03  0.25407741668E+03  0.12500000000E+03 0.  0.
<mgrwt>
<rscale>  2 0.12500000E+03</rscale>
<asrwt>0</asrwt>
<pdfrwt beam="1">  1       21 0.36559954E-01 0.12500000E+03</pdfrwt>
<pdfrwt beam="2">  1       21 0.25288768E-02 0.12500000E+03</pdfrwt>
<totfact> 0.59496418E+06</totfact>
</mgrwt>
</event>
<event>
 3    0  0.1750272E+001  0.1250000E+03  0.7546771E-02  0.1235069E+00
         21   -1    0    0  502  501  0.00000000000E+00  0.00000000000E+00  0.67011723172E+02  0.67011723172E+02  0.00000000000E+00 0.  1.
         21   -1    0    0  501  502 -0.00000000000E+00 -0.00000000000E+00 -0.58292039290E+02  0.58292039290E+02  0.00000000000E+00 0.  1.
         25    1    1    2    0    0  0.00000000000E+00  0.00000000000E+00  0.87196838816E+01  0.12530376246E+03  0.12500000000E+03 0.  0.
<mgrwt>
<rscale>  2 0.12500000E+03</rscale>
<asrwt>0</asrwt>
<pdfrwt beam="1">  1       21 0.10309496E-01 0.12500000E+03</pdfrwt>
<pdfrwt beam="2">  1       21 0.89680060E-02 0.12500000E+03</pdfrwt>
<totfact> 0.74002564E+06</totfact>
</mgrwt>
</event>
<event>
 3    0  0.1677492E+001  0.1250000E+03  0.7546771E-02  0.1235069E+00
         21   -1    0    0  502  501  0.00000000000E+00  0.00000000000E+00  0.23143515027E+02  0.23143515027E+02  0.00000000000E+00 0. -1.
         21   -1    0    0  501  502 -0.00000000000E+00 -0.00000000000E+00 -0.16878378222E+03  0.16878378222E+03  0.00000000000E+00 0. -1.
         25    1    1    2    0    0  0.00000000000E+00  0.00000000000E+00 -0.14564026719E+03  0.19192729724E+03  0.12500000000E+03 0.  0.
<mgrwt>
<rscale>  2 0.12500000E+03</rscale>
<asrwt>0</asrwt>
<pdfrwt beam="1">  1       21 0.35605409E-02 0.12500000E+03</pdfrwt>
<pdfrwt beam="2">  1       21 0.25966735E-01 0.12500000E+03</pdfrwt>
<totfact> 0.65808901E+06</totfact>
</mgrwt>
</event>
<event>
 3    0  0.1700646E+001  0.1250000E+03  0.7546771E-02  0.1235069E+00
         21   -1    0    0  502  501  0.00000000000E+00  0.00000000000E+00  0.11060101082E+03  0.11060101082E+03  0.00000000000E+00 0. -1.
         21   -1    0    0  501  502 -0.00000000000E+00 -0.00000000000E+00 -0.35318393305E+02  0.35318393305E+02  0.00000000000E+00 0. -1.
         25    1    1    2    0    0  0.00000000000E+00  0.00000000000E+00  0.75282617514E+02  0.14591940412E+03  0.12500000000E+03 0.  0.
<mgrwt>
<rscale>  2 0.12500000E+03</rscale>
<asrwt>0</asrwt>
<pdfrwt beam="1">  1       21 0.17015540E-01 0.12500000E+03</pdfrwt>
<pdfrwt beam="2">  1       21 0.54335990E-02 0.12500000E+03</pdfrwt>
<totfact> 0.71275645E+06</totfact>
</mgrwt>
</event>
<event>
 3    0  0.1507863E+001  0.1250000E+03  0.7546771E-02  0.1235069E+00
         21   -1    0    0  502  501  0.00000000000E+00  0.00000000000E+00  0.45115667103E+03  0.45115667103E+03  0.00000000000E+00 0. -1.
         21   -1    0    0  501  502 -0.00000000000E+00 -0.00000000000E+00 -0.86583004327E+01  0.86583004327E+01  0.00000000000E+00 0. -1.
         25    1    1    2    0    0  0.00000000000E+00  0.00000000000E+00  0.44249837060E+03  0.45981497146E+03  0.12500000000E+03 0.  0.
<mgrwt>
<rscale>  2 0.12500000E+03</rscale>
<asrwt>0</asrwt>
<pdfrwt beam="1">  1       21 0.69408700E-01 0.12500000E+03</pdfrwt>
<pdfrwt beam="2">  1       21 0.13320466E-02 0.12500000E+03</pdfrwt>
<totfact> 0.44310735E+06</totfact>
</mgrwt>
</event>
<event>
 3    0  0.1731518E+001  0.1250000E+03  0.7546771E-02  0.1235069E+00
         21   -1    0    0  502  501  0.00000000000E+00  0.00000000000E+00  0.36294490097E+02  0.36294490097E+02  0.00000000000E+00 0.  1.
         21   -1    0    0  501  502 -0.00000000000E+00 -0.00000000000E+00 -0.10762652925E+03  0.10762652925E+03  0.00000000000E+00 0.  1.
         25    1    1    2    0    0  0.00000000000E+00  0.00000000000E+00 -0.71332039153E+02  0.14392101935E+03  0.12500000000E+03 0.  0.
<mgrwt>
<rscale>  2 0.12500000E+03</rscale>
<asrwt>0</asrwt>
<pdfrwt beam="1">  1       21 0.55837678E-02 0.12500000E+03</pdfrwt>
<pdfrwt beam="2">  1       21 0.16557927E-01 0.12500000E+03</pdfrwt>
<totfact> 0.71531469E+06</totfact>
</mgrwt>
</event>
<event>
 3    0  0.1666774E+001  0.1250000E+03  0.7546771E-02  0.1235069E+00
         21   -1    0    0  502  501  0.00000000000E+00  0.00000000000E+00  0.18946400743E+02  0.18946400743E+02  0.00000000000E+00 0.  1.
         21   -1    0    0  501  502 -0.00000000000E+00 -0.00000000000E+00 -0.20617372412E+03  0.20617372412E+03  0.00000000000E+00 0.  1.
         25    1    1    2    0    0  0.00000000000E+00  0.00000000000E+00 -0.18722732338E+03  0.22512012487E+03  0.12500000000E+03 0.  0.
<mgrwt>
<rscale>  2 0.12500000E+03</rscale>
<asrwt>0</asrwt>
<pdfrwt beam="1">  1       21 0.29148309E-02 0.12500000E+03</pdfrwt>
<pdfrwt beam="2">  1       21 0.31719034E-01 0.12500000E+03</pdfrwt>
<totfact> 0.62302989E+06</totfact>
</mgrwt>
</event>
<event>
 3    0  0.1671063E+001  0.1250000E+03  0.7546771E-02  0.1235069E+00
         21   -1    0    0  502  501  0.00000000000E+00  0.00000000000E+00  0.17711937008E+03  0.17711937008E+03  0.00000000000E+00 0. -1.
         21   -1    0    0  501  502 -0.00000000000E+00 -0.00000000000E+00 -0.22054335436E+02  0.22054335436E+02  0.00000000000E+00 0. -1.
         25    1    1    2    0    0  0.00000000000E+00  0.00000000000E+00  0.15506503465E+03  0.19917370552E+03  0.12500000000E+03 0.  0.
<mgrwt>
<rscale>  2 0.12500000E+03</rscale>
<asrwt>0</asrwt>
<pdfrwt beam="1">  1       21 0.27249133E-01 0.12500000E+03</pdfrwt>
<pdfrwt beam="2">  1       21 0.33929748E-02 0.12500000E+03</pdfrwt>
<totfact> 0.65016897E+06</totfact>
</mgrwt>
</event>
<event>
 3    0  0.1578631E+001  0.1250000E+03  0.7546771E-02  0.1235069E+00
         21   -1    0    0  502  501  0.00000000000E+00  0.00000000000E+00  0.31812219615E+03  0.31812219615E+03  0.00000000000E+00 0. -1.
         21   -1    0    0  501  502 -0.00000000000E+00 -0.00000000000E+00 -0.12279086613E+02  0.12279086613E+02  0.00000000000E+00 0. -1.
         25    1    1    2    0    0  0.00000000000E+00  0.00000000000E+00  0.30584310954E+03  0.33040128277E+03  0.12500000000E+03 0.  0.
<mgrwt>
<rscale>  2 0.12500000E+03</rscale>
<asrwt>0</asrwt>
<pdfrwt beam="1">  1       21 0.48941870E-01 0.12500000E+03</pdfrwt>
<pdfrwt beam="2">  1       21 0.18890905E-02 0.12500000E+03</pdfrwt>
<totfact> 0.53019255E+06</totfact>
</mgrwt>
</event>
<event>
 3    0  0.1731058E+001  0.1250000E+03  0.7546771E-02  0.1235069E+00
         21   -1    0    0  502  501  0.00000000000E+00  0.00000000000E+00  0.36219606554E+02  0.36219606554E+02  0.00000000000E+00 0.  1.
         21   -1    0    0  501  502 -0.00000000000E+00 -0.00000000000E+00 -0.10784904563E+03  0.10784904563E+03  0.00000000000E+00 0.  1.
         25    1    1    2    0    0  0.00000000000E+00  0.00000000000E+00 -0.71629439077E+02  0.14406865219E+03  0.12500000000E+03 0.  0.
<mgrwt>
<rscale>  2 0.12500000E+03</rscale>
<asrwt>0</asrwt>
<pdfrwt beam="1">  1       21 0.55722473E-02 0.12500000E+03</pdfrwt>
<pdfrwt beam="2">  1       21 0.16592160E-01 0.12500000E+03</pdfrwt>
<totfact> 0.71512502E+06</totfact>
</mgrwt>
</event>
<event>
 3    0  0.1676803E+001  0.1250000E+03  0.7546771E-02  0.1235069E+00
         21   -1    0    0  502  501  0.00000000000E+00  0.00000000000E+00  0.22322339226E+02  0.22322339226E+02  0.00000000000E+00 0. -1.
         21   -1    0    0  501  502 -0.00000000000E+00 -0.00000000000E+00 -0.17499286076E+03  0.17499286076E+03  0.00000000000E+00 0. -1.
         25    1    1    2    0    0  0.00000000000E+00  0.00000000000E+00 -0.15267052153E+03  0.19731519998E+03  0.12500000000E+03 0.  0.
<mgrwt>
<rscale>  2 0.12500000E+03</rscale>
<asrwt>0</asrwt>
<pdfrwt beam="1">  1       21 0.34342062E-02 0.12500000E+03</pdfrwt>
<pdfrwt beam="2">  1       21 0.26921977E-01 0.12500000E+03</pdfrwt>
<totfact> 0.65218518E+06</totfact>
</mgrwt>
</event>
<event>
 3    0  0.1720506E+001  0.1250000E+03  0.7546771E-02  0.1235069E+00
         21   -1    0    0  502  501  0.00000000000E+00  0.00000000000E+00  0.85413814843E+02  0.85413814843E+02  0.00000000000E+00 0. -1.
         21   -1    0    0  501  502 -0.00000000000E+00 -0.00000000000E+00 -0.45733234222E+02  0.45733234222E+02  0.00000000000E+00 0. -1.
         25    1    1    2    0    0  0.00000000000E+00  0.00000000000E+00  0.39680580621E+02  0.13114704906E+03  0.12500000000E+03 0.  0.
<mgrwt>
<rscale>  2 0.12500000E+03</rscale>
<asrwt>0</asrwt>
<pdfrwt beam="1">  1       21 0.13140587E-01 0.12500000E+03</pdfrwt>
<pdfrwt beam="2">  1       21 0.70358822E-02 0.12500000E+03</pdfrwt>
<totfact> 0.73210862E+06</totfact>
</mgrwt>
</event>
<event>
 3    0  0.1722934E+001  0.1250000E+03  0.7546771E-02  0.1235069E+00
         21   -1    0    0  502  501  0.00000000000E+00  0.00000000000E+00  0.52097783828E+02  0.52097783828E+02  0.00000000000E+00 0. -1.
         21   -1    0    0  501  502 -0.00000000000E+00 -0.00000000000E+00 -0.74979197060E+02  0.74979197060E+02  0.00000000000E+00 0. -1.
         25    1    1    2    0    0  0.00000000000E+00  0.00000000000E+00 -0.22881413233E+02  0.12707698089E+03  0.12500000000E+03 0.  0.
<mgrwt>
<rscale>  2 0.12500000E+03</rscale>
<asrwt>0</asrwt>
<pdfrwt beam="1">  1       21 0.80150437E-02 0.12500000E+03</pdfrwt>
<pdfrwt beam="2">  1       21 0.11535261E-01 0.12500000E+03</pdfrwt>
<totfact> 0.73758660E+06</totfact>
</mgrwt>
</event>
<event>
 3    0  0.1725275E+001  0.1250000E+03  0.7546771E-02  0.1235069E+00
         21   -1    0    0  502  501  0.00000000000E+00  0.00000000000E+00  0.68194515542E+02  0.68194515542E+02  0.00000000000E+00 0. -1.
         21   -1    0    0  501  502 -0.00000000000E+00 -0.00000000000E+00 -0.57280999344E+02  0.57280999344E+02  0.00000000000E+00 0. -1.
         25    1    1    2    0    0  0.00000000000E+00  0.00000000000E+00  0.10913516198E+02  0.12547551489E+03  0.12500000000E+03 0.  0.
<mgrwt>
<rscale>  2 0.12500000E+03</rscale>
<asrwt>0</asrwt>
<pdfrwt beam="1">  1       21 0.10491464E-01 0.12500000E+03</pdfrwt>
<pdfrwt beam="2">  1       21 0.88124615E-02 0.12500000E+03</pdfrwt>
<totfact> 0.73978822E+06</totfact>
</mgrwt>
</event>
<event>
 3    0  0.1702033E+001  0.1250000E+03  0.7546771E-02  0.1235069E+00
         21   -1    0    0  502  501  0.00000000000E+00  0.00000000000E+00  0.15239483855E+03  0.15239483855E+03  0.00000000000E+00 0.  1.
         21   -1    0    0  501  502 -0.00000000000E+00 -0.00000000000E+00 -0.25632429794E+02  0.25632429794E+02  0.00000000000E+00 0.  1.
         25    1    1    2    0    0  0.00000000000E+00  0.00000000000E+00  0.12676240875E+03  0.17802726834E+03  0.12500000000E+03 0.  0.
<mgrwt>
<rscale>  2 0.12500000E+03</rscale>
<asrwt>0</asrwt>
<pdfrwt beam="1">  1       21 0.23445359E-01 0.12500000E+03</pdfrwt>
<pdfrwt beam="2">  1       21 0.39434508E-02 0.12500000E+03</pdfrwt>
<totfact> 0.67378566E+06</totfact>
</mgrwt>
</event>
<event>
 3    0  0.1444110E+001  0.1250000E+03  0.7546771E-02  0.1235069E+00
         21   -1    0    0  502  501  0.00000000000E+00  0.00000000000E+00  0.58476038837E+03  0.58476038837E+03  0.00000000000E+00 0.  1.
         21   -1    0    0  501  502 -0.00000000000E+00 -0.00000000000E+00 -0.66800865409E+01  0.66800865409E+01  0.00000000000E+00 0.  1.
         25    1    1    2    0    0  0.00000000000E+00  0.00000000000E+00  0.57808030183E+03  0.59144047491E+03  0.12500000000E+03 0.  0.
<mgrwt>
<rscale>  2 0.12500000E+03</rscale>
<asrwt>0</asrwt>
<pdfrwt beam="1">  1       21 0.89963097E-01 0.12500000E+03</pdfrwt>
<pdfrwt beam="2">  1       21 0.10277061E-02 0.12500000E+03</pdfrwt>
<totfact> 0.37482619E+06</totfact>
</mgrwt>
</event>
<event>
 3    0  0.1709835E+001  0.1250000E+03  0.7546771E-02  0.1235069E+00
         21   -1    0    0  502  501  0.00000000000E+00  0.00000000000E+00  0.11748560347E+03  0.11748560347E+03  0.00000000000E+00 0. -1.
         21   -1    0    0  501  502 -0.00000000000E+00 -0.00000000000E+00 -0.33248754611E+02  0.33248754611E+02  0.00000000000E+00 0. -1.
         25    1    1    2    0    0  0.00000000000E+00  0.00000000000E+00  0.84236848857E+02  0.15073435808E+03  0.12500000000E+03 0.  0.
<mgrwt>
<rscale>  2 0.12500000E+03</rscale>
<asrwt>0</asrwt>
<pdfrwt beam="1">  1       21 0.18074708E-01 0.12500000E+03</pdfrwt>
<pdfrwt beam="2">  1       21 0.51151931E-02 0.12500000E+03</pdfrwt>
<totfact> 0.70667074E+06</totfact>
</mgrwt>
</event>
<event>
 3    0  0.1681022E+001  0.1250000E+03  0.7546771E-02  0.1235069E+00
         21   -1    0    0  502  501  0.00000000000E+00  0.00000000000E+00  0.18664720339E+02  0.18664720339E+02  0.00000000000E+00 0.  1.
         21   -1    0    0  501  502 -0.00000000000E+00 -0.00000000000E+00 -0.20928521451E+03  0.20928521451E+03  0.00000000000E+00 0.  1.
         25    1    1    2    0    0  0.00000000000E+00  0.00000000000E+00 -0.19062049417E+03  0.22794993485E+03  0.12500000000E+03 0.  0.
<mgrwt>
<rscale>  2 0.12500000E+03</rscale>
<asrwt>0</asrwt>
<pdfrwt beam="1">  1       21 0.28714957E-02 0.12500000E+03</pdfrwt>
<pdfrwt beam="2">  1       21 0.32197722E-01 0.12500000E+03</pdfrwt>
<totfact> 0.62018592E+06</totfact>
</mgrwt>
</event>
<event>
 3    0  0.1653780E+001  0.1250000E+03  0.7546771E-02  0.1235069E+00
         21   -1    0    0  502  501  0.00000000000E+00  0.00000000000E+00  0.24037882046E+03  0.24037882046E+03  0.00000000000E+00 0.  1.
         21   -1    0    0  501  502 -0.00000000000E+00 -0.00000000000E+00 -0.16250391746E+02  0.16250391746E+02  0.00000000000E+00 0.  1.
         25    1    1    2    0    0  0.00000000000E+00  0.00000000000E+00  0.22412842871E+03  0.25662921221E+03  0.12500000000E+03 0.  0.
<mgrwt>
<rscale>  2 0.12500000E+03</rscale>
<asrwt>0</asrwt>
<pdfrwt beam="1">  1       21 0.36981354E-01 0.12500000E+03</pdfrwt>
<pdfrwt beam="2">  1       21 0.25000604E-02 0.12500000E+03</pdfrwt>
<totfact> 0.59259614E+06</totfact>
</mgrwt>
</event>
<event>
 3    0  0.1368989E+001  0.1250000E+03  0.7546771E-02  0.1235069E+00
         21   -1    0    0  502  501  0.00000000000E+00  0.00000000000E+00  0.96786231408E+03  0.96786231408E+03  0.00000000000E+00 0. -1.
         21   -1    0    0  501  502 -0.00000000000E+00 -0.00000000000E+00 -0.40359562958E+01  0.40359562958E+01  0.00000000000E+00 0. -1.
         25    1    1    2    0    0  0.00000000000E+00  0.00000000000E+00  0.96382635778E+03  0.97189827037E+03  0.12500000000E+03 0.  0.
<mgrwt>
<rscale>  2 0.12500000E+03</rscale>
<asrwt>0</asrwt>
<pdfrwt beam="1">  1       21 0.14890171E+00 0.12500000E+03</pdfrwt>
<pdfrwt beam="2">  1       21 0.62091712E-03 0.12500000E+03</pdfrwt>
<totfact> 0.24334164E+06</totfact>
</mgrwt>
</event>
<event>
 3    0  0.1530991E+001  0.1250000E+03  0.7546771E-02  0.1235069E+00
         21   -1    0    0  502  501  0.00000000000E+00  0.00000000000E+00  0.35085661167E+03  0.35085661167E+03  0.00000000000E+00 0. -1.
         21   -1    0    0  501  502 -0.00000000000E+00 -0.00000000000E+00 -0.11133465553E+02  0.11133465553E+02  0.00000000000E+00 0. -1.
         25    1    1    2    0    0  0.00000000000E+00  0.00000000000E+00  0.33972314612E+03  0.36199007722E+03  0.12500000000E+03 0.  0.
<mgrwt>
<rscale>  2 0.12500000E+03</rscale>
<asrwt>0</asrwt>
<pdfrwt beam="1">  1       21 0.53977932E-01 0.12500000E+03</pdfrwt>
<pdfrwt beam="2">  1       21 0.17128411E-02 0.12500000E+03</pdfrwt>
<totfact> 0.50664943E+06</totfact>
</mgrwt>
</event>
<event>
 3    0  0.1733489E+001  0.1250000E+03  0.7546771E-02  0.1235069E+00
         21   -1    0    0  502  501  0.00000000000E+00  0.00000000000E+00  0.10661246157E+03  0.10661246157E+03  0.00000000000E+00 0.  1.
         21   -1    0    0  501  502 -0.00000000000E+00 -0.00000000000E+00 -0.36639713057E+02  0.36639713057E+02  0.00000000000E+00 0.  1.
         25    1    1    2    0    0  0.00000000000E+00  0.00000000000E+00  0.69972748509E+02  0.14325217462E+03  0.12500000000E+03 0.  0.
<mgrwt>
<rscale>  2 0.12500000E+03</rscale>
<asrwt>0</asrwt>
<pdfrwt beam="1">  1       21 0.16401917E-01 0.12500000E+03</pdfrwt>
<pdfrwt beam="2">  1       21 0.56368790E-02 0.12500000E+03</pdfrwt>
<totfact> 0.71617535E+06</totfact>
</mgrwt>
</event>
<event>
 3    0  0.1677761E+001  0.1250000E+03  0.7546771E-02  0.1235069E+00
         21   -1    0    0  502  501  0.00000000000E+00  0.00000000000E+00  0.19366658573E+02  0.19366658573E+02  0.00000000000E+00 0.  1.
         21   -1    0    0  501  502 -0.00000000000E+00 -0.00000000000E+00 -0.20169974006E+03  0.20169974006E+03  0.00000000000E+00 0.  1.
         25    1    1    2    0    0  0.00000000000E+00  0.00000000000E+00 -0.18233308149E+03  0.22106639863E+03  0.12500000000E+03 0.  0.
<mgrwt>
<rscale>  2 0.12500000E+03</rscale>
<asrwt>0</asrwt>
<pdfrwt beam="1">  1       21 0.29794860E-02 0.12500000E+03</pdfrwt>
<pdfrwt beam="2">  1       21 0.31030728E-01 0.12500000E+03</pdfrwt>
<totfact> 0.62713702E+06</totfact>
</mgrwt>
</event>
<event>
 3    0  0.1747774E+001  0.1250000E+03  0.7546771E-02  0.1235069E+00
         21   -1    0    0  502  501  0.00000000000E+00  0.00000000000E+00  0.52062515092E+02  0.52062515092E+02  0.00000000000E+00 0.  1.
         21   -1    0    0  501  502 -0.00000000000E+00 -0.00000000000E+00 -0.75029990255E+02  0.75029990255E+02  0.00000000000E+00 0.  1.
         25    1    1    2    0    0  0.00000000000E+00  0.00000000000E+00 -0.22967475162E+02  0.12709250535E+03  0.12500000000E+03 0.  0.
<mgrwt>
<rscale>  2 0.12500000E+03</rscale>
<asrwt>0</asrwt>
<pdfrwt beam="1">  1       21 0.80096177E-02 0.12500000E+03</pdfrwt>
<pdfrwt beam="2">  1       21 0.11543075E-01 0.12500000E+03</pdfrwt>
<totfact> 0.73756549E+06</totfact>
</mgrwt>
</event>
<event>
 3    0  0.1646424E+001  0.1250000E+03  0.7546771E-02  0.1235069E+00
         21   -1    0    0  502  501  0.00000000000E+00  0.00000000000E+00  0.23128195378E+03  0.23128195378E+03  0.00000000000E+00 0.  1.
         21   -1    0    0  501  502 -0.00000000000E+00 -0.00000000000E+00 -0.16889558118E+02  0.16889558118E+02  0.00000000000E+00 0.  1.
         25    1    1    2    0    0  0.00000000000E+00  0.00000000000E+00  0.21439239566E+03  0.24817151190E+03  0.12500000000E+03 0.  0.
<mgrwt>
<rscale>  2 0.12500000E+03</rscale>
<asrwt>0</asrwt>
<pdfrwt beam="1">  1       21 0.35581837E-01 0.12500000E+03</pdfrwt>
<pdfrwt beam="2">  1       21 0.25983937E-02 0.12500000E+03</pdfrwt>
<totfact> 0.60050768E+06</totfact>
</mgrwt>
</event>
<event>
 3    0  0.1421609E+001  0.1250000E+03  0.7546771E-02  0.1235069E+00
         21   -1    0    0  502  501  0.00000000000E+00  0.00000000000E+00  0.55555404215E+03  0.55555404215E+03  0.00000000000E+00 0. -1.
         21   -1    0    0  501  502 -0.00000000000E+00 -0.00000000000E+00 -0.70312691541E+01  0.70312691541E+01  0.00000000000E+00 0. -1.
         25    1    1    2    0    0  0.00000000000E+00  0.00000000000E+00  0.54852277300E+03  0.56258531131E+03  0.12500000000E+03 0.  0.
<mgrwt>
<rscale>  2 0.12500000E+03</rscale>
<asrwt>0</asrwt>
<pdfrwt beam="1">  1       21 0.85469818E-01 0.12500000E+03</pdfrwt>
<pdfrwt beam="2">  1       21 0.10817342E-02 0.12500000E+03</pdfrwt>
<totfact> 0.38841254E+06</totfact>
</mgrwt>
</event>
<event>
 3    0  0.1685610E+001  0.1250000E+03  0.7546771E-02  0.1235069E+00
         21   -1    0    0  502  501  0.00000000000E+00  0.00000000000E+00  0.14912659206E+03  0.14912659206E+03  0.00000000000E+00 0. -1.
         21   -1    0    0  501  502 -0.00000000000E+00 -0.00000000000E+00 -0.26194188080E+02  0.26194188080E+02  0.00000000000E+00 0. -1.
         25    1    1    2    0    0  0.00000000000E+00  0.00000000000E+00  0.12293240398E+03  0.17532078014E+03  0.12500000000E+03 0.  0.
<mgrwt>
<rscale>  2 0.12500000E+03</rscale>
<asrwt>0</asrwt>
<pdfrwt beam="1">  1       21 0.22942552E-01 0.12500000E+03</pdfrwt>
<pdfrwt beam="2">  1       21 0.40298752E-02 0.12500000E+03</pdfrwt>
<totfact> 0.67692419E+06</totfact>
</mgrwt>
</event>
<event>
 3    0  0.1726703E+001  0.1250000E+03  0.7546771E-02  0.1235069E+00
         21   -1    0    0  502  501  0.00000000000E+00  0.00000000000E+00  0.12427316784E+03  0.12427316784E+03  0.00000000000E+00 0.  1.
         21   -1    0    0  501  502 -0.00000000000E+00 -0.00000000000E+00 -0.31432770790E+02  0.31432770790E+02  0.00000000000E+00 0.  1.
         25    1    1    2    0    0  0.00000000000E+00  0.00000000000E+00  0.92840397047E+02  0.15570593863E+03  0.12500000000E+03 0.  0.
<mgrwt>
<rscale>  2 0.12500000E+03</rscale>
<asrwt>0</asrwt>
<pdfrwt beam="1">  1       21 0.19118949E-01 0.12500000E+03</pdfrwt>
<pdfrwt beam="2">  1       21 0.48358109E-02 0.12500000E+03</pdfrwt>
<totfact> 0.70048026E+06</totfact>
</mgrwt>
</event>
<event>
 3    0  0.1725657E+001  0.1250000E+03  0.7546771E-02  0.1235069E+00
         21   -1    0    0  502  501  0.00000000000E+00  0.00000000000E+00  0.66183479445E+02  0.66183479445E+02  0.00000000000E+00 0. -1.
         21   -1    0    0  501  502 -0.00000000000E+00 -0.00000000000E+00 -0.59021526713E+02  0.59021526713E+02  0.00000000000E+00 0. -1.
         25    1    1    2    0    0  0.00000000000E+00  0.00000000000E+00  0.71619527317E+01  0.12520500616E+03  0.12500000000E+03 0.  0.
<mgrwt>
<rscale>  2 0.12500000E+03</rscale>
<asrwt>0</asrwt>
<pdfrwt beam="1">  1       21 0.10182074E-01 0.12500000E+03</pdfrwt>
<pdfrwt beam="2">  1       21 0.90802349E-02 0.12500000E+03</pdfrwt>
<totfact> 0.74015896E+06</totfact>
</mgrwt>
</event>
<event>
 3    0  0.1680683E+001  0.1250000E+03  0.7546771E-02  0.1235069E+00
         21   -1    0    0  502  501  0.00000000000E+00  0.00000000000E+00  0.21319880822E+02  0.21319880822E+02  0.00000000000E+00 0.  1.
         21   -1    0    0  501  502 -0.00000000000E+00 -0.00000000000E+00 -0.18322100544E+03  0.18322100544E+03  0.00000000000E+00 0.  1.
         25    1    1    2    0    0  0.00000000000E+00  0.00000000000E+00 -0.16190112462E+03  0.20454088626E+03  0.12500000000E+03 0.  0.
<mgrwt>
<rscale>  2 0.12500000E+03</rscale>
<asrwt>0</asrwt>
<pdfrwt beam="1">  1       21 0.32799817E-02 0.12500000E+03</pdfrwt>
<pdfrwt beam="2">  1       21 0.28187847E-01 0.12500000E+03</pdfrwt>
<totfact> 0.64438513E+06</totfact>
</mgrwt>
</event>
<event>
 3    0  0.1722800E+001  0.1250000E+03  0.7546771E-02  0.1235069E+00
         21   -1    0    0  502  501  0.00000000000E+00  0.00000000000E+00  0.14075825556E+03  0.14075825556E+03  0.00000000000E+00 0.  1.
         21   -1    0    0  501  502 -0.00000000000E+00 -0.00000000000E+00 -0.27751480610E+02  0.27751480610E+02  0.00000000000E+00 0.  1.
         25    1    1    2    0    0  0.00000000000E+00  0.00000000000E+00  0.11300677495E+03  0.16850973617E+03  0.12500000000E+03 0.  0.
<mgrwt>
<rscale>  2 0.12500000E+03</rscale>
<asrwt>0</asrwt>
<pdfrwt beam="1">  1       21 0.21655116E-01 0.12500000E+03</pdfrwt>
<pdfrwt beam="2">  1       21 0.42694586E-02 0.12500000E+03</pdfrwt>
<totfact> 0.68494358E+06</totfact>
</mgrwt>
</event>
<event>
 3    0  0.1379342E+001  0.1250000E+03  0.7546771E-02  0.1235069E+00
         21   -1    0    0  502  501  0.00000000000E+00  0.00000000000E+00  0.56436536081E+01  0.56436536081E+01  0.00000000000E+00 0. -1.
         21   -1    0    0  501  502 -0.00000000000E+00 -0.00000000000E+00 -0.69214914155E+03  0.69214914155E+03  0.00000000000E+00 0. -1.
         25    1    1    2    0    0  0.00000000000E+00  0.00000000000E+00 -0.68650548794E+03  0.69779279515E+03  0.12500000000E+03 0.  0.
<mgrwt>
<rscale>  2 0.12500000E+03</rscale>
<asrwt>0</asrwt>
<pdfrwt beam="1">  1       21 0.86825414E-03 0.12500000E+03</pdfrwt>
<pdfrwt beam="2">  1       21 0.10648451E+00 0.12500000E+03</pdfrwt>
<totfact> 0.32995400E+06</totfact>
</mgrwt>
</event>
<event>
 3    0  0.1543845E+001  0.1250000E+03  0.7546771E-02  0.1235069E+00
         21   -1    0    0  502  501  0.00000000000E+00  0.00000000000E+00  0.34478062694E+03  0.34478062694E+03  0.00000000000E+00 0. -1.
         21   -1    0    0  501  502 -0.00000000000E+00 -0.00000000000E+00 -0.11329667896E+02  0.11329667896E+02  0.00000000000E+00 0. -1.
         25    1    1    2    0    0  0.00000000000E+00  0.00000000000E+00  0.33345095904E+03  0.35611029483E+03  0.12500000000E+03 0.  0.
<mgrwt>
<rscale>  2 0.12500000E+03</rscale>
<asrwt>0</asrwt>
<pdfrwt beam="1">  1       21 0.53043165E-01 0.12500000E+03</pdfrwt>
<pdfrwt beam="2">  1       21 0.17430261E-02 0.12500000E+03</pdfrwt>
<totfact> 0.51090315E+06</totfact>
</mgrwt>
</event>
<event>
 3    0  0.1724842E+001  0.1250000E+03  0.7546771E-02  0.1235069E+00
         21   -1    0    0  502  501  0.00000000000E+00  0.00000000000E+00  0.51106912468E+02  0.51106912468E+02  0.00000000000E+00 0. -1.
         21   -1    0    0  501  502 -0.00000000000E+00 -0.00000000000E+00 -0.76432909197E+02  0.76432909197E+02  0.00000000000E+00 0. -1.
         25    1    1    2    0    0  0.00000000000E+00  0.00000000000E+00 -0.25325996729E+02  0.12753982166E+03  0.12500000000E+03 0.  0.
<mgrwt>
<rscale>  2 0.12500000E+03</rscale>
<asrwt>0</asrwt>
<pdfrwt beam="1">  1       21 0.78626020E-02 0.12500000E+03</pdfrwt>
<pdfrwt beam="2">  1       21 0.11758909E-01 0.12500000E+03</pdfrwt>
<totfact> 0.73695821E+06</totfact>
</mgrwt>
</event>
<event>
 3    0  0.1744732E+001  0.1250000E+03  0.7546771E-02  0.1235069E+00
         21   -1    0    0  502  501  0.00000000000E+00  0.00000000000E+00  0.41311195079E+02  0.41311195079E+02  0.00000000000E+00 0.  1.
         21   -1    0    0  501  502 -0.00000000000E+00 -0.00000000000E+00 -0.94556693228E+02  0.94556693228E+02  0.00000000000E+00 0.  1.
         25    1    1    2    0    0  0.00000000000E+00  0.00000000000E+00 -0.53245498149E+02  0.13586788831E+03  0.12500000000E+03 0.  0.
<mgrwt>
<rscale>  2 0.12500000E+03</rscale>
<asrwt>0</asrwt>
<pdfrwt beam="1">  1       21 0.63555686E-02 0.12500000E+03</pdfrwt>
<pdfrwt beam="2">  1       21 0.14547183E-01 0.12500000E+03</pdfrwt>
<totfact> 0.72581761E+06</totfact>
</mgrwt>
</event>
<event>
 3    0  0.1734432E+001  0.1250000E+03  0.7546771E-02  0.1235069E+00
         21   -1    0    0  502  501  0.00000000000E+00  0.00000000000E+00  0.37939389097E+02  0.37939389097E+02  0.00000000000E+00 0.  1.
         21   -1    0    0  501  502 -0.00000000000E+00 -0.00000000000E+00 -0.10296027672E+03  0.10296027672E+03  0.00000000000E+00 0.  1.
         25    1    1    2    0    0  0.00000000000E+00  0.00000000000E+00 -0.65020887623E+02  0.14089966582E+03  0.12500000000E+03 0.  0.
<mgrwt>
<rscale>  2 0.12500000E+03</rscale>
<asrwt>0</asrwt>
<pdfrwt beam="1">  1       21 0.58368291E-02 0.12500000E+03</pdfrwt>
<pdfrwt beam="2">  1       21 0.15840042E-01 0.12500000E+03</pdfrwt>
<totfact> 0.71922076E+06</totfact>
</mgrwt>
</event>
<event>
 3    0  0.1410170E+001  0.1250000E+03  0.7546771E-02  0.1235069E+00
         21   -1    0    0  502  501  0.00000000000E+00  0.00000000000E+00  0.61896017040E+01  0.61896017040E+01  0.00000000000E+00 0. -1.
         21   -1    0    0  501  502 -0.00000000000E+00 -0.00000000000E+00 -0.63109876641E+03  0.63109876641E+03  0.00000000000E+00 0. -1.
         25    1    1    2    0    0  0.00000000000E+00  0.00000000000E+00 -0.62490916471E+03  0.63728836812E+03  0.12500000000E+03 0.  0.
<mgrwt>
<rscale>  2 0.12500000E+03</rscale>
<asrwt>0</asrwt>
<pdfrwt beam="1">  1       21 0.95224599E-03 0.12500000E+03</pdfrwt>
<pdfrwt beam="2">  1       21 0.97092162E-01 0.12500000E+03</pdfrwt>
<totfact> 0.35458778E+06</totfact>
</mgrwt>
</event>
<event>
 3    0  0.1575206E+001  0.1250000E+03  0.7546771E-02  0.1235069E+00
         21   -1    0    0  502  501  0.00000000000E+00  0.00000000000E+00  0.28625330828E+03  0.28625330828E+03  0.00000000000E+00 0. -1.
         21   -1    0    0  501  502 -0.00000000000E+00 -0.00000000000E+00 -0.13646130497E+02  0.13646130497E+02  0.00000000000E+00 0. -1.
         25    1    1    2    0    0  0.00000000000E+00  0.00000000000E+00  0.27260717778E+03  0.29989943877E+03  0.12500000000E+03 0.  0.
<mgrwt>
<rscale>  2 0.12500000E+03</rscale>
<asrwt>0</asrwt>
<pdfrwt beam="1">  1       21 0.44038966E-01 0.12500000E+03</pdfrwt>
<pdfrwt beam="2">  1       21 0.20994049E-02 0.12500000E+03</pdfrwt>
<totfact> 0.55464534E+06</totfact>
</mgrwt>
</event>
<event>
 3    0  0.1368989E+001  0.1250000E+03  0.7546771E-02  0.1235069E+00
         21   -1    0    0  502  501  0.00000000000E+00  0.00000000000E+00  0.20314315335E+01  0.20314315335E+01  0.00000000000E+00 0. -1.
         21   -1    0    0  501  502 -0.00000000000E+00 -0.00000000000E+00 -0.19229050724E+04  0.19229050724E+04  0.00000000000E+00 0. -1.
         25    1    1    2    0    0  0.00000000000E+00  0.00000000000E+00 -0.19208736409E+04  0.19249365040E+04  0.12500000000E+03 0.  0.
<mgrwt>
<rscale>  2 0.12500000E+03</rscale>
<asrwt>0</asrwt>
<pdfrwt beam="1">  1       21 0.31252676E-03 0.12500000E+03</pdfrwt>
<pdfrwt beam="2">  1       21 0.29583266E+00 0.12500000E+03</pdfrwt>
<totfact> 0.87033172E+05</totfact>
</mgrwt>
</event>
<event>
 3    0  0.1722475E+001  0.1250000E+03  0.7546771E-02  0.1235069E+00
         21   -1    0    0  502  501  0.00000000000E+00  0.00000000000E+00  0.49714857091E+02  0.49714857091E+02  0.00000000000E+00 0. -1.
         21   -1    0    0  501  502 -0.00000000000E+00 -0.00000000000E+00 -0.78573091196E+02  0.78573091196E+02  0.00000000000E+00 0. -1.
         25    1    1    2    0    0  0.00000000000E+00  0.00000000000E+00 -0.28858234105E+02  0.12828794829E+03  0.12500000000E+03 0.  0.
<mgrwt>
<rscale>  2 0.12500000E+03</rscale>
<asrwt>0</asrwt>
<pdfrwt beam="1">  1       21 0.76484396E-02 0.12500000E+03</pdfrwt>
<pdfrwt beam="2">  1       21 0.12088168E-01 0.12500000E+03</pdfrwt>
<totfact> 0.73594697E+06</totfact>
</mgrwt>
</event>
<event>
 3    0  0.1368989E+001  0.1250000E+03  0.7546771E-02  0.1235069E+00
         21   -1    0    0  502  501  0.00000000000E+00  0.00000000000E+00  0.25814026800E+01  0.25814026800E+01  0.00000000000E+00 0. -1.
         21   -1    0    0  501  502 -0.00000000000E+00 -0.00000000000E+00 -0.15132276844E+04  0.15132276844E+04  0.00000000000E+00 0. -1.
         25    1    1    2    0    0  0.00000000000E+00  0.00000000000E+00 -0.15106462817E+04  0.15158090871E+04  0.12500000000E+03 0.  0.
<mgrwt>
<rscale>  2 0.12500000E+03</rscale>
<asrwt>0</asrwt>
<pdfrwt beam="1">  1       21 0.39713830E-03 0.12500000E+03</pdfrwt>
<pdfrwt beam="2">  1       21 0.23280460E+00 0.12500000E+03</pdfrwt>
<totfact> 0.13760038E+06</totfact>
</mgrwt>
</event>
<event>
 3    0  0.1443575E+001  0.1250000E+03  0.7546771E-02  0.1235069E+00
         21   -1    0    0  502  501  0.00000000000E+00  0.00000000000E+00  0.50644047260E+03  0.50644047260E+03  0.00000000000E+00 0. -1.
         21   -1    0    0  501  502 -0.00000000000E+00 -0.00000000000E+00 -0.77131473714E+01  0.77131473714E+01  0.00000000000E+00 0. -1.
         25    1    1    2    0    0  0.00000000000E+00  0.00000000000E+00  0.49872732523E+03  0.51415361997E+03  0.12500000000E+03 0.  0.
<mgrwt>
<rscale>  2 0.12500000E+03</rscale>
<asrwt>0</asrwt>
<pdfrwt beam="1">  1       21 0.77913893E-01 0.12500000E+03</pdfrwt>
<pdfrwt beam="2">  1       21 0.11866385E-02 0.12500000E+03</pdfrwt>
<totfact> 0.41286754E+06</totfact>
</mgrwt>
</event>
<event>
 3    0  0.1368989E+001  0.1250000E+03  0.7546771E-02  0.1235069E+00
         21   -1    0    0  502  501  0.00000000000E+00  0.00000000000E+00  0.27037030866E+04  0.27037030866E+04  0.00000000000E+00 0.  1.
         21   -1    0    0  501  502 -0.00000000000E+00 -0.00000000000E+00 -0.14447777270E+01  0.14447777270E+01  0.00000000000E+00 0.  1.
         25    1    1    2    0    0  0.00000000000E+00  0.00000000000E+00  0.27022583089E+04  0.27051478643E+04  0.12500000000E+03 0.  0.
<mgrwt>
<rscale>  2 0.12500000E+03</rscale>
<asrwt>0</asrwt>
<pdfrwt beam="1">  1       21 0.41595027E+00 0.12500000E+03</pdfrwt>
<pdfrwt beam="2">  1       21 0.22227566E-03 0.12500000E+03</pdfrwt>
<totfact> 0.29085380E+05</totfact>
</mgrwt>
</event>
<event>
 3    0  0.1748005E+001  0.1250000E+03  0.7546771E-02  0.1235069E+00
         21   -1    0    0  502  501  0.00000000000E+00  0.00000000000E+00  0.50068949610E+02  0.50068949610E+02  0.00000000000E+00 0.  1.
         21   -1    0    0  501  502 -0.00000000000E+00 -0.00000000000E+00 -0.78017414594E+02  0.78017414594E+02  0.00000000000E+00 0.  1.
         25    1    1    2    0    0  0.00000000000E+00  0.00000000000E+00 -0.27948464984E+02  0.12808636420E+03  0.12500000000E+03 0.  0.
<mgrwt>
<rscale>  2 0.12500000E+03</rscale>
<asrwt>0</asrwt>
<pdfrwt beam="1">  1       21 0.77029153E-02 0.12500000E+03</pdfrwt>
<pdfrwt beam="2">  1       21 0.12002679E-01 0.12500000E+03</pdfrwt>
<totfact> 0.73621896E+06</totfact>
</mgrwt>
</event>
<event>
 3    0  0.1592959E+001  0.1250000E+03  0.7546771E-02  0.1235069E+00
         21   -1    0    0  502  501  0.00000000000E+00  0.00000000000E+00  0.35606831378E+03  0.35606831378E+03  0.00000000000E+00 0.  1.
         21   -1    0    0  501  502 -0.00000000000E+00 -0.00000000000E+00 -0.10970507200E+02  0.10970507200E+02  0.00000000000E+00 0.  1.
         25    1    1    2    0    0  0.00000000000E+00  0.00000000000E+00  0.34509780658E+03  0.36703882098E+03  0.12500000000E+03 0.  0.
<mgrwt>
<rscale>  2 0.12500000E+03</rscale>
<asrwt>0</asrwt>
<pdfrwt beam="1">  1       21 0.54779732E-01 0.12500000E+03</pdfrwt>
<pdfrwt beam="2">  1       21 0.16877706E-02 0.12500000E+03</pdfrwt>
<totfact> 0.50304166E+06</totfact>
</mgrwt>
</event>
<event>
 3    0  0.1750855E+001  0.1250000E+03  0.7546771E-02  0.1235069E+00
         21   -1    0    0  502  501  0.00000000000E+00  0.00000000000E+00  0.58981863410E+02  0.58981863410E+02  0.00000000000E+00 0.  1.
         21   -1    0    0  501  502 -0.00000000000E+00 -0.00000000000E+00 -0.66227985591E+02  0.66227985591E+02  0.00000000000E+00 0.  1.
         25    1    1    2    0    0  0.00000000000E+00  0.00000000000E+00 -0.72461221811E+01  0.12520984900E+03  0.12500000000E+03 0.  0.
<mgrwt>
<rscale>  2 0.12500000E+03</rscale>
<asrwt>0</asrwt>
<pdfrwt beam="1">  1       21 0.90741328E-02 0.12500000E+03</pdfrwt>
<pdfrwt beam="2">  1       21 0.10188921E-01 0.12500000E+03</pdfrwt>
<totfact> 0.74015242E+06</totfact>
</mgrwt>
</event>
<event>
 3    0  0.1368989E+001  0.1250000E+03  0.7546771E-02  0.1235069E+00
         21   -1    0    0  502  501  0.00000000000E+00  0.00000000000E+00  0.73743996458E+03  0.73743996458E+03  0.00000000000E+00 0.  1.
         21   -1    0    0  501  502 -0.00000000000E+00 -0.00000000000E+00 -0.52970413696E+01  0.52970413696E+01  0.00000000000E+00 0.  1.
         25    1    1    2    0    0  0.00000000000E+00  0.00000000000E+00  0.73214292321E+03  0.74273700595E+03  0.12500000000E+03 0.  0.
<mgrwt>
<rscale>  2 0.12500000E+03</rscale>
<asrwt>0</asrwt>
<pdfrwt beam="1">  1       21 0.11345222E+00 0.12500000E+03</pdfrwt>
<pdfrwt beam="2">  1       21 0.81493003E-03 0.12500000E+03</pdfrwt>
<totfact> 0.31325991E+06</totfact>
</mgrwt>
</event>
<event>
 3    0  0.1455312E+001  0.1250000E+03  0.7546771E-02  0.1235069E+00
         21   -1    0    0  502  501  0.00000000000E+00  0.00000000000E+00  0.56660874988E+03  0.56660874988E+03  0.00000000000E+00 0. -1.
         21   -1    0    0  501  502 -0.00000000000E+00 -0.00000000000E+00 -0.68940869706E+01  0.68940869706E+01  0.00000000000E+00 0. -1.
         25    1    1    2    0    0  0.00000000000E+00  0.00000000000E+00  0.55971466291E+03  0.57350283685E+03  0.12500000000E+03 0.  0.
<mgrwt>
<rscale>  2 0.12500000E+03</rscale>
<asrwt>0</asrwt>
<pdfrwt beam="1">  1       21 0.87170541E-01 0.12500000E+03</pdfrwt>
<pdfrwt beam="2">  1       21 0.10606292E-02 0.12500000E+03</pdfrwt>
<totfact> 0.38319031E+06</totfact>
</mgrwt>
</event>
<event>
 3    0  0.1726119E+001  0.1250000E+03  0.7546771E-02  0.1235069E+00
         21   -1    0    0  502  501  0.00000000000E+00  0.00000000000E+00  0.61460140147E+02  0.61460140147E+02  0.00000000000E+00 0. -1.
         21   -1    0    0  501  502 -0.00000000000E+00 -0.00000000000E+00 -0.63557453508E+02  0.63557453508E+02  0.00000000000E+00 0. -1.
         25    1    1    2    0    0  0.00000000000E+00  0.00000000000E+00 -0.20973133613E+01  0.12501759366E+03  0.12500000000E+03 0.  0.
<mgrwt>
<rscale>  2 0.12500000E+03</rscale>
<asrwt>0</asrwt>
<pdfrwt beam="1">  1       21 0.94554061E-02 0.12500000E+03</pdfrwt>
<pdfrwt beam="2">  1       21 0.97780698E-02 0.12500000E+03</pdfrwt>
<totfact> 0.74041205E+06</totfact>
</mgrwt>
</event>
<event>
 3    0  0.1442211E+001  0.1250000E+03  0.7546771E-02  0.1235069E+00
         21   -1    0    0  502  501  0.00000000000E+00  0.00000000000E+00  0.58584790742E+03  0.58584790742E+03  0.00000000000E+00 0.  1.
         21   -1    0    0  501  502 -0.00000000000E+00 -0.00000000000E+00 -0.66676861870E+01  0.66676861870E+01  0.00000000000E+00 0.  1.
         25    1    1    2    0    0  0.00000000000E+00  0.00000000000E+00  0.57918022123E+03  0.59251559361E+03  0.12500000000E+03 0.  0.
<mgrwt>
<rscale>  2 0.12500000E+03</rscale>
<asrwt>0</asrwt>
<pdfrwt beam="1">  1       21 0.90130407E-01 0.12500000E+03</pdfrwt>
<pdfrwt beam="2">  1       21 0.10257983E-02 0.12500000E+03</pdfrwt>
<totfact> 0.37433317E+06</totfact>
</mgrwt>
</event>
<event>
 3    0  0.1738094E+001  0.1250000E+03  0.7546771E-02  0.1235069E+00
         21   -1    0    0  502  501  0.00000000000E+00  0.00000000000E+00  0.38639118171E+02  0.38639118171E+02  0.00000000000E+00 0.  1.
         21   -1    0    0  501  502 -0.00000000000E+00 -0.00000000000E+00 -0.10109573367E+03  0.10109573367E+03  0.00000000000E+00 0.  1.
         25    1    1    2    0    0  0.00000000000E+00  0.00000000000E+00 -0.62456615503E+02  0.13973485184E+03  0.12500000000E+03 0.  0.
<mgrwt>
<rscale>  2 0.12500000E+03</rscale>
<asrwt>0</asrwt>
<pdfrwt beam="1">  1       21 0.59444798E-02 0.12500000E+03</pdfrwt>
<pdfrwt beam="2">  1       21 0.15553190E-01 0.12500000E+03</pdfrwt>
<totfact> 0.72073942E+06</totfact>
</mgrwt>
</event>
<event>
 3    0  0.1711328E+001  0.1250000E+03  0.7546771E-02  0.1235069E+00
         21   -1    0    0  502  501  0.00000000000E+00  0.00000000000E+00  0.11229188650E+03  0.11229188650E+03  0.00000000000E+00 0. -1.
         21   -1    0    0  501  502 -0.00000000000E+00 -0.00000000000E+00 -0.34786573828E+02  0.34786573828E+02  0.00000000000E+00 0. -1.
         25    1    1    2    0    0  0.00000000000E+00  0.00000000000E+00  0.77505312673E+02  0.14707846033E+03  0.12500000000E+03 0.  0.
<mgrwt>
<rscale>  2 0.12500000E+03</rscale>
<asrwt>0</asrwt>
<pdfrwt beam="1">  1       21 0.17275675E-01 0.12500000E+03</pdfrwt>
<pdfrwt beam="2">  1       21 0.53517807E-02 0.12500000E+03</pdfrwt>
<totfact> 0.71128158E+06</totfact>
</mgrwt>
</event>
<event>
 3    0  0.1508389E+001  0.1250000E+03  0.7546771E-02  0.1235069E+00
         21   -1    0    0  502  501  0.00000000000E+00  0.00000000000E+00  0.45088781505E+03  0.45088781505E+03  0.00000000000E+00 0. -1.
         21   -1    0    0  501  502 -0.00000000000E+00 -0.00000000000E+00 -0.86634632154E+01  0.86634632154E+01  0.00000000000E+00 0. -1.
         25    1    1    2    0    0  0.00000000000E+00  0.00000000000E+00  0.44222435184E+03  0.45955127827E+03  0.12500000000E+03 0.  0.
<mgrwt>
<rscale>  2 0.12500000E+03</rscale>
<asrwt>0</asrwt>
<pdfrwt beam="1">  1       21 0.69367338E-01 0.12500000E+03</pdfrwt>
<pdfrwt beam="2">  1       21 0.13328408E-02 0.12500000E+03</pdfrwt>
<totfact> 0.44326210E+06</totfact>
</mgrwt>
</event>
<event>
 3    0  0.1704716E+001  0.1250000E+03  0.7546771E-02  0.1235069E+00
         21   -1    0    0  502  501  0.00000000000E+00  0.00000000000E+00  0.35943439136E+02  0.35943439136E+02  0.00000000000E+00 0. -1.
         21   -1    0    0  501  502 -0.00000000000E+00 -0.00000000000E+00 -0.10867769178E+03  0.10867769178E+03  0.00000000000E+00 0. -1.
         25    1    1    2    0    0  0.00000000000E+00  0.00000000000E+00 -0.72734252644E+02  0.14462113092E+03  0.12500000000E+03 0.  0.
<mgrwt>
<rscale>  2 0.12500000E+03</rscale>
<asrwt>0</asrwt>
<pdfrwt beam="1">  1       21 0.55297600E-02 0.12500000E+03</pdfrwt>
<pdfrwt beam="2">  1       21 0.16719645E-01 0.12500000E+03</pdfrwt>
<totfact> 0.71441620E+06</totfact>
</mgrwt>
</event>
<event>
 3    0  0.1728878E+001  0.1250000E+03  0.7546771E-02  0.1235069E+00
         21   -1    0    0  502  501  0.00000000000E+00  0.00000000000E+00  0.10884787777E+03  0.10884787777E+03  0.00000000000E+00 0.  1.
         21   -1    0    0  501  502 -0.00000000000E+00 -0.00000000000E+00 -0.35887240798E+02  0.35887240798E+02  0.00000000000E+00 0.  1.
         25    1    1    2    0    0  0.00000000000E+00  0.00000000000E+00  0.72960636974E+02  0.14473511857E+03  0.12500000000E+03 0.  0.
<mgrwt>
<rscale>  2 0.12500000E+03</rscale>
<asrwt>0</asrwt>
<pdfrwt beam="1">  1       21 0.16745827E-01 0.12500000E+03</pdfrwt>
<pdfrwt beam="2">  1       21 0.55211140E-02 0.12500000E+03</pdfrwt>
<totfact> 0.71427014E+06</totfact>
</mgrwt>
</event>
<event>
 3    0  0.1732316E+001  0.1250000E+03  0.7546771E-02  0.1235069E+00
         21   -1    0    0  502  501  0.00000000000E+00  0.00000000000E+00  0.10418413326E+03  0.10418413326E+03  0.00000000000E+00 0.  1.
         21   -1    0    0  501  502 -0.00000000000E+00 -0.00000000000E+00 -0.37493713080E+02  0.37493713080E+02  0.00000000000E+00 0.  1.
         25    1    1    2    0    0  0.00000000000E+00  0.00000000000E+00  0.66690420180E+02  0.14167784634E+03  0.12500000000E+03 0.  0.
<mgrwt>
<rscale>  2 0.12500000E+03</rscale>
<asrwt>0</asrwt>
<pdfrwt beam="1">  1       21 0.16028328E-01 0.12500000E+03</pdfrwt>
<pdfrwt beam="2">  1       21 0.57682636E-02 0.12500000E+03</pdfrwt>
<totfact> 0.71821019E+06</totfact>
</mgrwt>
</event>
<event>
 3    0  0.1710154E+001  0.1250000E+03  0.7546771E-02  0.1235069E+00
         21   -1    0    0  502  501  0.00000000000E+00  0.00000000000E+00  0.26142091165E+02  0.26142091165E+02  0.00000000000E+00 0.  1.
         21   -1    0    0  501  502 -0.00000000000E+00 -0.00000000000E+00 -0.14942377698E+03  0.14942377698E+03  0.00000000000E+00 0.  1.
         25    1    1    2    0    0  0.00000000000E+00  0.00000000000E+00 -0.12328168581E+03  0.17556586814E+03  0.12500000000E+03 0.  0.
<mgrwt>
<rscale>  2 0.12500000E+03</rscale>
<asrwt>0</asrwt>
<pdfrwt beam="1">  1       21 0.40218602E-02 0.12500000E+03</pdfrwt>
<pdfrwt beam="2">  1       21 0.22988273E-01 0.12500000E+03</pdfrwt>
<totfact> 0.67663883E+06</totfact>
</mgrwt>
</event>
<event>
 3    0  0.1749065E+001  0.1250000E+03  0.7546771E-02  0.1235069E+00
         21   -1    0    0  502  501  0.00000000000E+00  0.00000000000E+00  0.48924500022E+02  0.48924500022E+02  0.00000000000E+00 0.  1.
         21   -1    0    0  501  502 -0.00000000000E+00 -0.00000000000E+00 -0.79842410208E+02  0.79842410208E+02  0.00000000000E+00 0.  1.
         25    1    1    2    0    0  0.00000000000E+00  0.00000000000E+00 -0.30917910185E+02  0.12876691023E+03  0.12500000000E+03 0.  0.
<mgrwt>
<rscale>  2 0.12500000E+03</rscale>
<asrwt>0</asrwt>
<pdfrwt beam="1">  1       21 0.75268462E-02 0.12500000E+03</pdfrwt>
<pdfrwt beam="2">  1       21 0.12283448E-01 0.12500000E+03</pdfrwt>
<totfact> 0.73530204E+06</totfact>
</mgrwt>
</event>
<event>
 3    0  0.1368989E+001  0.1250000E+03  0.7546771E-02  0.1235069E+00
         21   -1    0    0  502  501  0.00000000000E+00  0.00000000000E+00  0.10008199307E+04  0.10008199307E+04  0.00000000000E+00 0. -1.
         21   -1    0    0  501  502 -0.00000000000E+00 -0.00000000000E+00 -0.39030497697E+01  0.39030497697E+01  0.00000000000E+00 0. -1.
         25    1    1    2    0    0  0.00000000000E+00  0.00000000000E+00  0.99691688092E+03  0.10047229805E+04  0.12500000000E+03 0.  0.
<mgrwt>
<rscale>  2 0.12500000E+03</rscale>
<asrwt>0</asrwt>
<pdfrwt beam="1">  1       21 0.15397209E+00 0.12500000E+03</pdfrwt>
<pdfrwt beam="2">  1       21 0.60046999E-03 0.12500000E+03</pdfrwt>
<totfact> 0.23501129E+06</totfact>
</mgrwt>
</event>
<event>
 3    0  0.1620100E+001  0.1250000E+03  0.7546771E-02  0.1235069E+00
         21   -1    0    0  502  501  0.00000000000E+00  0.00000000000E+00  0.29162782486E+03  0.29162782486E+03  0.00000000000E+00 0.  1.
         21   -1    0    0  501  502 -0.00000000000E+00 -0.00000000000E+00 -0.13394640933E+02  0.13394640933E+02  0.00000000000E+00 0.  1.
         25    1    1    2    0    0  0.00000000000E+00  0.00000000000E+00  0.27823318393E+03  0.30502246580E+03  0.12500000000E+03 0.  0.
<mgrwt>
<rscale>  2 0.12500000E+03</rscale>
<asrwt>0</asrwt>
<pdfrwt beam="1">  1       21 0.44865815E-01 0.12500000E+03</pdfrwt>
<pdfrwt beam="2">  1       21 0.20607142E-02 0.12500000E+03</pdfrwt>
<totfact> 0.55041355E+06</totfact>
</mgrwt>
</event>
<event>
 3    0  0.1725160E+001  0.1250000E+03  0.7546771E-02  0.1235069E+00
         21   -1    0    0  502  501  0.00000000000E+00  0.00000000000E+00  0.67448708915E+02  0.67448708915E+02  0.00000000000E+00 0. -1.
         21   -1    0    0  501  502 -0.00000000000E+00 -0.00000000000E+00 -0.57914377648E+02  0.57914377648E+02  0.00000000000E+00 0. -1.
         25    1    1    2    0    0  0.00000000000E+00  0.00000000000E+00  0.95343312672E+01  0.12536308656E+03  0.12500000000E+03 0.  0.
<mgrwt>
<rscale>  2 0.12500000E+03</rscale>
<asrwt>0</asrwt>
<pdfrwt beam="1">  1       21 0.10376724E-01 0.12500000E+03</pdfrwt>
<pdfrwt beam="2">  1       21 0.89099043E-02 0.12500000E+03</pdfrwt>
<totfact> 0.73994556E+06</totfact>
</mgrwt>
</event>
<event>
 3    0  0.1716290E+001  0.1250000E+03  0.7546771E-02  0.1235069E+00
         21   -1    0    0  502  501  0.00000000000E+00  0.00000000000E+00  0.30369582364E+02  0.30369582364E+02  0.00000000000E+00 0.  1.
         21   -1    0    0  501  502 -0.00000000000E+00 -0.00000000000E+00 -0.12862376417E+03  0.12862376417E+03  0.00000000000E+00 0.  1.
         25    1    1    2    0    0  0.00000000000E+00  0.00000000000E+00 -0.98254181808E+02  0.15899334654E+03  0.12500000000E+03 0.  0.
<mgrwt>
<rscale>  2 0.12500000E+03</rscale>
<asrwt>0</asrwt>
<pdfrwt beam="1">  1       21 0.46722435E-02 0.12500000E+03</pdfrwt>
<pdfrwt beam="2">  1       21 0.19788271E-01 0.12500000E+03</pdfrwt>
<totfact> 0.69642708E+06</totfact>
</mgrwt>
</event>
<event>
 3    0  0.1703788E+001  0.1250000E+03  0.7546771E-02  0.1235069E+00
         21   -1    0    0  502  501  0.00000000000E+00  0.00000000000E+00  0.28103873221E+02  0.28103873221E+02  0.00000000000E+00 0. -1.
         21   -1    0    0  501  502 -0.00000000000E+00 -0.00000000000E+00 -0.13899329709E+03  0.13899329709E+03  0.00000000000E+00 0. -1.
         25    1    1    2    0    0  0.00000000000E+00  0.00000000000E+00 -0.11088942387E+03  0.16709717031E+03  0.12500000000E+03 0.  0.
<mgrwt>
<rscale>  2 0.12500000E+03</rscale>
<asrwt>0</asrwt>
<pdfrwt beam="1">  1       21 0.43236728E-02 0.12500000E+03</pdfrwt>
<pdfrwt beam="2">  1       21 0.21383584E-01 0.12500000E+03</pdfrwt>
<totfact> 0.68662529E+06</totfact>
</mgrwt>
</event>
<event>
 3    0  0.1368989E+001  0.1250000E+03  0.7546771E-02  0.1235069E+00
         21   -1    0    0  502  501  0.00000000000E+00  0.00000000000E+00  0.73164502803E+03  0.73164502803E+03  0.00000000000E+00 0.  1.
         21   -1    0    0  501  502 -0.00000000000E+00 -0.00000000000E+00 -0.53389961667E+01  0.53389961667E+01  0.00000000000E+00 0.  1.
         25    1    1    2    0    0  0.00000000000E+00  0.00000000000E+00  0.72630603186E+03  0.73698402419E+03  0.12500000000E+03 0.  0.
<mgrwt>
<rscale>  2 0.12500000E+03</rscale>
<asrwt>0</asrwt>
<pdfrwt beam="1">  1       21 0.11256069E+00 0.12500000E+03</pdfrwt>
<pdfrwt beam="2">  1       21 0.82138460E-03 0.12500000E+03</pdfrwt>
<totfact> 0.31532054E+06</totfact>
</mgrwt>
</event>
<event>
 3    0  0.1368989E+001  0.1250000E+03  0.7546771E-02  0.1235069E+00
         21   -1    0    0  502  501  0.00000000000E+00  0.00000000000E+00  0.94356679019E+03  0.94356679019E+03  0.00000000000E+00 0.  1.
         21   -1    0    0  501  502 -0.00000000000E+00 -0.00000000000E+00 -0.41398765203E+01  0.41398765203E+01  0.00000000000E+00 0.  1.
         25    1    1    2    0    0  0.00000000000E+00  0.00000000000E+00  0.93942691367E+03  0.94770666671E+03  0.12500000000E+03 0.  0.
<mgrwt>
<rscale>  2 0.12500000E+03</rscale>
<asrwt>0</asrwt>
<pdfrwt beam="1">  1       21 0.14516395E+00 0.12500000E+03</pdfrwt>
<pdfrwt beam="2">  1       21 0.63690483E-03 0.12500000E+03</pdfrwt>
<totfact> 0.24972936E+06</totfact>
</mgrwt>
</event>
<event>
 3    0  0.1579688E+001  0.1250000E+03  0.7546771E-02  0.1235069E+00
         21   -1    0    0  502  501  0.00000000000E+00  0.00000000000E+00  0.28426376298E+03  0.28426376298E+03  0.00000000000E+00 0. -1.
         21   -1    0    0  501  502 -0.00000000000E+00 -0.00000000000E+00 -0.13741638959E+02  0.13741638959E+02  0.00000000000E+00 0. -1.
         25    1    1    2    0    0  0.00000000000E+00  0.00000000000E+00  0.27052212402E+03  0.29800540194E+03  0.12500000000E+03 0.  0.
<mgrwt>
<rscale>  2 0.12500000E+03</rscale>
<asrwt>0</asrwt>
<pdfrwt beam="1">  1       21 0.43732882E-01 0.12500000E+03</pdfrwt>
<pdfrwt beam="2">  1       21 0.21140985E-02 0.12500000E+03</pdfrwt>
<totfact> 0.55622343E+06</totfact>
</mgrwt>
</event>
<event>
 3    0  0.1731078E+001  0.1250000E+03  0.7546771E-02  0.1235069E+00
         21   -1    0    0  502  501  0.00000000000E+00  0.00000000000E+00  0.32847715163E+02  0.32847715163E+02  0.00000000000E+00 0.  1.
         21   -1    0    0  501  502 -0.00000000000E+00 -0.00000000000E+00 -0.11891999126E+03  0.11891999126E+03  0.00000000000E+00 0.  1.
         25    1    1    2    0    0  0.00000000000E+00  0.00000000000E+00 -0.86072276092E+02  0.15176770642E+03  0.12500000000E+03 0.  0.
<mgrwt>
<rscale>  2 0.12500000E+03</rscale>
<asrwt>0</asrwt>
<pdfrwt beam="1">  1       21 0.50534946E-02 0.12500000E+03</pdfrwt>
<pdfrwt beam="2">  1       21 0.18295383E-01 0.12500000E+03</pdfrwt>
<totfact> 0.70537845E+06</totfact>
</mgrwt>
</event>
<event>
 3    0  0.1529002E+001  0.1250000E+03  0.7546771E-02  0.1235069E+00
         21   -1    0    0  502  501  0.00000000000E+00  0.00000000000E+00  0.44046919615E+03  0.44046919615E+03  0.00000000000E+00 0. -1.
         21   -1    0    0  501  502 -0.00000000000E+00 -0.00000000000E+00 -0.88683840643E+01  0.88683840643E+01  0.00000000000E+00 0. -1.
         25    1    1    2    0    0  0.00000000000E+00  0.00000000000E+00  0.43160081209E+03  0.44933758022E+03  0.12500000000E+03 0.  0.
<mgrwt>
<rscale>  2 0.12500000E+03</rscale>
<asrwt>0</asrwt>
<pdfrwt beam="1">  1       21 0.67764475E-01 0.12500000E+03</pdfrwt>
<pdfrwt beam="2">  1       21 0.13643671E-02 0.12500000E+03</pdfrwt>
<totfact> 0.44931940E+06</totfact>
</mgrwt>
</event>
<event>
 3    0  0.1368989E+001  0.1250000E+03  0.7546771E-02  0.1235069E+00
         21   -1    0    0  502  501  0.00000000000E+00  0.00000000000E+00  0.55694615724E+01  0.55694615724E+01  0.00000000000E+00 0. -1.
         21   -1    0    0  501  502 -0.00000000000E+00 -0.00000000000E+00 -0.70136941412E+03  0.70136941412E+03  0.00000000000E+00 0. -1.
         25    1    1    2    0    0  0.00000000000E+00  0.00000000000E+00 -0.69579995254E+03  0.70693887569E+03  0.12500000000E+03 0.  0.
<mgrwt>
<rscale>  2 0.12500000E+03</rscale>
<asrwt>0</asrwt>
<pdfrwt beam="1">  1       21 0.85684013E-03 0.12500000E+03</pdfrwt>
<pdfrwt beam="2">  1       21 0.10790300E+00 0.12500000E+03</pdfrwt>
<totfact> 0.32644331E+06</totfact>
</mgrwt>
</event>
<event>
 3    0  0.1566049E+001  0.1250000E+03  0.7546771E-02  0.1235069E+00
         21   -1    0    0  502  501  0.00000000000E+00  0.00000000000E+00  0.12074064427E+02  0.12074064427E+02  0.00000000000E+00 0. -1.
         21   -1    0    0  501  502 -0.00000000000E+00 -0.00000000000E+00 -0.32352403149E+03  0.32352403149E+03  0.00000000000E+00 0. -1.
         25    1    1    2    0    0  0.00000000000E+00  0.00000000000E+00 -0.31144996706E+03  0.33559809592E+03  0.12500000000E+03 0.  0.
<mgrwt>
<rscale>  2 0.12500000E+03</rscale>
<asrwt>0</asrwt>
<pdfrwt beam="1">  1       21 0.18575484E-02 0.12500000E+03</pdfrwt>
<pdfrwt beam="2">  1       21 0.49772927E-01 0.12500000E+03</pdfrwt>
<totfact> 0.52619967E+06</totfact>
</mgrwt>
</event>
<event>
 3    0  0.1368989E+001  0.1250000E+03  0.7546771E-02  0.1235069E+00
         21   -1    0    0  502  501  0.00000000000E+00  0.00000000000E+00  0.66036012783E+03  0.66036012783E+03  0.00000000000E+00 0. -1.
         21   -1    0    0  501  502 -0.00000000000E+00 -0.00000000000E+00 -0.59153329151E+01  0.59153329151E+01  0.00000000000E+00 0. -1.
         25    1    1    2    0    0  0.00000000000E+00  0.00000000000E+00  0.65444479492E+03  0.66627546075E+03  0.12500000000E+03 0.  0.
<mgrwt>
<rscale>  2 0.12500000E+03</rscale>
<asrwt>0</asrwt>
<pdfrwt beam="1">  1       21 0.10159381E+00 0.12500000E+03</pdfrwt>
<pdfrwt beam="2">  1       21 0.91005174E-03 0.12500000E+03</pdfrwt>
<totfact> 0.34251286E+06</totfact>
</mgrwt>
</event>
<event>
 3    0  0.1715494E+001  0.1250000E+03  0.7546771E-02  0.1235069E+00
         21   -1    0    0  502  501  0.00000000000E+00  0.00000000000E+00  0.28987475851E+02  0.28987475851E+02  0.00000000000E+00 0.  1.
         21   -1    0    0  501  502 -0.00000000000E+00 -0.00000000000E+00 -0.13475647277E+03  0.13475647277E+03  0.00000000000E+00 0.  1.
         25    1    1    2    0    0  0.00000000000E+00  0.00000000000E+00 -0.10576899691E+03  0.16374394862E+03  0.12500000000E+03 0.  0.
<mgrwt>
<rscale>  2 0.12500000E+03</rscale>
<asrwt>0</asrwt>
<pdfrwt beam="1">  1       21 0.44596117E-02 0.12500000E+03</pdfrwt>
<pdfrwt beam="2">  1       21 0.20731765E-01 0.12500000E+03</pdfrwt>
<totfact> 0.69064895E+06</totfact>
</mgrwt>
</event>
<event>
 3    0  0.1675628E+001  0.1250000E+03  0.7546771E-02  0.1235069E+00
         21   -1    0    0  502  501  0.00000000000E+00  0.00000000000E+00  0.24531931634E+02  0.24531931634E+02  0.00000000000E+00 0. -1.
         21   -1    0    0  501  502 -0.00000000000E+00 -0.00000000000E+00 -0.15923124433E+03  0.15923124433E+03  0.00000000000E+00 0. -1.
         25    1    1    2    0    0  0.00000000000E+00  0.00000000000E+00 -0.13469931270E+03  0.18376317597E+03  0.12500000000E+03 0.  0.
<mgrwt>
<rscale>  2 0.12500000E+03</rscale>
<asrwt>0</asrwt>
<pdfrwt beam="1">  1       21 0.37741435E-02 0.12500000E+03</pdfrwt>
<pdfrwt beam="2">  1       21 0.24497114E-01 0.12500000E+03</pdfrwt>
<totfact> 0.66722438E+06</totfact>
</mgrwt>
</event>
<event>
 3    0  0.1714174E+001  0.1250000E+03  0.7546771E-02  0.1235069E+00
         21   -1    0    0  502  501  0.00000000000E+00  0.00000000000E+00  0.98083019356E+02  0.98083019356E+02  0.00000000000E+00 0. -1.
         21   -1    0    0  501  502 -0.00000000000E+00 -0.00000000000E+00 -0.39825955865E+02  0.39825955865E+02  0.00000000000E+00 0. -1.
         25    1    1    2    0    0  0.00000000000E+00  0.00000000000E+00  0.58257063491E+02  0.13790897522E+03  0.12500000000E+03 0.  0.
<mgrwt>
<rscale>  2 0.12500000E+03</rscale>
<asrwt>0</asrwt>
<pdfrwt beam="1">  1       21 0.15089695E-01 0.12500000E+03</pdfrwt>
<pdfrwt beam="2">  1       21 0.61270701E-02 0.12500000E+03</pdfrwt>
<totfact> 0.72313477E+06</totfact>
</mgrwt>
</event>
<event>
 3    0  0.1650436E+001  0.1250000E+03  0.7546771E-02  0.1235069E+00
         21   -1    0    0  502  501  0.00000000000E+00  0.00000000000E+00  0.19231791414E+02  0.19231791414E+02  0.00000000000E+00 0. -1.
         21   -1    0    0  501  502 -0.00000000000E+00 -0.00000000000E+00 -0.20311420376E+03  0.20311420376E+03  0.00000000000E+00 0. -1.
         25    1    1    2    0    0  0.00000000000E+00  0.00000000000E+00 -0.18388241235E+03  0.22234599518E+03  0.12500000000E+03 0.  0.
<mgrwt>
<rscale>  2 0.12500000E+03</rscale>
<asrwt>0</asrwt>
<pdfrwt beam="1">  1       21 0.29587371E-02 0.12500000E+03</pdfrwt>
<pdfrwt beam="2">  1       21 0.31248339E-01 0.12500000E+03</pdfrwt>
<totfact> 0.62583545E+06</totfact>
</mgrwt>
</event>
<event>
 3    0  0.1589831E+001  0.1250000E+03  0.7546771E-02  0.1235069E+00
         21   -1    0    0  502  501  0.00000000000E+00  0.00000000000E+00  0.12093558945E+02  0.12093558945E+02  0.00000000000E+00 0.  1.
         21   -1    0    0  501  502 -0.00000000000E+00 -0.00000000000E+00 -0.32300251876E+03  0.32300251876E+03  0.00000000000E+00 0.  1.
         25    1    1    2    0    0  0.00000000000E+00  0.00000000000E+00 -0.31090895982E+03  0.33509607771E+03  0.12500000000E+03 0.  0.
<mgrwt>
<rscale>  2 0.12500000E+03</rscale>
<asrwt>0</asrwt>
<pdfrwt beam="1">  1       21 0.18605477E-02 0.12500000E+03</pdfrwt>
<pdfrwt beam="2">  1       21 0.49692690E-01 0.12500000E+03</pdfrwt>
<totfact> 0.52658328E+06</totfact>
</mgrwt>
</event>
<event>
 3    0  0.1468519E+001  0.1250000E+03  0.7546771E-02  0.1235069E+00
         21   -1    0    0  502  501  0.00000000000E+00  0.00000000000E+00  0.79537344887E+01  0.79537344887E+01  0.00000000000E+00 0. -1.
         21   -1    0    0  501  502 -0.00000000000E+00 -0.00000000000E+00 -0.49112149840E+03  0.49112149840E+03  0.00000000000E+00 0. -1.
         25    1    1    2    0    0  0.00000000000E+00  0.00000000000E+00 -0.48316776391E+03  0.49907523289E+03  0.12500000000E+03 0.  0.
<mgrwt>
<rscale>  2 0.12500000E+03</rscale>
<asrwt>0</asrwt>
<pdfrwt beam="1">  1       21 0.12236512E-02 0.12500000E+03</pdfrwt>
<pdfrwt beam="2">  1       21 0.75557172E-01 0.12500000E+03</pdfrwt>
<totfact> 0.42094261E+06</totfact>
</mgrwt>
</event>
<event>
 3    0  0.1682029E+001  0.1250000E+03  0.7546771E-02  0.1235069E+00
         21   -1    0    0  502  501  0.00000000000E+00  0.00000000000E+00  0.15666363150E+03  0.15666363150E+03  0.00000000000E+00 0. -1.
         21   -1    0    0  501  502 -0.00000000000E+00 -0.00000000000E+00 -0.24933993695E+02  0.24933993695E+02  0.00000000000E+00 0. -1.
         25    1    1    2    0    0  0.00000000000E+00  0.00000000000E+00  0.13172963781E+03  0.18159762519E+03  0.12500000000E+03 0.  0.
<mgrwt>
<rscale>  2 0.12500000E+03</rscale>
<asrwt>0</asrwt>
<pdfrwt beam="1">  1       21 0.24102096E-01 0.12500000E+03</pdfrwt>
<pdfrwt beam="2">  1       21 0.38359991E-02 0.12500000E+03</pdfrwt>
<totfact> 0.66968733E+06</totfact>
</mgrwt>
</event>
<event>
 3    0  0.1673418E+001  0.1250000E+03  0.7546771E-02  0.1235069E+00
         21   -1    0    0  502  501  0.00000000000E+00  0.00000000000E+00  0.25266952670E+02  0.25266952670E+02  0.00000000000E+00 0. -1.
         21   -1    0    0  501  502 -0.00000000000E+00 -0.00000000000E+00 -0.15459917352E+03  0.15459917352E+03  0.00000000000E+00 0. -1.
         25    1    1    2    0    0  0.00000000000E+00  0.00000000000E+00 -0.12933222085E+03  0.17986612619E+03  0.12500000000E+03 0.  0.
<mgrwt>
<rscale>  2 0.12500000E+03</rscale>
<asrwt>0</asrwt>
<pdfrwt beam="1">  1       21 0.38872235E-02 0.12500000E+03</pdfrwt>
<pdfrwt beam="2">  1       21 0.23784488E-01 0.12500000E+03</pdfrwt>
<totfact> 0.67166897E+06</totfact>
</mgrwt>
</event>
<event>
 3    0  0.1748767E+001  0.1250000E+03  0.7546771E-02  0.1235069E+00
         21   -1    0    0  502  501  0.00000000000E+00  0.00000000000E+00  0.73795810224E+02  0.73795810224E+02  0.00000000000E+00 0.  1.
         21   -1    0    0  501  502 -0.00000000000E+00 -0.00000000000E+00 -0.52933221928E+02  0.52933221928E+02  0.00000000000E+00 0.  1.
         25    1    1    2    0    0  0.00000000000E+00  0.00000000000E+00  0.20862588296E+02  0.12672903215E+03  0.12500000000E+03 0.  0.
<mgrwt>
<rscale>  2 0.12500000E+03</rscale>
<asrwt>0</asrwt>
<pdfrwt beam="1">  1       21 0.11353202E-01 0.12500000E+03</pdfrwt>
<pdfrwt beam="2">  1       21 0.81435726E-02 0.12500000E+03</pdfrwt>
<totfact> 0.73806071E+06</totfact>
</mgrwt>
</event>
<event>
 3    0  0.1701717E+001  0.1250000E+03  0.7546771E-02  0.1235069E+00
         21   -1    0    0  502  501  0.00000000000E+00  0.00000000000E+00  0.32265612272E+02  0.32265612272E+02  0.00000000000E+00 0. -1.
         21   -1    0    0  501  502 -0.00000000000E+00 -0.00000000000E+00 -0.12106542306E+03  0.12106542306E+03  0.00000000000E+00 0. -1.
         25    1    1    2    0    0  0.00000000000E+00  0.00000000000E+00 -0.88799810790E+02  0.15333103533E+03  0.12500000000E+03 0.  0.
<mgrwt>
<rscale>  2 0.12500000E+03</rscale>
<asrwt>0</asrwt>
<pdfrwt beam="1">  1       21 0.49639402E-02 0.12500000E+03</pdfrwt>
<pdfrwt beam="2">  1       21 0.18625450E-01 0.12500000E+03</pdfrwt>
<totfact> 0.70343227E+06</totfact>
</mgrwt>
</event>
<event>
 3    0  0.1681393E+001  0.1250000E+03  0.7546771E-02  0.1235069E+00
         21   -1    0    0  502  501  0.00000000000E+00  0.00000000000E+00  0.21353492753E+02  0.21353492753E+02  0.00000000000E+00 0.  1.
         21   -1    0    0  501  502 -0.00000000000E+00 -0.00000000000E+00 -0.18293260241E+03  0.18293260241E+03  0.00000000000E+00 0.  1.
         25    1    1    2    0    0  0.00000000000E+00  0.00000000000E+00 -0.16157910966E+03  0.20428609517E+03  0.12500000000E+03 0.  0.
<mgrwt>
<rscale>  2 0.12500000E+03</rscale>
<asrwt>0</asrwt>
<pdfrwt beam="1">  1       21 0.32851528E-02 0.12500000E+03</pdfrwt>
<pdfrwt beam="2">  1       21 0.28143477E-01 0.12500000E+03</pdfrwt>
<totfact> 0.64465763E+06</totfact>
</mgrwt>
</event>
<event>
 3    0  0.1685563E+001  0.1250000E+03  0.7546771E-02  0.1235069E+00
         21   -1    0    0  502  501  0.00000000000E+00  0.00000000000E+00  0.19674735300E+02  0.19674735300E+02  0.00000000000E+00 0.  1.
         21   -1    0    0  501  502 -0.00000000000E+00 -0.00000000000E+00 -0.19854142586E+03  0.19854142586E+03  0.00000000000E+00 0.  1.
         25    1    1    2    0    0  0.00000000000E+00  0.00000000000E+00 -0.17886669056E+03  0.21821616116E+03  0.12500000000E+03 0.  0.
<mgrwt>
<rscale>  2 0.12500000E+03</rscale>
<asrwt>0</asrwt>
<pdfrwt beam="1">  1       21 0.30268824E-02 0.12500000E+03</pdfrwt>
<pdfrwt beam="2">  1       21 0.30544834E-01 0.12500000E+03</pdfrwt>
<totfact> 0.63005334E+06</totfact>
</mgrwt>
</event>
<event>
 3    0  0.1713765E+001  0.1250000E+03  0.7546771E-02  0.1235069E+00
         21   -1    0    0  502  501  0.00000000000E+00  0.00000000000E+00  0.28830274465E+02  0.28830274465E+02  0.00000000000E+00 0.  1.
         21   -1    0    0  501  502 -0.00000000000E+00 -0.00000000000E+00 -0.13549125260E+03  0.13549125260E+03  0.00000000000E+00 0.  1.
         25    1    1    2    0    0  0.00000000000E+00  0.00000000000E+00 -0.10666097813E+03  0.16432152706E+03  0.12500000000E+03 0.  0.
<mgrwt>
<rscale>  2 0.12500000E+03</rscale>
<asrwt>0</asrwt>
<pdfrwt beam="1">  1       21 0.44354270E-02 0.12500000E+03</pdfrwt>
<pdfrwt beam="2">  1       21 0.20844807E-01 0.12500000E+03</pdfrwt>
<totfact> 0.68995270E+06</totfact>
</mgrwt>
</event>
<event>
 3    0  0.1427907E+001  0.1250000E+03  0.7546771E-02  0.1235069E+00
         21   -1    0    0  502  501  0.00000000000E+00  0.00000000000E+00  0.51512748699E+03  0.51512748699E+03  0.00000000000E+00 0. -1.
         21   -1    0    0  501  502 -0.00000000000E+00 -0.00000000000E+00 -0.75830742848E+01  0.75830742848E+01  0.00000000000E+00 0. -1.
         25    1    1    2    0    0  0.00000000000E+00  0.00000000000E+00  0.50754441271E+03  0.52271056128E+03  0.12500000000E+03 0.  0.
<mgrwt>
<rscale>  2 0.12500000E+03</rscale>
<asrwt>0</asrwt>
<pdfrwt beam="1">  1       21 0.79250356E-01 0.12500000E+03</pdfrwt>
<pdfrwt beam="2">  1       21 0.11666272E-02 0.12500000E+03</pdfrwt>
<totfact> 0.40838623E+06</totfact>
</mgrwt>
</event>
<event>
 3    0  0.1570616E+001  0.1250000E+03  0.7546771E-02  0.1235069E+00
         21   -1    0    0  502  501  0.00000000000E+00  0.00000000000E+00  0.10178459875E+02  0.10178459875E+02  0.00000000000E+00 0.  1.
         21   -1    0    0  501  502 -0.00000000000E+00 -0.00000000000E+00 -0.38377613586E+03  0.38377613586E+03  0.00000000000E+00 0.  1.
         25    1    1    2    0    0  0.00000000000E+00  0.00000000000E+00 -0.37359767599E+03  0.39395459574E+03  0.12500000000E+03 0.  0.
<mgrwt>
<rscale>  2 0.12500000E+03</rscale>
<asrwt>0</asrwt>
<pdfrwt beam="1">  1       21 0.15659170E-02 0.12500000E+03</pdfrwt>
<pdfrwt beam="2">  1       21 0.59042479E-01 0.12500000E+03</pdfrwt>
<totfact> 0.48444939E+06</totfact>
</mgrwt>
</event>
<event>
 3    0  0.1461244E+001  0.1250000E+03  0.7546771E-02  0.1235069E+00
         21   -1    0    0  502  501  0.00000000000E+00  0.00000000000E+00  0.73461603129E+01  0.73461603129E+01  0.00000000000E+00 0. -1.
         21   -1    0    0  501  502 -0.00000000000E+00 -0.00000000000E+00 -0.53174036961E+03  0.53174036961E+03  0.00000000000E+00 0. -1.
         25    1    1    2    0    0  0.00000000000E+00  0.00000000000E+00 -0.52439420930E+03  0.53908652992E+03  0.12500000000E+03 0.  0.
<mgrwt>
<rscale>  2 0.12500000E+03</rscale>
<asrwt>0</asrwt>
<pdfrwt beam="1">  1       21 0.11301785E-02 0.12500000E+03</pdfrwt>
<pdfrwt beam="2">  1       21 0.81806215E-01 0.12500000E+03</pdfrwt>
<totfact> 0.40000669E+06</totfact>
</mgrwt>
</event>
<event>
 3    0  0.1382222E+001  0.1250000E+03  0.7546771E-02  0.1235069E+00
         21   -1    0    0  502  501  0.00000000000E+00  0.00000000000E+00  0.59174934078E+01  0.59174934078E+01  0.00000000000E+00 0.  1.
         21   -1    0    0  501  502 -0.00000000000E+00 -0.00000000000E+00 -0.66011902859E+03  0.66011902859E+03  0.00000000000E+00 0.  1.
         25    1    1    2    0    0  0.00000000000E+00  0.00000000000E+00 -0.65420153518E+03  0.66603652200E+03  0.12500000000E+03 0.  0.
<mgrwt>
<rscale>  2 0.12500000E+03</rscale>
<asrwt>0</asrwt>
<pdfrwt beam="1">  1       21 0.91038324E-03 0.12500000E+03</pdfrwt>
<pdfrwt beam="2">  1       21 0.10155681E+00 0.12500000E+03</pdfrwt>
<totfact> 0.34261055E+06</totfact>
</mgrwt>
</event>
<event>
 3    0  0.1561388E+001  0.1250000E+03  0.7546771E-02  0.1235069E+00
         21   -1    0    0  502  501  0.00000000000E+00  0.00000000000E+00  0.11618956947E+02  0.11618956947E+02  0.00000000000E+00 0. -1.
         21   -1    0    0  501  502 -0.00000000000E+00 -0.00000000000E+00 -0.33619627114E+03  0.33619627114E+03  0.00000000000E+00 0. -1.
         25    1    1    2    0    0  0.00000000000E+00  0.00000000000E+00 -0.32457731420E+03  0.34781522809E+03  0.12500000000E+03 0.  0.
<mgrwt>
<rscale>  2 0.12500000E+03</rscale>
<asrwt>0</asrwt>
<pdfrwt beam="1">  1       21 0.17875316E-02 0.12500000E+03</pdfrwt>
<pdfrwt beam="2">  1       21 0.51722510E-01 0.12500000E+03</pdfrwt>
<totfact> 0.51700186E+06</totfact>
</mgrwt>
</event>
<event>
 3    0  0.1640930E+001  0.1250000E+03  0.7546771E-02  0.1235069E+00
         21   -1    0    0  502  501  0.00000000000E+00  0.00000000000E+00  0.23357176315E+03  0.23357176315E+03  0.00000000000E+00 0.  1.
         21   -1    0    0  501  502 -0.00000000000E+00 -0.00000000000E+00 -0.16723982160E+02  0.16723982160E+02  0.00000000000E+00 0.  1.
         25    1    1    2    0    0  0.00000000000E+00  0.00000000000E+00  0.21684778099E+03  0.25029574531E+03  0.12500000000E+03 0.  0.
<mgrwt>
<rscale>  2 0.12500000E+03</rscale>
<asrwt>0</asrwt>
<pdfrwt beam="1">  1       21 0.35934115E-01 0.12500000E+03</pdfrwt>
<pdfrwt beam="2">  1       21 0.25729205E-02 0.12500000E+03</pdfrwt>
<totfact> 0.59850357E+06</totfact>
</mgrwt>
</event>
<event>
 3    0  0.1662806E+001  0.1250000E+03  0.7546771E-02  0.1235069E+00
         21   -1    0    0  502  501  0.00000000000E+00  0.00000000000E+00  0.18025851743E+02  0.18025851743E+02  0.00000000000E+00 0.  1.
         21   -1    0    0  501  502 -0.00000000000E+00 -0.00000000000E+00 -0.21670265881E+03  0.21670265881E+03  0.00000000000E+00 0.  1.
         25    1    1    2    0    0  0.00000000000E+00  0.00000000000E+00 -0.19867680706E+03  0.23472851055E+03  0.12500000000E+03 0.  0.
<mgrwt>
<rscale>  2 0.12500000E+03</rscale>
<asrwt>0</asrwt>
<pdfrwt beam="1">  1       21 0.27732080E-02 0.12500000E+03</pdfrwt>
<pdfrwt beam="2">  1       21 0.33338870E-01 0.12500000E+03</pdfrwt>
<totfact> 0.61346535E+06</totfact>
</mgrwt>
</event>
<event>
 3    0  0.1646043E+001  0.1250000E+03  0.7546771E-02  0.1235069E+00
         21   -1    0    0  502  501  0.00000000000E+00  0.00000000000E+00  0.20032264476E+02  0.20032264476E+02  0.00000000000E+00 0. -1.
         21   -1    0    0  501  502 -0.00000000000E+00 -0.00000000000E+00 -0.19499792471E+03  0.19499792471E+03  0.00000000000E+00 0. -1.
         25    1    1    2    0    0  0.00000000000E+00  0.00000000000E+00 -0.17496566023E+03  0.21503018918E+03  0.12500000000E+03 0.  0.
<mgrwt>
<rscale>  2 0.12500000E+03</rscale>
<asrwt>0</asrwt>
<pdfrwt beam="1">  1       21 0.30818867E-02 0.12500000E+03</pdfrwt>
<pdfrwt beam="2">  1       21 0.29999682E-01 0.12500000E+03</pdfrwt>
<totfact> 0.63334157E+06</totfact>
</mgrwt>
</event>
<event>
 3    0  0.1683714E+001  0.1250000E+03  0.7546771E-02  0.1235069E+00
         21   -1    0    0  502  501  0.00000000000E+00  0.00000000000E+00  0.23499664665E+02  0.23499664665E+02  0.00000000000E+00 0. -1.
         21   -1    0    0  501  502 -0.00000000000E+00 -0.00000000000E+00 -0.16622577622E+03  0.16622577622E+03  0.00000000000E+00 0. -1.
         25    1    1    2    0    0  0.00000000000E+00  0.00000000000E+00 -0.14272611156E+03  0.18972544089E+03  0.12500000000E+03 0.  0.
<mgrwt>
<rscale>  2 0.12500000E+03</rscale>
<asrwt>0</asrwt>
<pdfrwt beam="1">  1       21 0.36153332E-02 0.12500000E+03</pdfrwt>
<pdfrwt beam="2">  1       21 0.25573195E-01 0.12500000E+03</pdfrwt>
<totfact> 0.66052992E+06</totfact>
</mgrwt>
</event>
<event>
 3    0  0.1551590E+001  0.1250000E+03  0.7546771E-02  0.1235069E+00
         21   -1    0    0  502  501  0.00000000000E+00  0.00000000000E+00  0.35156935774E+03  0.35156935774E+03  0.00000000000E+00 0.  1.
         21   -1    0    0  501  502 -0.00000000000E+00 -0.00000000000E+00 -0.11110894377E+02  0.11110894377E+02  0.00000000000E+00 0.  1.
         25    1    1    2    0    0  0.00000000000E+00  0.00000000000E+00  0.34045846336E+03  0.36268025211E+03  0.12500000000E+03 0.  0.
<mgrwt>
<rscale>  2 0.12500000E+03</rscale>
<asrwt>0</asrwt>
<pdfrwt beam="1">  1       21 0.54087585E-01 0.12500000E+03</pdfrwt>
<pdfrwt beam="2">  1       21 0.17093686E-02 0.12500000E+03</pdfrwt>
<totfact> 0.50615382E+06</totfact>
</mgrwt>
</event>
<event>
 3    0  0.1721671E+001  0.1250000E+03  0.7546771E-02  0.1235069E+00
         21   -1    0    0  502  501  0.00000000000E+00  0.00000000000E+00  0.82027674079E+02  0.82027674079E+02  0.00000000000E+00 0. -1.
         21   -1    0    0  501  502 -0.00000000000E+00 -0.00000000000E+00 -0.47621123528E+02  0.47621123528E+02  0.00000000000E+00 0. -1.
         25    1    1    2    0    0  0.00000000000E+00  0.00000000000E+00  0.34406550551E+02  0.12964879761E+03  0.12500000000E+03 0.  0.
<mgrwt>
<rscale>  2 0.12500000E+03</rscale>
<asrwt>0</asrwt>
<pdfrwt beam="1">  1       21 0.12619642E-01 0.12500000E+03</pdfrwt>
<pdfrwt beam="2">  1       21 0.73263267E-02 0.12500000E+03</pdfrwt>
<totfact> 0.73411890E+06</totfact>
</mgrwt>
</event>
<event>
 3    0  0.1621056E+001  0.1250000E+03  0.7546771E-02  0.1235069E+00
         21   -1    0    0  502  501  0.00000000000E+00  0.00000000000E+00  0.12635676938E+02  0.12635676938E+02  0.00000000000E+00 0.  1.
         21   -1    0    0  501  502 -0.00000000000E+00 -0.00000000000E+00 -0.30914449769E+03  0.30914449769E+03  0.00000000000E+00 0.  1.
         25    1    1    2    0    0  0.00000000000E+00  0.00000000000E+00 -0.29650882075E+03  0.32178017463E+03  0.12500000000E+03 0.  0.
<mgrwt>
<rscale>  2 0.12500000E+03</rscale>
<asrwt>0</asrwt>
<pdfrwt beam="1">  1       21 0.19439503E-02 0.12500000E+03</pdfrwt>
<pdfrwt beam="2">  1       21 0.47560693E-01 0.12500000E+03</pdfrwt>
<totfact> 0.53692573E+06</totfact>
</mgrwt>
</event>
<event>
 3    0  0.1607192E+001  0.1250000E+03  0.7546771E-02  0.1235069E+00
         21   -1    0    0  502  501  0.00000000000E+00  0.00000000000E+00  0.29725901474E+03  0.29725901474E+03  0.00000000000E+00 0.  1.
         21   -1    0    0  501  502 -0.00000000000E+00 -0.00000000000E+00 -0.13140896680E+02  0.13140896680E+02  0.00000000000E+00 0.  1.
         25    1    1    2    0    0  0.00000000000E+00  0.00000000000E+00  0.28411811806E+03  0.31039991142E+03  0.12500000000E+03 0.  0.
<mgrwt>
<rscale>  2 0.12500000E+03</rscale>
<asrwt>0</asrwt>
<pdfrwt beam="1">  1       21 0.45732151E-01 0.12500000E+03</pdfrwt>
<pdfrwt beam="2">  1       21 0.20216766E-02 0.12500000E+03</pdfrwt>
<totfact> 0.54602826E+06</totfact>
</mgrwt>
</event>
<event>
 3    0  0.1431279E+001  0.1250000E+03  0.7546771E-02  0.1235069E+00
         21   -1    0    0  502  501  0.00000000000E+00  0.00000000000E+00  0.51324658489E+03  0.51324658489E+03  0.00000000000E+00 0. -1.
         21   -1    0    0  501  502 -0.00000000000E+00 -0.00000000000E+00 -0.76108640856E+01  0.76108640856E+01  0.00000000000E+00 0. -1.
         25    1    1    2    0    0  0.00000000000E+00  0.00000000000E+00  0.50563572080E+03  0.52085744897E+03  0.12500000000E+03 0.  0.
<mgrwt>
<rscale>  2 0.12500000E+03</rscale>
<asrwt>0</asrwt>
<pdfrwt beam="1">  1       21 0.78960986E-01 0.12500000E+03</pdfrwt>
<pdfrwt beam="2">  1       21 0.11709026E-02 0.12500000E+03</pdfrwt>
<totfact> 0.40935062E+06</totfact>
</mgrwt>
</event>
<event>
 3    0  0.1368989E+001  0.1250000E+03  0.7546771E-02  0.1235069E+00
         21   -1    0    0  502  501  0.00000000000E+00  0.00000000000E+00  0.17360199024E+04  0.17360199024E+04  0.00000000000E+00 0.  1.
         21   -1    0    0  501  502 -0.00000000000E+00 -0.00000000000E+00 -0.22501182127E+01  0.22501182127E+01  0.00000000000E+00 0.  1.
         25    1    1    2    0    0  0.00000000000E+00  0.00000000000E+00  0.17337697842E+04  0.17382700206E+04  0.12500000000E+03 0.  0.
<mgrwt>
<rscale>  2 0.12500000E+03</rscale>
<asrwt>0</asrwt>
<pdfrwt beam="1">  1       21 0.26707891E+00 0.12500000E+03</pdfrwt>
<pdfrwt beam="2">  1       21 0.34617342E-03 0.12500000E+03</pdfrwt>
<totfact> 0.10799096E+06</totfact>
</mgrwt>
</event>
<event>
 3    0  0.1719995E+001  0.1250000E+03  0.7546771E-02  0.1235069E+00
         21   -1    0    0  502  501  0.00000000000E+00  0.00000000000E+00  0.27413383176E+02  0.27413383176E+02  0.00000000000E+00 0.  1.
         21   -1    0    0  501  502 -0.00000000000E+00 -0.00000000000E+00 -0.14249426913E+03  0.14249426913E+03  0.00000000000E+00 0.  1.
         25    1    1    2    0    0  0.00000000000E+00  0.00000000000E+00 -0.11508088595E+03  0.16990765231E+03  0.12500000000E+03 0.  0.
<mgrwt>
<rscale>  2 0.12500000E+03</rscale>
<asrwt>0</asrwt>
<pdfrwt beam="1">  1       21 0.42174436E-02 0.12500000E+03</pdfrwt>
<pdfrwt beam="2">  1       21 0.21922195E-01 0.12500000E+03</pdfrwt>
<totfact> 0.68328584E+06</totfact>
</mgrwt>
</event>
<event>
 3    0  0.1432826E+001  0.1250000E+03  0.7546771E-02  0.1235069E+00
         21   -1    0    0  502  501  0.00000000000E+00  0.00000000000E+00  0.57939953623E+03  0.57939953623E+03  0.00000000000E+00 0. -1.
         21   -1    0    0  501  502 -0.00000000000E+00 -0.00000000000E+00 -0.67418935565E+01  0.67418935565E+01  0.00000000000E+00 0. -1.
         25    1    1    2    0    0  0.00000000000E+00  0.00000000000E+00  0.57265764268E+03  0.58614142979E+03  0.12500000000E+03 0.  0.
<mgrwt>
<rscale>  2 0.12500000E+03</rscale>
<asrwt>0</asrwt>
<pdfrwt beam="1">  1       21 0.89138351E-01 0.12500000E+03</pdfrwt>
<pdfrwt beam="2">  1       21 0.10372148E-02 0.12500000E+03</pdfrwt>
<totfact> 0.37726972E+06</totfact>
</mgrwt>
</event>
<event>
 3    0  0.1368989E+001  0.1250000E+03  0.7546771E-02  0.1235069E+00
         21   -1    0    0  502  501  0.00000000000E+00  0.00000000000E+00  0.46110039525E+01  0.46110039525E+01  0.00000000000E+00 0.  1.
         21   -1    0    0  501  502 -0.00000000000E+00 -0.00000000000E+00 -0.84715824151E+03  0.84715824151E+03  0.00000000000E+00 0.  1.
         25    1    1    2    0    0  0.00000000000E+00  0.00000000000E+00 -0.84254723756E+03  0.85176924547E+03  0.12500000000E+03 0.  0.
<mgrwt>
<rscale>  2 0.12500000E+03</rscale>
<asrwt>0</asrwt>
<pdfrwt beam="1">  1       21 0.70938590E-03 0.12500000E+03</pdfrwt>
<pdfrwt beam="2">  1       21 0.13033191E+00 0.12500000E+03</pdfrwt>
<totfact> 0.27717771E+06</totfact>
</mgrwt>
</event>
<event>
 3    0  0.1714169E+001  0.1250000E+03  0.7546771E-02  0.1235069E+00
         21   -1    0    0  502  501  0.00000000000E+00  0.00000000000E+00  0.14434549063E+03  0.14434549063E+03  0.00000000000E+00 0.  1.
         21   -1    0    0  501  502 -0.00000000000E+00 -0.00000000000E+00 -0.27061808325E+02  0.27061808325E+02  0.00000000000E+00 0.  1.
         25    1    1    2    0    0  0.00000000000E+00  0.00000000000E+00  0.11728368230E+03  0.17140729895E+03  0.12500000000E+03 0.  0.
<mgrwt>
<rscale>  2 0.12500000E+03</rscale>
<asrwt>0</asrwt>
<pdfrwt beam="1">  1       21 0.22206998E-01 0.12500000E+03</pdfrwt>
<pdfrwt beam="2">  1       21 0.41633552E-02 0.12500000E+03</pdfrwt>
<totfact> 0.68151199E+06</totfact>
</mgrwt>
</event>
<event>
 3    0  0.1669874E+001  0.1250000E+03  0.7546771E-02  0.1235069E+00
         21   -1    0    0  502  501  0.00000000000E+00  0.00000000000E+00  0.21965802476E+02  0.21965802476E+02  0.00000000000E+00 0. -1.
         21   -1    0    0  501  502 -0.00000000000E+00 -0.00000000000E+00 -0.17783324804E+03  0.17783324804E+03  0.00000000000E+00 0. -1.
         25    1    1    2    0    0  0.00000000000E+00  0.00000000000E+00 -0.15586744556E+03  0.19979905051E+03  0.12500000000E+03 0.  0.
<mgrwt>
<rscale>  2 0.12500000E+03</rscale>
<asrwt>0</asrwt>
<pdfrwt beam="1">  1       21 0.33793542E-02 0.12500000E+03</pdfrwt>
<pdfrwt beam="2">  1       21 0.27358962E-01 0.12500000E+03</pdfrwt>
<totfact> 0.64949032E+06</totfact>
</mgrwt>
</event>
<event>
 3    0  0.1624294E+001  0.1250000E+03  0.7546771E-02  0.1235069E+00
         21   -1    0    0  502  501  0.00000000000E+00  0.00000000000E+00  0.25575157919E+03  0.25575157919E+03  0.00000000000E+00 0. -1.
         21   -1    0    0  501  502 -0.00000000000E+00 -0.00000000000E+00 -0.15273610480E+02  0.15273610480E+02  0.00000000000E+00 0. -1.
         25    1    1    2    0    0  0.00000000000E+00  0.00000000000E+00  0.24047796871E+03  0.27102518967E+03  0.12500000000E+03 0.  0.
<mgrwt>
<rscale>  2 0.12500000E+03</rscale>
<asrwt>0</asrwt>
<pdfrwt beam="1">  1       21 0.39346394E-01 0.12500000E+03</pdfrwt>
<pdfrwt beam="2">  1       21 0.23497864E-02 0.12500000E+03</pdfrwt>
<totfact> 0.57953253E+06</totfact>
</mgrwt>
</event>
<event>
 3    0  0.1368989E+001  0.1250000E+03  0.7546771E-02  0.1235069E+00
         21   -1    0    0  502  501  0.00000000000E+00  0.00000000000E+00  0.78268833981E+03  0.78268833981E+03  0.00000000000E+00 0.  1.
         21   -1    0    0  501  502 -0.00000000000E+00 -0.00000000000E+00 -0.49908115419E+01  0.49908115419E+01  0.00000000000E+00 0.  1.
         25    1    1    2    0    0  0.00000000000E+00  0.00000000000E+00  0.77769752827E+03  0.78767915135E+03  0.12500000000E+03 0.  0.
<mgrwt>
<rscale>  2 0.12500000E+03</rscale>
<asrwt>0</asrwt>
<pdfrwt beam="1">  1       21 0.12041349E+00 0.12500000E+03</pdfrwt>
<pdfrwt beam="2">  1       21 0.76781778E-03 0.12500000E+03</pdfrwt>
<totfact> 0.29775145E+06</totfact>
</mgrwt>
</event>
<event>
 3    0  0.1720807E+001  0.1250000E+03  0.7546771E-02  0.1235069E+00
         21   -1    0    0  502  501  0.00000000000E+00  0.00000000000E+00  0.13239511388E+03  0.13239511388E+03  0.00000000000E+00 0.  1.
         21   -1    0    0  501  502 -0.00000000000E+00 -0.00000000000E+00 -0.29504487631E+02  0.29504487631E+02  0.00000000000E+00 0.  1.
         25    1    1    2    0    0  0.00000000000E+00  0.00000000000E+00  0.10289062625E+03  0.16189960151E+03  0.12500000000E+03 0.  0.
<mgrwt>
<rscale>  2 0.12500000E+03</rscale>
<asrwt>0</asrwt>
<pdfrwt beam="1">  1       21 0.20368479E-01 0.12500000E+03</pdfrwt>
<pdfrwt beam="2">  1       21 0.45391520E-02 0.12500000E+03</pdfrwt>
<totfact> 0.69288127E+06</totfact>
</mgrwt>
</event>
<event>
 3    0  0.1723706E+001  0.1250000E+03  0.7546771E-02  0.1235069E+00
         21   -1    0    0  502  501  0.00000000000E+00  0.00000000000E+00  0.54879709452E+02  0.54879709452E+02  0.00000000000E+00 0. -1.
         21   -1    0    0  501  502 -0.00000000000E+00 -0.00000000000E+00 -0.71178401617E+02  0.71178401617E+02  0.00000000000E+00 0. -1.
         25    1    1    2    0    0  0.00000000000E+00  0.00000000000E+00 -0.16298692164E+02  0.12605811107E+03  0.12500000000E+03 0.  0.
<mgrwt>
<rscale>  2 0.12500000E+03</rscale>
<asrwt>0</asrwt>
<pdfrwt beam="1">  1       21 0.84430322E-02 0.12500000E+03</pdfrwt>
<pdfrwt beam="2">  1       21 0.10950523E-01 0.12500000E+03</pdfrwt>
<totfact> 0.73898030E+06</totfact>
</mgrwt>
</event>
<event>
 3    0  0.1712410E+001  0.1250000E+03  0.7546771E-02  0.1235069E+00
         21   -1    0    0  502  501  0.00000000000E+00  0.00000000000E+00  0.99028975411E+02  0.99028975411E+02  0.00000000000E+00 0. -1.
         21   -1    0    0  501  502 -0.00000000000E+00 -0.00000000000E+00 -0.39445525754E+02  0.39445525754E+02  0.00000000000E+00 0. -1.
         25    1    1    2    0    0  0.00000000000E+00  0.00000000000E+00  0.59583449657E+02  0.13847450117E+03  0.12500000000E+03 0.  0.
<mgrwt>
<rscale>  2 0.12500000E+03</rscale>
<asrwt>0</asrwt>
<pdfrwt beam="1">  1       21 0.15235227E-01 0.12500000E+03</pdfrwt>
<pdfrwt beam="2">  1       21 0.60685424E-02 0.12500000E+03</pdfrwt>
<totfact> 0.72239090E+06</totfact>
</mgrwt>
</event>
<event>
 3    0  0.1578807E+001  0.1250000E+03  0.7546771E-02  0.1235069E+00
         21   -1    0    0  502  501  0.00000000000E+00  0.00000000000E+00  0.29971133504E+03  0.29971133504E+03  0.00000000000E+00 0. -1.
         21   -1    0    0  501  502 -0.00000000000E+00 -0.00000000000E+00 -0.13033374261E+02  0.13033374261E+02  0.00000000000E+00 0. -1.
         25    1    1    2    0    0  0.00000000000E+00  0.00000000000E+00  0.28667796078E+03  0.31274470930E+03  0.12500000000E+03 0.  0.
<mgrwt>
<rscale>  2 0.12500000E+03</rscale>
<asrwt>0</asrwt>
<pdfrwt beam="1">  1       21 0.46109431E-01 0.12500000E+03</pdfrwt>
<pdfrwt beam="2">  1       21 0.20051347E-02 0.12500000E+03</pdfrwt>
<totfact> 0.54413344E+06</totfact>
</mgrwt>
</event>
<event>
 3    0  0.1741892E+001  0.1250000E+03  0.7546771E-02  0.1235069E+00
         21   -1    0    0  502  501  0.00000000000E+00  0.00000000000E+00  0.96488509910E+02  0.96488509910E+02  0.00000000000E+00 0.  1.
         21   -1    0    0  501  502 -0.00000000000E+00 -0.00000000000E+00 -0.40484094983E+02  0.40484094983E+02  0.00000000000E+00 0.  1.
         25    1    1    2    0    0  0.00000000000E+00  0.00000000000E+00  0.56004414927E+02  0.13697260489E+03  0.12500000000E+03 0.  0.
<mgrwt>
<rscale>  2 0.12500000E+03</rscale>
<asrwt>0</asrwt>
<pdfrwt beam="1">  1       21 0.14844386E-01 0.12500000E+03</pdfrwt>
<pdfrwt beam="2">  1       21 0.62283223E-02 0.12500000E+03</pdfrwt>
<totfact> 0.72436325E+06</totfact>
</mgrwt>
</event>
<event>
 3    0  0.1723523E+001  0.1250000E+03  0.7546771E-02  0.1235069E+00
         21   -1    0    0  502  501  0.00000000000E+00  0.00000000000E+00  0.48611148636E+02  0.48611148636E+02  0.00000000000E+00 0. -1.
         21   -1    0    0  501  502 -0.00000000000E+00 -0.00000000000E+00 -0.80357080826E+02  0.80357080826E+02  0.00000000000E+00 0. -1.
         25    1    1    2    0    0  0.00000000000E+00  0.00000000000E+00 -0.31745932190E+02  0.12896822946E+03  0.12500000000E+03 0.  0.
<mgrwt>
<rscale>  2 0.12500000E+03</rscale>
<asrwt>0</asrwt>
<pdfrwt beam="1">  1       21 0.74786384E-02 0.12500000E+03</pdfrwt>
<pdfrwt beam="2">  1       21 0.12362628E-01 0.12500000E+03</pdfrwt>
<totfact> 0.73503148E+06</totfact>
</mgrwt>
</event>
<event>
 3    0  0.1744734E+001  0.1250000E+03  0.7546771E-02  0.1235069E+00
         21   -1    0    0  502  501  0.00000000000E+00  0.00000000000E+00  0.45739693845E+02  0.45739693845E+02  0.00000000000E+00 0.  1.
         21   -1    0    0  501  502 -0.00000000000E+00 -0.00000000000E+00 -0.85401752213E+02  0.85401752213E+02  0.00000000000E+00 0.  1.
         25    1    1    2    0    0  0.00000000000E+00  0.00000000000E+00 -0.39662058368E+02  0.13114144606E+03  0.12500000000E+03 0.  0.
<mgrwt>
<rscale>  2 0.12500000E+03</rscale>
<asrwt>0</asrwt>
<pdfrwt beam="1">  1       21 0.70368760E-02 0.12500000E+03</pdfrwt>
<pdfrwt beam="2">  1       21 0.13138731E-01 0.12500000E+03</pdfrwt>
<totfact> 0.73211617E+06</totfact>
</mgrwt>
</event>
<event>
 3    0  0.1724464E+001  0.1250000E+03  0.7546771E-02  0.1235069E+00
         21   -1    0    0  502  501  0.00000000000E+00  0.00000000000E+00  0.50869314108E+02  0.50869314108E+02  0.00000000000E+00 0. -1.
         21   -1    0    0  501  502 -0.00000000000E+00 -0.00000000000E+00 -0.76789908975E+02  0.76789908975E+02  0.00000000000E+00 0. -1.
         25    1    1    2    0    0  0.00000000000E+00  0.00000000000E+00 -0.25920594867E+02  0.12765922308E+03  0.12500000000E+03 0.  0.
<mgrwt>
<rscale>  2 0.12500000E+03</rscale>
<asrwt>0</asrwt>
<pdfrwt beam="1">  1       21 0.78260483E-02 0.12500000E+03</pdfrwt>
<pdfrwt beam="2">  1       21 0.11813832E-01 0.12500000E+03</pdfrwt>
<totfact> 0.73679646E+06</totfact>
</mgrwt>
</event>
<event>
 3    0  0.1584026E+001  0.1250000E+03  0.7546771E-02  0.1235069E+00
         21   -1    0    0  502  501  0.00000000000E+00  0.00000000000E+00  0.33656868975E+03  0.33656868975E+03  0.00000000000E+00 0.  1.
         21   -1    0    0  501  502 -0.00000000000E+00 -0.00000000000E+00 -0.11606100386E+02  0.11606100386E+02  0.00000000000E+00 0.  1.
         25    1    1    2    0    0  0.00000000000E+00  0.00000000000E+00  0.32496258937E+03  0.34817479014E+03  0.12500000000E+03 0.  0.
<mgrwt>
<rscale>  2 0.12500000E+03</rscale>
<asrwt>0</asrwt>
<pdfrwt beam="1">  1       21 0.51779791E-01 0.12500000E+03</pdfrwt>
<pdfrwt beam="2">  1       21 0.17855542E-02 0.12500000E+03</pdfrwt>
<totfact> 0.51673515E+06</totfact>
</mgrwt>
</event>
<event>
 3    0  0.1484355E+001  0.1250000E+03  0.7546771E-02  0.1235069E+00
         21   -1    0    0  502  501  0.00000000000E+00  0.00000000000E+00  0.75242822357E+01  0.75242822357E+01  0.00000000000E+00 0. -1.
         21   -1    0    0  501  502 -0.00000000000E+00 -0.00000000000E+00 -0.51915250886E+03  0.51915250886E+03  0.00000000000E+00 0. -1.
         25    1    1    2    0    0  0.00000000000E+00  0.00000000000E+00 -0.51162822662E+03  0.52667679109E+03  0.12500000000E+03 0.  0.
<mgrwt>
<rscale>  2 0.12500000E+03</rscale>
<asrwt>0</asrwt>
<pdfrwt beam="1">  1       21 0.11575819E-02 0.12500000E+03</pdfrwt>
<pdfrwt beam="2">  1       21 0.79869618E-01 0.12500000E+03</pdfrwt>
<totfact> 0.40633322E+06</totfact>
</mgrwt>
</event>
<event>
 3    0  0.1689964E+001  0.1250000E+03  0.7546771E-02  0.1235069E+00
         21   -1    0    0  502  501  0.00000000000E+00  0.00000000000E+00  0.14425885658E+03  0.14425885658E+03  0.00000000000E+00 0. -1.
         21   -1    0    0  501  502 -0.00000000000E+00 -0.00000000000E+00 -0.27078060180E+02  0.27078060180E+02  0.00000000000E+00 0. -1.
         25    1    1    2    0    0  0.00000000000E+00  0.00000000000E+00  0.11718079640E+03  0.17133691676E+03  0.12500000000E+03 0.  0.
<mgrwt>
<rscale>  2 0.12500000E+03</rscale>
<asrwt>0</asrwt>
<pdfrwt beam="1">  1       21 0.22193670E-01 0.12500000E+03</pdfrwt>
<pdfrwt beam="2">  1       21 0.41658555E-02 0.12500000E+03</pdfrwt>
<totfact> 0.68159504E+06</totfact>
</mgrwt>
</event>
<event>
 3    0  0.1745061E+001  0.1250000E+03  0.7546771E-02  0.1235069E+00
         21   -1    0    0  502  501  0.00000000000E+00  0.00000000000E+00  0.83118716843E+02  0.83118716843E+02  0.00000000000E+00 0.  1.
         21   -1    0    0  501  502 -0.00000000000E+00 -0.00000000000E+00 -0.46996033485E+02  0.46996033485E+02  0.00000000000E+00 0.  1.
         25    1    1    2    0    0  0.00000000000E+00  0.00000000000E+00  0.36122683358E+02  0.13011475033E+03  0.12500000000E+03 0.  0.
<mgrwt>
<rscale>  2 0.12500000E+03</rscale>
<asrwt>0</asrwt>
<pdfrwt beam="1">  1       21 0.12787495E-01 0.12500000E+03</pdfrwt>
<pdfrwt beam="2">  1       21 0.72301590E-02 0.12500000E+03</pdfrwt>
<totfact> 0.73349583E+06</totfact>
</mgrwt>
</event>
<event>
 3    0  0.1724026E+001  0.1250000E+03  0.7546771E-02  0.1235069E+00
         21   -1    0    0  502  501  0.00000000000E+00  0.00000000000E+00  0.73613392135E+02  0.73613392135E+02  0.00000000000E+00 0. -1.
         21   -1    0    0  501  502 -0.00000000000E+00 -0.00000000000E+00 -0.53064393403E+02  0.53064393403E+02  0.00000000000E+00 0. -1.
         25    1    1    2    0    0  0.00000000000E+00  0.00000000000E+00  0.20548998731E+02  0.12667778554E+03  0.12500000000E+03 0.  0.
<mgrwt>
<rscale>  2 0.12500000E+03</rscale>
<asrwt>0</asrwt>
<pdfrwt beam="1">  1       21 0.11325137E-01 0.12500000E+03</pdfrwt>
<pdfrwt beam="2">  1       21 0.81637528E-02 0.12500000E+03</pdfrwt>
<totfact> 0.73813068E+06</totfact>
</mgrwt>
</event>
<event>
 3    0  0.1368989E+001  0.1250000E+03  0.7546771E-02  0.1235069E+00
         21   -1    0    0  502  501  0.00000000000E+00  0.00000000000E+00  0.47260607579E+01  0.47260607579E+01  0.00000000000E+00 0. -1.
         21   -1    0    0  501  502 -0.00000000000E+00 -0.00000000000E+00 -0.82653402063E+03  0.82653402063E+03  0.00000000000E+00 0. -1.
         25    1    1    2    0    0  0.00000000000E+00  0.00000000000E+00 -0.82180795987E+03  0.83126008139E+03  0.12500000000E+03 0.  0.
<mgrwt>
<rscale>  2 0.12500000E+03</rscale>
<asrwt>0</asrwt>
<pdfrwt beam="1">  1       21 0.72708582E-03 0.12500000E+03</pdfrwt>
<pdfrwt beam="2">  1       21 0.12715916E+00 0.12500000E+03</pdfrwt>
<totfact> 0.28352940E+06</totfact>
</mgrwt>
</event>
<event>
 3    0  0.1634031E+001  0.1250000E+03  0.7546771E-02  0.1235069E+00
         21   -1    0    0  502  501  0.00000000000E+00  0.00000000000E+00  0.17196756872E+02  0.17196756872E+02  0.00000000000E+00 0. -1.
         21   -1    0    0  501  502 -0.00000000000E+00 -0.00000000000E+00 -0.22715038825E+03  0.22715038825E+03  0.00000000000E+00 0. -1.
         25    1    1    2    0    0  0.00000000000E+00  0.00000000000E+00 -0.20995363138E+03  0.24434714512E+03  0.12500000000E+03 0.  0.
<mgrwt>
<rscale>  2 0.12500000E+03</rscale>
<asrwt>0</asrwt>
<pdfrwt beam="1">  1       21 0.26456548E-02 0.12500000E+03</pdfrwt>
<pdfrwt beam="2">  1       21 0.34946215E-01 0.12500000E+03</pdfrwt>
<totfact> 0.60414516E+06</totfact>
</mgrwt>
</event>
<event>
 3    0  0.1725497E+001  0.1250000E+03  0.7546771E-02  0.1235069E+00
         21   -1    0    0  502  501  0.00000000000E+00  0.00000000000E+00  0.13963341415E+03  0.13963341415E+03  0.00000000000E+00 0.  1.
         21   -1    0    0  501  502 -0.00000000000E+00 -0.00000000000E+00 -0.27975037521E+02  0.27975037521E+02  0.00000000000E+00 0.  1.
         25    1    1    2    0    0  0.00000000000E+00  0.00000000000E+00  0.11165837663E+03  0.16760845167E+03  0.12500000000E+03 0.  0.
<mgrwt>
<rscale>  2 0.12500000E+03</rscale>
<asrwt>0</asrwt>
<pdfrwt beam="1">  1       21 0.21482063E-01 0.12500000E+03</pdfrwt>
<pdfrwt beam="2">  1       21 0.43038520E-02 0.12500000E+03</pdfrwt>
<totfact> 0.68601569E+06</totfact>
</mgrwt>
</event>
<event>
 3    0  0.1537342E+001  0.1250000E+03  0.7546771E-02  0.1235069E+00
         21   -1    0    0  502  501  0.00000000000E+00  0.00000000000E+00  0.37162525712E+03  0.37162525712E+03  0.00000000000E+00 0. -1.
         21   -1    0    0  501  502 -0.00000000000E+00 -0.00000000000E+00 -0.10511260807E+02  0.10511260807E+02  0.00000000000E+00 0. -1.
         25    1    1    2    0    0  0.00000000000E+00  0.00000000000E+00  0.36111399632E+03  0.38213651793E+03  0.12500000000E+03 0.  0.
<mgrwt>
<rscale>  2 0.12500000E+03</rscale>
<asrwt>0</asrwt>
<pdfrwt beam="1">  1       21 0.57173106E-01 0.12500000E+03</pdfrwt>
<pdfrwt beam="2">  1       21 0.16171173E-02 0.12500000E+03</pdfrwt>
<totfact> 0.49249169E+06</totfact>
</mgrwt>
</event>
<event>
 3    0  0.1408316E+001  0.1250000E+03  0.7546771E-02  0.1235069E+00
         21   -1    0    0  502  501  0.00000000000E+00  0.00000000000E+00  0.65917666768E+01  0.65917666768E+01  0.00000000000E+00 0. -1.
         21   -1    0    0  501  502 -0.00000000000E+00 -0.00000000000E+00 -0.59259530738E+03  0.59259530738E+03  0.00000000000E+00 0. -1.
         25    1    1    2    0    0  0.00000000000E+00  0.00000000000E+00 -0.58600354070E+03  0.59918707405E+03  0.12500000000E+03 0.  0.
<mgrwt>
<rscale>  2 0.12500000E+03</rscale>
<asrwt>0</asrwt>
<pdfrwt beam="1">  1       21 0.10141181E-02 0.12500000E+03</pdfrwt>
<pdfrwt beam="2">  1       21 0.91168497E-01 0.12500000E+03</pdfrwt>
<totfact> 0.37129424E+06</totfact>
</mgrwt>
</event>
<event>
 3    0  0.1587236E+001  0.1250000E+03  0.7546771E-02  0.1235069E+00
         21   -1    0    0  502  501  0.00000000000E+00  0.00000000000E+00  0.10882847693E+02  0.10882847693E+02  0.00000000000E+00 0.  1.
         21   -1    0    0  501  502 -0.00000000000E+00 -0.00000000000E+00 -0.35893638413E+03  0.35893638413E+03  0.00000000000E+00 0.  1.
         25    1    1    2    0    0  0.00000000000E+00  0.00000000000E+00 -0.34805353644E+03  0.36981923182E+03  0.12500000000E+03 0.  0.
<mgrwt>
<rscale>  2 0.12500000E+03</rscale>
<asrwt>0</asrwt>
<pdfrwt beam="1">  1       21 0.16742845E-02 0.12500000E+03</pdfrwt>
<pdfrwt beam="2">  1       21 0.55220973E-01 0.12500000E+03</pdfrwt>
<totfact> 0.50107216E+06</totfact>
</mgrwt>
</event>
<event>
 3    0  0.1642589E+001  0.1250000E+03  0.7546771E-02  0.1235069E+00
         21   -1    0    0  502  501  0.00000000000E+00  0.00000000000E+00  0.23287939385E+03  0.23287939385E+03  0.00000000000E+00 0.  1.
         21   -1    0    0  501  502 -0.00000000000E+00 -0.00000000000E+00 -0.16773703913E+02  0.16773703913E+02  0.00000000000E+00 0.  1.
         25    1    1    2    0    0  0.00000000000E+00  0.00000000000E+00  0.21610568994E+03  0.24965309776E+03  0.12500000000E+03 0.  0.
<mgrwt>
<rscale>  2 0.12500000E+03</rscale>
<asrwt>0</asrwt>
<pdfrwt beam="1">  1       21 0.35827597E-01 0.12500000E+03</pdfrwt>
<pdfrwt beam="2">  1       21 0.25805700E-02 0.12500000E+03</pdfrwt>
<totfact> 0.59910866E+06</totfact>
</mgrwt>
</event>
<event>
 3    0  0.1710310E+001  0.1250000E+03  0.7546771E-02  0.1235069E+00
         21   -1    0    0  502  501  0.00000000000E+00  0.00000000000E+00  0.36879682657E+02  0.36879682657E+02  0.00000000000E+00 0. -1.
         21   -1    0    0  501  502 -0.00000000000E+00 -0.00000000000E+00 -0.10591875305E+03  0.10591875305E+03  0.00000000000E+00 0. -1.
         25    1    1    2    0    0  0.00000000000E+00  0.00000000000E+00 -0.69039070395E+02  0.14279843571E+03  0.12500000000E+03 0.  0.
<mgrwt>
<rscale>  2 0.12500000E+03</rscale>
<asrwt>0</asrwt>
<pdfrwt beam="1">  1       21 0.56737974E-02 0.12500000E+03</pdfrwt>
<pdfrwt beam="2">  1       21 0.16295193E-01 0.12500000E+03</pdfrwt>
<totfact> 0.71676051E+06</totfact>
</mgrwt>
</event>
<event>
 3    0  0.1749861E+001  0.1250000E+03  0.7546771E-02  0.1235069E+00
         21   -1    0    0  502  501  0.00000000000E+00  0.00000000000E+00  0.56332747002E+02  0.56332747002E+02  0.00000000000E+00 0.  1.
         21   -1    0    0  501  502 -0.00000000000E+00 -0.00000000000E+00 -0.69342437710E+02  0.69342437710E+02  0.00000000000E+00 0.  1.
         25    1    1    2    0    0  0.00000000000E+00  0.00000000000E+00 -0.13009690707E+02  0.12567518471E+03  0.12500000000E+03 0.  0.
<mgrwt>
<rscale>  2 0.12500000E+03</rscale>
<asrwt>0</asrwt>
<pdfrwt beam="1">  1       21 0.86665765E-02 0.12500000E+03</pdfrwt>
<pdfrwt beam="2">  1       21 0.10668067E-01 0.12500000E+03</pdfrwt>
<totfact> 0.73950984E+06</totfact>
</mgrwt>
</event>
<event>
 3    0  0.1368989E+001  0.1250000E+03  0.7546771E-02  0.1235069E+00
         21   -1    0    0  502  501  0.00000000000E+00  0.00000000000E+00  0.34942830583E+01  0.34942830583E+01  0.00000000000E+00 0. -1.
         21   -1    0    0  501  502 -0.00000000000E+00 -0.00000000000E+00 -0.11178974155E+04  0.11178974155E+04  0.00000000000E+00 0. -1.
         25    1    1    2    0    0  0.00000000000E+00  0.00000000000E+00 -0.11144031325E+04  0.11213916986E+04  0.12500000000E+03 0.  0.
<mgrwt>
<rscale>  2 0.12500000E+03</rscale>
<asrwt>0</asrwt>
<pdfrwt beam="1">  1       21 0.53758228E-03 0.12500000E+03</pdfrwt>
<pdfrwt beam="2">  1       21 0.17198413E+00 0.12500000E+03</pdfrwt>
<totfact> 0.20781849E+06</totfact>
</mgrwt>
</event>
<event>
 3    0  0.1621873E+001  0.1250000E+03  0.7546771E-02  0.1235069E+00
         21   -1    0    0  502  501  0.00000000000E+00  0.00000000000E+00  0.26670065262E+03  0.26670065262E+03  0.00000000000E+00 0.  1.
         21   -1    0    0  501  502 -0.00000000000E+00 -0.00000000000E+00 -0.14646570834E+02  0.14646570834E+02  0.00000000000E+00 0.  1.
         25    1    1    2    0    0  0.00000000000E+00  0.00000000000E+00  0.25205408178E+03  0.28134722345E+03  0.12500000000E+03 0.  0.
<mgrwt>
<rscale>  2 0.12500000E+03</rscale>
<asrwt>0</asrwt>
<pdfrwt beam="1">  1       21 0.41030866E-01 0.12500000E+03</pdfrwt>
<pdfrwt beam="2">  1       21 0.22533188E-02 0.12500000E+03</pdfrwt>
<totfact> 0.57042815E+06</totfact>
</mgrwt>
</event>
<event>
 3    0  0.1715673E+001  0.1250000E+03  0.7546771E-02  0.1235069E+00
         21   -1    0    0  502  501  0.00000000000E+00  0.00000000000E+00  0.40307318310E+02  0.40307318310E+02  0.00000000000E+00 0. -1.
         21   -1    0    0  501  502 -0.00000000000E+00 -0.00000000000E+00 -0.96911681645E+02  0.96911681645E+02  0.00000000000E+00 0. -1.
         25    1    1    2    0    0  0.00000000000E+00  0.00000000000E+00 -0.56604363335E+02  0.13721899995E+03  0.12500000000E+03 0.  0.
<mgrwt>
<rscale>  2 0.12500000E+03</rscale>
<asrwt>0</asrwt>
<pdfrwt beam="1">  1       21 0.62011259E-02 0.12500000E+03</pdfrwt>
<pdfrwt beam="2">  1       21 0.14909490E-01 0.12500000E+03</pdfrwt>
<totfact> 0.72403974E+06</totfact>
</mgrwt>
</event>
<event>
 3    0  0.1718608E+001  0.1250000E+03  0.7546771E-02  0.1235069E+00
         21   -1    0    0  502  501  0.00000000000E+00  0.00000000000E+00  0.43189429523E+02  0.43189429523E+02  0.00000000000E+00 0. -1.
         21   -1    0    0  501  502 -0.00000000000E+00 -0.00000000000E+00 -0.90444584315E+02  0.90444584315E+02  0.00000000000E+00 0. -1.
         25    1    1    2    0    0  0.00000000000E+00  0.00000000000E+00 -0.47255154792E+02  0.13363401384E+03  0.12500000000E+03 0.  0.
<mgrwt>
<rscale>  2 0.12500000E+03</rscale>
<asrwt>0</asrwt>
<pdfrwt beam="1">  1       21 0.66445277E-02 0.12500000E+03</pdfrwt>
<pdfrwt beam="2">  1       21 0.13914551E-01 0.12500000E+03</pdfrwt>
<totfact> 0.72877853E+06</totfact>
</mgrwt>
</event>
<event>
 3    0  0.1741651E+001  0.1250000E+03  0.7546771E-02  0.1235069E+00
         21   -1    0    0  502  501  0.00000000000E+00  0.00000000000E+00  0.91933767260E+02  0.91933767260E+02  0.00000000000E+00 0.  1.
         21   -1    0    0  501  502 -0.00000000000E+00 -0.00000000000E+00 -0.42489828454E+02  0.42489828454E+02  0.00000000000E+00 0.  1.
         25    1    1    2    0    0  0.00000000000E+00  0.00000000000E+00  0.49443938806E+02  0.13442359571E+03  0.12500000000E+03 0.  0.
<mgrwt>
<rscale>  2 0.12500000E+03</rscale>
<asrwt>0</asrwt>
<pdfrwt beam="1">  1       21 0.14143657E-01 0.12500000E+03</pdfrwt>
<pdfrwt beam="2">  1       21 0.65368967E-02 0.12500000E+03</pdfrwt>
<totfact> 0.72772882E+06</totfact>
</mgrwt>
</event>
<event>
 3    0  0.1650489E+001  0.1250000E+03  0.7546771E-02  0.1235069E+00
         21   -1    0    0  502  501  0.00000000000E+00  0.00000000000E+00  0.20290975803E+03  0.20290975803E+03  0.00000000000E+00 0. -1.
         21   -1    0    0  501  502 -0.00000000000E+00 -0.00000000000E+00 -0.19251168785E+02  0.19251168785E+02  0.00000000000E+00 0. -1.
         25    1    1    2    0    0  0.00000000000E+00  0.00000000000E+00  0.18365858925E+03  0.22216092682E+03  0.12500000000E+03 0.  0.
<mgrwt>
<rscale>  2 0.12500000E+03</rscale>
<asrwt>0</asrwt>
<pdfrwt beam="1">  1       21 0.31216884E-01 0.12500000E+03</pdfrwt>
<pdfrwt beam="2">  1       21 0.29617184E-02 0.12500000E+03</pdfrwt>
<totfact> 0.62602341E+06</totfact>
</mgrwt>
</event>
<event>
 3    0  0.1368989E+001  0.1250000E+03  0.7546771E-02  0.1235069E+00
         21   -1    0    0  502  501  0.00000000000E+00  0.00000000000E+00  0.99198918264E+03  0.99198918264E+03  0.00000000000E+00 0. -1.
         21   -1    0    0  501  502 -0.00000000000E+00 -0.00000000000E+00 -0.39377949562E+01  0.39377949562E+01  0.00000000000E+00 0. -1.
         25    1    1    2    0    0  0.00000000000E+00  0.00000000000E+00  0.98805138768E+03  0.99592697759E+03  0.12500000000E+03 0.  0.
<mgrwt>
<rscale>  2 0.12500000E+03</rscale>
<asrwt>0</asrwt>
<pdfrwt beam="1">  1       21 0.15261352E+00 0.12500000E+03</pdfrwt>
<pdfrwt beam="2">  1       21 0.60581540E-03 0.12500000E+03</pdfrwt>
<totfact> 0.23720731E+06</totfact>
</mgrwt>
</event>
<event>
 3    0  0.1411290E+001  0.1250000E+03  0.7546771E-02  0.1235069E+00
         21   -1    0    0  502  501  0.00000000000E+00  0.00000000000E+00  0.68497844832E+03  0.68497844832E+03  0.00000000000E+00 0.  1.
         21   -1    0    0  501  502 -0.00000000000E+00 -0.00000000000E+00 -0.57027341657E+01  0.57027341657E+01  0.00000000000E+00 0.  1.
         25    1    1    2    0    0  0.00000000000E+00  0.00000000000E+00  0.67927571416E+03  0.69068118249E+03  0.12500000000E+03 0.  0.
<mgrwt>
<rscale>  2 0.12500000E+03</rscale>
<asrwt>0</asrwt>
<pdfrwt beam="1">  1       21 0.10538123E+00 0.12500000E+03</pdfrwt>
<pdfrwt beam="2">  1       21 0.87734426E-03 0.12500000E+03</pdfrwt>
<totfact> 0.33272535E+06</totfact>
</mgrwt>
</event>
<event>
 3    0  0.1728578E+001  0.1250000E+03  0.7546771E-02  0.1235069E+00
         21   -1    0    0  502  501  0.00000000000E+00  0.00000000000E+00  0.32539940836E+02  0.32539940836E+02  0.00000000000E+00 0.  1.
         21   -1    0    0  501  502 -0.00000000000E+00 -0.00000000000E+00 -0.12004477880E+03  0.12004477880E+03  0.00000000000E+00 0.  1.
         25    1    1    2    0    0  0.00000000000E+00  0.00000000000E+00 -0.87504837969E+02  0.15258471964E+03  0.12500000000E+03 0.  0.
<mgrwt>
<rscale>  2 0.12500000E+03</rscale>
<asrwt>0</asrwt>
<pdfrwt beam="1">  1       21 0.50061447E-02 0.12500000E+03</pdfrwt>
<pdfrwt beam="2">  1       21 0.18468428E-01 0.12500000E+03</pdfrwt>
<totfact> 0.70436003E+06</totfact>
</mgrwt>
</event>
<event>
 3    0  0.1368989E+001  0.1250000E+03  0.7546771E-02  0.1235069E+00
         21   -1    0    0  502  501  0.00000000000E+00  0.00000000000E+00  0.10380052840E+04  0.10380052840E+04  0.00000000000E+00 0.  1.
         21   -1    0    0  501  502 -0.00000000000E+00 -0.00000000000E+00 -0.37632274711E+01  0.37632274711E+01  0.00000000000E+00 0.  1.
         25    1    1    2    0    0  0.00000000000E+00  0.00000000000E+00  0.10342420566E+04  0.10417685115E+04  0.12500000000E+03 0.  0.
<mgrwt>
<rscale>  2 0.12500000E+03</rscale>
<asrwt>0</asrwt>
<pdfrwt beam="1">  1       21 0.15969289E+00 0.12500000E+03</pdfrwt>
<pdfrwt beam="2">  1       21 0.57895890E-03 0.12500000E+03</pdfrwt>
<totfact> 0.22595072E+06</totfact>
</mgrwt>
</event>
<event>
 3    0  0.1656525E+001  0.1250000E+03  0.7546771E-02  0.1235069E+00
         21   -1    0    0  502  501  0.00000000000E+00  0.00000000000E+00  0.20486331493E+02  0.20486331493E+02  0.00000000000E+00 0. -1.
         21   -1    0    0  501  502 -0.00000000000E+00 -0.00000000000E+00 -0.19067591488E+03  0.19067591488E+03  0.00000000000E+00 0. -1.
         25    1    1    2    0    0  0.00000000000E+00  0.00000000000E+00 -0.17018958339E+03  0.21116224637E+03  0.12500000000E+03 0.  0.
<mgrwt>
<rscale>  2 0.12500000E+03</rscale>
<asrwt>0</asrwt>
<pdfrwt beam="1">  1       21 0.31517433E-02 0.12500000E+03</pdfrwt>
<pdfrwt beam="2">  1       21 0.29334756E-01 0.12500000E+03</pdfrwt>
<totfact> 0.63737461E+06</totfact>
</mgrwt>
</event>
<event>
 3    0  0.1455810E+001  0.1250000E+03  0.7546771E-02  0.1235069E+00
         21   -1    0    0  502  501  0.00000000000E+00  0.00000000000E+00  0.78441941261E+01  0.78441941261E+01  0.00000000000E+00 0. -1.
         21   -1    0    0  501  502 -0.00000000000E+00 -0.00000000000E+00 -0.49797977169E+03  0.49797977169E+03  0.00000000000E+00 0. -1.
         25    1    1    2    0    0  0.00000000000E+00  0.00000000000E+00 -0.49013557756E+03  0.50582396582E+03  0.12500000000E+03 0.  0.
<mgrwt>
<rscale>  2 0.12500000E+03</rscale>
<asrwt>0</asrwt>
<pdfrwt beam="1">  1       21 0.12067992E-02 0.12500000E+03</pdfrwt>
<pdfrwt beam="2">  1       21 0.76612265E-01 0.12500000E+03</pdfrwt>
<totfact> 0.41729977E+06</totfact>
</mgrwt>
</event>
<event>
 3    0  0.1741733E+001  0.1250000E+03  0.7546771E-02  0.1235069E+00
         21   -1    0    0  502  501  0.00000000000E+00  0.00000000000E+00  0.99377973622E+02  0.99377973622E+02  0.00000000000E+00 0.  1.
         21   -1    0    0  501  502 -0.00000000000E+00 -0.00000000000E+00 -0.39306999908E+02  0.39306999908E+02  0.00000000000E+00 0.  1.
         25    1    1    2    0    0  0.00000000000E+00  0.00000000000E+00  0.60070973714E+02  0.13868497353E+03  0.12500000000E+03 0.  0.
<mgrwt>
<rscale>  2 0.12500000E+03</rscale>
<asrwt>0</asrwt>
<pdfrwt beam="1">  1       21 0.15288919E-01 0.12500000E+03</pdfrwt>
<pdfrwt beam="2">  1       21 0.60472308E-02 0.12500000E+03</pdfrwt>
<totfact> 0.72211450E+06</totfact>
</mgrwt>
</event>
<event>
 3    0  0.1519530E+001  0.1250000E+03  0.7546771E-02  0.1235069E+00
         21   -1    0    0  502  501  0.00000000000E+00  0.00000000000E+00  0.42824388124E+03  0.42824388124E+03  0.00000000000E+00 0.  1.
         21   -1    0    0  501  502 -0.00000000000E+00 -0.00000000000E+00 -0.91215547288E+01  0.91215547288E+01  0.00000000000E+00 0.  1.
         25    1    1    2    0    0  0.00000000000E+00  0.00000000000E+00  0.41912232651E+03  0.43736543597E+03  0.12500000000E+03 0.  0.
<mgrwt>
<rscale>  2 0.12500000E+03</rscale>
<asrwt>0</asrwt>
<pdfrwt beam="1">  1       21 0.65883658E-01 0.12500000E+03</pdfrwt>
<pdfrwt beam="2">  1       21 0.14033164E-02 0.12500000E+03</pdfrwt>
<totfact> 0.45657828E+06</totfact>
</mgrwt>
</event>
<event>
 3    0  0.1368989E+001  0.1250000E+03  0.7546771E-02  0.1235069E+00
         21   -1    0    0  502  501  0.00000000000E+00  0.00000000000E+00  0.85270124100E+03  0.85270124100E+03  0.00000000000E+00 0.  1.
         21   -1    0    0  501  502 -0.00000000000E+00 -0.00000000000E+00 -0.45810300398E+01  0.45810300398E+01  0.00000000000E+00 0.  1.
         25    1    1    2    0    0  0.00000000000E+00  0.00000000000E+00  0.84812021096E+03  0.85728227104E+03  0.12500000000E+03 0.  0.
<mgrwt>
<rscale>  2 0.12500000E+03</rscale>
<asrwt>0</asrwt>
<pdfrwt beam="1">  1       21 0.13118468E+00 0.12500000E+03</pdfrwt>
<pdfrwt beam="2">  1       21 0.70477453E-03 0.12500000E+03</pdfrwt>
<totfact> 0.27550563E+06</totfact>
</mgrwt>
</event>
<event>
 3    0  0.1730013E+001  0.1250000E+03  0.7546771E-02  0.1235069E+00
         21   -1    0    0  502  501  0.00000000000E+00  0.00000000000E+00  0.11509422520E+03  0.11509422520E+03  0.00000000000E+00 0.  1.
         21   -1    0    0  501  502 -0.00000000000E+00 -0.00000000000E+00 -0.33939582921E+02  0.33939582921E+02  0.00000000000E+00 0.  1.
         25    1    1    2    0    0  0.00000000000E+00  0.00000000000E+00  0.81154642283E+02  0.14903380812E+03  0.12500000000E+03 0.  0.
<mgrwt>
<rscale>  2 0.12500000E+03</rscale>
<asrwt>0</asrwt>
<pdfrwt beam="1">  1       21 0.17706804E-01 0.12500000E+03</pdfrwt>
<pdfrwt beam="2">  1       21 0.52214744E-02 0.12500000E+03</pdfrwt>
<totfact> 0.70880784E+06</totfact>
</mgrwt>
</event>
<event>
 3    0  0.1719182E+001  0.1250000E+03  0.7546771E-02  0.1235069E+00
         21   -1    0    0  502  501  0.00000000000E+00  0.00000000000E+00  0.46693012707E+02  0.46693012707E+02  0.00000000000E+00 0. -1.
         21   -1    0    0  501  502 -0.00000000000E+00 -0.00000000000E+00 -0.83658127277E+02  0.83658127277E+02  0.00000000000E+00 0. -1.
         25    1    1    2    0    0  0.00000000000E+00  0.00000000000E+00 -0.36965114569E+02  0.13035113998E+03  0.12500000000E+03 0.  0.
<mgrwt>
<rscale>  2 0.12500000E+03</rscale>
<asrwt>0</asrwt>
<pdfrwt beam="1">  1       21 0.71835405E-02 0.12500000E+03</pdfrwt>
<pdfrwt beam="2">  1       21 0.12870481E-01 0.12500000E+03</pdfrwt>
<totfact> 0.73318022E+06</totfact>
</mgrwt>
</event>
<event>
 3    0  0.1673797E+001  0.1250000E+03  0.7546771E-02  0.1235069E+00
         21   -1    0    0  502  501  0.00000000000E+00  0.00000000000E+00  0.17017358983E+03  0.17017358983E+03  0.00000000000E+00 0. -1.
         21   -1    0    0  501  502 -0.00000000000E+00 -0.00000000000E+00 -0.22954501953E+02  0.22954501953E+02  0.00000000000E+00 0. -1.
         25    1    1    2    0    0  0.00000000000E+00  0.00000000000E+00  0.14721908788E+03  0.19312809178E+03  0.12500000000E+03 0.  0.
<mgrwt>
<rscale>  2 0.12500000E+03</rscale>
<asrwt>0</asrwt>
<pdfrwt beam="1">  1       21 0.26180551E-01 0.12500000E+03</pdfrwt>
<pdfrwt beam="2">  1       21 0.35314620E-02 0.12500000E+03</pdfrwt>
<totfact> 0.65676482E+06</totfact>
</mgrwt>
</event>
<event>
 3    0  0.1698495E+001  0.1250000E+03  0.7546771E-02  0.1235069E+00
         21   -1    0    0  502  501  0.00000000000E+00  0.00000000000E+00  0.17578800175E+03  0.17578800175E+03  0.00000000000E+00 0.  1.
         21   -1    0    0  501  502 -0.00000000000E+00 -0.00000000000E+00 -0.22221368700E+02  0.22221368700E+02  0.00000000000E+00 0.  1.
         25    1    1    2    0    0  0.00000000000E+00  0.00000000000E+00  0.15356663306E+03  0.19800937045E+03  0.12500000000E+03 0.  0.
<mgrwt>
<rscale>  2 0.12500000E+03</rscale>
<asrwt>0</asrwt>
<pdfrwt beam="1">  1       21 0.27044307E-01 0.12500000E+03</pdfrwt>
<pdfrwt beam="2">  1       21 0.34186722E-02 0.12500000E+03</pdfrwt>
<totfact> 0.65143152E+06</totfact>
</mgrwt>
</event>
<event>
 3    0  0.1707415E+001  0.1250000E+03  0.7546771E-02  0.1235069E+00
         21   -1    0    0  502  501  0.00000000000E+00  0.00000000000E+00  0.36386921886E+02  0.36386921886E+02  0.00000000000E+00 0. -1.
         21   -1    0    0  501  502 -0.00000000000E+00 -0.00000000000E+00 -0.10735313122E+03  0.10735313122E+03  0.00000000000E+00 0. -1.
         25    1    1    2    0    0  0.00000000000E+00  0.00000000000E+00 -0.70966209336E+02  0.14374005311E+03  0.12500000000E+03 0.  0.
<mgrwt>
<rscale>  2 0.12500000E+03</rscale>
<asrwt>0</asrwt>
<pdfrwt beam="1">  1       21 0.55979879E-02 0.12500000E+03</pdfrwt>
<pdfrwt beam="2">  1       21 0.16515866E-01 0.12500000E+03</pdfrwt>
<totfact> 0.71554733E+06</totfact>
</mgrwt>
</event>
<event>
 3    0  0.1681499E+001  0.1250000E+03  0.7546771E-02  0.1235069E+00
         21   -1    0    0  502  501  0.00000000000E+00  0.00000000000E+00  0.16700384331E+03  0.16700384331E+03  0.00000000000E+00 0. -1.
         21   -1    0    0  501  502 -0.00000000000E+00 -0.00000000000E+00 -0.23390180265E+02  0.23390180265E+02  0.00000000000E+00 0. -1.
         25    1    1    2    0    0  0.00000000000E+00  0.00000000000E+00  0.14361366304E+03  0.19039402357E+03  0.12500000000E+03 0.  0.
<mgrwt>
<rscale>  2 0.12500000E+03</rscale>
<asrwt>0</asrwt>
<pdfrwt beam="1">  1       21 0.25692898E-01 0.12500000E+03</pdfrwt>
<pdfrwt beam="2">  1       21 0.35984894E-02 0.12500000E+03</pdfrwt>
<totfact> 0.65978699E+06</totfact>
</mgrwt>
</event>
<event>
 3    0  0.1370238E+001  0.1250000E+03  0.7546771E-02  0.1235069E+00
         21   -1    0    0  502  501  0.00000000000E+00  0.00000000000E+00  0.76163215626E+03  0.76163215626E+03  0.00000000000E+00 0.  1.
         21   -1    0    0  501  502 -0.00000000000E+00 -0.00000000000E+00 -0.51287881793E+01  0.51287881793E+01  0.00000000000E+00 0.  1.
         25    1    1    2    0    0  0.00000000000E+00  0.00000000000E+00  0.75650336808E+03  0.76676094444E+03  0.12500000000E+03 0.  0.
<mgrwt>
<rscale>  2 0.12500000E+03</rscale>
<asrwt>0</asrwt>
<pdfrwt beam="1">  1       21 0.11717409E+00 0.12500000E+03</pdfrwt>
<pdfrwt beam="2">  1       21 0.78904494E-03 0.12500000E+03</pdfrwt>
<totfact> 0.30487951E+06</totfact>
</mgrwt>
</event>
<event>
 3    0  0.1715869E+001  0.1250000E+03  0.7546771E-02  0.1235069E+00
         21   -1    0    0  502  501  0.00000000000E+00  0.00000000000E+00  0.44362169494E+02  0.44362169494E+02  0.00000000000E+00 0. -1.
         21   -1    0    0  501  502 -0.00000000000E+00 -0.00000000000E+00 -0.88053628679E+02  0.88053628679E+02  0.00000000000E+00 0. -1.
         25    1    1    2    0    0  0.00000000000E+00  0.00000000000E+00 -0.43691459185E+02  0.13241579817E+03  0.12500000000E+03 0.  0.
<mgrwt>
<rscale>  2 0.12500000E+03</rscale>
<asrwt>0</asrwt>
<pdfrwt beam="1">  1       21 0.68249492E-02 0.12500000E+03</pdfrwt>
<pdfrwt beam="2">  1       21 0.13546712E-01 0.12500000E+03</pdfrwt>
<totfact> 0.73040510E+06</totfact>
</mgrwt>
</event>
<event>
 3    0  0.1388243E+001  0.1250000E+03  0.7546771E-02  0.1235069E+00
         21   -1    0    0  502  501  0.00000000000E+00  0.00000000000E+00  0.74994160375E+03  0.74994160375E+03  0.00000000000E+00 0.  1.
         21   -1    0    0  501  502 -0.00000000000E+00 -0.00000000000E+00 -0.52087388944E+01  0.52087388944E+01  0.00000000000E+00 0.  1.
         25    1    1    2    0    0  0.00000000000E+00  0.00000000000E+00  0.74473286486E+03  0.75515034264E+03  0.12500000000E+03 0.  0.
<mgrwt>
<rscale>  2 0.12500000E+03</rscale>
<asrwt>0</asrwt>
<pdfrwt beam="1">  1       21 0.11537555E+00 0.12500000E+03</pdfrwt>
<pdfrwt beam="2">  1       21 0.80134504E-03 0.12500000E+03</pdfrwt>
<totfact> 0.30888558E+06</totfact>
</mgrwt>
</event>
<event>
 3    0  0.1625477E+001  0.1250000E+03  0.7546771E-02  0.1235069E+00
         21   -1    0    0  502  501  0.00000000000E+00  0.00000000000E+00  0.15287566654E+02  0.15287566654E+02  0.00000000000E+00 0. -1.
         21   -1    0    0  501  502 -0.00000000000E+00 -0.00000000000E+00 -0.25551810098E+03  0.25551810098E+03  0.00000000000E+00 0. -1.
         25    1    1    2    0    0  0.00000000000E+00  0.00000000000E+00 -0.24023053433E+03  0.27080566763E+03  0.12500000000E+03 0.  0.
<mgrwt>
<rscale>  2 0.12500000E+03</rscale>
<asrwt>0</asrwt>
<pdfrwt beam="1">  1       21 0.23519335E-02 0.12500000E+03</pdfrwt>
<pdfrwt beam="2">  1       21 0.39310474E-01 0.12500000E+03</pdfrwt>
<totfact> 0.57972806E+06</totfact>
</mgrwt>
</event>
<event>
 3    0  0.1461207E+001  0.1250000E+03  0.7546771E-02  0.1235069E+00
         21   -1    0    0  502  501  0.00000000000E+00  0.00000000000E+00  0.47552834994E+03  0.47552834994E+03  0.00000000000E+00 0. -1.
         21   -1    0    0  501  502 -0.00000000000E+00 -0.00000000000E+00 -0.82145470412E+01  0.82145470412E+01  0.00000000000E+00 0. -1.
         25    1    1    2    0    0  0.00000000000E+00  0.00000000000E+00  0.46731380290E+03  0.48374289698E+03  0.12500000000E+03 0.  0.
<mgrwt>
<rscale>  2 0.12500000E+03</rscale>
<asrwt>0</asrwt>
<pdfrwt beam="1">  1       21 0.73158186E-01 0.12500000E+03</pdfrwt>
<pdfrwt beam="2">  1       21 0.12637768E-02 0.12500000E+03</pdfrwt>
<totfact> 0.42939686E+06</totfact>
</mgrwt>
</event>
<event>
 3    0  0.1637653E+001  0.1250000E+03  0.7546771E-02  0.1235069E+00
         21   -1    0    0  502  501  0.00000000000E+00  0.00000000000E+00  0.16438493945E+02  0.16438493945E+02  0.00000000000E+00 0. -1.
         21   -1    0    0  501  502 -0.00000000000E+00 -0.00000000000E+00 -0.23762821662E+03  0.23762821662E+03  0.00000000000E+00 0. -1.
         25    1    1    2    0    0  0.00000000000E+00  0.00000000000E+00 -0.22118972268E+03  0.25406671057E+03  0.12500000000E+03 0.  0.
<mgrwt>
<rscale>  2 0.12500000E+03</rscale>
<asrwt>0</asrwt>
<pdfrwt beam="1">  1       21 0.25289993E-02 0.12500000E+03</pdfrwt>
<pdfrwt beam="2">  1       21 0.36558184E-01 0.12500000E+03</pdfrwt>
<totfact> 0.59497415E+06</totfact>
</mgrwt>
</event>
<event>
 3    0  0.1652024E+001  0.1250000E+03  0.7546771E-02  0.1235069E+00
         21   -1    0    0  502  501  0.00000000000E+00  0.00000000000E+00  0.17664318227E+02  0.17664318227E+02  0.00000000000E+00 0.  1.
         21   -1    0    0  501  502 -0.00000000000E+00 -0.00000000000E+00 -0.22113788655E+03  0.22113788655E+03  0.00000000000E+00 0.  1.
         25    1    1    2    0    0  0.00000000000E+00  0.00000000000E+00 -0.20347356832E+03  0.23880220477E+03  0.12500000000E+03 0.  0.
<mgrwt>
<rscale>  2 0.12500000E+03</rscale>
<asrwt>0</asrwt>
<pdfrwt beam="1">  1       21 0.27175875E-02 0.12500000E+03</pdfrwt>
<pdfrwt beam="2">  1       21 0.34021213E-01 0.12500000E+03</pdfrwt>
<totfact> 0.60948764E+06</totfact>
</mgrwt>
</event>
<event>
 3    0  0.1629568E+001  0.1250000E+03  0.7546771E-02  0.1235069E+00
         21   -1    0    0  502  501  0.00000000000E+00  0.00000000000E+00  0.17056327409E+02  0.17056327409E+02  0.00000000000E+00 0. -1.
         21   -1    0    0  501  502 -0.00000000000E+00 -0.00000000000E+00 -0.22902058024E+03  0.22902058024E+03  0.00000000000E+00 0. -1.
         25    1    1    2    0    0  0.00000000000E+00  0.00000000000E+00 -0.21196425284E+03  0.24607690765E+03  0.12500000000E+03 0.  0.
<mgrwt>
<rscale>  2 0.12500000E+03</rscale>
<asrwt>0</asrwt>
<pdfrwt beam="1">  1       21 0.26240504E-02 0.12500000E+03</pdfrwt>
<pdfrwt beam="2">  1       21 0.35233935E-01 0.12500000E+03</pdfrwt>
<totfact> 0.60249521E+06</totfact>
</mgrwt>
</event>
<event>
 3    0  0.1669986E+001  0.1250000E+03  0.7546771E-02  0.1235069E+00
         21   -1    0    0  502  501  0.00000000000E+00  0.00000000000E+00  0.22727037648E+02  0.22727037648E+02  0.00000000000E+00 0. -1.
         21   -1    0    0  501  502 -0.00000000000E+00 -0.00000000000E+00 -0.17187677781E+03  0.17187677781E+03  0.00000000000E+00 0. -1.
         25    1    1    2    0    0  0.00000000000E+00  0.00000000000E+00 -0.14914974016E+03  0.19460381546E+03  0.12500000000E+03 0.  0.
<mgrwt>
<rscale>  2 0.12500000E+03</rscale>
<asrwt>0</asrwt>
<pdfrwt beam="1">  1       21 0.34964674E-02 0.12500000E+03</pdfrwt>
<pdfrwt beam="2">  1       21 0.26442580E-01 0.12500000E+03</pdfrwt>
<totfact> 0.65514410E+06</totfact>
</mgrwt>
</event>
<event>
 3    0  0.1741177E+001  0.1250000E+03  0.7546771E-02  0.1235069E+00
         21   -1    0    0  502  501  0.00000000000E+00  0.00000000000E+00  0.42558264096E+02  0.42558264096E+02  0.00000000000E+00 0.  1.
         21   -1    0    0  501  502 -0.00000000000E+00 -0.00000000000E+00 -0.91785933543E+02  0.91785933543E+02  0.00000000000E+00 0.  1.
         25    1    1    2    0    0  0.00000000000E+00  0.00000000000E+00 -0.49227669447E+02  0.13434419764E+03  0.12500000000E+03 0.  0.
<mgrwt>
<rscale>  2 0.12500000E+03</rscale>
<asrwt>0</asrwt>
<pdfrwt beam="1">  1       21 0.65474252E-02 0.12500000E+03</pdfrwt>
<pdfrwt beam="2">  1       21 0.14120913E-01 0.12500000E+03</pdfrwt>
<totfact> 0.72783422E+06</totfact>
</mgrwt>
</event>
<event>
 3    0  0.1748160E+001  0.1250000E+03  0.7546771E-02  0.1235069E+00
         21   -1    0    0  502  501  0.00000000000E+00  0.00000000000E+00  0.77846781213E+02  0.77846781213E+02  0.00000000000E+00 0.  1.
         21   -1    0    0  501  502 -0.00000000000E+00 -0.00000000000E+00 -0.50178696397E+02  0.50178696397E+02  0.00000000000E+00 0.  1.
         25    1    1    2    0    0  0.00000000000E+00  0.00000000000E+00  0.27668084816E+02  0.12802547761E+03  0.12500000000E+03 0.  0.
<mgrwt>
<rscale>  2 0.12500000E+03</rscale>
<asrwt>0</asrwt>
<pdfrwt beam="1">  1       21 0.11976428E-01 0.12500000E+03</pdfrwt>
<pdfrwt beam="2">  1       21 0.77197994E-02 0.12500000E+03</pdfrwt>
<totfact> 0.73630118E+06</totfact>
</mgrwt>
</event>
<event>
 3    0  0.1368989E+001  0.1250000E+03  0.7546771E-02  0.1235069E+00
         21   -1    0    0  502  501  0.00000000000E+00  0.00000000000E+00  0.10565439280E+04  0.10565439280E+04  0.00000000000E+00 0. -1.
         21   -1    0    0  501  502 -0.00000000000E+00 -0.00000000000E+00 -0.36971960146E+01  0.36971960146E+01  0.00000000000E+00 0. -1.
         25    1    1    2    0    0  0.00000000000E+00  0.00000000000E+00  0.10528467320E+04  0.10602411240E+04  0.12500000000E+03 0.  0.
<mgrwt>
<rscale>  2 0.12500000E+03</rscale>
<asrwt>0</asrwt>
<pdfrwt beam="1">  1       21 0.16254498E+00 0.12500000E+03</pdfrwt>
<pdfrwt beam="2">  1       21 0.56880023E-03 0.12500000E+03</pdfrwt>
<totfact> 0.22158037E+06</totfact>
</mgrwt>
</event>
<event>
 3    0  0.1726141E+001  0.1250000E+03  0.7546771E-02  0.1235069E+00
         21   -1    0    0  502  501  0.00000000000E+00  0.00000000000E+00  0.64316783551E+02  0.64316783551E+02  0.00000000000E+00 0. -1.
         21   -1    0    0  501  502 -0.00000000000E+00 -0.00000000000E+00 -0.60734535907E+02  0.60734535907E+02  0.00000000000E+00 0. -1.
         25    1    1    2    0    0  0.00000000000E+00  0.00000000000E+00  0.35822476435E+01  0.12505131946E+03  0.12500000000E+03 0.  0.
<mgrwt>
<rscale>  2 0.12500000E+03</rscale>
<asrwt>0</asrwt>
<pdfrwt beam="1">  1       21 0.98948897E-02 0.12500000E+03</pdfrwt>
<pdfrwt beam="2">  1       21 0.93437748E-02 0.12500000E+03</pdfrwt>
<totfact> 0.74036650E+06</totfact>
</mgrwt>
</event>
<event>
 3    0  0.1432659E+001  0.1250000E+03  0.7546771E-02  0.1235069E+00
         21   -1    0    0  502  501  0.00000000000E+00  0.00000000000E+00  0.62018479162E+01  0.62018479162E+01  0.00000000000E+00 0.  1.
         21   -1    0    0  501  502 -0.00000000000E+00 -0.00000000000E+00 -0.62985259439E+03  0.62985259439E+03  0.00000000000E+00 0.  1.
         25    1    1    2    0    0  0.00000000000E+00  0.00000000000E+00 -0.62365074647E+03  0.63605444230E+03  0.12500000000E+03 0.  0.
<mgrwt>
<rscale>  2 0.12500000E+03</rscale>
<asrwt>0</asrwt>
<pdfrwt beam="1">  1       21 0.95413023E-03 0.12500000E+03</pdfrwt>
<pdfrwt beam="2">  1       21 0.96900421E-01 0.12500000E+03</pdfrwt>
<totfact> 0.35511247E+06</totfact>
</mgrwt>
</event>
<event>
 3    0  0.1463424E+001  0.1250000E+03  0.7546771E-02  0.1235069E+00
         21   -1    0    0  502  501  0.00000000000E+00  0.00000000000E+00  0.54366064032E+03  0.54366064032E+03  0.00000000000E+00 0.  1.
         21   -1    0    0  501  502 -0.00000000000E+00 -0.00000000000E+00 -0.71850888409E+01  0.71850888409E+01  0.00000000000E+00 0.  1.
         25    1    1    2    0    0  0.00000000000E+00  0.00000000000E+00  0.53647555148E+03  0.55084572916E+03  0.12500000000E+03 0.  0.
<mgrwt>
<rscale>  2 0.12500000E+03</rscale>
<asrwt>0</asrwt>
<pdfrwt beam="1">  1       21 0.83640066E-01 0.12500000E+03</pdfrwt>
<pdfrwt beam="2">  1       21 0.11053987E-02 0.12500000E+03</pdfrwt>
<totfact> 0.39414329E+06</totfact>
</mgrwt>
</event>
<event>
 3    0  0.1725463E+001  0.1250000E+03  0.7546771E-02  0.1235069E+00
         21   -1    0    0  502  501  0.00000000000E+00  0.00000000000E+00  0.66719469160E+02  0.66719469160E+02  0.00000000000E+00 0. -1.
         21   -1    0    0  501  502 -0.00000000000E+00 -0.00000000000E+00 -0.58547378287E+02  0.58547378287E+02  0.00000000000E+00 0. -1.
         25    1    1    2    0    0  0.00000000000E+00  0.00000000000E+00  0.81720908736E+01  0.12526684745E+03  0.12500000000E+03 0.  0.
<mgrwt>
<rscale>  2 0.12500000E+03</rscale>
<asrwt>0</asrwt>
<pdfrwt beam="1">  1       21 0.10264534E-01 0.12500000E+03</pdfrwt>
<pdfrwt beam="2">  1       21 0.90072889E-02 0.12500000E+03</pdfrwt>
<totfact> 0.74007547E+06</totfact>
</mgrwt>
</event>
<event>
 3    0  0.1569705E+001  0.1250000E+03  0.7546771E-02  0.1235069E+00
         21   -1    0    0  502  501  0.00000000000E+00  0.00000000000E+00  0.11752781784E+02  0.11752781784E+02  0.00000000000E+00 0. -1.
         21   -1    0    0  501  502 -0.00000000000E+00 -0.00000000000E+00 -0.33236812115E+03  0.33236812115E+03  0.00000000000E+00 0. -1.
         25    1    1    2    0    0  0.00000000000E+00  0.00000000000E+00 -0.32061533937E+03  0.34412090293E+03  0.12500000000E+03 0.  0.
<mgrwt>
<rscale>  2 0.12500000E+03</rscale>
<asrwt>0</asrwt>
<pdfrwt beam="1">  1       21 0.18081207E-02 0.12500000E+03</pdfrwt>
<pdfrwt beam="2">  1       21 0.51133546E-01 0.12500000E+03</pdfrwt>
<totfact> 0.51975577E+06</totfact>
</mgrwt>
</event>
<event>
 3    0  0.1494372E+001  0.1250000E+03  0.7546771E-02  0.1235069E+00
         21   -1    0    0  502  501  0.00000000000E+00  0.00000000000E+00  0.52678916361E+03  0.52678916361E+03  0.00000000000E+00 0.  1.
         21   -1    0    0  501  502 -0.00000000000E+00 -0.00000000000E+00 -0.74152056834E+01  0.74152056834E+01  0.00000000000E+00 0.  1.
         25    1    1    2    0    0  0.00000000000E+00  0.00000000000E+00  0.51937395793E+03  0.53420436930E+03  0.12500000000E+03 0.  0.
<mgrwt>
<rscale>  2 0.12500000E+03</rscale>
<asrwt>0</asrwt>
<pdfrwt beam="1">  1       21 0.81044457E-01 0.12500000E+03</pdfrwt>
<pdfrwt beam="2">  1       21 0.11408013E-02 0.12500000E+03</pdfrwt>
<totfact> 0.40247844E+06</totfact>
</mgrwt>
</event>
<event>
 3    0  0.1702370E+001  0.1250000E+03  0.7546771E-02  0.1235069E+00
         21   -1    0    0  502  501  0.00000000000E+00  0.00000000000E+00  0.22391796406E+02  0.22391796406E+02  0.00000000000E+00 0.  1.
         21   -1    0    0  501  502 -0.00000000000E+00 -0.00000000000E+00 -0.17445004988E+03  0.17445004988E+03  0.00000000000E+00 0.  1.
         25    1    1    2    0    0  0.00000000000E+00  0.00000000000E+00 -0.15205825347E+03  0.19684184629E+03  0.12500000000E+03 0.  0.
<mgrwt>
<rscale>  2 0.12500000E+03</rscale>
<asrwt>0</asrwt>
<pdfrwt beam="1">  1       21 0.34448917E-02 0.12500000E+03</pdfrwt>
<pdfrwt beam="2">  1       21 0.26838469E-01 0.12500000E+03</pdfrwt>
<totfact> 0.65270000E+06</totfact>
</mgrwt>
</event>
<event>
 3    0  0.1724879E+001  0.1250000E+03  0.7546771E-02  0.1235069E+00
         21   -1    0    0  502  501  0.00000000000E+00  0.00000000000E+00  0.32097032826E+02  0.32097032826E+02  0.00000000000E+00 0.  1.
         21   -1    0    0  501  502 -0.00000000000E+00 -0.00000000000E+00 -0.12170128065E+03  0.12170128065E+03  0.00000000000E+00 0.  1.
         25    1    1    2    0    0  0.00000000000E+00  0.00000000000E+00 -0.89604247822E+02  0.15379831348E+03  0.12500000000E+03 0.  0.
<mgrwt>
<rscale>  2 0.12500000E+03</rscale>
<asrwt>0</asrwt>
<pdfrwt beam="1">  1       21 0.49380051E-02 0.12500000E+03</pdfrwt>
<pdfrwt beam="2">  1       21 0.18723274E-01 0.12500000E+03</pdfrwt>
<totfact> 0.70285261E+06</totfact>
</mgrwt>
</event>
<event>
 3    0  0.1656283E+001  0.1250000E+03  0.7546771E-02  0.1235069E+00
         21   -1    0    0  502  501  0.00000000000E+00  0.00000000000E+00  0.20475637918E+02  0.20475637918E+02  0.00000000000E+00 0. -1.
         21   -1    0    0  501  502 -0.00000000000E+00 -0.00000000000E+00 -0.19077549699E+03  0.19077549699E+03  0.00000000000E+00 0. -1.
         25    1    1    2    0    0  0.00000000000E+00  0.00000000000E+00 -0.17029985907E+03  0.21125113491E+03  0.12500000000E+03 0.  0.
<mgrwt>
<rscale>  2 0.12500000E+03</rscale>
<asrwt>0</asrwt>
<pdfrwt beam="1">  1       21 0.31500982E-02 0.12500000E+03</pdfrwt>
<pdfrwt beam="2">  1       21 0.29350076E-01 0.12500000E+03</pdfrwt>
<totfact> 0.63728142E+06</totfact>
</mgrwt>
</event>
<event>
 3    0  0.1751076E+001  0.1250000E+03  0.7546771E-02  0.1235069E+00
         21   -1    0    0  502  501  0.00000000000E+00  0.00000000000E+00  0.63338723368E+02  0.63338723368E+02  0.00000000000E+00 0.  1.
         21   -1    0    0  501  502 -0.00000000000E+00 -0.00000000000E+00 -0.61672382901E+02  0.61672382901E+02  0.00000000000E+00 0.  1.
         25    1    1    2    0    0  0.00000000000E+00  0.00000000000E+00  0.16663404678E+01  0.12501110627E+03  0.12500000000E+03 0.  0.
<mgrwt>
<rscale>  2 0.12500000E+03</rscale>
<asrwt>0</asrwt>
<pdfrwt beam="1">  1       21 0.97444190E-02 0.12500000E+03</pdfrwt>
<pdfrwt beam="2">  1       21 0.94880589E-02 0.12500000E+03</pdfrwt>
<totfact> 0.74042081E+06</totfact>
</mgrwt>
</event>
<event>
 3    0  0.1548954E+001  0.1250000E+03  0.7546771E-02  0.1235069E+00
         21   -1    0    0  502  501  0.00000000000E+00  0.00000000000E+00  0.10187395569E+02  0.10187395569E+02  0.00000000000E+00 0. -1.
         21   -1    0    0  501  502 -0.00000000000E+00 -0.00000000000E+00 -0.38343951341E+03  0.38343951341E+03  0.00000000000E+00 0. -1.
         25    1    1    2    0    0  0.00000000000E+00  0.00000000000E+00 -0.37325211785E+03  0.39362690898E+03  0.12500000000E+03 0.  0.
<mgrwt>
<rscale>  2 0.12500000E+03</rscale>
<asrwt>0</asrwt>
<pdfrwt beam="1">  1       21 0.15672914E-02 0.12500000E+03</pdfrwt>
<pdfrwt beam="2">  1       21 0.58990704E-01 0.12500000E+03</pdfrwt>
<totfact> 0.48466959E+06</totfact>
</mgrwt>
</event>
<event>
 3    0  0.1746991E+001  0.1250000E+03  0.7546771E-02  0.1235069E+00
         21   -1    0    0  502  501  0.00000000000E+00  0.00000000000E+00  0.47948023594E+02  0.47948023594E+02  0.00000000000E+00 0.  1.
         21   -1    0    0  501  502 -0.00000000000E+00 -0.00000000000E+00 -0.81468425749E+02  0.81468425749E+02  0.00000000000E+00 0.  1.
         25    1    1    2    0    0  0.00000000000E+00  0.00000000000E+00 -0.33520402155E+02  0.12941644934E+03  0.12500000000E+03 0.  0.
<mgrwt>
<rscale>  2 0.12500000E+03</rscale>
<asrwt>0</asrwt>
<pdfrwt beam="1">  1       21 0.73766191E-02 0.12500000E+03</pdfrwt>
<pdfrwt beam="2">  1       21 0.12533604E-01 0.12500000E+03</pdfrwt>
<totfact> 0.73443011E+06</totfact>
</mgrwt>
</event>
<event>
 3    0  0.1531625E+001  0.1250000E+03  0.7546771E-02  0.1235069E+00
         21   -1    0    0  502  501  0.00000000000E+00  0.00000000000E+00  0.86923876719E+01  0.86923876719E+01  0.00000000000E+00 0.  1.
         21   -1    0    0  501  502 -0.00000000000E+00 -0.00000000000E+00 -0.44938745802E+03  0.44938745802E+03  0.00000000000E+00 0.  1.
         25    1    1    2    0    0  0.00000000000E+00  0.00000000000E+00 -0.44069507035E+03  0.45807984569E+03  0.12500000000E+03 0.  0.
<mgrwt>
<rscale>  2 0.12500000E+03</rscale>
<asrwt>0</asrwt>
<pdfrwt beam="1">  1       21 0.13372902E-02 0.12500000E+03</pdfrwt>
<pdfrwt beam="2">  1       21 0.69136543E-01 0.12500000E+03</pdfrwt>
<totfact> 0.44412699E+06</totfact>
</mgrwt>
</event>
<event>
 3    0  0.1724698E+001  0.1250000E+03  0.7546771E-02  0.1235069E+00
         21   -1    0    0  502  501  0.00000000000E+00  0.00000000000E+00  0.31258822460E+02  0.31258822460E+02  0.00000000000E+00 0.  1.
         21   -1    0    0  501  502 -0.00000000000E+00 -0.00000000000E+00 -0.12496472012E+03  0.12496472012E+03  0.00000000000E+00 0.  1.
         25    1    1    2    0    0  0.00000000000E+00  0.00000000000E+00 -0.93705897661E+02  0.15622354258E+03  0.12500000000E+03 0.  0.
<mgrwt>
<rscale>  2 0.12500000E+03</rscale>
<asrwt>0</asrwt>
<pdfrwt beam="1">  1       21 0.48090496E-02 0.12500000E+03</pdfrwt>
<pdfrwt beam="2">  1       21 0.19225342E-01 0.12500000E+03</pdfrwt>
<totfact> 0.69983907E+06</totfact>
</mgrwt>
</event>
<event>
 3    0  0.1368989E+001  0.1250000E+03  0.7546771E-02  0.1235069E+00
         21   -1    0    0  502  501  0.00000000000E+00  0.00000000000E+00  0.17276797736E+04  0.17276797736E+04  0.00000000000E+00 0.  1.
         21   -1    0    0  501  502 -0.00000000000E+00 -0.00000000000E+00 -0.22609803389E+01  0.22609803389E+01  0.00000000000E+00 0.  1.
         25    1    1    2    0    0  0.00000000000E+00  0.00000000000E+00  0.17254187932E+04  0.17299407539E+04  0.12500000000E+03 0.  0.
<mgrwt>
<rscale>  2 0.12500000E+03</rscale>
<asrwt>0</asrwt>
<pdfrwt beam="1">  1       21 0.26579583E+00 0.12500000E+03</pdfrwt>
<pdfrwt beam="2">  1       21 0.34784451E-03 0.12500000E+03</pdfrwt>
<totfact> 0.10900400E+06</totfact>
</mgrwt>
</event>
<event>
 3    0  0.1639678E+001  0.1250000E+03  0.7546771E-02  0.1235069E+00
         21   -1    0    0  502  501  0.00000000000E+00  0.00000000000E+00  0.16497370411E+02  0.16497370411E+02  0.00000000000E+00 0. -1.
         21   -1    0    0  501  502 -0.00000000000E+00 -0.00000000000E+00 -0.23678015967E+03  0.23678015967E+03  0.00000000000E+00 0. -1.
         25    1    1    2    0    0  0.00000000000E+00  0.00000000000E+00 -0.22028278926E+03  0.25327753008E+03  0.12500000000E+03 0.  0.
<mgrwt>
<rscale>  2 0.12500000E+03</rscale>
<asrwt>0</asrwt>
<pdfrwt beam="1">  1       21 0.25380572E-02 0.12500000E+03</pdfrwt>
<pdfrwt beam="2">  1       21 0.36427714E-01 0.12500000E+03</pdfrwt>
<totfact> 0.59570981E+06</totfact>
</mgrwt>
</event>
<event>
 3    0  0.1673812E+001  0.1250000E+03  0.7546771E-02  0.1235069E+00
         21   -1    0    0  502  501  0.00000000000E+00  0.00000000000E+00  0.19213807696E+02  0.19213807696E+02  0.00000000000E+00 0.  1.
         21   -1    0    0  501  502 -0.00000000000E+00 -0.00000000000E+00 -0.20330431436E+03  0.20330431436E+03  0.00000000000E+00 0.  1.
         25    1    1    2    0    0  0.00000000000E+00  0.00000000000E+00 -0.18409050667E+03  0.22251812206E+03  0.12500000000E+03 0.  0.
<mgrwt>
<rscale>  2 0.12500000E+03</rscale>
<asrwt>0</asrwt>
<pdfrwt beam="1">  1       21 0.29559702E-02 0.12500000E+03</pdfrwt>
<pdfrwt beam="2">  1       21 0.31277589E-01 0.12500000E+03</pdfrwt>
<totfact> 0.62566071E+06</totfact>
</mgrwt>
</event>
<event>
 3    0  0.1596159E+001  0.1250000E+03  0.7546771E-02  0.1235069E+00
         21   -1    0    0  502  501  0.00000000000E+00  0.00000000000E+00  0.11008506419E+02  0.11008506419E+02  0.00000000000E+00 0.  1.
         21   -1    0    0  501  502 -0.00000000000E+00 -0.00000000000E+00 -0.35483923534E+03  0.35483923534E+03  0.00000000000E+00 0.  1.
         25    1    1    2    0    0  0.00000000000E+00  0.00000000000E+00 -0.34383072892E+03  0.36584774176E+03  0.12500000000E+03 0.  0.
<mgrwt>
<rscale>  2 0.12500000E+03</rscale>
<asrwt>0</asrwt>
<pdfrwt beam="1">  1       21 0.16936165E-02 0.12500000E+03</pdfrwt>
<pdfrwt beam="2">  1       21 0.54590648E-01 0.12500000E+03</pdfrwt>
<totfact> 0.50388908E+06</totfact>
</mgrwt>
</event>
<event>
 3    0  0.1447600E+001  0.1250000E+03  0.7546771E-02  0.1235069E+00
         21   -1    0    0  502  501  0.00000000000E+00  0.00000000000E+00  0.51564286003E+03  0.51564286003E+03  0.00000000000E+00 0.  1.
         21   -1    0    0  501  502 -0.00000000000E+00 -0.00000000000E+00 -0.75754951785E+01  0.75754951785E+01  0.00000000000E+00 0.  1.
         25    1    1    2    0    0  0.00000000000E+00  0.00000000000E+00  0.50806736485E+03  0.52321835521E+03  0.12500000000E+03 0.  0.
<mgrwt>
<rscale>  2 0.12500000E+03</rscale>
<asrwt>0</asrwt>
<pdfrwt beam="1">  1       21 0.79329643E-01 0.12500000E+03</pdfrwt>
<pdfrwt beam="2">  1       21 0.11654612E-02 0.12500000E+03</pdfrwt>
<totfact> 0.40812255E+06</totfact>
</mgrwt>
</event>
<event>
 3    0  0.1664547E+001  0.1250000E+03  0.7546771E-02  0.1235069E+00
         21   -1    0    0  502  501  0.00000000000E+00  0.00000000000E+00  0.18085373305E+02  0.18085373305E+02  0.00000000000E+00 0.  1.
         21   -1    0    0  501  502 -0.00000000000E+00 -0.00000000000E+00 -0.21598945923E+03  0.21598945923E+03  0.00000000000E+00 0.  1.
         25    1    1    2    0    0  0.00000000000E+00  0.00000000000E+00 -0.19790408592E+03  0.23407483253E+03  0.12500000000E+03 0.  0.
<mgrwt>
<rscale>  2 0.12500000E+03</rscale>
<asrwt>0</asrwt>
<pdfrwt beam="1">  1       21 0.27823651E-02 0.12500000E+03</pdfrwt>
<pdfrwt beam="2">  1       21 0.33229148E-01 0.12500000E+03</pdfrwt>
<totfact> 0.61410785E+06</totfact>
</mgrwt>
</event>
<event>
 3    0  0.1747710E+001  0.1250000E+03  0.7546771E-02  0.1235069E+00
         21   -1    0    0  502  501  0.00000000000E+00  0.00000000000E+00  0.74910972203E+02  0.74910972203E+02  0.00000000000E+00 0.  1.
         21   -1    0    0  501  502 -0.00000000000E+00 -0.00000000000E+00 -0.52145231668E+02  0.52145231668E+02  0.00000000000E+00 0.  1.
         25    1    1    2    0    0  0.00000000000E+00  0.00000000000E+00  0.22765740536E+02  0.12705620387E+03  0.12500000000E+03 0.  0.
<mgrwt>
<rscale>  2 0.12500000E+03</rscale>
<asrwt>0</asrwt>
<pdfrwt beam="1">  1       21 0.11524765E-01 0.12500000E+03</pdfrwt>
<pdfrwt beam="2">  1       21 0.80223433E-02 0.12500000E+03</pdfrwt>
<totfact> 0.73761487E+06</totfact>
</mgrwt>
</event>
<event>
 3    0  0.1368989E+001  0.1250000E+03  0.7546771E-02  0.1235069E+00
         21   -1    0    0  502  501  0.00000000000E+00  0.00000000000E+00  0.38490742177E+01  0.38490742177E+01  0.00000000000E+00 0.  1.
         21   -1    0    0  501  502 -0.00000000000E+00 -0.00000000000E+00 -0.10148544245E+04  0.10148544245E+04  0.00000000000E+00 0.  1.
         25    1    1    2    0    0  0.00000000000E+00  0.00000000000E+00 -0.10110053503E+04  0.10187034987E+04  0.12500000000E+03 0.  0.
<mgrwt>
<rscale>  2 0.12500000E+03</rscale>
<asrwt>0</asrwt>
<pdfrwt beam="1">  1       21 0.59216491E-03 0.12500000E+03</pdfrwt>
<pdfrwt beam="2">  1       21 0.15613154E+00 0.12500000E+03</pdfrwt>
<totfact> 0.23155366E+06</totfact>
</mgrwt>
</event>
<event>
 3    0  0.1368989E+001  0.1250000E+03  0.7546771E-02  0.1235069E+00
         21   -1    0    0  502  501  0.00000000000E+00  0.00000000000E+00  0.30085392160E+01  0.30085392160E+01  0.00000000000E+00 0. -1.
         21   -1    0    0  501  502 -0.00000000000E+00 -0.00000000000E+00 -0.12983875960E+04  0.12983875960E+04  0.00000000000E+00 0. -1.
         25    1    1    2    0    0  0.00000000000E+00  0.00000000000E+00 -0.12953790567E+04  0.13013961352E+04  0.12500000000E+03 0.  0.
<mgrwt>
<rscale>  2 0.12500000E+03</rscale>
<asrwt>0</asrwt>
<pdfrwt beam="1">  1       21 0.46285139E-03 0.12500000E+03</pdfrwt>
<pdfrwt beam="2">  1       21 0.19975228E+00 0.12500000E+03</pdfrwt>
<totfact> 0.17227248E+06</totfact>
</mgrwt>
</event>
<event>
 3    0  0.1708634E+001  0.1250000E+03  0.7546771E-02  0.1235069E+00
         21   -1    0    0  502  501  0.00000000000E+00  0.00000000000E+00  0.11356534220E+03  0.11356534220E+03  0.00000000000E+00 0. -1.
         21   -1    0    0  501  502 -0.00000000000E+00 -0.00000000000E+00 -0.34396497419E+02  0.34396497419E+02  0.00000000000E+00 0. -1.
         25    1    1    2    0    0  0.00000000000E+00  0.00000000000E+00  0.79168844784E+02  0.14796183962E+03  0.12500000000E+03 0.  0.
<mgrwt>
<rscale>  2 0.12500000E+03</rscale>
<asrwt>0</asrwt>
<pdfrwt beam="1">  1       21 0.17471591E-01 0.12500000E+03</pdfrwt>
<pdfrwt beam="2">  1       21 0.52917689E-02 0.12500000E+03</pdfrwt>
<totfact> 0.71016179E+06</totfact>
</mgrwt>
</event>
<event>
 3    0  0.1672280E+001  0.1250000E+03  0.7546771E-02  0.1235069E+00
         21   -1    0    0  502  501  0.00000000000E+00  0.00000000000E+00  0.22088018875E+02  0.22088018875E+02  0.00000000000E+00 0. -1.
         21   -1    0    0  501  502 -0.00000000000E+00 -0.00000000000E+00 -0.17684926937E+03  0.17684926937E+03  0.00000000000E+00 0. -1.
         25    1    1    2    0    0  0.00000000000E+00  0.00000000000E+00 -0.15476125050E+03  0.19893728825E+03  0.12500000000E+03 0.  0.
<mgrwt>
<rscale>  2 0.12500000E+03</rscale>
<asrwt>0</asrwt>
<pdfrwt beam="1">  1       21 0.33981567E-02 0.12500000E+03</pdfrwt>
<pdfrwt beam="2">  1       21 0.27207581E-01 0.12500000E+03</pdfrwt>
<totfact> 0.65042585E+06</totfact>
</mgrwt>
</event>
<event>
 3    0  0.1564545E+001  0.1250000E+03  0.7546771E-02  0.1235069E+00
         21   -1    0    0  502  501  0.00000000000E+00  0.00000000000E+00  0.35874043120E+03  0.35874043120E+03  0.00000000000E+00 0. -1.
         21   -1    0    0  501  502 -0.00000000000E+00 -0.00000000000E+00 -0.10888792175E+02  0.10888792175E+02  0.00000000000E+00 0. -1.
         25    1    1    2    0    0  0.00000000000E+00  0.00000000000E+00  0.34785163902E+03  0.36962922337E+03  0.12500000000E+03 0.  0.
<mgrwt>
<rscale>  2 0.12500000E+03</rscale>
<asrwt>0</asrwt>
<pdfrwt beam="1">  1       21 0.55190827E-01 0.12500000E+03</pdfrwt>
<pdfrwt beam="2">  1       21 0.16751991E-02 0.12500000E+03</pdfrwt>
<totfact> 0.50120636E+06</totfact>
</mgrwt>
</event>
<event>
 3    0  0.1738202E+001  0.1250000E+03  0.7546771E-02  0.1235069E+00
         21   -1    0    0  502  501  0.00000000000E+00  0.00000000000E+00  0.35182087891E+02  0.35182087891E+02  0.00000000000E+00 0.  1.
         21   -1    0    0  501  502 -0.00000000000E+00 -0.00000000000E+00 -0.11102951059E+03  0.11102951059E+03  0.00000000000E+00 0.  1.
         25    1    1    2    0    0  0.00000000000E+00  0.00000000000E+00 -0.75847422695E+02  0.14621159848E+03  0.12500000000E+03 0.  0.
<mgrwt>
<rscale>  2 0.12500000E+03</rscale>
<asrwt>0</asrwt>
<pdfrwt beam="1">  1       21 0.54126291E-02 0.12500000E+03</pdfrwt>
<pdfrwt beam="2">  1       21 0.17081463E-01 0.12500000E+03</pdfrwt>
<totfact> 0.71238403E+06</totfact>
</mgrwt>
</event>
<event>
 3    0  0.1738741E+001  0.1250000E+03  0.7546771E-02  0.1235069E+00
         21   -1    0    0  502  501  0.00000000000E+00  0.00000000000E+00  0.41912769521E+02  0.41912769521E+02  0.00000000000E+00 0.  1.
         21   -1    0    0  501  502 -0.00000000000E+00 -0.00000000000E+00 -0.93199519971E+02  0.93199519971E+02  0.00000000000E+00 0.  1.
         25    1    1    2    0    0  0.00000000000E+00  0.00000000000E+00 -0.51286750451E+02  0.13511228949E+03  0.12500000000E+03 0.  0.
<mgrwt>
<rscale>  2 0.12500000E+03</rscale>
<asrwt>0</asrwt>
<pdfrwt beam="1">  1       21 0.64481184E-02 0.12500000E+03</pdfrwt>
<pdfrwt beam="2">  1       21 0.14338388E-01 0.12500000E+03</pdfrwt>
<totfact> 0.72681607E+06</totfact>
</mgrwt>
</event>
<event>
 3    0  0.1725622E+001  0.1250000E+03  0.7546771E-02  0.1235069E+00
         21   -1    0    0  502  501  0.00000000000E+00  0.00000000000E+00  0.51617792856E+02  0.51617792856E+02  0.00000000000E+00 0. -1.
         21   -1    0    0  501  502 -0.00000000000E+00 -0.00000000000E+00 -0.75676424424E+02  0.75676424424E+02  0.00000000000E+00 0. -1.
         25    1    1    2    0    0  0.00000000000E+00  0.00000000000E+00 -0.24058631568E+02  0.12729421728E+03  0.12500000000E+03 0.  0.
<mgrwt>
<rscale>  2 0.12500000E+03</rscale>
<asrwt>0</asrwt>
<pdfrwt beam="1">  1       21 0.79411989E-02 0.12500000E+03</pdfrwt>
<pdfrwt beam="2">  1       21 0.11642527E-01 0.12500000E+03</pdfrwt>
<totfact> 0.73729137E+06</totfact>
</mgrwt>
</event>
<event>
 3    0  0.1664004E+001  0.1250000E+03  0.7546771E-02  0.1235069E+00
         21   -1    0    0  502  501  0.00000000000E+00  0.00000000000E+00  0.21672587661E+02  0.21672587661E+02  0.00000000000E+00 0. -1.
         21   -1    0    0  501  502 -0.00000000000E+00 -0.00000000000E+00 -0.18023920637E+03  0.18023920637E+03  0.00000000000E+00 0. -1.
         25    1    1    2    0    0  0.00000000000E+00  0.00000000000E+00 -0.15856661871E+03  0.20191179403E+03  0.12500000000E+03 0.  0.
<mgrwt>
<rscale>  2 0.12500000E+03</rscale>
<asrwt>0</asrwt>
<pdfrwt beam="1">  1       21 0.33342444E-02 0.12500000E+03</pdfrwt>
<pdfrwt beam="2">  1       21 0.27729107E-01 0.12500000E+03</pdfrwt>
<totfact> 0.64720684E+06</totfact>
</mgrwt>
</event>
<event>
 3    0  0.1552094E+001  0.1250000E+03  0.7546771E-02  0.1235069E+00
         21   -1    0    0  502  501  0.00000000000E+00  0.00000000000E+00  0.94720104544E+01  0.94720104544E+01  0.00000000000E+00 0.  1.
         21   -1    0    0  501  502 -0.00000000000E+00 -0.00000000000E+00 -0.41239924922E+03  0.41239924922E+03  0.00000000000E+00 0.  1.
         25    1    1    2    0    0  0.00000000000E+00  0.00000000000E+00 -0.40292723876E+03  0.42187125967E+03  0.12500000000E+03 0.  0.
<mgrwt>
<rscale>  2 0.12500000E+03</rscale>
<asrwt>0</asrwt>
<pdfrwt beam="1">  1       21 0.14572324E-02 0.12500000E+03</pdfrwt>
<pdfrwt beam="2">  1       21 0.63446038E-01 0.12500000E+03</pdfrwt>
<totfact> 0.46623700E+06</totfact>
</mgrwt>
</event>
<event>
 3    0  0.1689328E+001  0.1250000E+03  0.7546771E-02  0.1235069E+00
         21   -1    0    0  502  501  0.00000000000E+00  0.00000000000E+00  0.16362569311E+03  0.16362569311E+03  0.00000000000E+00 0.  1.
         21   -1    0    0  501  502 -0.00000000000E+00 -0.00000000000E+00 -0.23873084513E+02  0.23873084513E+02  0.00000000000E+00 0.  1.
         25    1    1    2    0    0  0.00000000000E+00  0.00000000000E+00  0.13975260859E+03  0.18749877762E+03  0.12500000000E+03 0.  0.
<mgrwt>
<rscale>  2 0.12500000E+03</rscale>
<asrwt>0</asrwt>
<pdfrwt beam="1">  1       21 0.25173183E-01 0.12500000E+03</pdfrwt>
<pdfrwt beam="2">  1       21 0.36727823E-02 0.12500000E+03</pdfrwt>
<totfact> 0.66301536E+06</totfact>
</mgrwt>
</event>
<event>
 3    0  0.1554884E+001  0.1250000E+03  0.7546771E-02  0.1235069E+00
         21   -1    0    0  502  501  0.00000000000E+00  0.00000000000E+00  0.11515703463E+02  0.11515703463E+02  0.00000000000E+00 0. -1.
         21   -1    0    0  501  502 -0.00000000000E+00 -0.00000000000E+00 -0.33921071453E+03  0.33921071453E+03  0.00000000000E+00 0. -1.
         25    1    1    2    0    0  0.00000000000E+00  0.00000000000E+00 -0.32769501106E+03  0.35072641799E+03  0.12500000000E+03 0.  0.
<mgrwt>
<rscale>  2 0.12500000E+03</rscale>
<asrwt>0</asrwt>
<pdfrwt beam="1">  1       21 0.17716468E-02 0.12500000E+03</pdfrwt>
<pdfrwt beam="2">  1       21 0.52186261E-01 0.12500000E+03</pdfrwt>
<totfact> 0.51484829E+06</totfact>
</mgrwt>
</event>
<event>
 3    0  0.1743743E+001  0.1250000E+03  0.7546771E-02  0.1235069E+00
         21   -1    0    0  502  501  0.00000000000E+00  0.00000000000E+00  0.90696775457E+02  0.90696775457E+02  0.00000000000E+00 0.  1.
         21   -1    0    0  501  502 -0.00000000000E+00 -0.00000000000E+00 -0.43069337144E+02  0.43069337144E+02  0.00000000000E+00 0.  1.
         25    1    1    2    0    0  0.00000000000E+00  0.00000000000E+00  0.47627438313E+02  0.13376611260E+03  0.12500000000E+03 0.  0.
<mgrwt>
<rscale>  2 0.12500000E+03</rscale>
<asrwt>0</asrwt>
<pdfrwt beam="1">  1       21 0.13953350E-01 0.12500000E+03</pdfrwt>
<pdfrwt beam="2">  1       21 0.66260519E-02 0.12500000E+03</pdfrwt>
<totfact> 0.72860266E+06</totfact>
</mgrwt>
</event>
<event>
 3    0  0.1598152E+001  0.1250000E+03  0.7546771E-02  0.1235069E+00
         21   -1    0    0  502  501  0.00000000000E+00  0.00000000000E+00  0.31958746491E+03  0.31958746491E+03  0.00000000000E+00 0.  1.
         21   -1    0    0  501  502 -0.00000000000E+00 -0.00000000000E+00 -0.12222788529E+02  0.12222788529E+02  0.00000000000E+00 0.  1.
         25    1    1    2    0    0  0.00000000000E+00  0.00000000000E+00  0.30736467638E+03  0.33181025344E+03  0.12500000000E+03 0.  0.
<mgrwt>
<rscale>  2 0.12500000E+03</rscale>
<asrwt>0</asrwt>
<pdfrwt beam="1">  1       21 0.49167296E-01 0.12500000E+03</pdfrwt>
<pdfrwt beam="2">  1       21 0.18804292E-02 0.12500000E+03</pdfrwt>
<totfact> 0.52910516E+06</totfact>
</mgrwt>
</event>
<event>
 3    0  0.1604145E+001  0.1250000E+03  0.7546771E-02  0.1235069E+00
         21   -1    0    0  502  501  0.00000000000E+00  0.00000000000E+00  0.28354965785E+03  0.28354965785E+03  0.00000000000E+00 0.  1.
         21   -1    0    0  501  502 -0.00000000000E+00 -0.00000000000E+00 -0.13776246565E+02  0.13776246565E+02  0.00000000000E+00 0.  1.
         25    1    1    2    0    0  0.00000000000E+00  0.00000000000E+00  0.26977341129E+03  0.29732590442E+03  0.12500000000E+03 0.  0.
<mgrwt>
<rscale>  2 0.12500000E+03</rscale>
<asrwt>0</asrwt>
<pdfrwt beam="1">  1       21 0.43623020E-01 0.12500000E+03</pdfrwt>
<pdfrwt beam="2">  1       21 0.21194228E-02 0.12500000E+03</pdfrwt>
<totfact> 0.55679138E+06</totfact>
</mgrwt>
</event>
<event>
 3    0  0.1747004E+001  0.1250000E+03  0.7546771E-02  0.1235069E+00
         21   -1    0    0  502  501  0.00000000000E+00  0.00000000000E+00  0.81681202104E+02  0.81681202104E+02  0.00000000000E+00 0.  1.
         21   -1    0    0  501  502 -0.00000000000E+00 -0.00000000000E+00 -0.47823120857E+02  0.47823120857E+02  0.00000000000E+00 0.  1.
         25    1    1    2    0    0  0.00000000000E+00  0.00000000000E+00  0.33858081247E+02  0.12950432296E+03  0.12500000000E+03 0.  0.
<mgrwt>
<rscale>  2 0.12500000E+03</rscale>
<asrwt>0</asrwt>
<pdfrwt beam="1">  1       21 0.12566339E-01 0.12500000E+03</pdfrwt>
<pdfrwt beam="2">  1       21 0.73574032E-02 0.12500000E+03</pdfrwt>
<totfact> 0.73431237E+06</totfact>
</mgrwt>
</event>
<event>
 3    0  0.1369896E+001  0.1250000E+03  0.7546771E-02  0.1235069E+00
         21   -1    0    0  502  501  0.00000000000E+00  0.00000000000E+00  0.65595186506E+03  0.65595186506E+03  0.00000000000E+00 0. -1.
         21   -1    0    0  501  502 -0.00000000000E+00 -0.00000000000E+00 -0.59550863532E+01  0.59550863532E+01  0.00000000000E+00 0. -1.
         25    1    1    2    0    0  0.00000000000E+00  0.00000000000E+00  0.64999677871E+03  0.66190695142E+03  0.12500000000E+03 0.  0.
<mgrwt>
<rscale>  2 0.12500000E+03</rscale>
<asrwt>0</asrwt>
<pdfrwt beam="1">  1       21 0.10091561E+00 0.12500000E+03</pdfrwt>
<pdfrwt beam="2">  1       21 0.91616765E-03 0.12500000E+03</pdfrwt>
<totfact> 0.34431024E+06</totfact>
</mgrwt>
</event>
<event>
 3    0  0.1608794E+001  0.1250000E+03  0.7546771E-02  0.1235069E+00
         21   -1    0    0  502  501  0.00000000000E+00  0.00000000000E+00  0.12418926352E+02  0.12418926352E+02  0.00000000000E+00 0.  1.
         21   -1    0    0  501  502 -0.00000000000E+00 -0.00000000000E+00 -0.31454007289E+03  0.31454007289E+03  0.00000000000E+00 0.  1.
         25    1    1    2    0    0  0.00000000000E+00  0.00000000000E+00 -0.30212114654E+03  0.32695899924E+03  0.12500000000E+03 0.  0.
<mgrwt>
<rscale>  2 0.12500000E+03</rscale>
<asrwt>0</asrwt>
<pdfrwt beam="1">  1       21 0.19106044E-02 0.12500000E+03</pdfrwt>
<pdfrwt beam="2">  1       21 0.48390772E-01 0.12500000E+03</pdfrwt>
<totfact> 0.53286448E+06</totfact>
</mgrwt>
</event>
<event>
 3    0  0.1690450E+001  0.1250000E+03  0.7546771E-02  0.1235069E+00
         21   -1    0    0  502  501  0.00000000000E+00  0.00000000000E+00  0.23953438589E+02  0.23953438589E+02  0.00000000000E+00 0.  1.
         21   -1    0    0  501  502 -0.00000000000E+00 -0.00000000000E+00 -0.16307679524E+03  0.16307679524E+03  0.00000000000E+00 0.  1.
         25    1    1    2    0    0  0.00000000000E+00  0.00000000000E+00 -0.13912335665E+03  0.18703023383E+03  0.12500000000E+03 0.  0.
<mgrwt>
<rscale>  2 0.12500000E+03</rscale>
<asrwt>0</asrwt>
<pdfrwt beam="1">  1       21 0.36851443E-02 0.12500000E+03</pdfrwt>
<pdfrwt beam="2">  1       21 0.25088738E-01 0.12500000E+03</pdfrwt>
<totfact> 0.66354056E+06</totfact>
</mgrwt>
</event>
<event>
 3    0  0.1721013E+001  0.1250000E+03  0.7546771E-02  0.1235069E+00
         21   -1    0    0  502  501  0.00000000000E+00  0.00000000000E+00  0.29501985888E+02  0.29501985888E+02  0.00000000000E+00 0.  1.
         21   -1    0    0  501  502 -0.00000000000E+00 -0.00000000000E+00 -0.13240634087E+03  0.13240634087E+03  0.00000000000E+00 0.  1.
         25    1    1    2    0    0  0.00000000000E+00  0.00000000000E+00 -0.10290435499E+03  0.16190832676E+03  0.12500000000E+03 0.  0.
<mgrwt>
<rscale>  2 0.12500000E+03</rscale>
<asrwt>0</asrwt>
<pdfrwt beam="1">  1       21 0.45387672E-02 0.12500000E+03</pdfrwt>
<pdfrwt beam="2">  1       21 0.20370206E-01 0.12500000E+03</pdfrwt>
<totfact> 0.69287068E+06</totfact>
</mgrwt>
</event>
<event>
 3    0  0.1524244E+001  0.1250000E+03  0.7546771E-02  0.1235069E+00
         21   -1    0    0  502  501  0.00000000000E+00  0.00000000000E+00  0.44285573171E+03  0.44285573171E+03  0.00000000000E+00 0. -1.
         21   -1    0    0  501  502 -0.00000000000E+00 -0.00000000000E+00 -0.88205926225E+01  0.88205926225E+01  0.00000000000E+00 0. -1.
         25    1    1    2    0    0  0.00000000000E+00  0.00000000000E+00  0.43403513909E+03  0.45167632434E+03  0.12500000000E+03 0.  0.
<mgrwt>
<rscale>  2 0.12500000E+03</rscale>
<asrwt>0</asrwt>
<pdfrwt beam="1">  1       21 0.68131634E-01 0.12500000E+03</pdfrwt>
<pdfrwt beam="2">  1       21 0.13570146E-02 0.12500000E+03</pdfrwt>
<totfact> 0.44792138E+06</totfact>
</mgrwt>
</event>
<event>
 3    0  0.1561898E+001  0.1250000E+03  0.7546771E-02  0.1235069E+00
         21   -1    0    0  502  501  0.00000000000E+00  0.00000000000E+00  0.37051668349E+03  0.37051668349E+03  0.00000000000E+00 0.  1.
         21   -1    0    0  501  502 -0.00000000000E+00 -0.00000000000E+00 -0.10542710151E+02  0.10542710151E+02  0.00000000000E+00 0.  1.
         25    1    1    2    0    0  0.00000000000E+00  0.00000000000E+00  0.35997397334E+03  0.38105939364E+03  0.12500000000E+03 0.  0.
<mgrwt>
<rscale>  2 0.12500000E+03</rscale>
<asrwt>0</asrwt>
<pdfrwt beam="1">  1       21 0.57002557E-01 0.12500000E+03</pdfrwt>
<pdfrwt beam="2">  1       21 0.16219557E-02 0.12500000E+03</pdfrwt>
<totfact> 0.49323280E+06</totfact>
</mgrwt>
</event>
<event>
 3    0  0.1749081E+001  0.1250000E+03  0.7546771E-02  0.1235069E+00
         21   -1    0    0  502  501  0.00000000000E+00  0.00000000000E+00  0.50690953840E+02  0.50690953840E+02  0.00000000000E+00 0.  1.
         21   -1    0    0  501  502 -0.00000000000E+00 -0.00000000000E+00 -0.77060100552E+02  0.77060100552E+02  0.00000000000E+00 0.  1.
         25    1    1    2    0    0  0.00000000000E+00  0.00000000000E+00 -0.26369146712E+02  0.12775105439E+03  0.12500000000E+03 0.  0.
<mgrwt>
<rscale>  2 0.12500000E+03</rscale>
<asrwt>0</asrwt>
<pdfrwt beam="1">  1       21 0.77986083E-02 0.12500000E+03</pdfrwt>
<pdfrwt beam="2">  1       21 0.11855400E-01 0.12500000E+03</pdfrwt>
<totfact> 0.73667216E+06</totfact>
</mgrwt>
</event>
<event>
 3    0  0.1368989E+001  0.1250000E+03  0.7546771E-02  0.1235069E+00
         21   -1    0    0  502  501  0.00000000000E+00  0.00000000000E+00  0.16230329670E+04  0.16230329670E+04  0.00000000000E+00 0. -1.
         21   -1    0    0  501  502 -0.00000000000E+00 -0.00000000000E+00 -0.24067594924E+01  0.24067594924E+01  0.00000000000E+00 0. -1.
         25    1    1    2    0    0  0.00000000000E+00  0.00000000000E+00  0.16206262076E+04  0.16254397265E+04  0.12500000000E+03 0.  0.
<mgrwt>
<rscale>  2 0.12500000E+03</rscale>
<asrwt>0</asrwt>
<pdfrwt beam="1">  1       21 0.24969650E+00 0.12500000E+03</pdfrwt>
<pdfrwt beam="2">  1       21 0.37027199E-03 0.12500000E+03</pdfrwt>
<totfact> 0.12231596E+06</totfact>
</mgrwt>
</event>
<event>
 3    0  0.1446909E+001  0.1250000E+03  0.7546771E-02  0.1235069E+00
         21   -1    0    0  502  501  0.00000000000E+00  0.00000000000E+00  0.72379416626E+01  0.72379416626E+01  0.00000000000E+00 0. -1.
         21   -1    0    0  501  502 -0.00000000000E+00 -0.00000000000E+00 -0.53969072729E+03  0.53969072729E+03  0.00000000000E+00 0. -1.
         25    1    1    2    0    0  0.00000000000E+00  0.00000000000E+00 -0.53245278563E+03  0.54692866896E+03  0.12500000000E+03 0.  0.
<mgrwt>
<rscale>  2 0.12500000E+03</rscale>
<asrwt>0</asrwt>
<pdfrwt beam="1">  1       21 0.11135293E-02 0.12500000E+03</pdfrwt>
<pdfrwt beam="2">  1       21 0.83029359E-01 0.12500000E+03</pdfrwt>
<totfact> 0.39608254E+06</totfact>
</mgrwt>
</event>
<event>
 3    0  0.1717879E+001  0.1250000E+03  0.7546771E-02  0.1235069E+00
         21   -1    0    0  502  501  0.00000000000E+00  0.00000000000E+00  0.42978947134E+02  0.42978947134E+02  0.00000000000E+00 0. -1.
         21   -1    0    0  501  502 -0.00000000000E+00 -0.00000000000E+00 -0.90887521926E+02  0.90887521926E+02  0.00000000000E+00 0. -1.
         25    1    1    2    0    0  0.00000000000E+00  0.00000000000E+00 -0.47908574792E+02  0.13386646906E+03  0.12500000000E+03 0.  0.
<mgrwt>
<rscale>  2 0.12500000E+03</rscale>
<asrwt>0</asrwt>
<pdfrwt beam="1">  1       21 0.66121458E-02 0.12500000E+03</pdfrwt>
<pdfrwt beam="2">  1       21 0.13982696E-01 0.12500000E+03</pdfrwt>
<totfact> 0.72846913E+06</totfact>
</mgrwt>
</event>
<event>
 3    0  0.1676217E+001  0.1250000E+03  0.7546771E-02  0.1235069E+00
         21   -1    0    0  502  501  0.00000000000E+00  0.00000000000E+00  0.20303210220E+02  0.20303210220E+02  0.00000000000E+00 0.  1.
         21   -1    0    0  501  502 -0.00000000000E+00 -0.00000000000E+00 -0.19239568313E+03  0.19239568313E+03  0.00000000000E+00 0.  1.
         25    1    1    2    0    0  0.00000000000E+00  0.00000000000E+00 -0.17209247291E+03  0.21269889335E+03  0.12500000000E+03 0.  0.
<mgrwt>
<rscale>  2 0.12500000E+03</rscale>
<asrwt>0</asrwt>
<pdfrwt beam="1">  1       21 0.31235709E-02 0.12500000E+03</pdfrwt>
<pdfrwt beam="2">  1       21 0.29599335E-01 0.12500000E+03</pdfrwt>
<totfact> 0.63576696E+06</totfact>
</mgrwt>
</event>
<event>
 3    0  0.1368989E+001  0.1250000E+03  0.7546771E-02  0.1235069E+00
         21   -1    0    0  502  501  0.00000000000E+00  0.00000000000E+00  0.53629142261E+01  0.53629142261E+01  0.00000000000E+00 0. -1.
         21   -1    0    0  501  502 -0.00000000000E+00 -0.00000000000E+00 -0.72838196460E+03  0.72838196460E+03  0.00000000000E+00 0. -1.
         25    1    1    2    0    0  0.00000000000E+00  0.00000000000E+00 -0.72301905037E+03  0.73374487882E+03  0.12500000000E+03 0.  0.
<mgrwt>
<rscale>  2 0.12500000E+03</rscale>
<asrwt>0</asrwt>
<pdfrwt beam="1">  1       21 0.82506386E-03 0.12500000E+03</pdfrwt>
<pdfrwt beam="2">  1       21 0.11205875E+00 0.12500000E+03</pdfrwt>
<totfact> 0.31649014E+06</totfact>
</mgrwt>
</event>
<event>
 3    0  0.1723144E+001  0.1250000E+03  0.7546771E-02  0.1235069E+00
         21   -1    0    0  502  501  0.00000000000E+00  0.00000000000E+00  0.71509034438E+02  0.71509034438E+02  0.00000000000E+00 0. -1.
         21   -1    0    0  501  502 -0.00000000000E+00 -0.00000000000E+00 -0.54625964827E+02  0.54625964827E+02  0.00000000000E+00 0. -1.
         25    1    1    2    0    0  0.00000000000E+00  0.00000000000E+00  0.16883069611E+02  0.12613499926E+03  0.12500000000E+03 0.  0.
<mgrwt>
<rscale>  2 0.12500000E+03</rscale>
<asrwt>0</asrwt>
<pdfrwt beam="1">  1       21 0.11001390E-01 0.12500000E+03</pdfrwt>
<pdfrwt beam="2">  1       21 0.84039946E-02 0.12500000E+03</pdfrwt>
<totfact> 0.73887447E+06</totfact>
</mgrwt>
</event>
<event>
 3    0  0.1641744E+001  0.1250000E+03  0.7546771E-02  0.1235069E+00
         21   -1    0    0  502  501  0.00000000000E+00  0.00000000000E+00  0.18116724089E+02  0.18116724089E+02  0.00000000000E+00 0. -1.
         21   -1    0    0  501  502 -0.00000000000E+00 -0.00000000000E+00 -0.21561569193E+03  0.21561569193E+03  0.00000000000E+00 0. -1.
         25    1    1    2    0    0  0.00000000000E+00  0.00000000000E+00 -0.19749896784E+03  0.23373241602E+03  0.12500000000E+03 0.  0.
<mgrwt>
<rscale>  2 0.12500000E+03</rscale>
<asrwt>0</asrwt>
<pdfrwt beam="1">  1       21 0.27871883E-02 0.12500000E+03</pdfrwt>
<pdfrwt beam="2">  1       21 0.33171645E-01 0.12500000E+03</pdfrwt>
<totfact> 0.61444488E+06</totfact>
</mgrwt>
</event>
<event>
 3    0  0.1731558E+001  0.1250000E+03  0.7546771E-02  0.1235069E+00
         21   -1    0    0  502  501  0.00000000000E+00  0.00000000000E+00  0.11438097230E+03  0.11438097230E+03  0.00000000000E+00 0.  1.
         21   -1    0    0  501  502 -0.00000000000E+00 -0.00000000000E+00 -0.34151222197E+02  0.34151222197E+02  0.00000000000E+00 0.  1.
         25    1    1    2    0    0  0.00000000000E+00  0.00000000000E+00  0.80229750099E+02  0.14853219449E+03  0.12500000000E+03 0.  0.
<mgrwt>
<rscale>  2 0.12500000E+03</rscale>
<asrwt>0</asrwt>
<pdfrwt beam="1">  1       21 0.17597073E-01 0.12500000E+03</pdfrwt>
<pdfrwt beam="2">  1       21 0.52540342E-02 0.12500000E+03</pdfrwt>
<totfact> 0.70944074E+06</totfact>
</mgrwt>
</event>
<event>
 3    0  0.1745202E+001  0.1250000E+03  0.7546771E-02  0.1235069E+00
         21   -1    0    0  502  501  0.00000000000E+00  0.00000000000E+00  0.45909157978E+02  0.45909157978E+02  0.00000000000E+00 0.  1.
         21   -1    0    0  501  502 -0.00000000000E+00 -0.00000000000E+00 -0.85086509360E+02  0.85086509360E+02  0.00000000000E+00 0.  1.
         25    1    1    2    0    0  0.00000000000E+00  0.00000000000E+00 -0.39177351382E+02  0.13099566734E+03  0.12500000000E+03 0.  0.
<mgrwt>
<rscale>  2 0.12500000E+03</rscale>
<asrwt>0</asrwt>
<pdfrwt beam="1">  1       21 0.70629474E-02 0.12500000E+03</pdfrwt>
<pdfrwt beam="2">  1       21 0.13090232E-01 0.12500000E+03</pdfrwt>
<totfact> 0.73231255E+06</totfact>
</mgrwt>
</event>
<event>
 3    0  0.1695733E+001  0.1250000E+03  0.7546771E-02  0.1235069E+00
         21   -1    0    0  502  501  0.00000000000E+00  0.00000000000E+00  0.27432187191E+02  0.27432187191E+02  0.00000000000E+00 0. -1.
         21   -1    0    0  501  502 -0.00000000000E+00 -0.00000000000E+00 -0.14239659320E+03  0.14239659320E+03  0.00000000000E+00 0. -1.
         25    1    1    2    0    0  0.00000000000E+00  0.00000000000E+00 -0.11496440601E+03  0.16982878039E+03  0.12500000000E+03 0.  0.
<mgrwt>
<rscale>  2 0.12500000E+03</rscale>
<asrwt>0</asrwt>
<pdfrwt beam="1">  1       21 0.42203364E-02 0.12500000E+03</pdfrwt>
<pdfrwt beam="2">  1       21 0.21907168E-01 0.12500000E+03</pdfrwt>
<totfact> 0.68337938E+06</totfact>
</mgrwt>
</event>
<event>
 3    0  0.1726080E+001  0.1250000E+03  0.7546771E-02  0.1235069E+00
         21   -1    0    0  502  501  0.00000000000E+00  0.00000000000E+00  0.61151686005E+02  0.61151686005E+02  0.00000000000E+00 0. -1.
         21   -1    0    0  501  502 -0.00000000000E+00 -0.00000000000E+00 -0.63878042540E+02  0.63878042540E+02  0.00000000000E+00 0. -1.
         25    1    1    2    0    0  0.00000000000E+00  0.00000000000E+00 -0.27263565354E+01  0.12502972854E+03  0.12500000000E+03 0.  0.
<mgrwt>
<rscale>  2 0.12500000E+03</rscale>
<asrwt>0</asrwt>
<pdfrwt beam="1">  1       21 0.94079517E-02 0.12500000E+03</pdfrwt>
<pdfrwt beam="2">  1       21 0.98273912E-02 0.12500000E+03</pdfrwt>
<totfact> 0.74039566E+06</totfact>
</mgrwt>
</event>
<event>
 3    0  0.1591884E+001  0.1250000E+03  0.7546771E-02  0.1235069E+00
         21   -1    0    0  502  501  0.00000000000E+00  0.00000000000E+00  0.31216937853E+03  0.31216937853E+03  0.00000000000E+00 0. -1.
         21   -1    0    0  501  502 -0.00000000000E+00 -0.00000000000E+00 -0.12513238865E+02  0.12513238865E+02  0.00000000000E+00 0. -1.
         25    1    1    2    0    0  0.00000000000E+00  0.00000000000E+00  0.29965613966E+03  0.32468261739E+03  0.12500000000E+03 0.  0.
<mgrwt>
<rscale>  2 0.12500000E+03</rscale>
<asrwt>0</asrwt>
<pdfrwt beam="1">  1       21 0.48026052E-01 0.12500000E+03</pdfrwt>
<pdfrwt beam="2">  1       21 0.19251139E-02 0.12500000E+03</pdfrwt>
<totfact> 0.53464346E+06</totfact>
</mgrwt>
</event>
<event>
 3    0  0.1675319E+001  0.1250000E+03  0.7546771E-02  0.1235069E+00
         21   -1    0    0  502  501  0.00000000000E+00  0.00000000000E+00  0.23021499853E+02  0.23021499853E+02  0.00000000000E+00 0. -1.
         21   -1    0    0  501  502 -0.00000000000E+00 -0.00000000000E+00 -0.16967834524E+03  0.16967834524E+03  0.00000000000E+00 0. -1.
         25    1    1    2    0    0  0.00000000000E+00  0.00000000000E+00 -0.14665684539E+03  0.19269984510E+03  0.12500000000E+03 0.  0.
<mgrwt>
<rscale>  2 0.12500000E+03</rscale>
<asrwt>0</asrwt>
<pdfrwt beam="1">  1       21 0.35417693E-02 0.12500000E+03</pdfrwt>
<pdfrwt beam="2">  1       21 0.26104360E-01 0.12500000E+03</pdfrwt>
<totfact> 0.65723652E+06</totfact>
</mgrwt>
</event>
<event>
 3    0  0.1628193E+001  0.1250000E+03  0.7546771E-02  0.1235069E+00
         21   -1    0    0  502  501  0.00000000000E+00  0.00000000000E+00  0.13562255058E+02  0.13562255058E+02  0.00000000000E+00 0.  1.
         21   -1    0    0  501  502 -0.00000000000E+00 -0.00000000000E+00 -0.28802363495E+03  0.28802363495E+03  0.00000000000E+00 0.  1.
         25    1    1    2    0    0  0.00000000000E+00  0.00000000000E+00 -0.27446137989E+03  0.30158589000E+03  0.12500000000E+03 0.  0.
<mgrwt>
<rscale>  2 0.12500000E+03</rscale>
<asrwt>0</asrwt>
<pdfrwt beam="1">  1       21 0.20865007E-02 0.12500000E+03</pdfrwt>
<pdfrwt beam="2">  1       21 0.44311330E-01 0.12500000E+03</pdfrwt>
<totfact> 0.55324636E+06</totfact>
</mgrwt>
</event>
<event>
 3    0  0.1430124E+001  0.1250000E+03  0.7546771E-02  0.1235069E+00
         21   -1    0    0  502  501  0.00000000000E+00  0.00000000000E+00  0.61964546759E+03  0.61964546759E+03  0.00000000000E+00 0. -1.
         21   -1    0    0  501  502 -0.00000000000E+00 -0.00000000000E+00 -0.63040080245E+01  0.63040080245E+01  0.00000000000E+00 0. -1.
         25    1    1    2    0    0  0.00000000000E+00  0.00000000000E+00  0.61334145956E+03  0.62594947561E+03  0.12500000000E+03 0.  0.
<mgrwt>
<rscale>  2 0.12500000E+03</rscale>
<asrwt>0</asrwt>
<pdfrwt beam="1">  1       21 0.95330025E-01 0.12500000E+03</pdfrwt>
<pdfrwt beam="2">  1       21 0.96984787E-03 0.12500000E+03</pdfrwt>
<totfact> 0.35944799E+06</totfact>
</mgrwt>
</event>
<event>
 3    0  0.1368989E+001  0.1250000E+03  0.7546771E-02  0.1235069E+00
         21   -1    0    0  502  501  0.00000000000E+00  0.00000000000E+00  0.44268006656E+01  0.44268006656E+01  0.00000000000E+00 0.  1.
         21   -1    0    0  501  502 -0.00000000000E+00 -0.00000000000E+00 -0.88240928270E+03  0.88240928270E+03  0.00000000000E+00 0.  1.
         25    1    1    2    0    0  0.00000000000E+00  0.00000000000E+00 -0.87798248203E+03  0.88683608336E+03  0.12500000000E+03 0.  0.
<mgrwt>
<rscale>  2 0.12500000E+03</rscale>
<asrwt>0</asrwt>
<pdfrwt beam="1">  1       21 0.68104603E-03 0.12500000E+03</pdfrwt>
<pdfrwt beam="2">  1       21 0.13575532E+00 0.12500000E+03</pdfrwt>
<totfact> 0.26678337E+06</totfact>
</mgrwt>
</event>
<event>
 3    0  0.1421062E+001  0.1250000E+03  0.7546771E-02  0.1235069E+00
         21   -1    0    0  502  501  0.00000000000E+00  0.00000000000E+00  0.62538152020E+01  0.62538152020E+01  0.00000000000E+00 0. -1.
         21   -1    0    0  501  502 -0.00000000000E+00 -0.00000000000E+00 -0.62461871255E+03  0.62461871255E+03  0.00000000000E+00 0. -1.
         25    1    1    2    0    0  0.00000000000E+00  0.00000000000E+00 -0.61836489735E+03  0.63087252775E+03  0.12500000000E+03 0.  0.
<mgrwt>
<rscale>  2 0.12500000E+03</rscale>
<asrwt>0</asrwt>
<pdfrwt beam="1">  1       21 0.96212501E-03 0.12500000E+03</pdfrwt>
<pdfrwt beam="2">  1       21 0.96095227E-01 0.12500000E+03</pdfrwt>
<totfact> 0.35732647E+06</totfact>
</mgrwt>
</event>
<event>
 3    0  0.1618713E+001  0.1250000E+03  0.7546771E-02  0.1235069E+00
         21   -1    0    0  502  501  0.00000000000E+00  0.00000000000E+00  0.15903181446E+02  0.15903181446E+02  0.00000000000E+00 0. -1.
         21   -1    0    0  501  502 -0.00000000000E+00 -0.00000000000E+00 -0.24562695290E+03  0.24562695290E+03  0.00000000000E+00 0. -1.
         25    1    1    2    0    0  0.00000000000E+00  0.00000000000E+00 -0.22972377145E+03  0.26153013435E+03  0.12500000000E+03 0.  0.
<mgrwt>
<rscale>  2 0.12500000E+03</rscale>
<asrwt>0</asrwt>
<pdfrwt beam="1">  1       21 0.24466436E-02 0.12500000E+03</pdfrwt>
<pdfrwt beam="2">  1       21 0.37788757E-01 0.12500000E+03</pdfrwt>
<totfact> 0.58809312E+06</totfact>
</mgrwt>
</event>
<event>
 3    0  0.1480626E+001  0.1250000E+03  0.7546771E-02  0.1235069E+00
         21   -1    0    0  502  501  0.00000000000E+00  0.00000000000E+00  0.56423374996E+03  0.56423374996E+03  0.00000000000E+00 0.  1.
         21   -1    0    0  501  502 -0.00000000000E+00 -0.00000000000E+00 -0.69231058941E+01  0.69231058941E+01  0.00000000000E+00 0.  1.
         25    1    1    2    0    0  0.00000000000E+00  0.00000000000E+00  0.55731064407E+03  0.57115685585E+03  0.12500000000E+03 0.  0.
<mgrwt>
<rscale>  2 0.12500000E+03</rscale>
<asrwt>0</asrwt>
<pdfrwt beam="1">  1       21 0.86805156E-01 0.12500000E+03</pdfrwt>
<pdfrwt beam="2">  1       21 0.10650937E-02 0.12500000E+03</pdfrwt>
<totfact> 0.38430392E+06</totfact>
</mgrwt>
</event>
<event>
 3    0  0.1368989E+001  0.1250000E+03  0.7546771E-02  0.1235069E+00
         21   -1    0    0  502  501  0.00000000000E+00  0.00000000000E+00  0.85876524432E+03  0.85876524432E+03  0.00000000000E+00 0. -1.
         21   -1    0    0  501  502 -0.00000000000E+00 -0.00000000000E+00 -0.45486819894E+01  0.45486819894E+01  0.00000000000E+00 0. -1.
         25    1    1    2    0    0  0.00000000000E+00  0.00000000000E+00  0.85421656234E+03  0.86331392631E+03  0.12500000000E+03 0.  0.
<mgrwt>
<rscale>  2 0.12500000E+03</rscale>
<asrwt>0</asrwt>
<pdfrwt beam="1">  1       21 0.13211760E+00 0.12500000E+03</pdfrwt>
<pdfrwt beam="2">  1       21 0.69979791E-03 0.12500000E+03</pdfrwt>
<totfact> 0.27369294E+06</totfact>
</mgrwt>
</event>
<event>
 3    0  0.1694369E+001  0.1250000E+03  0.7546771E-02  0.1235069E+00
         21   -1    0    0  502  501  0.00000000000E+00  0.00000000000E+00  0.21984319915E+02  0.21984319915E+02  0.00000000000E+00 0.  1.
         21   -1    0    0  501  502 -0.00000000000E+00 -0.00000000000E+00 -0.17768345871E+03  0.17768345871E+03  0.00000000000E+00 0.  1.
         25    1    1    2    0    0  0.00000000000E+00  0.00000000000E+00 -0.15569913880E+03  0.19966777863E+03  0.12500000000E+03 0.  0.
<mgrwt>
<rscale>  2 0.12500000E+03</rscale>
<asrwt>0</asrwt>
<pdfrwt beam="1">  1       21 0.33822031E-02 0.12500000E+03</pdfrwt>
<pdfrwt beam="2">  1       21 0.27335916E-01 0.12500000E+03</pdfrwt>
<totfact> 0.64963268E+06</totfact>
</mgrwt>
</event>
<event>
 3    0  0.1396655E+001  0.1250000E+03  0.7546771E-02  0.1235069E+00
         21   -1    0    0  502  501  0.00000000000E+00  0.00000000000E+00  0.61253985942E+03  0.61253985942E+03  0.00000000000E+00 0.  1.
         21   -1    0    0  501  502 -0.00000000000E+00 -0.00000000000E+00 -0.63771360181E+01  0.63771360181E+01  0.00000000000E+00 0.  1.
         25    1    1    2    0    0  0.00000000000E+00  0.00000000000E+00  0.60616272340E+03  0.61891699544E+03  0.12500000000E+03 0.  0.
<mgrwt>
<rscale>  2 0.12500000E+03</rscale>
<asrwt>0</asrwt>
<pdfrwt beam="1">  1       21 0.94236855E-01 0.12500000E+03</pdfrwt>
<pdfrwt beam="2">  1       21 0.98109833E-03 0.12500000E+03</pdfrwt>
<totfact> 0.36250884E+06</totfact>
</mgrwt>
</event>
<event>
 3    0  0.1740435E+001  0.1250000E+03  0.7546771E-02  0.1235069E+00
         21   -1    0    0  502  501  0.00000000000E+00  0.00000000000E+00  0.44291827823E+02  0.44291827823E+02  0.00000000000E+00 0.  1.
         21   -1    0    0  501  502 -0.00000000000E+00 -0.00000000000E+00 -0.88193470263E+02  0.88193470263E+02  0.00000000000E+00 0.  1.
         25    1    1    2    0    0  0.00000000000E+00  0.00000000000E+00 -0.43901642440E+02  0.13248529809E+03  0.12500000000E+03 0.  0.
<mgrwt>
<rscale>  2 0.12500000E+03</rscale>
<asrwt>0</asrwt>
<pdfrwt beam="1">  1       21 0.68141275E-02 0.12500000E+03</pdfrwt>
<pdfrwt beam="2">  1       21 0.13568226E-01 0.12500000E+03</pdfrwt>
<totfact> 0.73031206E+06</totfact>
</mgrwt>
</event>
<event>
 3    0  0.1716294E+001  0.1250000E+03  0.7546771E-02  0.1235069E+00
         21   -1    0    0  502  501  0.00000000000E+00  0.00000000000E+00  0.44500254283E+02  0.44500254283E+02  0.00000000000E+00 0. -1.
         21   -1    0    0  501  502 -0.00000000000E+00 -0.00000000000E+00 -0.87780397279E+02  0.87780397279E+02  0.00000000000E+00 0. -1.
         25    1    1    2    0    0  0.00000000000E+00  0.00000000000E+00 -0.43280142996E+02  0.13228065156E+03  0.12500000000E+03 0.  0.
<mgrwt>
<rscale>  2 0.12500000E+03</rscale>
<asrwt>0</asrwt>
<pdfrwt beam="1">  1       21 0.68461930E-02 0.12500000E+03</pdfrwt>
<pdfrwt beam="2">  1       21 0.13504676E-01 0.12500000E+03</pdfrwt>
<totfact> 0.73058609E+06</totfact>
</mgrwt>
</event>
<event>
 3    0  0.1368989E+001  0.1250000E+03  0.7546771E-02  0.1235069E+00
         21   -1    0    0  502  501  0.00000000000E+00  0.00000000000E+00  0.15032486914E+04  0.15032486914E+04  0.00000000000E+00 0.  1.
         21   -1    0    0  501  502 -0.00000000000E+00 -0.00000000000E+00 -0.25985387663E+01  0.25985387663E+01  0.00000000000E+00 0.  1.
         25    1    1    2    0    0  0.00000000000E+00  0.00000000000E+00  0.15006501526E+04  0.15058472302E+04  0.12500000000E+03 0.  0.
<mgrwt>
<rscale>  2 0.12500000E+03</rscale>
<asrwt>0</asrwt>
<pdfrwt beam="1">  1       21 0.23126833E+00 0.12500000E+03</pdfrwt>
<pdfrwt beam="2">  1       21 0.39977640E-03 0.12500000E+03</pdfrwt>
<totfact> 0.13906570E+06</totfact>
</mgrwt>
</event>
<event>
 3    0  0.1719041E+001  0.1250000E+03  0.7546771E-02  0.1235069E+00
         21   -1    0    0  502  501  0.00000000000E+00  0.00000000000E+00  0.14232388602E+03  0.14232388602E+03  0.00000000000E+00 0.  1.
         21   -1    0    0  501  502 -0.00000000000E+00 -0.00000000000E+00 -0.27446201122E+02  0.27446201122E+02  0.00000000000E+00 0.  1.
         25    1    1    2    0    0  0.00000000000E+00  0.00000000000E+00  0.11487768489E+03  0.16977008714E+03  0.12500000000E+03 0.  0.
<mgrwt>
<rscale>  2 0.12500000E+03</rscale>
<asrwt>0</asrwt>
<pdfrwt beam="1">  1       21 0.21895982E-01 0.12500000E+03</pdfrwt>
<pdfrwt beam="2">  1       21 0.42224925E-02 0.12500000E+03</pdfrwt>
<totfact> 0.68344900E+06</totfact>
</mgrwt>
</event>
<event>
 3    0  0.1368989E+001  0.1250000E+03  0.7546771E-02  0.1235069E+00
         21   -1    0    0  502  501  0.00000000000E+00  0.00000000000E+00  0.28046922088E+01  0.28046922088E+01  0.00000000000E+00 0. -1.
         21   -1    0    0  501  502 -0.00000000000E+00 -0.00000000000E+00 -0.13927553219E+04  0.13927553219E+04  0.00000000000E+00 0. -1.
         25    1    1    2    0    0  0.00000000000E+00  0.00000000000E+00 -0.13899506296E+04  0.13955600141E+04  0.12500000000E+03 0.  0.
<mgrwt>
<rscale>  2 0.12500000E+03</rscale>
<asrwt>0</asrwt>
<pdfrwt beam="1">  1       21 0.43149106E-03 0.12500000E+03</pdfrwt>
<pdfrwt beam="2">  1       21 0.21427007E+00 0.12500000E+03</pdfrwt>
<totfact> 0.15617195E+06</totfact>
</mgrwt>
</event>
<event>
 3    0  0.1707868E+001  0.1250000E+03  0.7546771E-02  0.1235069E+00
         21   -1    0    0  502  501  0.00000000000E+00  0.00000000000E+00  0.16616240403E+03  0.16616240403E+03  0.00000000000E+00 0.  1.
         21   -1    0    0  501  502 -0.00000000000E+00 -0.00000000000E+00 -0.23508627134E+02  0.23508627134E+02  0.00000000000E+00 0.  1.
         25    1    1    2    0    0  0.00000000000E+00  0.00000000000E+00  0.14265377690E+03  0.18967103116E+03  0.12500000000E+03 0.  0.
<mgrwt>
<rscale>  2 0.12500000E+03</rscale>
<asrwt>0</asrwt>
<pdfrwt beam="1">  1       21 0.25563446E-01 0.12500000E+03</pdfrwt>
<pdfrwt beam="2">  1       21 0.36167120E-02 0.12500000E+03</pdfrwt>
<totfact> 0.66059045E+06</totfact>
</mgrwt>
</event>
<event>
 3    0  0.1368989E+001  0.1250000E+03  0.7546771E-02  0.1235069E+00
         21   -1    0    0  502  501  0.00000000000E+00  0.00000000000E+00  0.26185991098E+01  0.26185991098E+01  0.00000000000E+00 0. -1.
         21   -1    0    0  501  502 -0.00000000000E+00 -0.00000000000E+00 -0.14917327304E+04  0.14917327304E+04  0.00000000000E+00 0. -1.
         25    1    1    2    0    0  0.00000000000E+00  0.00000000000E+00 -0.14891141313E+04  0.14943513295E+04  0.12500000000E+03 0.  0.
<mgrwt>
<rscale>  2 0.12500000E+03</rscale>
<asrwt>0</asrwt>
<pdfrwt beam="1">  1       21 0.40286024E-03 0.12500000E+03</pdfrwt>
<pdfrwt beam="2">  1       21 0.22949801E+00 0.12500000E+03</pdfrwt>
<totfact> 0.14077084E+06</totfact>
</mgrwt>
</event>
<event>
 3    0  0.1603650E+001  0.1250000E+03  0.7546771E-02  0.1235069E+00
         21   -1    0    0  502  501  0.00000000000E+00  0.00000000000E+00  0.12329497111E+02  0.12329497111E+02  0.00000000000E+00 0.  1.
         21   -1    0    0  501  502 -0.00000000000E+00 -0.00000000000E+00 -0.31682151873E+03  0.31682151873E+03  0.00000000000E+00 0.  1.
         25    1    1    2    0    0  0.00000000000E+00  0.00000000000E+00 -0.30449202162E+03  0.32915101584E+03  0.12500000000E+03 0.  0.
<mgrwt>
<rscale>  2 0.12500000E+03</rscale>
<asrwt>0</asrwt>
<pdfrwt beam="1">  1       21 0.18968457E-02 0.12500000E+03</pdfrwt>
<pdfrwt beam="2">  1       21 0.48741772E-01 0.12500000E+03</pdfrwt>
<totfact> 0.53116046E+06</totfact>
</mgrwt>
</event>
<event>
 3    0  0.1715038E+001  0.1250000E+03  0.7546771E-02  0.1235069E+00
         21   -1    0    0  502  501  0.00000000000E+00  0.00000000000E+00  0.40162870440E+02  0.40162870440E+02  0.00000000000E+00 0. -1.
         21   -1    0    0  501  502 -0.00000000000E+00 -0.00000000000E+00 -0.97260229590E+02  0.97260229590E+02  0.00000000000E+00 0. -1.
         25    1    1    2    0    0  0.00000000000E+00  0.00000000000E+00 -0.57097359150E+02  0.13742310003E+03  0.12500000000E+03 0.  0.
<mgrwt>
<rscale>  2 0.12500000E+03</rscale>
<asrwt>0</asrwt>
<pdfrwt beam="1">  1       21 0.61789032E-02 0.12500000E+03</pdfrwt>
<pdfrwt beam="2">  1       21 0.14963112E-01 0.12500000E+03</pdfrwt>
<totfact> 0.72377199E+06</totfact>
</mgrwt>
</event>
<event>
 3    0  0.1486530E+001  0.1250000E+03  0.7546771E-02  0.1235069E+00
         21   -1    0    0  502  501  0.00000000000E+00  0.00000000000E+00  0.81118882351E+01  0.81118882351E+01  0.00000000000E+00 0. -1.
         21   -1    0    0  501  502 -0.00000000000E+00 -0.00000000000E+00 -0.48154632890E+03  0.48154632890E+03  0.00000000000E+00 0. -1.
         25    1    1    2    0    0  0.00000000000E+00  0.00000000000E+00 -0.47343444066E+03  0.48965821713E+03  0.12500000000E+03 0.  0.
<mgrwt>
<rscale>  2 0.12500000E+03</rscale>
<asrwt>0</asrwt>
<pdfrwt beam="1">  1       21 0.12479825E-02 0.12500000E+03</pdfrwt>
<pdfrwt beam="2">  1       21 0.74084069E-01 0.12500000E+03</pdfrwt>
<totfact> 0.42610533E+06</totfact>
</mgrwt>
</event>
<event>
 3    0  0.1696636E+001  0.1250000E+03  0.7546771E-02  0.1235069E+00
         21   -1    0    0  502  501  0.00000000000E+00  0.00000000000E+00  0.30875937713E+02  0.30875937713E+02  0.00000000000E+00 0. -1.
         21   -1    0    0  501  502 -0.00000000000E+00 -0.00000000000E+00 -0.12651437622E+03  0.12651437622E+03  0.00000000000E+00 0. -1.
         25    1    1    2    0    0  0.00000000000E+00  0.00000000000E+00 -0.95638438507E+02  0.15739031393E+03  0.12500000000E+03 0.  0.
<mgrwt>
<rscale>  2 0.12500000E+03</rscale>
<asrwt>0</asrwt>
<pdfrwt beam="1">  1       21 0.47501442E-02 0.12500000E+03</pdfrwt>
<pdfrwt beam="2">  1       21 0.19463751E-01 0.12500000E+03</pdfrwt>
<totfact> 0.69839785E+06</totfact>
</mgrwt>
</event>
<event>
 3    0  0.1560770E+001  0.1250000E+03  0.7546771E-02  0.1235069E+00
         21   -1    0    0  502  501  0.00000000000E+00  0.00000000000E+00  0.11609097722E+02  0.11609097722E+02  0.00000000000E+00 0. -1.
         21   -1    0    0  501  502 -0.00000000000E+00 -0.00000000000E+00 -0.33648179158E+03  0.33648179158E+03  0.00000000000E+00 0. -1.
         25    1    1    2    0    0  0.00000000000E+00  0.00000000000E+00 -0.32487269386E+03  0.34809088930E+03  0.12500000000E+03 0.  0.
<mgrwt>
<rscale>  2 0.12500000E+03</rscale>
<asrwt>0</asrwt>
<pdfrwt beam="1">  1       21 0.17860151E-02 0.12500000E+03</pdfrwt>
<pdfrwt beam="2">  1       21 0.51766427E-01 0.12500000E+03</pdfrwt>
<totfact> 0.51679735E+06</totfact>
</mgrwt>
</event>
<event>
 3    0  0.1711524E+001  0.1250000E+03  0.7546771E-02  0.1235069E+00
         21   -1    0    0  502  501  0.00000000000E+00  0.00000000000E+00  0.10220251228E+03  0.10220251228E+03  0.00000000000E+00 0. -1.
         21   -1    0    0  501  502 -0.00000000000E+00 -0.00000000000E+00 -0.38220684724E+02  0.38220684724E+02  0.00000000000E+00 0. -1.
         25    1    1    2    0    0  0.00000000000E+00  0.00000000000E+00  0.63981827560E+02  0.14042319701E+03  0.12500000000E+03 0.  0.
<mgrwt>
<rscale>  2 0.12500000E+03</rscale>
<asrwt>0</asrwt>
<pdfrwt beam="1">  1       21 0.15723463E-01 0.12500000E+03</pdfrwt>
<pdfrwt beam="2">  1       21 0.58801054E-02 0.12500000E+03</pdfrwt>
<totfact> 0.71984109E+06</totfact>
</mgrwt>
</event>
<event>
 3    0  0.1656927E+001  0.1250000E+03  0.7546771E-02  0.1235069E+00
         21   -1    0    0  502  501  0.00000000000E+00  0.00000000000E+00  0.19043056259E+03  0.19043056259E+03  0.00000000000E+00 0. -1.
         21   -1    0    0  501  502 -0.00000000000E+00 -0.00000000000E+00 -0.20512726249E+02  0.20512726249E+02  0.00000000000E+00 0. -1.
         25    1    1    2    0    0  0.00000000000E+00  0.00000000000E+00  0.16991783634E+03  0.21094328884E+03  0.12500000000E+03 0.  0.
<mgrwt>
<rscale>  2 0.12500000E+03</rscale>
<asrwt>0</asrwt>
<pdfrwt beam="1">  1       21 0.29297008E-01 0.12500000E+03</pdfrwt>
<pdfrwt beam="2">  1       21 0.31558042E-02 0.12500000E+03</pdfrwt>
<totfact> 0.63760428E+06</totfact>
</mgrwt>
</event>
<event>
 3    0  0.1707802E+001  0.1250000E+03  0.7546771E-02  0.1235069E+00
         21   -1    0    0  502  501  0.00000000000E+00  0.00000000000E+00  0.36451851812E+02  0.36451851812E+02  0.00000000000E+00 0. -1.
         21   -1    0    0  501  502 -0.00000000000E+00 -0.00000000000E+00 -0.10716190827E+03  0.10716190827E+03  0.00000000000E+00 0. -1.
         25    1    1    2    0    0  0.00000000000E+00  0.00000000000E+00 -0.70710056456E+02  0.14361376008E+03  0.12500000000E+03 0.  0.
<mgrwt>
<rscale>  2 0.12500000E+03</rscale>
<asrwt>0</asrwt>
<pdfrwt beam="1">  1       21 0.56079772E-02 0.12500000E+03</pdfrwt>
<pdfrwt beam="2">  1       21 0.16486447E-01 0.12500000E+03</pdfrwt>
<totfact> 0.71570979E+06</totfact>
</mgrwt>
</event>
<event>
 3    0  0.1436316E+001  0.1250000E+03  0.7546771E-02  0.1235069E+00
         21   -1    0    0  502  501  0.00000000000E+00  0.00000000000E+00  0.58923565135E+03  0.58923565135E+03  0.00000000000E+00 0.  1.
         21   -1    0    0  501  502 -0.00000000000E+00 -0.00000000000E+00 -0.66293510772E+01  0.66293510772E+01  0.00000000000E+00 0.  1.
         25    1    1    2    0    0  0.00000000000E+00  0.00000000000E+00  0.58260630027E+03  0.59586500242E+03  0.12500000000E+03 0.  0.
<mgrwt>
<rscale>  2 0.12500000E+03</rscale>
<asrwt>0</asrwt>
<pdfrwt beam="1">  1       21 0.90651597E-01 0.12500000E+03</pdfrwt>
<pdfrwt beam="2">  1       21 0.10199006E-02 0.12500000E+03</pdfrwt>
<totfact> 0.37280313E+06</totfact>
</mgrwt>
</event>
<event>
 3    0  0.1371941E+001  0.1250000E+03  0.7546771E-02  0.1235069E+00
         21   -1    0    0  502  501  0.00000000000E+00  0.00000000000E+00  0.55080134161E+01  0.55080134161E+01  0.00000000000E+00 0.  1.
         21   -1    0    0  501  502 -0.00000000000E+00 -0.00000000000E+00 -0.70919398791E+03  0.70919398791E+03  0.00000000000E+00 0.  1.
         25    1    1    2    0    0  0.00000000000E+00  0.00000000000E+00 -0.70368597449E+03  0.71470200133E+03  0.12500000000E+03 0.  0.
<mgrwt>
<rscale>  2 0.12500000E+03</rscale>
<asrwt>0</asrwt>
<pdfrwt beam="1">  1       21 0.84738728E-03 0.12500000E+03</pdfrwt>
<pdfrwt beam="2">  1       21 0.10910669E+00 0.12500000E+03</pdfrwt>
<totfact> 0.32351001E+06</totfact>
</mgrwt>
</event>
<event>
 3    0  0.1639224E+001  0.1250000E+03  0.7546771E-02  0.1235069E+00
         21   -1    0    0  502  501  0.00000000000E+00  0.00000000000E+00  0.15825442317E+02  0.15825442317E+02  0.00000000000E+00 0.  1.
         21   -1    0    0  501  502 -0.00000000000E+00 -0.00000000000E+00 -0.24683354321E+03  0.24683354321E+03  0.00000000000E+00 0.  1.
         25    1    1    2    0    0  0.00000000000E+00  0.00000000000E+00 -0.23100810089E+03  0.26265898552E+03  0.12500000000E+03 0.  0.
<mgrwt>
<rscale>  2 0.12500000E+03</rscale>
<asrwt>0</asrwt>
<pdfrwt beam="1">  1       21 0.24346837E-02 0.12500000E+03</pdfrwt>
<pdfrwt beam="2">  1       21 0.37974387E-01 0.12500000E+03</pdfrwt>
<totfact> 0.58706417E+06</totfact>
</mgrwt>
</event>
<event>
 3    0  0.1576216E+001  0.1250000E+03  0.7546771E-02  0.1235069E+00
         21   -1    0    0  502  501  0.00000000000E+00  0.00000000000E+00  0.35331185761E+03  0.35331185761E+03  0.00000000000E+00 0. -1.
         21   -1    0    0  501  502 -0.00000000000E+00 -0.00000000000E+00 -0.11056096522E+02  0.11056096522E+02  0.00000000000E+00 0. -1.
         25    1    1    2    0    0  0.00000000000E+00  0.00000000000E+00  0.34225576109E+03  0.36436795414E+03  0.12500000000E+03 0.  0.
<mgrwt>
<rscale>  2 0.12500000E+03</rscale>
<asrwt>0</asrwt>
<pdfrwt beam="1">  1       21 0.54355662E-01 0.12500000E+03</pdfrwt>
<pdfrwt beam="2">  1       21 0.17009382E-02 0.12500000E+03</pdfrwt>
<totfact> 0.50494513E+06</totfact>
</mgrwt>
</event>
<event>
 3    0  0.1368989E+001  0.1250000E+03  0.7546771E-02  0.1235069E+00
         21   -1    0    0  502  501  0.00000000000E+00  0.00000000000E+00  0.11101419477E+04  0.11101419477E+04  0.00000000000E+00 0.  1.
         21   -1    0    0  501  502 -0.00000000000E+00 -0.00000000000E+00 -0.35186941706E+01  0.35186941706E+01  0.00000000000E+00 0.  1.
         25    1    1    2    0    0  0.00000000000E+00  0.00000000000E+00  0.11066232536E+04  0.11136606419E+04  0.12500000000E+03 0.  0.
<mgrwt>
<rscale>  2 0.12500000E+03</rscale>
<asrwt>0</asrwt>
<pdfrwt beam="1">  1       21 0.17079079E+00 0.12500000E+03</pdfrwt>
<pdfrwt beam="2">  1       21 0.54133845E-03 0.12500000E+03</pdfrwt>
<totfact> 0.20950175E+06</totfact>
</mgrwt>
</event>
<event>
 3    0  0.1521033E+001  0.1250000E+03  0.7546771E-02  0.1235069E+00
         21   -1    0    0  502  501  0.00000000000E+00  0.00000000000E+00  0.47656787799E+03  0.47656787799E+03  0.00000000000E+00 0.  1.
         21   -1    0    0  501  502 -0.00000000000E+00 -0.00000000000E+00 -0.81966288129E+01  0.81966288129E+01  0.00000000000E+00 0.  1.
         25    1    1    2    0    0  0.00000000000E+00  0.00000000000E+00  0.46837124917E+03  0.48476450680E+03  0.12500000000E+03 0.  0.
<mgrwt>
<rscale>  2 0.12500000E+03</rscale>
<asrwt>0</asrwt>
<pdfrwt beam="1">  1       21 0.73318113E-01 0.12500000E+03</pdfrwt>
<pdfrwt beam="2">  1       21 0.12610202E-02 0.12500000E+03</pdfrwt>
<totfact> 0.42882571E+06</totfact>
</mgrwt>
</event>
<event>
 3    0  0.1697853E+001  0.1250000E+03  0.7546771E-02  0.1235069E+00
         21   -1    0    0  502  501  0.00000000000E+00  0.00000000000E+00  0.31007758085E+02  0.31007758085E+02  0.00000000000E+00 0. -1.
         21   -1    0    0  501  502 -0.00000000000E+00 -0.00000000000E+00 -0.12597653753E+03  0.12597653753E+03  0.00000000000E+00 0. -1.
         25    1    1    2    0    0  0.00000000000E+00  0.00000000000E+00 -0.94968779442E+02  0.15698429561E+03  0.12500000000E+03 0.  0.
<mgrwt>
<rscale>  2 0.12500000E+03</rscale>
<asrwt>0</asrwt>
<pdfrwt beam="1">  1       21 0.47704243E-02 0.12500000E+03</pdfrwt>
<pdfrwt beam="2">  1       21 0.19381006E-01 0.12500000E+03</pdfrwt>
<totfact> 0.69889872E+06</totfact>
</mgrwt>
</event>
<event>
 3    0  0.1746337E+001  0.1250000E+03  0.7546771E-02  0.1235069E+00
         21   -1    0    0  502  501  0.00000000000E+00  0.00000000000E+00  0.46330966797E+02  0.46330966797E+02  0.00000000000E+00 0.  1.
         21   -1    0    0  501  502 -0.00000000000E+00 -0.00000000000E+00 -0.84311860297E+02  0.84311860297E+02  0.00000000000E+00 0.  1.
         25    1    1    2    0    0  0.00000000000E+00  0.00000000000E+00 -0.37980893499E+02  0.13064282709E+03  0.12500000000E+03 0.  0.
<mgrwt>
<rscale>  2 0.12500000E+03</rscale>
<asrwt>0</asrwt>
<pdfrwt beam="1">  1       21 0.71278411E-02 0.12500000E+03</pdfrwt>
<pdfrwt beam="2">  1       21 0.12971055E-01 0.12500000E+03</pdfrwt>
<totfact> 0.73278845E+06</totfact>
</mgrwt>
</event>
<event>
 3    0  0.1410955E+001  0.1250000E+03  0.7546771E-02  0.1235069E+00
         21   -1    0    0  502  501  0.00000000000E+00  0.00000000000E+00  0.66090722810E+01  0.66090722810E+01  0.00000000000E+00 0. -1.
         21   -1    0    0  501  502 -0.00000000000E+00 -0.00000000000E+00 -0.59104361912E+03  0.59104361912E+03  0.00000000000E+00 0. -1.
         25    1    1    2    0    0  0.00000000000E+00  0.00000000000E+00 -0.58443454684E+03  0.59765269140E+03  0.12500000000E+03 0.  0.
<mgrwt>
<rscale>  2 0.12500000E+03</rscale>
<asrwt>0</asrwt>
<pdfrwt beam="1">  1       21 0.10167807E-02 0.12500000E+03</pdfrwt>
<pdfrwt beam="2">  1       21 0.90929760E-01 0.12500000E+03</pdfrwt>
<totfact> 0.37199008E+06</totfact>
</mgrwt>
</event>
<event>
 3    0  0.1633105E+001  0.1250000E+03  0.7546771E-02  0.1235069E+00
         21   -1    0    0  502  501  0.00000000000E+00  0.00000000000E+00  0.17167457454E+02  0.17167457454E+02  0.00000000000E+00 0. -1.
         21   -1    0    0  501  502 -0.00000000000E+00 -0.00000000000E+00 -0.22753806208E+03  0.22753806208E+03  0.00000000000E+00 0. -1.
         25    1    1    2    0    0  0.00000000000E+00  0.00000000000E+00 -0.21037060463E+03  0.24470551954E+03  0.12500000000E+03 0.  0.
<mgrwt>
<rscale>  2 0.12500000E+03</rscale>
<asrwt>0</asrwt>
<pdfrwt beam="1">  1       21 0.26411472E-02 0.12500000E+03</pdfrwt>
<pdfrwt beam="2">  1       21 0.35005857E-01 0.12500000E+03</pdfrwt>
<totfact> 0.60380268E+06</totfact>
</mgrwt>
</event>
<event>
 3    0  0.1746369E+001  0.1250000E+03  0.7546771E-02  0.1235069E+00
         21   -1    0    0  502  501  0.00000000000E+00  0.00000000000E+00  0.82157799427E+02  0.82157799427E+02  0.00000000000E+00 0.  1.
         21   -1    0    0  501  502 -0.00000000000E+00 -0.00000000000E+00 -0.47545698975E+02  0.47545698975E+02  0.00000000000E+00 0.  1.
         25    1    1    2    0    0  0.00000000000E+00  0.00000000000E+00  0.34612100453E+02  0.12970349840E+03  0.12500000000E+03 0.  0.
<mgrwt>
<rscale>  2 0.12500000E+03</rscale>
<asrwt>0</asrwt>
<pdfrwt beam="1">  1       21 0.12639661E-01 0.12500000E+03</pdfrwt>
<pdfrwt beam="2">  1       21 0.73147229E-02 0.12500000E+03</pdfrwt>
<totfact> 0.73404569E+06</totfact>
</mgrwt>
</event>
<event>
 3    0  0.1719504E+001  0.1250000E+03  0.7546771E-02  0.1235069E+00
         21   -1    0    0  502  501  0.00000000000E+00  0.00000000000E+00  0.46823819699E+02  0.46823819699E+02  0.00000000000E+00 0. -1.
         21   -1    0    0  501  502 -0.00000000000E+00 -0.00000000000E+00 -0.83424419988E+02  0.83424419988E+02  0.00000000000E+00 0. -1.
         25    1    1    2    0    0  0.00000000000E+00  0.00000000000E+00 -0.36600600289E+02  0.13024823969E+03  0.12500000000E+03 0.  0.
<mgrwt>
<rscale>  2 0.12500000E+03</rscale>
<asrwt>0</asrwt>
<pdfrwt beam="1">  1       21 0.72036646E-02 0.12500000E+03</pdfrwt>
<pdfrwt beam="2">  1       21 0.12834526E-01 0.12500000E+03</pdfrwt>
<totfact> 0.73331756E+06</totfact>
</mgrwt>
</event>
<event>
 3    0  0.1368989E+001  0.1250000E+03  0.7546771E-02  0.1235069E+00
         21   -1    0    0  502  501  0.00000000000E+00  0.00000000000E+00  0.77549762654E+03  0.77549762654E+03  0.00000000000E+00 0.  1.
         21   -1    0    0  501  502 -0.00000000000E+00 -0.00000000000E+00 -0.50370882725E+01  0.50370882725E+01  0.00000000000E+00 0.  1.
         25    1    1    2    0    0  0.00000000000E+00  0.00000000000E+00  0.77046053827E+03  0.78053471481E+03  0.12500000000E+03 0.  0.
<mgrwt>
<rscale>  2 0.12500000E+03</rscale>
<asrwt>0</asrwt>
<pdfrwt beam="1">  1       21 0.11930723E+00 0.12500000E+03</pdfrwt>
<pdfrwt beam="2">  1       21 0.77493727E-03 0.12500000E+03</pdfrwt>
<totfact> 0.30017982E+06</totfact>
</mgrwt>
</event>
<event>
 3    0  0.1541550E+001  0.1250000E+03  0.7546771E-02  0.1235069E+00
         21   -1    0    0  502  501  0.00000000000E+00  0.00000000000E+00  0.93553370802E+01  0.93553370802E+01  0.00000000000E+00 0.  1.
         21   -1    0    0  501  502 -0.00000000000E+00 -0.00000000000E+00 -0.41754241098E+03  0.41754241098E+03  0.00000000000E+00 0.  1.
         25    1    1    2    0    0  0.00000000000E+00  0.00000000000E+00 -0.40818707390E+03  0.42689774806E+03  0.12500000000E+03 0.  0.
<mgrwt>
<rscale>  2 0.12500000E+03</rscale>
<asrwt>0</asrwt>
<pdfrwt beam="1">  1       21 0.14392826E-02 0.12500000E+03</pdfrwt>
<pdfrwt beam="2">  1       21 0.64237296E-01 0.12500000E+03</pdfrwt>
<totfact> 0.46306966E+06</totfact>
</mgrwt>
</event>
<event>
 3    0  0.1417146E+001  0.1250000E+03  0.7546771E-02  0.1235069E+00
         21   -1    0    0  502  501  0.00000000000E+00  0.00000000000E+00  0.68144019394E+03  0.68144019394E+03  0.00000000000E+00 0.  1.
         21   -1    0    0  501  502 -0.00000000000E+00 -0.00000000000E+00 -0.57323445766E+01  0.57323445766E+01  0.00000000000E+00 0.  1.
         25    1    1    2    0    0  0.00000000000E+00  0.00000000000E+00  0.67570784937E+03  0.68717253852E+03  0.12500000000E+03 0.  0.
<mgrwt>
<rscale>  2 0.12500000E+03</rscale>
<asrwt>0</asrwt>
<pdfrwt beam="1">  1       21 0.10483689E+00 0.12500000E+03</pdfrwt>
<pdfrwt beam="2">  1       21 0.88189971E-03 0.12500000E+03</pdfrwt>
<totfact> 0.33410593E+06</totfact>
</mgrwt>
</event>
<event>
 3    0  0.1368989E+001  0.1250000E+03  0.7546771E-02  0.1235069E+00
         21   -1    0    0  502  501  0.00000000000E+00  0.00000000000E+00  0.93554041519E+03  0.93554041519E+03  0.00000000000E+00 0. -1.
         21   -1    0    0  501  502 -0.00000000000E+00 -0.00000000000E+00 -0.41753941749E+01  0.41753941749E+01  0.00000000000E+00 0. -1.
         25    1    1    2    0    0  0.00000000000E+00  0.00000000000E+00  0.93136502102E+03  0.93971580937E+03  0.12500000000E+03 0.  0.
<mgrwt>
<rscale>  2 0.12500000E+03</rscale>
<asrwt>0</asrwt>
<pdfrwt beam="1">  1       21 0.14392913E+00 0.12500000E+03</pdfrwt>
<pdfrwt beam="2">  1       21 0.64236908E-03 0.12500000E+03</pdfrwt>
<totfact> 0.25188819E+06</totfact>
</mgrwt>
</event>
<event>
 3    0  0.1639757E+001  0.1250000E+03  0.7546771E-02  0.1235069E+00
         21   -1    0    0  502  501  0.00000000000E+00  0.00000000000E+00  0.23406173276E+03  0.23406173276E+03  0.00000000000E+00 0.  1.
         21   -1    0    0  501  502 -0.00000000000E+00 -0.00000000000E+00 -0.16688973264E+02  0.16688973264E+02  0.00000000000E+00 0.  1.
         25    1    1    2    0    0  0.00000000000E+00  0.00000000000E+00  0.21737275949E+03  0.25075070602E+03  0.12500000000E+03 0.  0.
<mgrwt>
<rscale>  2 0.12500000E+03</rscale>
<asrwt>0</asrwt>
<pdfrwt beam="1">  1       21 0.36009495E-01 0.12500000E+03</pdfrwt>
<pdfrwt beam="2">  1       21 0.25675345E-02 0.12500000E+03</pdfrwt>
<totfact> 0.59807584E+06</totfact>
</mgrwt>
</event>
<event>
 3    0  0.1536267E+001  0.1250000E+03  0.7546771E-02  0.1235069E+00
         21   -1    0    0  502  501  0.00000000000E+00  0.00000000000E+00  0.11226753351E+02  0.11226753351E+02  0.00000000000E+00 0. -1.
         21   -1    0    0  501  502 -0.00000000000E+00 -0.00000000000E+00 -0.34794119706E+03  0.34794119706E+03  0.00000000000E+00 0. -1.
         25    1    1    2    0    0  0.00000000000E+00  0.00000000000E+00 -0.33671444370E+03  0.35916795041E+03  0.12500000000E+03 0.  0.
<mgrwt>
<rscale>  2 0.12500000E+03</rscale>
<asrwt>0</asrwt>
<pdfrwt beam="1">  1       21 0.17271925E-02 0.12500000E+03</pdfrwt>
<pdfrwt beam="2">  1       21 0.53529425E-01 0.12500000E+03</pdfrwt>
<totfact> 0.50868394E+06</totfact>
</mgrwt>
</event>
<event>
 3    0  0.1532260E+001  0.1250000E+03  0.7546771E-02  0.1235069E+00
         21   -1    0    0  502  501  0.00000000000E+00  0.00000000000E+00  0.94977135588E+01  0.94977135588E+01  0.00000000000E+00 0. -1.
         21   -1    0    0  501  502 -0.00000000000E+00 -0.00000000000E+00 -0.41128319735E+03  0.41128319735E+03  0.00000000000E+00 0. -1.
         25    1    1    2    0    0  0.00000000000E+00  0.00000000000E+00 -0.40178548379E+03  0.42078091091E+03  0.12500000000E+03 0.  0.
<mgrwt>
<rscale>  2 0.12500000E+03</rscale>
<asrwt>0</asrwt>
<pdfrwt beam="1">  1       21 0.14611864E-02 0.12500000E+03</pdfrwt>
<pdfrwt beam="2">  1       21 0.63274350E-01 0.12500000E+03</pdfrwt>
<totfact> 0.46692839E+06</totfact>
</mgrwt>
</event>
<event>
 3    0  0.1719000E+001  0.1250000E+03  0.7546771E-02  0.1235069E+00
         21   -1    0    0  502  501  0.00000000000E+00  0.00000000000E+00  0.41093362004E+02  0.41093362004E+02  0.00000000000E+00 0. -1.
         21   -1    0    0  501  502 -0.00000000000E+00 -0.00000000000E+00 -0.95057931731E+02  0.95057931731E+02  0.00000000000E+00 0. -1.
         25    1    1    2    0    0  0.00000000000E+00  0.00000000000E+00 -0.53964569727E+02  0.13615129374E+03  0.12500000000E+03 0.  0.
<mgrwt>
<rscale>  2 0.12500000E+03</rscale>
<asrwt>0</asrwt>
<pdfrwt beam="1">  1       21 0.63220558E-02 0.12500000E+03</pdfrwt>
<pdfrwt beam="2">  1       21 0.14624297E-01 0.12500000E+03</pdfrwt>
<totfact> 0.72544390E+06</totfact>
</mgrwt>
</event>
<event>
 3    0  0.1711381E+001  0.1250000E+03  0.7546771E-02  0.1235069E+00
         21   -1    0    0  502  501  0.00000000000E+00  0.00000000000E+00  0.38254202433E+02  0.38254202433E+02  0.00000000000E+00 0. -1.
         21   -1    0    0  501  502 -0.00000000000E+00 -0.00000000000E+00 -0.10211296411E+03  0.10211296411E+03  0.00000000000E+00 0. -1.
         25    1    1    2    0    0  0.00000000000E+00  0.00000000000E+00 -0.63858761676E+02  0.14036716654E+03  0.12500000000E+03 0.  0.
<mgrwt>
<rscale>  2 0.12500000E+03</rscale>
<asrwt>0</asrwt>
<pdfrwt beam="1">  1       21 0.58852619E-02 0.12500000E+03</pdfrwt>
<pdfrwt beam="2">  1       21 0.15709687E-01 0.12500000E+03</pdfrwt>
<totfact> 0.71991412E+06</totfact>
</mgrwt>
</event>
<event>
 3    0  0.1664451E+001  0.1250000E+03  0.7546771E-02  0.1235069E+00
         21   -1    0    0  502  501  0.00000000000E+00  0.00000000000E+00  0.21694668270E+02  0.21694668270E+02  0.00000000000E+00 0. -1.
         21   -1    0    0  501  502 -0.00000000000E+00 -0.00000000000E+00 -0.18005576077E+03  0.18005576077E+03  0.00000000000E+00 0. -1.
         25    1    1    2    0    0  0.00000000000E+00  0.00000000000E+00 -0.15836109250E+03  0.20175042904E+03  0.12500000000E+03 0.  0.
<mgrwt>
<rscale>  2 0.12500000E+03</rscale>
<asrwt>0</asrwt>
<pdfrwt beam="1">  1       21 0.33376411E-02 0.12500000E+03</pdfrwt>
<pdfrwt beam="2">  1       21 0.27700887E-01 0.12500000E+03</pdfrwt>
<totfact> 0.64738073E+06</totfact>
</mgrwt>
</event>
<event>
 3    0  0.1626210E+001  0.1250000E+03  0.7546771E-02  0.1235069E+00
         21   -1    0    0  502  501  0.00000000000E+00  0.00000000000E+00  0.15306270903E+02  0.15306270903E+02  0.00000000000E+00 0. -1.
         21   -1    0    0  501  502 -0.00000000000E+00 -0.00000000000E+00 -0.25520585810E+03  0.25520585810E+03  0.00000000000E+00 0. -1.
         25    1    1    2    0    0  0.00000000000E+00  0.00000000000E+00 -0.23989958719E+03  0.27051212900E+03  0.12500000000E+03 0.  0.
<mgrwt>
<rscale>  2 0.12500000E+03</rscale>
<asrwt>0</asrwt>
<pdfrwt beam="1">  1       21 0.23548112E-02 0.12500000E+03</pdfrwt>
<pdfrwt beam="2">  1       21 0.39262435E-01 0.12500000E+03</pdfrwt>
<totfact> 0.57998971E+06</totfact>
</mgrwt>
</event>
<event>
 3    0  0.1673216E+001  0.1250000E+03  0.7546771E-02  0.1235069E+00
         21   -1    0    0  502  501  0.00000000000E+00  0.00000000000E+00  0.22904557219E+02  0.22904557219E+02  0.00000000000E+00 0. -1.
         21   -1    0    0  501  502 -0.00000000000E+00 -0.00000000000E+00 -0.17054466335E+03  0.17054466335E+03  0.00000000000E+00 0. -1.
         25    1    1    2    0    0  0.00000000000E+00  0.00000000000E+00 -0.14764010613E+03  0.19344922057E+03  0.12500000000E+03 0.  0.
<mgrwt>
<rscale>  2 0.12500000E+03</rscale>
<asrwt>0</asrwt>
<pdfrwt beam="1">  1       21 0.35237779E-02 0.12500000E+03</pdfrwt>
<pdfrwt beam="2">  1       21 0.26237642E-01 0.12500000E+03</pdfrwt>
<totfact> 0.65641150E+06</totfact>
</mgrwt>
</event>
<event>
 3    0  0.1635437E+001  0.1250000E+03  0.7546771E-02  0.1235069E+00
         21   -1    0    0  502  501  0.00000000000E+00  0.00000000000E+00  0.26093571196E+03  0.26093571196E+03  0.00000000000E+00 0.  1.
         21   -1    0    0  501  502 -0.00000000000E+00 -0.00000000000E+00 -0.14970162461E+02  0.14970162461E+02  0.00000000000E+00 0.  1.
         25    1    1    2    0    0  0.00000000000E+00  0.00000000000E+00  0.24596554950E+03  0.27590587442E+03  0.12500000000E+03 0.  0.
<mgrwt>
<rscale>  2 0.12500000E+03</rscale>
<asrwt>0</asrwt>
<pdfrwt beam="1">  1       21 0.40143952E-01 0.12500000E+03</pdfrwt>
<pdfrwt beam="2">  1       21 0.23031021E-02 0.12500000E+03</pdfrwt>
<totfact> 0.57519876E+06</totfact>
</mgrwt>
</event>
<event>
 3    0  0.1660594E+001  0.1250000E+03  0.7546771E-02  0.1235069E+00
         21   -1    0    0  502  501  0.00000000000E+00  0.00000000000E+00  0.19875474029E+03  0.19875474029E+03  0.00000000000E+00 0. -1.
         21   -1    0    0  501  502 -0.00000000000E+00 -0.00000000000E+00 -0.19653619302E+02  0.19653619302E+02  0.00000000000E+00 0. -1.
         25    1    1    2    0    0  0.00000000000E+00  0.00000000000E+00  0.17910112099E+03  0.21840835959E+03  0.12500000000E+03 0.  0.
<mgrwt>
<rscale>  2 0.12500000E+03</rscale>
<asrwt>0</asrwt>
<pdfrwt beam="1">  1       21 0.30577651E-01 0.12500000E+03</pdfrwt>
<pdfrwt beam="2">  1       21 0.30236339E-02 0.12500000E+03</pdfrwt>
<totfact> 0.62985594E+06</totfact>
</mgrwt>
</event>
<event>
 3    0  0.1546691E+001  0.1250000E+03  0.7546771E-02  0.1235069E+00
         21   -1    0    0  502  501  0.00000000000E+00  0.00000000000E+00  0.88401860339E+01  0.88401860339E+01  0.00000000000E+00 0.  1.
         21   -1    0    0  501  502 -0.00000000000E+00 -0.00000000000E+00 -0.44187418512E+03  0.44187418512E+03  0.00000000000E+00 0.  1.
         25    1    1    2    0    0  0.00000000000E+00  0.00000000000E+00 -0.43303399908E+03  0.45071437115E+03  0.12500000000E+03 0.  0.
<mgrwt>
<rscale>  2 0.12500000E+03</rscale>
<asrwt>0</asrwt>
<pdfrwt beam="1">  1       21 0.13600292E-02 0.12500000E+03</pdfrwt>
<pdfrwt beam="2">  1       21 0.67980616E-01 0.12500000E+03</pdfrwt>
<totfact> 0.44849564E+06</totfact>
</mgrwt>
</event>
<event>
 3    0  0.1710108E+001  0.1250000E+03  0.7546771E-02  0.1235069E+00
         21   -1    0    0  502  501  0.00000000000E+00  0.00000000000E+00  0.26138800794E+02  0.26138800794E+02  0.00000000000E+00 0.  1.
         21   -1    0    0  501  502 -0.00000000000E+00 -0.00000000000E+00 -0.14944258655E+03  0.14944258655E+03  0.00000000000E+00 0.  1.
         25    1    1    2    0    0  0.00000000000E+00  0.00000000000E+00 -0.12330378576E+03  0.17558138734E+03  0.12500000000E+03 0.  0.
<mgrwt>
<rscale>  2 0.12500000E+03</rscale>
<asrwt>0</asrwt>
<pdfrwt beam="1">  1       21 0.40213541E-02 0.12500000E+03</pdfrwt>
<pdfrwt beam="2">  1       21 0.22991166E-01 0.12500000E+03</pdfrwt>
<totfact> 0.67662077E+06</totfact>
</mgrwt>
</event>
<event>
 3    0  0.1680140E+001  0.1250000E+03  0.7546771E-02  0.1235069E+00
         21   -1    0    0  502  501  0.00000000000E+00  0.00000000000E+00  0.19072392310E+03  0.19072392310E+03  0.00000000000E+00 0.  1.
         21   -1    0    0  501  502 -0.00000000000E+00 -0.00000000000E+00 -0.20481174760E+02  0.20481174760E+02  0.00000000000E+00 0.  1.
         25    1    1    2    0    0  0.00000000000E+00  0.00000000000E+00  0.17024274834E+03  0.21120509786E+03  0.12500000000E+03 0.  0.
<mgrwt>
<rscale>  2 0.12500000E+03</rscale>
<asrwt>0</asrwt>
<pdfrwt beam="1">  1       21 0.29342141E-01 0.12500000E+03</pdfrwt>
<pdfrwt beam="2">  1       21 0.31509501E-02 0.12500000E+03</pdfrwt>
<totfact> 0.63732969E+06</totfact>
</mgrwt>
</event>
<event>
 3    0  0.1702586E+001  0.1250000E+03  0.7546771E-02  0.1235069E+00
         21   -1    0    0  502  501  0.00000000000E+00  0.00000000000E+00  0.10966139654E+03  0.10966139654E+03  0.00000000000E+00 0. -1.
         21   -1    0    0  501  502 -0.00000000000E+00 -0.00000000000E+00 -0.35621012709E+02  0.35621012709E+02  0.00000000000E+00 0. -1.
         25    1    1    2    0    0  0.00000000000E+00  0.00000000000E+00  0.74040383834E+02  0.14528240925E+03  0.12500000000E+03 0.  0.
<mgrwt>
<rscale>  2 0.12500000E+03</rscale>
<asrwt>0</asrwt>
<pdfrwt beam="1">  1       21 0.16870984E-01 0.12500000E+03</pdfrwt>
<pdfrwt beam="2">  1       21 0.54801559E-02 0.12500000E+03</pdfrwt>
<totfact> 0.71356977E+06</totfact>
</mgrwt>
</event>
<event>
 3    0  0.1746717E+001  0.1250000E+03  0.7546771E-02  0.1235069E+00
         21   -1    0    0  502  501  0.00000000000E+00  0.00000000000E+00  0.46476248073E+02  0.46476248073E+02  0.00000000000E+00 0.  1.
         21   -1    0    0  501  502 -0.00000000000E+00 -0.00000000000E+00 -0.84048307726E+02  0.84048307726E+02  0.00000000000E+00 0.  1.
         25    1    1    2    0    0  0.00000000000E+00  0.00000000000E+00 -0.37572059652E+02  0.13052455580E+03  0.12500000000E+03 0.  0.
<mgrwt>
<rscale>  2 0.12500000E+03</rscale>
<asrwt>0</asrwt>
<pdfrwt beam="1">  1       21 0.71501922E-02 0.12500000E+03</pdfrwt>
<pdfrwt beam="2">  1       21 0.12930509E-01 0.12500000E+03</pdfrwt>
<totfact> 0.73294815E+06</totfact>
</mgrwt>
</event>
<event>
 3    0  0.1376998E+001  0.1250000E+03  0.7546771E-02  0.1235069E+00
         21   -1    0    0  502  501  0.00000000000E+00  0.00000000000E+00  0.63898545875E+01  0.63898545875E+01  0.00000000000E+00 0. -1.
         21   -1    0    0  501  502 -0.00000000000E+00 -0.00000000000E+00 -0.61132064063E+03  0.61132064063E+03  0.00000000000E+00 0. -1.
         25    1    1    2    0    0  0.00000000000E+00  0.00000000000E+00 -0.60493078605E+03  0.61771049522E+03  0.12500000000E+03 0.  0.
<mgrwt>
<rscale>  2 0.12500000E+03</rscale>
<asrwt>0</asrwt>
<pdfrwt beam="1">  1       21 0.98305477E-03 0.12500000E+03</pdfrwt>
<pdfrwt beam="2">  1       21 0.94049308E-01 0.12500000E+03</pdfrwt>
<totfact> 0.36303756E+06</totfact>
</mgrwt>
</event>
<event>
 3    0  0.1683093E+001  0.1250000E+03  0.7546771E-02  0.1235069E+00
         21   -1    0    0  502  501  0.00000000000E+00  0.00000000000E+00  0.23463623339E+02  0.23463623339E+02  0.00000000000E+00 0. -1.
         21   -1    0    0  501  502 -0.00000000000E+00 -0.00000000000E+00 -0.16648110752E+03  0.16648110752E+03  0.00000000000E+00 0. -1.
         25    1    1    2    0    0  0.00000000000E+00  0.00000000000E+00 -0.14301748418E+03  0.18994473086E+03  0.12500000000E+03 0.  0.
<mgrwt>
<rscale>  2 0.12500000E+03</rscale>
<asrwt>0</asrwt>
<pdfrwt beam="1">  1       21 0.36097883E-02 0.12500000E+03</pdfrwt>
<pdfrwt beam="2">  1       21 0.25612477E-01 0.12500000E+03</pdfrwt>
<totfact> 0.66028608E+06</totfact>
</mgrwt>
</event>
<event>
 3    0  0.1426698E+001  0.1250000E+03  0.7546771E-02  0.1235069E+00
         21   -1    0    0  502  501  0.00000000000E+00  0.00000000000E+00  0.55264608275E+03  0.55264608275E+03  0.00000000000E+00 0. -1.
         21   -1    0    0  501  502 -0.00000000000E+00 -0.00000000000E+00 -0.70682668744E+01  0.70682668744E+01  0.00000000000E+00 0. -1.
         25    1    1    2    0    0  0.00000000000E+00  0.00000000000E+00  0.54557781588E+03  0.55971434963E+03  0.12500000000E+03 0.  0.
<mgrwt>
<rscale>  2 0.12500000E+03</rscale>
<asrwt>0</asrwt>
<pdfrwt beam="1">  1       21 0.85022440E-01 0.12500000E+03</pdfrwt>
<pdfrwt beam="2">  1       21 0.10874261E-02 0.12500000E+03</pdfrwt>
<totfact> 0.38980283E+06</totfact>
</mgrwt>
</event>
<event>
 3    0  0.1683505E+001  0.1250000E+03  0.7546771E-02  0.1235069E+00
         21   -1    0    0  502  501  0.00000000000E+00  0.00000000000E+00  0.21453927701E+02  0.21453927701E+02  0.00000000000E+00 0.  1.
         21   -1    0    0  501  502 -0.00000000000E+00 -0.00000000000E+00 -0.18207621720E+03  0.18207621720E+03  0.00000000000E+00 0.  1.
         25    1    1    2    0    0  0.00000000000E+00  0.00000000000E+00 -0.16062228950E+03  0.20353014491E+03  0.12500000000E+03 0.  0.
<mgrwt>
<rscale>  2 0.12500000E+03</rscale>
<asrwt>0</asrwt>
<pdfrwt beam="1">  1       21 0.33006042E-02 0.12500000E+03</pdfrwt>
<pdfrwt beam="2">  1       21 0.28011726E-01 0.12500000E+03</pdfrwt>
<totfact> 0.64546733E+06</totfact>
</mgrwt>
</event>
<event>
 3    0  0.1669479E+001  0.1250000E+03  0.7546771E-02  0.1235069E+00
         21   -1    0    0  502  501  0.00000000000E+00  0.00000000000E+00  0.19505783026E+03  0.19505783026E+03  0.00000000000E+00 0.  1.
         21   -1    0    0  501  502 -0.00000000000E+00 -0.00000000000E+00 -0.20026112229E+02  0.20026112229E+02  0.00000000000E+00 0.  1.
         25    1    1    2    0    0  0.00000000000E+00  0.00000000000E+00  0.17503171803E+03  0.21508394249E+03  0.12500000000E+03 0.  0.
<mgrwt>
<rscale>  2 0.12500000E+03</rscale>
<asrwt>0</asrwt>
<pdfrwt beam="1">  1       21 0.30008896E-01 0.12500000E+03</pdfrwt>
<pdfrwt beam="2">  1       21 0.30809405E-02 0.12500000E+03</pdfrwt>
<totfact> 0.63328585E+06</totfact>
</mgrwt>
</event>
<event>
 3    0  0.1502198E+001  0.1250000E+03  0.7546771E-02  0.1235069E+00
         21   -1    0    0  502  501  0.00000000000E+00  0.00000000000E+00  0.91638634584E+01  0.91638634584E+01  0.00000000000E+00 0. -1.
         21   -1    0    0  501  502 -0.00000000000E+00 -0.00000000000E+00 -0.42626671793E+03  0.42626671793E+03  0.00000000000E+00 0. -1.
         25    1    1    2    0    0  0.00000000000E+00  0.00000000000E+00 -0.41710285447E+03  0.43543058139E+03  0.12500000000E+03 0.  0.
<mgrwt>
<rscale>  2 0.12500000E+03</rscale>
<asrwt>0</asrwt>
<pdfrwt beam="1">  1       21 0.14098254E-02 0.12500000E+03</pdfrwt>
<pdfrwt beam="2">  1       21 0.65579481E-01 0.12500000E+03</pdfrwt>
<totfact> 0.45776767E+06</totfact>
</mgrwt>
</event>
<event>
 3    0  0.1412253E+001  0.1250000E+03  0.7546771E-02  0.1235069E+00
         21   -1    0    0  502  501  0.00000000000E+00  0.00000000000E+00  0.64867013269E+01  0.64867013269E+01  0.00000000000E+00 0.  1.
         21   -1    0    0  501  502 -0.00000000000E+00 -0.00000000000E+00 -0.60219359627E+03  0.60219359627E+03  0.00000000000E+00 0.  1.
         25    1    1    2    0    0  0.00000000000E+00  0.00000000000E+00 -0.59570689495E+03  0.60868029760E+03  0.12500000000E+03 0.  0.
<mgrwt>
<rscale>  2 0.12500000E+03</rscale>
<asrwt>0</asrwt>
<pdfrwt beam="1">  1       21 0.99795387E-03 0.12500000E+03</pdfrwt>
<pdfrwt beam="2">  1       21 0.92645185E-01 0.12500000E+03</pdfrwt>
<totfact> 0.36702990E+06</totfact>
</mgrwt>
</event>
<event>
 3    0  0.1651899E+001  0.1250000E+03  0.7546771E-02  0.1235069E+00
         21   -1    0    0  502  501  0.00000000000E+00  0.00000000000E+00  0.22079730205E+03  0.22079730205E+03  0.00000000000E+00 0.  1.
         21   -1    0    0  501  502 -0.00000000000E+00 -0.00000000000E+00 -0.17691565811E+02  0.17691565811E+02  0.00000000000E+00 0.  1.
         25    1    1    2    0    0  0.00000000000E+00  0.00000000000E+00  0.20310573624E+03  0.23848886786E+03  0.12500000000E+03 0.  0.
<mgrwt>
<rscale>  2 0.12500000E+03</rscale>
<asrwt>0</asrwt>
<pdfrwt beam="1">  1       21 0.33968814E-01 0.12500000E+03</pdfrwt>
<pdfrwt beam="2">  1       21 0.27217795E-02 0.12500000E+03</pdfrwt>
<totfact> 0.60979200E+06</totfact>
</mgrwt>
</event>
<event>
 3    0  0.1710589E+001  0.1250000E+03  0.7546771E-02  0.1235069E+00
         21   -1    0    0  502  501  0.00000000000E+00  0.00000000000E+00  0.11713832931E+03  0.11713832931E+03  0.00000000000E+00 0. -1.
         21   -1    0    0  501  502 -0.00000000000E+00 -0.00000000000E+00 -0.33347325535E+02  0.33347325535E+02  0.00000000000E+00 0. -1.
         25    1    1    2    0    0  0.00000000000E+00  0.00000000000E+00  0.83791003770E+02  0.15048565484E+03  0.12500000000E+03 0.  0.
<mgrwt>
<rscale>  2 0.12500000E+03</rscale>
<asrwt>0</asrwt>
<pdfrwt beam="1">  1       21 0.18021281E-01 0.12500000E+03</pdfrwt>
<pdfrwt beam="2">  1       21 0.51303578E-02 0.12500000E+03</pdfrwt>
<totfact> 0.70698247E+06</totfact>
</mgrwt>
</event>
<event>
 3    0  0.1717540E+001  0.1250000E+03  0.7546771E-02  0.1235069E+00
         21   -1    0    0  502  501  0.00000000000E+00  0.00000000000E+00  0.27218903455E+02  0.27218903455E+02  0.00000000000E+00 0.  1.
         21   -1    0    0  501  502 -0.00000000000E+00 -0.00000000000E+00 -0.14351239412E+03  0.14351239412E+03  0.00000000000E+00 0.  1.
         25    1    1    2    0    0  0.00000000000E+00  0.00000000000E+00 -0.11629349066E+03  0.17073129757E+03  0.12500000000E+03 0.  0.
<mgrwt>
<rscale>  2 0.12500000E+03</rscale>
<asrwt>0</asrwt>
<pdfrwt beam="1">  1       21 0.41875236E-02 0.12500000E+03</pdfrwt>
<pdfrwt beam="2">  1       21 0.22078830E-01 0.12500000E+03</pdfrwt>
<totfact> 0.68231050E+06</totfact>
</mgrwt>
</event>
<event>
 3    0  0.1702561E+001  0.1250000E+03  0.7546771E-02  0.1235069E+00
         21   -1    0    0  502  501  0.00000000000E+00  0.00000000000E+00  0.13894036941E+03  0.13894036941E+03  0.00000000000E+00 0. -1.
         21   -1    0    0  501  502 -0.00000000000E+00 -0.00000000000E+00 -0.28114579057E+02  0.28114579057E+02  0.00000000000E+00 0. -1.
         25    1    1    2    0    0  0.00000000000E+00  0.00000000000E+00  0.11082579036E+03  0.16705494847E+03  0.12500000000E+03 0.  0.
<mgrwt>
<rscale>  2 0.12500000E+03</rscale>
<asrwt>0</asrwt>
<pdfrwt beam="1">  1       21 0.21375441E-01 0.12500000E+03</pdfrwt>
<pdfrwt beam="2">  1       21 0.43253199E-02 0.12500000E+03</pdfrwt>
<totfact> 0.68667568E+06</totfact>
</mgrwt>
</event>
<event>
 3    0  0.1368989E+001  0.1250000E+03  0.7546771E-02  0.1235069E+00
         21   -1    0    0  502  501  0.00000000000E+00  0.00000000000E+00  0.15283135299E+04  0.15283135299E+04  0.00000000000E+00 0. -1.
         21   -1    0    0  501  502 -0.00000000000E+00 -0.00000000000E+00 -0.25559218861E+01  0.25559218861E+01  0.00000000000E+00 0. -1.
         25    1    1    2    0    0  0.00000000000E+00  0.00000000000E+00  0.15257576080E+04  0.15308694518E+04  0.12500000000E+03 0.  0.
<mgrwt>
<rscale>  2 0.12500000E+03</rscale>
<asrwt>0</asrwt>
<pdfrwt beam="1">  1       21 0.23512443E+00 0.12500000E+03</pdfrwt>
<pdfrwt beam="2">  1       21 0.39321997E-03 0.12500000E+03</pdfrwt>
<totfact> 0.13541265E+06</totfact>
</mgrwt>
</event>
<event>
 3    0  0.1743365E+001  0.1250000E+03  0.7546771E-02  0.1235069E+00
         21   -1    0    0  502  501  0.00000000000E+00  0.00000000000E+00  0.45258257586E+02  0.45258257586E+02  0.00000000000E+00 0.  1.
         21   -1    0    0  501  502 -0.00000000000E+00 -0.00000000000E+00 -0.86310216264E+02  0.86310216264E+02  0.00000000000E+00 0.  1.
         25    1    1    2    0    0  0.00000000000E+00  0.00000000000E+00 -0.41051958678E+02  0.13156847385E+03  0.12500000000E+03 0.  0.
<mgrwt>
<rscale>  2 0.12500000E+03</rscale>
<asrwt>0</asrwt>
<pdfrwt beam="1">  1       21 0.69628089E-02 0.12500000E+03</pdfrwt>
<pdfrwt beam="2">  1       21 0.13278495E-01 0.12500000E+03</pdfrwt>
<totfact> 0.73154167E+06</totfact>
</mgrwt>
</event>
<event>
 3    0  0.1724996E+001  0.1250000E+03  0.7546771E-02  0.1235069E+00
         21   -1    0    0  502  501  0.00000000000E+00  0.00000000000E+00  0.56406478738E+02  0.56406478738E+02  0.00000000000E+00 0. -1.
         21   -1    0    0  501  502 -0.00000000000E+00 -0.00000000000E+00 -0.69251796733E+02  0.69251796733E+02  0.00000000000E+00 0. -1.
         25    1    1    2    0    0  0.00000000000E+00  0.00000000000E+00 -0.12845317996E+02  0.12565827547E+03  0.12500000000E+03 0.  0.
<mgrwt>
<rscale>  2 0.12500000E+03</rscale>
<asrwt>0</asrwt>
<pdfrwt beam="1">  1       21 0.86779198E-02 0.12500000E+03</pdfrwt>
<pdfrwt beam="2">  1       21 0.10654123E-01 0.12500000E+03</pdfrwt>
<totfact> 0.73953334E+06</totfact>
</mgrwt>
</event>
<event>
 3    0  0.1663509E+001  0.1250000E+03  0.7546771E-02  0.1235069E+00
         21   -1    0    0  502  501  0.00000000000E+00  0.00000000000E+00  0.20732458499E+03  0.20732458499E+03  0.00000000000E+00 0.  1.
         21   -1    0    0  501  502 -0.00000000000E+00 -0.00000000000E+00 -0.18841229081E+02  0.18841229081E+02  0.00000000000E+00 0.  1.
         25    1    1    2    0    0  0.00000000000E+00  0.00000000000E+00  0.18848335591E+03  0.22616581407E+03  0.12500000000E+03 0.  0.
<mgrwt>
<rscale>  2 0.12500000E+03</rscale>
<asrwt>0</asrwt>
<pdfrwt beam="1">  1       21 0.31896088E-01 0.12500000E+03</pdfrwt>
<pdfrwt beam="2">  1       21 0.28986508E-02 0.12500000E+03</pdfrwt>
<totfact> 0.62197630E+06</totfact>
</mgrwt>
</event>
<event>
 3    0  0.1539481E+001  0.1250000E+03  0.7546771E-02  0.1235069E+00
         21   -1    0    0  502  501  0.00000000000E+00  0.00000000000E+00  0.97981614154E+01  0.97981614154E+01  0.00000000000E+00 0.  1.
         21   -1    0    0  501  502 -0.00000000000E+00 -0.00000000000E+00 -0.39867173385E+03  0.39867173385E+03  0.00000000000E+00 0.  1.
         25    1    1    2    0    0  0.00000000000E+00  0.00000000000E+00 -0.38887357243E+03  0.40846989526E+03  0.12500000000E+03 0.  0.
<mgrwt>
<rscale>  2 0.12500000E+03</rscale>
<asrwt>0</asrwt>
<pdfrwt beam="1">  1       21 0.15074100E-02 0.12500000E+03</pdfrwt>
<pdfrwt beam="2">  1       21 0.61334092E-01 0.12500000E+03</pdfrwt>
<totfact> 0.47484588E+06</totfact>
</mgrwt>
</event>
<event>
 3    0  0.1726149E+001  0.1250000E+03  0.7546771E-02  0.1235069E+00
         21   -1    0    0  502  501  0.00000000000E+00  0.00000000000E+00  0.63204446802E+02  0.63204446802E+02  0.00000000000E+00 0. -1.
         21   -1    0    0  501  502 -0.00000000000E+00 -0.00000000000E+00 -0.61803404628E+02  0.61803404628E+02  0.00000000000E+00 0. -1.
         25    1    1    2    0    0  0.00000000000E+00  0.00000000000E+00  0.14010421740E+01  0.12500785143E+03  0.12500000000E+03 0.  0.
<mgrwt>
<rscale>  2 0.12500000E+03</rscale>
<asrwt>0</asrwt>
<pdfrwt beam="1">  1       21 0.97237610E-02 0.12500000E+03</pdfrwt>
<pdfrwt beam="2">  1       21 0.95082161E-02 0.12500000E+03</pdfrwt>
<totfact> 0.74042521E+06</totfact>
</mgrwt>
</event>
<event>
 3    0  0.1707146E+001  0.1250000E+03  0.7546771E-02  0.1235069E+00
         21   -1    0    0  502  501  0.00000000000E+00  0.00000000000E+00  0.15028732431E+03  0.15028732431E+03  0.00000000000E+00 0.  1.
         21   -1    0    0  501  502 -0.00000000000E+00 -0.00000000000E+00 -0.25991879341E+02  0.25991879341E+02  0.00000000000E+00 0.  1.
         25    1    1    2    0    0  0.00000000000E+00  0.00000000000E+00  0.12429544497E+03  0.17627920365E+03  0.12500000000E+03 0.  0.
<mgrwt>
<rscale>  2 0.12500000E+03</rscale>
<asrwt>0</asrwt>
<pdfrwt beam="1">  1       21 0.23121126E-01 0.12500000E+03</pdfrwt>
<pdfrwt beam="2">  1       21 0.39987508E-02 0.12500000E+03</pdfrwt>
<totfact> 0.67580959E+06</totfact>
</mgrwt>
</event>
<event>
 3    0  0.1615759E+001  0.1250000E+03  0.7546771E-02  0.1235069E+00
         21   -1    0    0  502  501  0.00000000000E+00  0.00000000000E+00  0.23433595516E+03  0.23433595516E+03  0.00000000000E+00 0. -1.
         21   -1    0    0  501  502 -0.00000000000E+00 -0.00000000000E+00 -0.16669443651E+02  0.16669443651E+02  0.00000000000E+00 0. -1.
         25    1    1    2    0    0  0.00000000000E+00  0.00000000000E+00  0.21766651151E+03  0.25100539881E+03  0.12500000000E+03 0.  0.
<mgrwt>
<rscale>  2 0.12500000E+03</rscale>
<asrwt>0</asrwt>
<pdfrwt beam="1">  1       21 0.36051683E-01 0.12500000E+03</pdfrwt>
<pdfrwt beam="2">  1       21 0.25645300E-02 0.12500000E+03</pdfrwt>
<totfact> 0.59783663E+06</totfact>
</mgrwt>
</event>
<event>
 3    0  0.1666976E+001  0.1250000E+03  0.7546771E-02  0.1235069E+00
         21   -1    0    0  502  501  0.00000000000E+00  0.00000000000E+00  0.17879288131E+03  0.17879288131E+03  0.00000000000E+00 0. -1.
         21   -1    0    0  501  502 -0.00000000000E+00 -0.00000000000E+00 -0.21847905641E+02  0.21847905641E+02  0.00000000000E+00 0. -1.
         25    1    1    2    0    0  0.00000000000E+00  0.00000000000E+00  0.15694497566E+03  0.20064078695E+03  0.12500000000E+03 0.  0.
<mgrwt>
<rscale>  2 0.12500000E+03</rscale>
<asrwt>0</asrwt>
<pdfrwt beam="1">  1       21 0.27506596E-01 0.12500000E+03</pdfrwt>
<pdfrwt beam="2">  1       21 0.33612164E-02 0.12500000E+03</pdfrwt>
<totfact> 0.64857885E+06</totfact>
</mgrwt>
</event>
<event>
 3    0  0.1651465E+001  0.1250000E+03  0.7546771E-02  0.1235069E+00
         21   -1    0    0  502  501  0.00000000000E+00  0.00000000000E+00  0.18460881046E+02  0.18460881046E+02  0.00000000000E+00 0. -1.
         21   -1    0    0  501  502 -0.00000000000E+00 -0.00000000000E+00 -0.21159607660E+03  0.21159607660E+03  0.00000000000E+00 0. -1.
         25    1    1    2    0    0  0.00000000000E+00  0.00000000000E+00 -0.19313519556E+03  0.23005695765E+03  0.12500000000E+03 0.  0.
<mgrwt>
<rscale>  2 0.12500000E+03</rscale>
<asrwt>0</asrwt>
<pdfrwt beam="1">  1       21 0.28401355E-02 0.12500000E+03</pdfrwt>
<pdfrwt beam="2">  1       21 0.32553243E-01 0.12500000E+03</pdfrwt>
<totfact> 0.61808311E+06</totfact>
</mgrwt>
</event>
<event>
 3    0  0.1368989E+001  0.1250000E+03  0.7546771E-02  0.1235069E+00
         21   -1    0    0  502  501  0.00000000000E+00  0.00000000000E+00  0.36269160518E+01  0.36269160518E+01  0.00000000000E+00 0. -1.
         21   -1    0    0  501  502 -0.00000000000E+00 -0.00000000000E+00 -0.10770169323E+04  0.10770169323E+04  0.00000000000E+00 0. -1.
         25    1    1    2    0    0  0.00000000000E+00  0.00000000000E+00 -0.10733900163E+04  0.10806438484E+04  0.12500000000E+03 0.  0.
<mgrwt>
<rscale>  2 0.12500000E+03</rscale>
<asrwt>0</asrwt>
<pdfrwt beam="1">  1       21 0.55798699E-03 0.12500000E+03</pdfrwt>
<pdfrwt beam="2">  1       21 0.16569494E+00 0.12500000E+03</pdfrwt>
<totfact> 0.21687095E+06</totfact>
</mgrwt>
</event>
<event>
 3    0  0.1710019E+001  0.1250000E+03  0.7546771E-02  0.1235069E+00
         21   -1    0    0  502  501  0.00000000000E+00  0.00000000000E+00  0.26132375931E+02  0.26132375931E+02  0.00000000000E+00 0.  1.
         21   -1    0    0  501  502 -0.00000000000E+00 -0.00000000000E+00 -0.14947932826E+03  0.14947932826E+03  0.00000000000E+00 0.  1.
         25    1    1    2    0    0  0.00000000000E+00  0.00000000000E+00 -0.12334695233E+03  0.17561170419E+03  0.12500000000E+03 0.  0.
<mgrwt>
<rscale>  2 0.12500000E+03</rscale>
<asrwt>0</asrwt>
<pdfrwt beam="1">  1       21 0.40203655E-02 0.12500000E+03</pdfrwt>
<pdfrwt beam="2">  1       21 0.22996820E-01 0.12500000E+03</pdfrwt>
<totfact> 0.67658548E+06</totfact>
</mgrwt>
</event>
<event>
 3    0  0.1368989E+001  0.1250000E+03  0.7546771E-02  0.1235069E+00
         21   -1    0    0  502  501  0.00000000000E+00  0.00000000000E+00  0.97214881866E+03  0.97214881866E+03  0.00000000000E+00 0.  1.
         21   -1    0    0  501  502 -0.00000000000E+00 -0.00000000000E+00 -0.40181605172E+01  0.40181605172E+01  0.00000000000E+00 0.  1.
         25    1    1    2    0    0  0.00000000000E+00  0.00000000000E+00  0.96813065814E+03  0.97616697918E+03  0.12500000000E+03 0.  0.
<mgrwt>
<rscale>  2 0.12500000E+03</rscale>
<asrwt>0</asrwt>
<pdfrwt beam="1">  1       21 0.14956117E+00 0.12500000E+03</pdfrwt>
<pdfrwt beam="2">  1       21 0.61817932E-03 0.12500000E+03</pdfrwt>
<totfact> 0.24223695E+06</totfact>
</mgrwt>
</event>
<event>
 3    0  0.1732418E+001  0.1250000E+03  0.7546771E-02  0.1235069E+00
         21   -1    0    0  502  501  0.00000000000E+00  0.00000000000E+00  0.33015763024E+02  0.33015763024E+02  0.00000000000E+00 0.  1.
         21   -1    0    0  501  502 -0.00000000000E+00 -0.00000000000E+00 -0.11831469705E+03  0.11831469705E+03  0.00000000000E+00 0.  1.
         25    1    1    2    0    0  0.00000000000E+00  0.00000000000E+00 -0.85298934026E+02  0.15133046007E+03  0.12500000000E+03 0.  0.
<mgrwt>
<rscale>  2 0.12500000E+03</rscale>
<asrwt>0</asrwt>
<pdfrwt beam="1">  1       21 0.50793482E-02 0.12500000E+03</pdfrwt>
<pdfrwt beam="2">  1       21 0.18202261E-01 0.12500000E+03</pdfrwt>
<totfact> 0.70592469E+06</totfact>
</mgrwt>
</event>
<event>
 3    0  0.1614611E+001  0.1250000E+03  0.7546771E-02  0.1235069E+00
         21   -1    0    0  502  501  0.00000000000E+00  0.00000000000E+00  0.15015356992E+02  0.15015356992E+02  0.00000000000E+00 0. -1.
         21   -1    0    0  501  502 -0.00000000000E+00 -0.00000000000E+00 -0.26015032491E+03  0.26015032491E+03  0.00000000000E+00 0. -1.
         25    1    1    2    0    0  0.00000000000E+00  0.00000000000E+00 -0.24513496791E+03  0.27516568190E+03  0.12500000000E+03 0.  0.
<mgrwt>
<rscale>  2 0.12500000E+03</rscale>
<asrwt>0</asrwt>
<pdfrwt beam="1">  1       21 0.23100549E-02 0.12500000E+03</pdfrwt>
<pdfrwt beam="2">  1       21 0.40023128E-01 0.12500000E+03</pdfrwt>
<totfact> 0.57585281E+06</totfact>
</mgrwt>
</event>
<event>
 3    0  0.1721044E+001  0.1250000E+03  0.7546771E-02  0.1235069E+00
         21   -1    0    0  502  501  0.00000000000E+00  0.00000000000E+00  0.12674285824E+03  0.12674285824E+03  0.00000000000E+00 0.  1.
         21   -1    0    0  501  502 -0.00000000000E+00 -0.00000000000E+00 -0.30820277010E+02  0.30820277010E+02  0.00000000000E+00 0.  1.
         25    1    1    2    0    0  0.00000000000E+00  0.00000000000E+00  0.95922581228E+02  0.15756313525E+03  0.12500000000E+03 0.  0.
<mgrwt>
<rscale>  2 0.12500000E+03</rscale>
<asrwt>0</asrwt>
<pdfrwt beam="1">  1       21 0.19498901E-01 0.12500000E+03</pdfrwt>
<pdfrwt beam="2">  1       21 0.47415811E-02 0.12500000E+03</pdfrwt>
<totfact> 0.69818487E+06</totfact>
</mgrwt>
</event>
<event>
 3    0  0.1750176E+001  0.1250000E+03  0.7546771E-02  0.1235069E+00
         21   -1    0    0  502  501  0.00000000000E+00  0.00000000000E+00  0.67235610463E+02  0.67235610463E+02  0.00000000000E+00 0.  1.
         21   -1    0    0  501  502 -0.00000000000E+00 -0.00000000000E+00 -0.58097933121E+02  0.58097933121E+02  0.00000000000E+00 0.  1.
         25    1    1    2    0    0  0.00000000000E+00  0.00000000000E+00  0.91376773418E+01  0.12533354358E+03  0.12500000000E+03 0.  0.
<mgrwt>
<rscale>  2 0.12500000E+03</rscale>
<asrwt>0</asrwt>
<pdfrwt beam="1">  1       21 0.10343940E-01 0.12500000E+03</pdfrwt>
<pdfrwt beam="2">  1       21 0.89381436E-02 0.12500000E+03</pdfrwt>
<totfact> 0.73998544E+06</totfact>
</mgrwt>
</event>
<event>
 3    0  0.1671277E+001  0.1250000E+03  0.7546771E-02  0.1235069E+00
         21   -1    0    0  502  501  0.00000000000E+00  0.00000000000E+00  0.17121249694E+03  0.17121249694E+03  0.00000000000E+00 0. -1.
         21   -1    0    0  501  502 -0.00000000000E+00 -0.00000000000E+00 -0.22815215418E+02  0.22815215418E+02  0.00000000000E+00 0. -1.
         25    1    1    2    0    0  0.00000000000E+00  0.00000000000E+00  0.14839728153E+03  0.19402771236E+03  0.12500000000E+03 0.  0.
<mgrwt>
<rscale>  2 0.12500000E+03</rscale>
<asrwt>0</asrwt>
<pdfrwt beam="1">  1       21 0.26340383E-01 0.12500000E+03</pdfrwt>
<pdfrwt beam="2">  1       21 0.35100332E-02 0.12500000E+03</pdfrwt>
<totfact> 0.65577594E+06</totfact>
</mgrwt>
</event>
<event>
 3    0  0.1429071E+001  0.1250000E+03  0.7546771E-02  0.1235069E+00
         21   -1    0    0  502  501  0.00000000000E+00  0.00000000000E+00  0.51447737057E+03  0.51447737057E+03  0.00000000000E+00 0. -1.
         21   -1    0    0  501  502 -0.00000000000E+00 -0.00000000000E+00 -0.75926565938E+01  0.75926565938E+01  0.00000000000E+00 0. -1.
         25    1    1    2    0    0  0.00000000000E+00  0.00000000000E+00  0.50688471397E+03  0.52207002716E+03  0.12500000000E+03 0.  0.
<mgrwt>
<rscale>  2 0.12500000E+03</rscale>
<asrwt>0</asrwt>
<pdfrwt beam="1">  1       21 0.79150337E-01 0.12500000E+03</pdfrwt>
<pdfrwt beam="2">  1       21 0.11681014E-02 0.12500000E+03</pdfrwt>
<totfact> 0.40871920E+06</totfact>
</mgrwt>
</event>
<event>
 3    0  0.1396971E+001  0.1250000E+03  0.7546771E-02  0.1235069E+00
         21   -1    0    0  502  501  0.00000000000E+00  0.00000000000E+00  0.61235040224E+03  0.61235040224E+03  0.00000000000E+00 0.  1.
         21   -1    0    0  501  502 -0.00000000000E+00 -0.00000000000E+00 -0.63791090619E+01  0.63791090619E+01  0.00000000000E+00 0.  1.
         25    1    1    2    0    0  0.00000000000E+00  0.00000000000E+00  0.60597129318E+03  0.61872951130E+03  0.12500000000E+03 0.  0.
<mgrwt>
<rscale>  2 0.12500000E+03</rscale>
<asrwt>0</asrwt>
<pdfrwt beam="1">  1       21 0.94207708E-01 0.12500000E+03</pdfrwt>
<pdfrwt beam="2">  1       21 0.98140188E-03 0.12500000E+03</pdfrwt>
<totfact> 0.36259094E+06</totfact>
</mgrwt>
</event>
<event>
 3    0  0.1628212E+001  0.1250000E+03  0.7546771E-02  0.1235069E+00
         21   -1    0    0  502  501  0.00000000000E+00  0.00000000000E+00  0.22086534678E+03  0.22086534678E+03  0.00000000000E+00 0. -1.
         21   -1    0    0  501  502 -0.00000000000E+00 -0.00000000000E+00 -0.17686115350E+02  0.17686115350E+02  0.00000000000E+00 0. -1.
         25    1    1    2    0    0  0.00000000000E+00  0.00000000000E+00  0.20317923143E+03  0.23855146213E+03  0.12500000000E+03 0.  0.
<mgrwt>
<rscale>  2 0.12500000E+03</rscale>
<asrwt>0</asrwt>
<pdfrwt beam="1">  1       21 0.33979282E-01 0.12500000E+03</pdfrwt>
<pdfrwt beam="2">  1       21 0.27209410E-02 0.12500000E+03</pdfrwt>
<totfact> 0.60973118E+06</totfact>
</mgrwt>
</event>
<event>
 3    0  0.1523959E+001  0.1250000E+03  0.7546771E-02  0.1235069E+00
         21   -1    0    0  502  501  0.00000000000E+00  0.00000000000E+00  0.88330913423E+01  0.88330913423E+01  0.00000000000E+00 0. -1.
         21   -1    0    0  501  502 -0.00000000000E+00 -0.00000000000E+00 -0.44222909609E+03  0.44222909609E+03  0.00000000000E+00 0. -1.
         25    1    1    2    0    0  0.00000000000E+00  0.00000000000E+00 -0.43339600475E+03  0.45106218743E+03  0.12500000000E+03 0.  0.
<mgrwt>
<rscale>  2 0.12500000E+03</rscale>
<asrwt>0</asrwt>
<pdfrwt beam="1">  1       21 0.13589373E-02 0.12500000E+03</pdfrwt>
<pdfrwt beam="2">  1       21 0.68035238E-01 0.12500000E+03</pdfrwt>
<totfact> 0.44828781E+06</totfact>
</mgrwt>
</event>
<event>
 3    0  0.1433581E+001  0.1250000E+03  0.7546771E-02  0.1235069E+00
         21   -1    0    0  502  501  0.00000000000E+00  0.00000000000E+00  0.56041156724E+03  0.56041156724E+03  0.00000000000E+00 0.  1.
         21   -1    0    0  501  502 -0.00000000000E+00 -0.00000000000E+00 -0.69703236485E+01  0.69703236485E+01  0.00000000000E+00 0.  1.
         25    1    1    2    0    0  0.00000000000E+00  0.00000000000E+00  0.55344124359E+03  0.56738189089E+03  0.12500000000E+03 0.  0.
<mgrwt>
<rscale>  2 0.12500000E+03</rscale>
<asrwt>0</asrwt>
<pdfrwt beam="1">  1       21 0.86217129E-01 0.12500000E+03</pdfrwt>
<pdfrwt beam="2">  1       21 0.10723579E-02 0.12500000E+03</pdfrwt>
<totfact> 0.38610564E+06</totfact>
</mgrwt>
</event>
<event>
 3    0  0.1688752E+001  0.1250000E+03  0.7546771E-02  0.1235069E+00
         21   -1    0    0  502  501  0.00000000000E+00  0.00000000000E+00  0.14476875129E+03  0.14476875129E+03  0.00000000000E+00 0. -1.
         21   -1    0    0  501  502 -0.00000000000E+00 -0.00000000000E+00 -0.26982687668E+02  0.26982687668E+02  0.00000000000E+00 0. -1.
         25    1    1    2    0    0  0.00000000000E+00  0.00000000000E+00  0.11778606362E+03  0.17175143895E+03  0.12500000000E+03 0.  0.
<mgrwt>
<rscale>  2 0.12500000E+03</rscale>
<asrwt>0</asrwt>
<pdfrwt beam="1">  1       21 0.22272115E-01 0.12500000E+03</pdfrwt>
<pdfrwt beam="2">  1       21 0.41511828E-02 0.12500000E+03</pdfrwt>
<totfact> 0.68110617E+06</totfact>
</mgrwt>
</event>
<event>
 3    0  0.1721810E+001  0.1250000E+03  0.7546771E-02  0.1235069E+00
         21   -1    0    0  502  501  0.00000000000E+00  0.00000000000E+00  0.84516918361E+02  0.84516918361E+02  0.00000000000E+00 0. -1.
         21   -1    0    0  501  502 -0.00000000000E+00 -0.00000000000E+00 -0.46218556896E+02  0.46218556896E+02  0.00000000000E+00 0. -1.
         25    1    1    2    0    0  0.00000000000E+00  0.00000000000E+00  0.38298361465E+02  0.13073547526E+03  0.12500000000E+03 0.  0.
<mgrwt>
<rscale>  2 0.12500000E+03</rscale>
<asrwt>0</asrwt>
<pdfrwt beam="1">  1       21 0.13002603E-01 0.12500000E+03</pdfrwt>
<pdfrwt beam="2">  1       21 0.71105472E-02 0.12500000E+03</pdfrwt>
<totfact> 0.73266341E+06</totfact>
</mgrwt>
</event>
<event>
 3    0  0.1579136E+001  0.1250000E+03  0.7546771E-02  0.1235069E+00
         21   -1    0    0  502  501  0.00000000000E+00  0.00000000000E+00  0.29956437404E+03  0.29956437404E+03  0.00000000000E+00 0. -1.
         21   -1    0    0  501  502 -0.00000000000E+00 -0.00000000000E+00 -0.13039768205E+02  0.13039768205E+02  0.00000000000E+00 0. -1.
         25    1    1    2    0    0  0.00000000000E+00  0.00000000000E+00  0.28652460583E+03  0.31260414224E+03  0.12500000000E+03 0.  0.
<mgrwt>
<rscale>  2 0.12500000E+03</rscale>
<asrwt>0</asrwt>
<pdfrwt beam="1">  1       21 0.46086822E-01 0.12500000E+03</pdfrwt>
<pdfrwt beam="2">  1       21 0.20061184E-02 0.12500000E+03</pdfrwt>
<totfact> 0.54424682E+06</totfact>
</mgrwt>
</event>
<event>
 3    0  0.1584770E+001  0.1250000E+03  0.7546771E-02  0.1235069E+00
         21   -1    0    0  502  501  0.00000000000E+00  0.00000000000E+00  0.35983737475E+03  0.35983737475E+03  0.00000000000E+00 0.  1.
         21   -1    0    0  501  502 -0.00000000000E+00 -0.00000000000E+00 -0.10855598318E+02  0.10855598318E+02  0.00000000000E+00 0.  1.
         25    1    1    2    0    0  0.00000000000E+00  0.00000000000E+00  0.34898177644E+03  0.37069297307E+03  0.12500000000E+03 0.  0.
<mgrwt>
<rscale>  2 0.12500000E+03</rscale>
<asrwt>0</asrwt>
<pdfrwt beam="1">  1       21 0.55359587E-01 0.12500000E+03</pdfrwt>
<pdfrwt beam="2">  1       21 0.16700923E-02 0.12500000E+03</pdfrwt>
<totfact> 0.50045576E+06</totfact>
</mgrwt>
</event>
<event>
 3    0  0.1368989E+001  0.1250000E+03  0.7546771E-02  0.1235069E+00
         21   -1    0    0  502  501  0.00000000000E+00  0.00000000000E+00  0.26519852653E+01  0.26519852653E+01  0.00000000000E+00 0.  1.
         21   -1    0    0  501  502 -0.00000000000E+00 -0.00000000000E+00 -0.14729531311E+04  0.14729531311E+04  0.00000000000E+00 0.  1.
         25    1    1    2    0    0  0.00000000000E+00  0.00000000000E+00 -0.14703011458E+04  0.14756051163E+04  0.12500000000E+03 0.  0.
<mgrwt>
<rscale>  2 0.12500000E+03</rscale>
<asrwt>0</asrwt>
<pdfrwt beam="1">  1       21 0.40799865E-03 0.12500000E+03</pdfrwt>
<pdfrwt beam="2">  1       21 0.22660767E+00 0.12500000E+03</pdfrwt>
<totfact> 0.14358656E+06</totfact>
</mgrwt>
</event>
<event>
 3    0  0.1699183E+001  0.1250000E+03  0.7546771E-02  0.1235069E+00
         21   -1    0    0  502  501  0.00000000000E+00  0.00000000000E+00  0.25374527659E+02  0.25374527659E+02  0.00000000000E+00 0.  1.
         21   -1    0    0  501  502 -0.00000000000E+00 -0.00000000000E+00 -0.15394375227E+03  0.15394375227E+03  0.00000000000E+00 0.  1.
         25    1    1    2    0    0  0.00000000000E+00  0.00000000000E+00 -0.12856922461E+03  0.17931827993E+03  0.12500000000E+03 0.  0.
<mgrwt>
<rscale>  2 0.12500000E+03</rscale>
<asrwt>0</asrwt>
<pdfrwt beam="1">  1       21 0.39037736E-02 0.12500000E+03</pdfrwt>
<pdfrwt beam="2">  1       21 0.23683654E-01 0.12500000E+03</pdfrwt>
<totfact> 0.67229828E+06</totfact>
</mgrwt>
</event>
<event>
 3    0  0.1702599E+001  0.1250000E+03  0.7546771E-02  0.1235069E+00
         21   -1    0    0  502  501  0.00000000000E+00  0.00000000000E+00  0.35605664049E+02  0.35605664049E+02  0.00000000000E+00 0. -1.
         21   -1    0    0  501  502 -0.00000000000E+00 -0.00000000000E+00 -0.10970866867E+03  0.10970866867E+03  0.00000000000E+00 0. -1.
         25    1    1    2    0    0  0.00000000000E+00  0.00000000000E+00 -0.74103004622E+02  0.14531433272E+03  0.12500000000E+03 0.  0.
<mgrwt>
<rscale>  2 0.12500000E+03</rscale>
<asrwt>0</asrwt>
<pdfrwt beam="1">  1       21 0.54777944E-02 0.12500000E+03</pdfrwt>
<pdfrwt beam="2">  1       21 0.16878257E-01 0.12500000E+03</pdfrwt>
<totfact> 0.71352896E+06</totfact>
</mgrwt>
</event>
<event>
 3    0  0.1422865E+001  0.1250000E+03  0.7546771E-02  0.1235069E+00
         21   -1    0    0  502  501  0.00000000000E+00  0.00000000000E+00  0.62645072285E+01  0.62645072285E+01  0.00000000000E+00 0. -1.
         21   -1    0    0  501  502 -0.00000000000E+00 -0.00000000000E+00 -0.62355263671E+03  0.62355263671E+03  0.00000000000E+00 0. -1.
         25    1    1    2    0    0  0.00000000000E+00  0.00000000000E+00 -0.61728812948E+03  0.62981714394E+03  0.12500000000E+03 0.  0.
<mgrwt>
<rscale>  2 0.12500000E+03</rscale>
<asrwt>0</asrwt>
<pdfrwt beam="1">  1       21 0.96377011E-03 0.12500000E+03</pdfrwt>
<pdfrwt beam="2">  1       21 0.95931198E-01 0.12500000E+03</pdfrwt>
<totfact> 0.35777980E+06</totfact>
</mgrwt>
</event>
<event>
 3    0  0.1750652E+001  0.1250000E+03  0.7546771E-02  0.1235069E+00
         21   -1    0    0  502  501  0.00000000000E+00  0.00000000000E+00  0.58500512515E+02  0.58500512515E+02  0.00000000000E+00 0.  1.
         21   -1    0    0  501  502 -0.00000000000E+00 -0.00000000000E+00 -0.66772919280E+02  0.66772919280E+02  0.00000000000E+00 0.  1.
         25    1    1    2    0    0  0.00000000000E+00  0.00000000000E+00 -0.82724067649E+01  0.12527343179E+03  0.12500000000E+03 0.  0.
<mgrwt>
<rscale>  2 0.12500000E+03</rscale>
<asrwt>0</asrwt>
<pdfrwt beam="1">  1       21 0.90000789E-02 0.12500000E+03</pdfrwt>
<pdfrwt beam="2">  1       21 0.10272757E-01 0.12500000E+03</pdfrwt>
<totfact> 0.74006658E+06</totfact>
</mgrwt>
</event>
<event>
 3    0  0.1544932E+001  0.1250000E+03  0.7546771E-02  0.1235069E+00
         21   -1    0    0  502  501  0.00000000000E+00  0.00000000000E+00  0.88227853057E+01  0.88227853057E+01  0.00000000000E+00 0.  1.
         21   -1    0    0  501  502 -0.00000000000E+00 -0.00000000000E+00 -0.44274567097E+03  0.44274567097E+03  0.00000000000E+00 0.  1.
         25    1    1    2    0    0  0.00000000000E+00  0.00000000000E+00 -0.43392288566E+03  0.45156845627E+03  0.12500000000E+03 0.  0.
<mgrwt>
<rscale>  2 0.12500000E+03</rscale>
<asrwt>0</asrwt>
<pdfrwt beam="1">  1       21 0.13573517E-02 0.12500000E+03</pdfrwt>
<pdfrwt beam="2">  1       21 0.68114714E-01 0.12500000E+03</pdfrwt>
<totfact> 0.44798566E+06</totfact>
</mgrwt>
</event>
<event>
 3    0  0.1462403E+001  0.1250000E+03  0.7546771E-02  0.1235069E+00
         21   -1    0    0  502  501  0.00000000000E+00  0.00000000000E+00  0.53264367532E+03  0.53264367532E+03  0.00000000000E+00 0. -1.
         21   -1    0    0  501  502 -0.00000000000E+00 -0.00000000000E+00 -0.73337020245E+01  0.73337020245E+01  0.00000000000E+00 0. -1.
         25    1    1    2    0    0  0.00000000000E+00  0.00000000000E+00  0.52530997329E+03  0.53997737734E+03  0.12500000000E+03 0.  0.
<mgrwt>
<rscale>  2 0.12500000E+03</rscale>
<asrwt>0</asrwt>
<pdfrwt beam="1">  1       21 0.81945151E-01 0.12500000E+03</pdfrwt>
<pdfrwt beam="2">  1       21 0.11282623E-02 0.12500000E+03</pdfrwt>
<totfact> 0.39955819E+06</totfact>
</mgrwt>
</event>
<event>
 3    0  0.1700336E+001  0.1250000E+03  0.7546771E-02  0.1235069E+00
         21   -1    0    0  502  501  0.00000000000E+00  0.00000000000E+00  0.15309456875E+03  0.15309456875E+03  0.00000000000E+00 0.  1.
         21   -1    0    0  501  502 -0.00000000000E+00 -0.00000000000E+00 -0.25515274853E+02  0.25515274853E+02  0.00000000000E+00 0.  1.
         25    1    1    2    0    0  0.00000000000E+00  0.00000000000E+00  0.12757929389E+03  0.17860984360E+03  0.12500000000E+03 0.  0.
<mgrwt>
<rscale>  2 0.12500000E+03</rscale>
<asrwt>0</asrwt>
<pdfrwt beam="1">  1       21 0.23553010E-01 0.12500000E+03</pdfrwt>
<pdfrwt beam="2">  1       21 0.39254270E-02 0.12500000E+03</pdfrwt>
<totfact> 0.67311370E+06</totfact>
</mgrwt>
</event>
<event>
 3    0  0.1710306E+001  0.1250000E+03  0.7546771E-02  0.1235069E+00
         21   -1    0    0  502  501  0.00000000000E+00  0.00000000000E+00  0.11277631649E+03  0.11277631649E+03  0.00000000000E+00 0. -1.
         21   -1    0    0  501  502 -0.00000000000E+00 -0.00000000000E+00 -0.34637148308E+02  0.34637148308E+02  0.00000000000E+00 0. -1.
         25    1    1    2    0    0  0.00000000000E+00  0.00000000000E+00  0.78139168187E+02  0.14741346480E+03  0.12500000000E+03 0.  0.
<mgrwt>
<rscale>  2 0.12500000E+03</rscale>
<asrwt>0</asrwt>
<pdfrwt beam="1">  1       21 0.17350202E-01 0.12500000E+03</pdfrwt>
<pdfrwt beam="2">  1       21 0.53287921E-02 0.12500000E+03</pdfrwt>
<totfact> 0.71085649E+06</totfact>
</mgrwt>
</event>
<event>
 3    0  0.1654671E+001  0.1250000E+03  0.7546771E-02  0.1235069E+00
         21   -1    0    0  502  501  0.00000000000E+00  0.00000000000E+00  0.25285631106E+03  0.25285631106E+03  0.00000000000E+00 0.  1.
         21   -1    0    0  501  502 -0.00000000000E+00 -0.00000000000E+00 -0.15448497147E+02  0.15448497147E+02  0.00000000000E+00 0.  1.
         25    1    1    2    0    0  0.00000000000E+00  0.00000000000E+00  0.23740781391E+03  0.26830480821E+03  0.12500000000E+03 0.  0.
<mgrwt>
<rscale>  2 0.12500000E+03</rscale>
<asrwt>0</asrwt>
<pdfrwt beam="1">  1       21 0.38900968E-01 0.12500000E+03</pdfrwt>
<pdfrwt beam="2">  1       21 0.23766920E-02 0.12500000E+03</pdfrwt>
<totfact> 0.58196354E+06</totfact>
</mgrwt>
</event>
<event>
 3    0  0.1724018E+001  0.1250000E+03  0.7546771E-02  0.1235069E+00
         21   -1    0    0  502  501  0.00000000000E+00  0.00000000000E+00  0.73623290408E+02  0.73623290408E+02  0.00000000000E+00 0. -1.
         21   -1    0    0  501  502 -0.00000000000E+00 -0.00000000000E+00 -0.53057259168E+02  0.53057259168E+02  0.00000000000E+00 0. -1.
         25    1    1    2    0    0  0.00000000000E+00  0.00000000000E+00  0.20566031240E+02  0.12668054958E+03  0.12500000000E+03 0.  0.
<mgrwt>
<rscale>  2 0.12500000E+03</rscale>
<asrwt>0</asrwt>
<pdfrwt beam="1">  1       21 0.11326660E-01 0.12500000E+03</pdfrwt>
<pdfrwt beam="2">  1       21 0.81626553E-02 0.12500000E+03</pdfrwt>
<totfact> 0.73812691E+06</totfact>
</mgrwt>
</event>
<event>
 3    0  0.1368989E+001  0.1250000E+03  0.7546771E-02  0.1235069E+00
         21   -1    0    0  502  501  0.00000000000E+00  0.00000000000E+00  0.17726769266E+04  0.17726769266E+04  0.00000000000E+00 0.  1.
         21   -1    0    0  501  502 -0.00000000000E+00 -0.00000000000E+00 -0.22035882238E+01  0.22035882238E+01  0.00000000000E+00 0.  1.
         25    1    1    2    0    0  0.00000000000E+00  0.00000000000E+00  0.17704733383E+04  0.17748805148E+04  0.12500000000E+03 0.  0.
<mgrwt>
<rscale>  2 0.12500000E+03</rscale>
<asrwt>0</asrwt>
<pdfrwt beam="1">  1       21 0.27271839E+00 0.12500000E+03</pdfrwt>
<pdfrwt beam="2">  1       21 0.33901499E-03 0.12500000E+03</pdfrwt>
<totfact> 0.10362124E+06</totfact>
</mgrwt>
</event>
<event>
 3    0  0.1595035E+001  0.1250000E+03  0.7546771E-02  0.1235069E+00
         21   -1    0    0  502  501  0.00000000000E+00  0.00000000000E+00  0.30261772897E+03  0.30261772897E+03  0.00000000000E+00 0.  1.
         21   -1    0    0  501  502 -0.00000000000E+00 -0.00000000000E+00 -0.12908199441E+02  0.12908199441E+02  0.00000000000E+00 0.  1.
         25    1    1    2    0    0  0.00000000000E+00  0.00000000000E+00  0.28970952953E+03  0.31552592842E+03  0.12500000000E+03 0.  0.
<mgrwt>
<rscale>  2 0.12500000E+03</rscale>
<asrwt>0</asrwt>
<pdfrwt beam="1">  1       21 0.46556568E-01 0.12500000E+03</pdfrwt>
<pdfrwt beam="2">  1       21 0.19858771E-02 0.12500000E+03</pdfrwt>
<totfact> 0.54189808E+06</totfact>
</mgrwt>
</event>
<event>
 3    0  0.1368989E+001  0.1250000E+03  0.7546771E-02  0.1235069E+00
         21   -1    0    0  502  501  0.00000000000E+00  0.00000000000E+00  0.46326363816E+01  0.46326363816E+01  0.00000000000E+00 0.  1.
         21   -1    0    0  501  502 -0.00000000000E+00 -0.00000000000E+00 -0.84320237510E+03  0.84320237510E+03  0.00000000000E+00 0.  1.
         25    1    1    2    0    0  0.00000000000E+00  0.00000000000E+00 -0.83856973872E+03  0.84783501149E+03  0.12500000000E+03 0.  0.
<mgrwt>
<rscale>  2 0.12500000E+03</rscale>
<asrwt>0</asrwt>
<pdfrwt beam="1">  1       21 0.71271343E-03 0.12500000E+03</pdfrwt>
<pdfrwt beam="2">  1       21 0.12972342E+00 0.12500000E+03</pdfrwt>
<totfact> 0.27837979E+06</totfact>
</mgrwt>
</event>
<event>
 3    0  0.1734784E+001  0.1250000E+03  0.7546771E-02  0.1235069E+00
         21   -1    0    0  502  501  0.00000000000E+00  0.00000000000E+00  0.10294482278E+03  0.10294482278E+03  0.00000000000E+00 0.  1.
         21   -1    0    0  501  502 -0.00000000000E+00 -0.00000000000E+00 -0.37945084509E+02  0.37945084509E+02  0.00000000000E+00 0.  1.
         25    1    1    2    0    0  0.00000000000E+00  0.00000000000E+00  0.64999738269E+02  0.14088990729E+03  0.12500000000E+03 0.  0.
<mgrwt>
<rscale>  2 0.12500000E+03</rscale>
<asrwt>0</asrwt>
<pdfrwt beam="1">  1       21 0.15837665E-01 0.12500000E+03</pdfrwt>
<pdfrwt beam="2">  1       21 0.58377054E-02 0.12500000E+03</pdfrwt>
<totfact> 0.71923345E+06</totfact>
</mgrwt>
</event>
<event>
 3    0  0.1588586E+001  0.1250000E+03  0.7546771E-02  0.1235069E+00
         21   -1    0    0  502  501  0.00000000000E+00  0.00000000000E+00  0.13230275828E+02  0.13230275828E+02  0.00000000000E+00 0. -1.
         21   -1    0    0  501  502 -0.00000000000E+00 -0.00000000000E+00 -0.29525083610E+03  0.29525083610E+03  0.00000000000E+00 0. -1.
         25    1    1    2    0    0  0.00000000000E+00  0.00000000000E+00 -0.28202056027E+03  0.30848111193E+03  0.12500000000E+03 0.  0.
<mgrwt>
<rscale>  2 0.12500000E+03</rscale>
<asrwt>0</asrwt>
<pdfrwt beam="1">  1       21 0.20354271E-02 0.12500000E+03</pdfrwt>
<pdfrwt beam="2">  1       21 0.45423204E-01 0.12500000E+03</pdfrwt>
<totfact> 0.54758644E+06</totfact>
</mgrwt>
</event>
<event>
 3    0  0.1567406E+001  0.1250000E+03  0.7546771E-02  0.1235069E+00
         21   -1    0    0  502  501  0.00000000000E+00  0.00000000000E+00  0.35740427804E+03  0.35740427804E+03  0.00000000000E+00 0. -1.
         21   -1    0    0  501  502 -0.00000000000E+00 -0.00000000000E+00 -0.10929499841E+02  0.10929499841E+02  0.00000000000E+00 0. -1.
         25    1    1    2    0    0  0.00000000000E+00  0.00000000000E+00  0.34647477820E+03  0.36833377788E+03  0.12500000000E+03 0.  0.
<mgrwt>
<rscale>  2 0.12500000E+03</rscale>
<asrwt>0</asrwt>
<pdfrwt beam="1">  1       21 0.54985265E-01 0.12500000E+03</pdfrwt>
<pdfrwt beam="2">  1       21 0.16814618E-02 0.12500000E+03</pdfrwt>
<totfact> 0.50212286E+06</totfact>
</mgrwt>
</event>
<event>
 3    0  0.1393125E+001  0.1250000E+03  0.7546771E-02  0.1235069E+00
         21   -1    0    0  502  501  0.00000000000E+00  0.00000000000E+00  0.52227322834E+01  0.52227322834E+01  0.00000000000E+00 0.  1.
         21   -1    0    0  501  502 -0.00000000000E+00 -0.00000000000E+00 -0.74793226763E+03  0.74793226763E+03  0.00000000000E+00 0.  1.
         25    1    1    2    0    0  0.00000000000E+00  0.00000000000E+00 -0.74270953535E+03  0.75315499992E+03  0.12500000000E+03 0.  0.
<mgrwt>
<rscale>  2 0.12500000E+03</rscale>
<asrwt>0</asrwt>
<pdfrwt beam="1">  1       21 0.80349782E-03 0.12500000E+03</pdfrwt>
<pdfrwt beam="2">  1       21 0.11506642E+00 0.12500000E+03</pdfrwt>
<totfact> 0.30958221E+06</totfact>
</mgrwt>
</event>
<event>
 3    0  0.1701436E+001  0.1250000E+03  0.7546771E-02  0.1235069E+00
         21   -1    0    0  502  501  0.00000000000E+00  0.00000000000E+00  0.32231588473E+02  0.32231588473E+02  0.00000000000E+00 0. -1.
         21   -1    0    0  501  502 -0.00000000000E+00 -0.00000000000E+00 -0.12119322023E+03  0.12119322023E+03  0.00000000000E+00 0. -1.
         25    1    1    2    0    0  0.00000000000E+00  0.00000000000E+00 -0.88961631753E+02  0.15342480870E+03  0.12500000000E+03 0.  0.
<mgrwt>
<rscale>  2 0.12500000E+03</rscale>
<asrwt>0</asrwt>
<pdfrwt beam="1">  1       21 0.49587060E-02 0.12500000E+03</pdfrwt>
<pdfrwt beam="2">  1       21 0.18645110E-01 0.12500000E+03</pdfrwt>
<totfact> 0.70331587E+06</totfact>
</mgrwt>
</event>
<event>
 3    0  0.1720667E+001  0.1250000E+03  0.7546771E-02  0.1235069E+00
         21   -1    0    0  502  501  0.00000000000E+00  0.00000000000E+00  0.94480478230E+02  0.94480478230E+02  0.00000000000E+00 0. -1.
         21   -1    0    0  501  502 -0.00000000000E+00 -0.00000000000E+00 -0.41344519769E+02  0.41344519769E+02  0.00000000000E+00 0. -1.
         25    1    1    2    0    0  0.00000000000E+00  0.00000000000E+00  0.53135958461E+02  0.13582499800E+03  0.12500000000E+03 0.  0.
<mgrwt>
<rscale>  2 0.12500000E+03</rscale>
<asrwt>0</asrwt>
<pdfrwt beam="1">  1       21 0.14535458E-01 0.12500000E+03</pdfrwt>
<pdfrwt beam="2">  1       21 0.63606953E-02 0.12500000E+03</pdfrwt>
<totfact> 0.72587421E+06</totfact>
</mgrwt>
</event>
<event>
 3    0  0.1663661E+001  0.1250000E+03  0.7546771E-02  0.1235069E+00
         21   -1    0    0  502  501  0.00000000000E+00  0.00000000000E+00  0.23788539791E+02  0.23788539791E+02  0.00000000000E+00 0. -1.
         21   -1    0    0  501  502 -0.00000000000E+00 -0.00000000000E+00 -0.16420722055E+03  0.16420722055E+03  0.00000000000E+00 0. -1.
         25    1    1    2    0    0  0.00000000000E+00  0.00000000000E+00 -0.14041868076E+03  0.18799576034E+03  0.12500000000E+03 0.  0.
<mgrwt>
<rscale>  2 0.12500000E+03</rscale>
<asrwt>0</asrwt>
<pdfrwt beam="1">  1       21 0.36597755E-02 0.12500000E+03</pdfrwt>
<pdfrwt beam="2">  1       21 0.25262649E-01 0.12500000E+03</pdfrwt>
<totfact> 0.66245912E+06</totfact>
</mgrwt>
</event>
<event>
 3    0  0.1368989E+001  0.1250000E+03  0.7546771E-02  0.1235069E+00
         21   -1    0    0  502  501  0.00000000000E+00  0.00000000000E+00  0.23286398987E+01  0.23286398987E+01  0.00000000000E+00 0.  1.
         21   -1    0    0  501  502 -0.00000000000E+00 -0.00000000000E+00 -0.16774813496E+04  0.16774813496E+04  0.00000000000E+00 0.  1.
         25    1    1    2    0    0  0.00000000000E+00  0.00000000000E+00 -0.16751527097E+04  0.16798099895E+04  0.12500000000E+03 0.  0.
<mgrwt>
<rscale>  2 0.12500000E+03</rscale>
<asrwt>0</asrwt>
<pdfrwt beam="1">  1       21 0.35825051E-03 0.12500000E+03</pdfrwt>
<pdfrwt beam="2">  1       21 0.25807534E+00 0.12500000E+03</pdfrwt>
<totfact> 0.11524025E+06</totfact>
</mgrwt>
</event>
<event>
 3    0  0.1696761E+001  0.1250000E+03  0.7546771E-02  0.1235069E+00
         21   -1    0    0  502  501  0.00000000000E+00  0.00000000000E+00  0.16057896720E+03  0.16057896720E+03  0.00000000000E+00 0.  1.
         21   -1    0    0  501  502 -0.00000000000E+00 -0.00000000000E+00 -0.24326037639E+02  0.24326037639E+02  0.00000000000E+00 0.  1.
         25    1    1    2    0    0  0.00000000000E+00  0.00000000000E+00  0.13625292956E+03  0.18490500484E+03  0.12500000000E+03 0.  0.
<mgrwt>
<rscale>  2 0.12500000E+03</rscale>
<asrwt>0</asrwt>
<pdfrwt beam="1">  1       21 0.24704456E-01 0.12500000E+03</pdfrwt>
<pdfrwt beam="2">  1       21 0.37424674E-02 0.12500000E+03</pdfrwt>
<totfact> 0.66593256E+06</totfact>
</mgrwt>
</event>
<event>
 3    0  0.1747797E+001  0.1250000E+03  0.7546771E-02  0.1235069E+00
         21   -1    0    0  502  501  0.00000000000E+00  0.00000000000E+00  0.78162605176E+02  0.78162605176E+02  0.00000000000E+00 0.  1.
         21   -1    0    0  501  502 -0.00000000000E+00 -0.00000000000E+00 -0.49975944266E+02  0.49975944266E+02  0.00000000000E+00 0.  1.
         25    1    1    2    0    0  0.00000000000E+00  0.00000000000E+00  0.28186660910E+02  0.12813854944E+03  0.12500000000E+03 0.  0.
<mgrwt>
<rscale>  2 0.12500000E+03</rscale>
<asrwt>0</asrwt>
<pdfrwt beam="1">  1       21 0.12025016E-01 0.12500000E+03</pdfrwt>
<pdfrwt beam="2">  1       21 0.76886068E-02 0.12500000E+03</pdfrwt>
<totfact> 0.73614851E+06</totfact>
</mgrwt>
</event>
