<event>
 5    0  0.1496943E+000  0.1250138E+03  0.7546771E-02  0.1235048E+00
         21   -1    0    0  503  502  0.00000000000E+00  0.00000000000E+00  0.22381179749E+03  0.22381179749E+03  0.00000000000E+00 0.  1.
         21   -1    0    0  502  503 -0.00000000000E+00 -0.00000000000E+00 -0.17457138326E+02  0.17457138326E+02  0.00000000000E+00 0.  1.
         25    2    1    2    0    0  0.00000000000E+00  0.00000000000E+00  0.20635465916E+03  0.24126893581E+03  0.12501381536E+03 0.  0.
          4    1    3    3  501    0  0.31543762327E+02 -0.44265587796E+02  0.43684506456E+02  0.69750912603E+02  0.15500000000E+01 0.  1.
         -4    1    3    3    0  501 -0.31543762327E+02  0.44265587796E+02  0.16267015271E+03  0.17151802321E+03  0.15500000000E+01 0.  1.
<mgrwt>
<rscale>  2 0.12501382E+03</rscale>
<asrwt>0</asrwt>
<pdfrwt beam="1">  1       21 0.34432582E-01 0.12501382E+03</pdfrwt>
<pdfrwt beam="2">  1       21 0.26857137E-02 0.12501382E+03</pdfrwt>
<totfact> 0.60688936E+06</totfact>
</mgrwt>
</event>
<event>
 5    0  0.1399881E+000  0.1250006E+03  0.7546771E-02  0.1235068E+00
         21   -1    0    0  503  502  0.00000000000E+00  0.00000000000E+00  0.15768384682E+02  0.15768384682E+02  0.00000000000E+00 0.  1.
         21   -1    0    0  502  503 -0.00000000000E+00 -0.00000000000E+00 -0.24772925336E+03  0.24772925336E+03  0.00000000000E+00 0.  1.
         25    2    1    2    0    0  0.00000000000E+00  0.00000000000E+00 -0.23196086868E+03  0.26349763805E+03  0.12500064262E+03 0.  0.
          4    1    3    3  501    0 -0.27548538117E+02 -0.22743567346E+02 -0.22403721613E+03  0.22687280251E+03  0.15500000000E+01 0.  1.
         -4    1    3    3    0  501  0.27548538117E+02  0.22743567346E+02 -0.79236525482E+01  0.36624835531E+02  0.15500000000E+01 0.  1.
<mgrwt>
<rscale>  2 0.12500064E+03</rscale>
<asrwt>0</asrwt>
<pdfrwt beam="1">  1       21 0.24259053E-02 0.12500064E+03</pdfrwt>
<pdfrwt beam="2">  1       21 0.38112194E-01 0.12500064E+03</pdfrwt>
<totfact> 0.58629220E+06</totfact>
</mgrwt>
</event>
<event>
 5    0  0.1404465E+000  0.1249659E+03  0.7546771E-02  0.1235123E+00
         21   -1    0    0  503  502  0.00000000000E+00  0.00000000000E+00  0.11819138380E+03  0.11819138380E+03  0.00000000000E+00 0.  1.
         21   -1    0    0  502  503 -0.00000000000E+00 -0.00000000000E+00 -0.33032203993E+02  0.33032203993E+02  0.00000000000E+00 0.  1.
         25    2    1    2    0    0  0.00000000000E+00  0.00000000000E+00  0.85159179803E+02  0.15122358779E+03  0.12496594576E+03 0.  0.
          4    1    3    3  501    0 -0.52532556192E+02 -0.41671190814E+01  0.19966672880E+01  0.52758160713E+02  0.15500000000E+01 0.  1.
         -4    1    3    3    0  501  0.52532556192E+02  0.41671190814E+01  0.83162512515E+02  0.98465427076E+02  0.15500000000E+01 0.  1.
<mgrwt>
<rscale>  2 0.12496595E+03</rscale>
<asrwt>0</asrwt>
<pdfrwt beam="1">  1       21 0.18183290E-01 0.12496595E+03</pdfrwt>
<pdfrwt beam="2">  1       21 0.50818776E-02 0.12496595E+03</pdfrwt>
<totfact> 0.70667065E+06</totfact>
</mgrwt>
</event>
<event>
 5    0  0.1222151E+000  0.1249979E+03  0.7546771E-02  0.1235073E+00
         21   -1    0    0  503  502  0.00000000000E+00  0.00000000000E+00  0.20180294712E+01  0.20180294712E+01  0.00000000000E+00 0. -1.
         21   -1    0    0  502  503 -0.00000000000E+00 -0.00000000000E+00 -0.19356105205E+04  0.19356105205E+04  0.00000000000E+00 0. -1.
         25    2    1    2    0    0  0.00000000000E+00  0.00000000000E+00 -0.19335924910E+04  0.19376285500E+04  0.12499790518E+03 0.  0.
          4    1    3    3  501    0 -0.46161806359E+02 -0.73625612394E+01 -0.16094170808E+04  0.16100965381E+04  0.15500000000E+01 0.  1.
         -4    1    3    3    0  501  0.46161806359E+02  0.73625612394E+01 -0.32417541025E+03  0.32753201185E+03  0.15500000000E+01 0.  1.
<mgrwt>
<rscale>  2 0.12499791E+03</rscale>
<asrwt>0</asrwt>
<pdfrwt beam="1">  1       21 0.31046664E-03 0.12499791E+03</pdfrwt>
<pdfrwt beam="2">  1       21 0.29778569E+00 0.12499791E+03</pdfrwt>
<totfact> 0.85728177E+05</totfact>
</mgrwt>
</event>
<event>
 5    0  0.1222151E+000  0.1250049E+03  0.7546771E-02  0.1235062E+00
         21   -1    0    0  503  502  0.00000000000E+00  0.00000000000E+00  0.10816343113E+04  0.10816343113E+04  0.00000000000E+00 0.  1.
         21   -1    0    0  502  503 -0.00000000000E+00 -0.00000000000E+00 -0.36117141757E+01  0.36117141757E+01  0.00000000000E+00 0.  1.
         25    2    1    2    0    0  0.00000000000E+00  0.00000000000E+00  0.10780225971E+04  0.10852460254E+04  0.12500486350E+03 0.  0.
          4    1    3    3  501    0 -0.32801881178E+02  0.38777056923E+02  0.22305148213E+03  0.22876623381E+03  0.15500000000E+01 0.  1.
         -4    1    3    3    0  501  0.32801881178E+02 -0.38777056923E+02  0.85497111497E+03  0.85647979163E+03  0.15500000000E+01 0.  1.
<mgrwt>
<rscale>  2 0.12500486E+03</rscale>
<asrwt>0</asrwt>
<pdfrwt beam="1">  1       21 0.16640502E+00 0.12500486E+03</pdfrwt>
<pdfrwt beam="2">  1       21 0.55564919E-03 0.12500486E+03</pdfrwt>
<totfact> 0.21579988E+06</totfact>
</mgrwt>
</event>
<event>
 5    0  0.1298885E+000  0.1249980E+03  0.7546771E-02  0.1235072E+00
         21   -1    0    0  503  502  0.00000000000E+00  0.00000000000E+00  0.62556878724E+03  0.62556878724E+03  0.00000000000E+00 0.  1.
         21   -1    0    0  502  503 -0.00000000000E+00 -0.00000000000E+00 -0.62441134612E+01  0.62441134612E+01  0.00000000000E+00 0.  1.
         25    2    1    2    0    0  0.00000000000E+00  0.00000000000E+00  0.61932467377E+03  0.63181290070E+03  0.12499795975E+03 0.  0.
          4    1    3    3  501    0 -0.16153173158E+02  0.57272892887E+02  0.40591347779E+03  0.41025511966E+03  0.15500000000E+01 0.  1.
         -4    1    3    3    0  501  0.16153173158E+02 -0.57272892887E+02  0.21341119599E+03  0.22155778103E+03  0.15500000000E+01 0.  1.
<mgrwt>
<rscale>  2 0.12499796E+03</rscale>
<asrwt>0</asrwt>
<pdfrwt beam="1">  1       21 0.96241302E-01 0.12499796E+03</pdfrwt>
<pdfrwt beam="2">  1       21 0.96063334E-03 0.12499796E+03</pdfrwt>
<totfact> 0.35694160E+06</totfact>
</mgrwt>
</event>
<event>
 5    0  0.1560850E+000  0.1250007E+03  0.7546771E-02  0.1235068E+00
         21   -1    0    0  503  502  0.00000000000E+00  0.00000000000E+00  0.87743783650E+02  0.87743783650E+02  0.00000000000E+00 0.  1.
         21   -1    0    0  502  503 -0.00000000000E+00 -0.00000000000E+00 -0.44519340403E+02  0.44519340403E+02  0.00000000000E+00 0.  1.
         25    2    1    2    0    0  0.00000000000E+00  0.00000000000E+00  0.43224443248E+02  0.13226312405E+03  0.12500072596E+03 0.  0.
          4    1    3    3  501    0 -0.44853350049E+02 -0.28843677118E+02 -0.12838803376E+02  0.54872744532E+02  0.15500000000E+01 0. -1.
         -4    1    3    3    0  501  0.44853350049E+02  0.28843677118E+02  0.56063246624E+02  0.77390379521E+02  0.15500000000E+01 0. -1.
<mgrwt>
<rscale>  2 0.12500073E+03</rscale>
<asrwt>0</asrwt>
<pdfrwt beam="1">  1       21 0.13499044E-01 0.12500073E+03</pdfrwt>
<pdfrwt beam="2">  1       21 0.68491293E-02 0.12500073E+03</pdfrwt>
<totfact> 0.73059604E+06</totfact>
</mgrwt>
</event>
<event>
 5    0  0.1222151E+000  0.1249993E+03  0.7546771E-02  0.1235070E+00
         21   -1    0    0  503  502  0.00000000000E+00  0.00000000000E+00  0.44029798820E+01  0.44029798820E+01  0.00000000000E+00 0. -1.
         21   -1    0    0  502  503 -0.00000000000E+00 -0.00000000000E+00 -0.88717284896E+03  0.88717284896E+03  0.00000000000E+00 0. -1.
         25    2    1    2    0    0  0.00000000000E+00  0.00000000000E+00 -0.88276986908E+03  0.89157582884E+03  0.12499926729E+03 0.  0.
          4    1    3    3  501    0 -0.12075292971E+02  0.55271466005E+02 -0.63050829507E+03  0.63304333209E+03  0.15500000000E+01 0.  1.
         -4    1    3    3    0  501  0.12075292971E+02 -0.55271466005E+02 -0.25226157401E+03  0.25853249675E+03  0.15500000000E+01 0.  1.
<mgrwt>
<rscale>  2 0.12499927E+03</rscale>
<asrwt>0</asrwt>
<pdfrwt beam="1">  1       21 0.67738134E-03 0.12499927E+03</pdfrwt>
<pdfrwt beam="2">  1       21 0.13648817E+00 0.12499927E+03</pdfrwt>
<totfact> 0.26542543E+06</totfact>
</mgrwt>
</event>
<event>
 5    0  0.1494414E+000  0.1250052E+03  0.7546771E-02  0.1235061E+00
         21   -1    0    0  503  502  0.00000000000E+00  0.00000000000E+00  0.19418047091E+03  0.19418047091E+03  0.00000000000E+00 0. -1.
         21   -1    0    0  502  503 -0.00000000000E+00 -0.00000000000E+00 -0.20118280170E+02  0.20118280170E+02  0.00000000000E+00 0. -1.
         25    2    1    2    0    0  0.00000000000E+00  0.00000000000E+00  0.17406219074E+03  0.21429875108E+03  0.12500523377E+03 0.  0.
          4    1    3    3  501    0 -0.16347048976E+02  0.54790173869E+02  0.13023005939E+03  0.14223733699E+03  0.15500000000E+01 0.  1.
         -4    1    3    3    0  501  0.16347048976E+02 -0.54790173869E+02  0.43832131344E+02  0.72061414092E+02  0.15500000000E+01 0.  1.
<mgrwt>
<rscale>  2 0.12500523E+03</rscale>
<asrwt>0</asrwt>
<pdfrwt beam="1">  1       21 0.29873917E-01 0.12500523E+03</pdfrwt>
<pdfrwt beam="2">  1       21 0.30951201E-02 0.12500523E+03</pdfrwt>
<totfact> 0.63401687E+06</totfact>
</mgrwt>
</event>
<event>
 5    0  0.1499603E+000  0.1249982E+03  0.7546771E-02  0.1235072E+00
         21   -1    0    0  503  502  0.00000000000E+00  0.00000000000E+00  0.35429516701E+02  0.35429516701E+02  0.00000000000E+00 0. -1.
         21   -1    0    0  502  503 -0.00000000000E+00 -0.00000000000E+00 -0.11025092727E+03  0.11025092727E+03  0.00000000000E+00 0. -1.
         25    2    1    2    0    0  0.00000000000E+00  0.00000000000E+00 -0.74821410570E+02  0.14568044397E+03  0.12499819309E+03 0.  0.
          4    1    3    3  501    0 -0.26905421093E+02 -0.26924284175E+02 -0.95155896305E+02  0.10249812615E+03  0.15500000000E+01 0. -1.
         -4    1    3    3    0  501  0.26905421093E+02  0.26924284175E+02  0.20334485734E+02  0.43182317823E+02  0.15500000000E+01 0. -1.
<mgrwt>
<rscale>  2 0.12499819E+03</rscale>
<asrwt>0</asrwt>
<pdfrwt beam="1">  1       21 0.54506950E-02 0.12499819E+03</pdfrwt>
<pdfrwt beam="2">  1       21 0.16961681E-01 0.12499819E+03</pdfrwt>
<totfact> 0.71309414E+06</totfact>
</mgrwt>
</event>
<event>
 5    0  0.1442531E+000  0.1250191E+03  0.7546771E-02  0.1235039E+00
         21   -1    0    0  503  502  0.00000000000E+00  0.00000000000E+00  0.16457056118E+03  0.16457056118E+03  0.00000000000E+00 0. -1.
         21   -1    0    0  502  503 -0.00000000000E+00 -0.00000000000E+00 -0.23743271161E+02  0.23743271161E+02  0.00000000000E+00 0. -1.
         25    2    1    2    0    0  0.00000000000E+00  0.00000000000E+00  0.14082729002E+03  0.18831383234E+03  0.12501909389E+03 0.  0.
          4    1    3    3  501    0 -0.58747110755E+02 -0.43211870474E+01  0.38992427202E+02  0.70659093956E+02  0.15500000000E+01 0.  1.
         -4    1    3    3    0  501  0.58747110755E+02  0.43211870474E+01  0.10183486281E+03  0.11765473838E+03  0.15500000000E+01 0.  1.
<mgrwt>
<rscale>  2 0.12501909E+03</rscale>
<asrwt>0</asrwt>
<pdfrwt beam="1">  1       21 0.25318547E-01 0.12501909E+03</pdfrwt>
<pdfrwt beam="2">  1       21 0.36528110E-02 0.12501909E+03</pdfrwt>
<totfact> 0.66178326E+06</totfact>
</mgrwt>
</event>
<event>
 5    0  0.1595963E+000  0.1249981E+03  0.7546771E-02  0.1235072E+00
         21   -1    0    0  503  502  0.00000000000E+00  0.00000000000E+00  0.48045297905E+02  0.48045297905E+02  0.00000000000E+00 0. -1.
         21   -1    0    0  502  503 -0.00000000000E+00 -0.00000000000E+00 -0.81301052084E+02  0.81301052084E+02  0.00000000000E+00 0. -1.
         25    2    1    2    0    0  0.00000000000E+00  0.00000000000E+00 -0.33255754179E+02  0.12934634999E+03  0.12499813226E+03 0.  0.
          4    1    3    3  501    0 -0.54425839602E+01  0.36516115650E+02 -0.68786466654E+02  0.78083474033E+02  0.15500000000E+01 0. -1.
         -4    1    3    3    0  501  0.54425839602E+01 -0.36516115650E+02  0.35530712475E+02  0.51262875956E+02  0.15500000000E+01 0. -1.
<mgrwt>
<rscale>  2 0.12499813E+03</rscale>
<asrwt>0</asrwt>
<pdfrwt beam="1">  1       21 0.73915843E-02 0.12499813E+03</pdfrwt>
<pdfrwt beam="2">  1       21 0.12507854E-01 0.12499813E+03</pdfrwt>
<totfact> 0.73455910E+06</totfact>
</mgrwt>
</event>
<event>
 5    0  0.1318582E+000  0.1249875E+03  0.7546771E-02  0.1235089E+00
         21   -1    0    0  503  502  0.00000000000E+00  0.00000000000E+00  0.65296044358E+01  0.65296044358E+01  0.00000000000E+00 0. -1.
         21   -1    0    0  502  503 -0.00000000000E+00 -0.00000000000E+00 -0.59811741227E+03  0.59811741227E+03  0.00000000000E+00 0. -1.
         25    2    1    2    0    0  0.00000000000E+00  0.00000000000E+00 -0.59158780783E+03  0.60464701670E+03  0.12498752111E+03 0.  0.
          4    1    3    3  501    0 -0.16522515249E+02  0.52790615216E+02 -0.15531632690E+03  0.16487997594E+03  0.15500000000E+01 0.  1.
         -4    1    3    3    0  501  0.16522515249E+02 -0.52790615216E+02 -0.43627148093E+03  0.43976704076E+03  0.15500000000E+01 0.  1.
<mgrwt>
<rscale>  2 0.12498752E+03</rscale>
<asrwt>0</asrwt>
<pdfrwt beam="1">  1       21 0.10045549E-02 0.12498752E+03</pdfrwt>
<pdfrwt beam="2">  1       21 0.92018026E-01 0.12498752E+03</pdfrwt>
<totfact> 0.36894760E+06</totfact>
</mgrwt>
</event>
<event>
 5    0  0.1370300E+000  0.1249850E+03  0.7546771E-02  0.1235093E+00
         21   -1    0    0  503  502  0.00000000000E+00  0.00000000000E+00  0.85470109856E+01  0.85470109856E+01  0.00000000000E+00 0.  1.
         21   -1    0    0  502  503 -0.00000000000E+00 -0.00000000000E+00 -0.45692173588E+03  0.45692173588E+03  0.00000000000E+00 0.  1.
         25    2    1    2    0    0  0.00000000000E+00  0.00000000000E+00 -0.44837472490E+03  0.46546874687E+03  0.12498504064E+03 0.  0.
          4    1    3    3  501    0 -0.47419772546E+02 -0.38362806498E+02 -0.17386620955E+03  0.18426123052E+03  0.15500000000E+01 0. -1.
         -4    1    3    3    0  501  0.47419772546E+02  0.38362806498E+02 -0.27450851535E+03  0.28120751635E+03  0.15500000000E+01 0. -1.
<mgrwt>
<rscale>  2 0.12498504E+03</rscale>
<asrwt>0</asrwt>
<pdfrwt beam="1">  1       21 0.13149248E-02 0.12498504E+03</pdfrwt>
<pdfrwt beam="2">  1       21 0.70295651E-01 0.12498504E+03</pdfrwt>
<totfact> 0.43997296E+06</totfact>
</mgrwt>
</event>
<event>
 5    0  0.1222151E+000  0.1249808E+03  0.7546771E-02  0.1235099E+00
         21   -1    0    0  503  502  0.00000000000E+00  0.00000000000E+00  0.47000456460E+01  0.47000456460E+01  0.00000000000E+00 0.  1.
         21   -1    0    0  502  503 -0.00000000000E+00 -0.00000000000E+00 -0.83085315419E+03  0.83085315419E+03  0.00000000000E+00 0.  1.
         25    2    1    2    0    0  0.00000000000E+00  0.00000000000E+00 -0.82615310854E+03  0.83555319983E+03  0.12498076252E+03 0.  0.
          4    1    3    3  501    0  0.40639419405E+02  0.27125651996E+02 -0.67331870924E+03  0.67509099395E+03  0.15500000000E+01 0. -1.
         -4    1    3    3    0  501 -0.40639419405E+02 -0.27125651996E+02 -0.15283439931E+03  0.16046220588E+03  0.15500000000E+01 0. -1.
<mgrwt>
<rscale>  2 0.12498076E+03</rscale>
<asrwt>0</asrwt>
<pdfrwt beam="1">  1       21 0.72308386E-03 0.12498076E+03</pdfrwt>
<pdfrwt beam="2">  1       21 0.12782358E+00 0.12498076E+03</pdfrwt>
<totfact> 0.28231681E+06</totfact>
</mgrwt>
</event>
<event>
 5    0  0.1572546E+000  0.1250167E+03  0.7546771E-02  0.1235043E+00
         21   -1    0    0  503  502  0.00000000000E+00  0.00000000000E+00  0.76501362572E+02  0.76501362572E+02  0.00000000000E+00 0.  1.
         21   -1    0    0  502  503 -0.00000000000E+00 -0.00000000000E+00 -0.51074796142E+02  0.51074796142E+02  0.00000000000E+00 0.  1.
         25    2    1    2    0    0  0.00000000000E+00  0.00000000000E+00  0.25426566430E+02  0.12757615871E+03  0.12501666286E+03 0.  0.
          4    1    3    3  501    0  0.46469002755E+02 -0.38088962692E+02 -0.48065424535E+01  0.60296290486E+02  0.15500000000E+01 0. -1.
         -4    1    3    3    0  501 -0.46469002755E+02  0.38088962692E+02  0.30233108883E+02  0.67279868228E+02  0.15500000000E+01 0. -1.
<mgrwt>
<rscale>  2 0.12501666E+03</rscale>
<asrwt>0</asrwt>
<pdfrwt beam="1">  1       21 0.11769440E-01 0.12501666E+03</pdfrwt>
<pdfrwt beam="2">  1       21 0.78576609E-02 0.12501666E+03</pdfrwt>
<totfact> 0.73659559E+06</totfact>
</mgrwt>
</event>
<event>
 5    0  0.1420786E+000  0.1249984E+03  0.7546771E-02  0.1235072E+00
         21   -1    0    0  503  502  0.00000000000E+00  0.00000000000E+00  0.28584393732E+03  0.28584393732E+03  0.00000000000E+00 0.  1.
         21   -1    0    0  502  503 -0.00000000000E+00 -0.00000000000E+00 -0.13665329463E+02  0.13665329463E+02  0.00000000000E+00 0.  1.
         25    2    1    2    0    0  0.00000000000E+00  0.00000000000E+00  0.27217860785E+03  0.29950926678E+03  0.12499842525E+03 0.  0.
          4    1    3    3  501    0 -0.15022072486E+02 -0.36330099108E+02  0.19731105187E+02  0.44014290575E+02  0.15500000000E+01 0.  1.
         -4    1    3    3    0  501  0.15022072486E+02  0.36330099108E+02  0.25244750267E+03  0.25549497620E+03  0.15500000000E+01 0.  1.
<mgrwt>
<rscale>  2 0.12499843E+03</rscale>
<asrwt>0</asrwt>
<pdfrwt beam="1">  1       21 0.43975986E-01 0.12499843E+03</pdfrwt>
<pdfrwt beam="2">  1       21 0.21023586E-02 0.12499843E+03</pdfrwt>
<totfact> 0.55499178E+06</totfact>
</mgrwt>
</event>
<event>
 5    0  0.1476137E+000  0.1249930E+03  0.7546771E-02  0.1235080E+00
         21   -1    0    0  503  502  0.00000000000E+00  0.00000000000E+00  0.63348841714E+02  0.63348841714E+02  0.00000000000E+00 0.  1.
         21   -1    0    0  502  503 -0.00000000000E+00 -0.00000000000E+00 -0.61655578312E+02  0.61655578312E+02  0.00000000000E+00 0.  1.
         25    2    1    2    0    0  0.00000000000E+00  0.00000000000E+00  0.16932634020E+01  0.12500442003E+03  0.12499295134E+03 0.  0.
          4    1    3    3  501    0  0.29163540376E+02  0.26172499036E+02 -0.47818856367E+02  0.61843005403E+02  0.15500000000E+01 0.  1.
         -4    1    3    3    0  501 -0.29163540376E+02 -0.26172499036E+02  0.49512119769E+02  0.63161414622E+02  0.15500000000E+01 0.  1.
<mgrwt>
<rscale>  2 0.12499295E+03</rscale>
<asrwt>0</asrwt>
<pdfrwt beam="1">  1       21 0.97459757E-02 0.12499295E+03</pdfrwt>
<pdfrwt beam="2">  1       21 0.94854736E-02 0.12499295E+03</pdfrwt>
<totfact> 0.74056330E+06</totfact>
</mgrwt>
</event>
<event>
 5    0  0.1515854E+000  0.1249978E+03  0.7546771E-02  0.1235073E+00
         21   -1    0    0  503  502  0.00000000000E+00  0.00000000000E+00  0.18029053697E+02  0.18029053697E+02  0.00000000000E+00 0.  1.
         21   -1    0    0  502  503 -0.00000000000E+00 -0.00000000000E+00 -0.21665656127E+03  0.21665656127E+03  0.00000000000E+00 0.  1.
         25    2    1    2    0    0  0.00000000000E+00  0.00000000000E+00 -0.19862750757E+03  0.23468561497E+03  0.12499780441E+03 0.  0.
          4    1    3    3  501    0 -0.35301231867E+02  0.50308397503E+02 -0.78188678109E+02  0.99463479303E+02  0.15500000000E+01 0. -1.
         -4    1    3    3    0  501  0.35301231867E+02 -0.50308397503E+02 -0.12043882947E+03  0.13522213566E+03  0.15500000000E+01 0. -1.
<mgrwt>
<rscale>  2 0.12499780E+03</rscale>
<asrwt>0</asrwt>
<pdfrwt beam="1">  1       21 0.27737007E-02 0.12499780E+03</pdfrwt>
<pdfrwt beam="2">  1       21 0.33331778E-01 0.12499780E+03</pdfrwt>
<totfact> 0.61354147E+06</totfact>
</mgrwt>
</event>
<event>
 5    0  0.1634382E+000  0.1249997E+03  0.7546771E-02  0.1235070E+00
         21   -1    0    0  503  502  0.00000000000E+00  0.00000000000E+00  0.21290926272E+03  0.21290926272E+03  0.00000000000E+00 0. -1.
         21   -1    0    0  502  503 -0.00000000000E+00 -0.00000000000E+00 -0.18346917329E+02  0.18346917329E+02  0.00000000000E+00 0. -1.
         25    2    1    2    0    0  0.00000000000E+00  0.00000000000E+00  0.19456234539E+03  0.23125618005E+03  0.12499965827E+03 0.  0.
          4    1    3    3  501    0 -0.61248423638E+02  0.83693106070E+01  0.80486245546E+02  0.10149804422E+03  0.15500000000E+01 0.  1.
         -4    1    3    3    0  501  0.61248423638E+02 -0.83693106070E+01  0.11407609985E+03  0.12975813583E+03  0.15500000000E+01 0.  1.
<mgrwt>
<rscale>  2 0.12499966E+03</rscale>
<asrwt>0</asrwt>
<pdfrwt beam="1">  1       21 0.32755269E-01 0.12499966E+03</pdfrwt>
<pdfrwt beam="2">  1       21 0.28226028E-02 0.12499966E+03</pdfrwt>
<totfact> 0.61689722E+06</totfact>
</mgrwt>
</event>
<event>
 5    0  0.1222151E+000  0.1249613E+03  0.7546771E-02  0.1235130E+00
         21   -1    0    0  503  502  0.00000000000E+00  0.00000000000E+00  0.73069967485E+03  0.73069967485E+03  0.00000000000E+00 0. -1.
         21   -1    0    0  502  503 -0.00000000000E+00 -0.00000000000E+00 -0.53425955785E+01  0.53425955785E+01  0.00000000000E+00 0. -1.
         25    2    1    2    0    0  0.00000000000E+00  0.00000000000E+00  0.72535707927E+03  0.73604227043E+03  0.12496131965E+03 0.  0.
          4    1    3    3  501    0 -0.36779988057E+02 -0.50320135508E+02  0.38663838831E+03  0.39163315663E+03  0.15500000000E+01 0.  1.
         -4    1    3    3    0  501  0.36779988057E+02  0.50320135508E+02  0.33871869096E+03  0.34440911379E+03  0.15500000000E+01 0.  1.
<mgrwt>
<rscale>  2 0.12496132E+03</rscale>
<asrwt>0</asrwt>
<pdfrwt beam="1">  1       21 0.11241526E+00 0.12496132E+03</pdfrwt>
<pdfrwt beam="2">  1       21 0.82193836E-03 0.12496132E+03</pdfrwt>
<totfact> 0.31596267E+06</totfact>
</mgrwt>
</event>
<event>
 5    0  0.1618023E+000  0.1249977E+03  0.7546771E-02  0.1235073E+00
         21   -1    0    0  503  502  0.00000000000E+00  0.00000000000E+00  0.10515946701E+03  0.10515946701E+03  0.00000000000E+00 0.  1.
         21   -1    0    0  502  503 -0.00000000000E+00 -0.00000000000E+00 -0.37144611926E+02  0.37144611926E+02  0.00000000000E+00 0.  1.
         25    2    1    2    0    0  0.00000000000E+00  0.00000000000E+00  0.68014855084E+02  0.14230407894E+03  0.12499772146E+03 0.  0.
          4    1    3    3  501    0  0.45242633929E+02 -0.42022008614E+02  0.44865191145E+02  0.76341554931E+02  0.15500000000E+01 0. -1.
         -4    1    3    3    0  501 -0.45242633929E+02  0.42022008614E+02  0.23149663939E+02  0.65962524006E+02  0.15500000000E+01 0. -1.
<mgrwt>
<rscale>  2 0.12499772E+03</rscale>
<asrwt>0</asrwt>
<pdfrwt beam="1">  1       21 0.16178379E-01 0.12499772E+03</pdfrwt>
<pdfrwt beam="2">  1       21 0.57145557E-02 0.12499772E+03</pdfrwt>
<totfact> 0.71744089E+06</totfact>
</mgrwt>
</event>
<event>
 5    0  0.1319684E+000  0.1250018E+03  0.7546771E-02  0.1235067E+00
         21   -1    0    0  503  502  0.00000000000E+00  0.00000000000E+00  0.97339437747E+01  0.97339437747E+01  0.00000000000E+00 0.  1.
         21   -1    0    0  502  503 -0.00000000000E+00 -0.00000000000E+00 -0.40131312980E+03  0.40131312980E+03  0.00000000000E+00 0.  1.
         25    2    1    2    0    0  0.00000000000E+00  0.00000000000E+00 -0.39157918603E+03  0.41104707358E+03  0.12500175105E+03 0.  0.
          4    1    3    3  501    0 -0.32252907945E+02  0.30542358054E+02 -0.51294825607E+02  0.67872286984E+02  0.15500000000E+01 0.  1.
         -4    1    3    3    0  501  0.32252907945E+02 -0.30542358054E+02 -0.34028436042E+03  0.34317478659E+03  0.15500000000E+01 0.  1.
<mgrwt>
<rscale>  2 0.12500175E+03</rscale>
<asrwt>0</asrwt>
<pdfrwt beam="1">  1       21 0.14975302E-02 0.12500175E+03</pdfrwt>
<pdfrwt beam="2">  1       21 0.61740466E-01 0.12500175E+03</pdfrwt>
<totfact> 0.47315076E+06</totfact>
</mgrwt>
</event>
<event>
 5    0  0.1472578E+000  0.1249788E+03  0.7546771E-02  0.1235102E+00
         21   -1    0    0  503  502  0.00000000000E+00  0.00000000000E+00  0.17599298543E+02  0.17599298543E+02  0.00000000000E+00 0.  1.
         21   -1    0    0  502  503 -0.00000000000E+00 -0.00000000000E+00 -0.22187965130E+03  0.22187965130E+03  0.00000000000E+00 0.  1.
         25    2    1    2    0    0  0.00000000000E+00  0.00000000000E+00 -0.20428035276E+03  0.23947894984E+03  0.12497881779E+03 0.  0.
          4    1    3    3  501    0 -0.52817161198E+02 -0.24659610287E+02 -0.59089520011E+02  0.83016400618E+02  0.15500000000E+01 0. -1.
         -4    1    3    3    0  501  0.52817161198E+02  0.24659610287E+02 -0.14519083275E+03  0.15646254923E+03  0.15500000000E+01 0. -1.
<mgrwt>
<rscale>  2 0.12497882E+03</rscale>
<asrwt>0</asrwt>
<pdfrwt beam="1">  1       21 0.27075845E-02 0.12497882E+03</pdfrwt>
<pdfrwt beam="2">  1       21 0.34135329E-01 0.12497882E+03</pdfrwt>
<totfact> 0.60915665E+06</totfact>
</mgrwt>
</event>
<event>
 5    0  0.1394574E+000  0.1249987E+03  0.7546771E-02  0.1235071E+00
         21   -1    0    0  503  502  0.00000000000E+00  0.00000000000E+00  0.35719916791E+03  0.35719916791E+03  0.00000000000E+00 0.  1.
         21   -1    0    0  502  503 -0.00000000000E+00 -0.00000000000E+00 -0.10935552558E+02  0.10935552558E+02  0.00000000000E+00 0.  1.
         25    2    1    2    0    0  0.00000000000E+00  0.00000000000E+00  0.34626361535E+03  0.36813472047E+03  0.12499872438E+03 0.  0.
          4    1    3    3  501    0  0.52938981395E+02  0.11215102775E+02  0.26511415382E+03  0.27058497989E+03  0.15500000000E+01 0.  1.
         -4    1    3    3    0  501 -0.52938981395E+02 -0.11215102775E+02  0.81149461527E+02  0.97549740582E+02  0.15500000000E+01 0.  1.
<mgrwt>
<rscale>  2 0.12499872E+03</rscale>
<asrwt>0</asrwt>
<pdfrwt beam="1">  1       21 0.54953709E-01 0.12499872E+03</pdfrwt>
<pdfrwt beam="2">  1       21 0.16823930E-02 0.12499872E+03</pdfrwt>
<totfact> 0.50227996E+06</totfact>
</mgrwt>
</event>
<event>
 5    0  0.1262682E+000  0.1249950E+03  0.7546771E-02  0.1235077E+00
         21   -1    0    0  503  502  0.00000000000E+00  0.00000000000E+00  0.69806710997E+03  0.69806710997E+03  0.00000000000E+00 0. -1.
         21   -1    0    0  502  503 -0.00000000000E+00 -0.00000000000E+00 -0.55953618806E+01  0.55953618806E+01  0.00000000000E+00 0. -1.
         25    2    1    2    0    0  0.00000000000E+00  0.00000000000E+00  0.69247174809E+03  0.70366247185E+03  0.12499500946E+03 0.  0.
          4    1    3    3  501    0 -0.38699053517E+02  0.30993117084E+02  0.13221429679E+03  0.14121335923E+03  0.15500000000E+01 0. -1.
         -4    1    3    3    0  501  0.38699053517E+02 -0.30993117084E+02  0.56025745130E+03  0.56244911262E+03  0.15500000000E+01 0. -1.
<mgrwt>
<rscale>  2 0.12499501E+03</rscale>
<asrwt>0</asrwt>
<pdfrwt beam="1">  1       21 0.10739487E+00 0.12499501E+03</pdfrwt>
<pdfrwt beam="2">  1       21 0.86082546E-03 0.12499501E+03</pdfrwt>
<totfact> 0.32773488E+06</totfact>
</mgrwt>
</event>
<event>
 5    0  0.1547691E+000  0.1249999E+03  0.7546771E-02  0.1235069E+00
         21   -1    0    0  503  502  0.00000000000E+00  0.00000000000E+00  0.21279580264E+02  0.21279580264E+02  0.00000000000E+00 0. -1.
         21   -1    0    0  502  503 -0.00000000000E+00 -0.00000000000E+00 -0.18356785201E+03  0.18356785201E+03  0.00000000000E+00 0. -1.
         25    2    1    2    0    0  0.00000000000E+00  0.00000000000E+00 -0.16228827174E+03  0.20484743227E+03  0.12499994945E+03 0.  0.
          4    1    3    3  501    0 -0.58541331040E+02  0.20199501933E+02 -0.67557371465E+02  0.91659741749E+02  0.15500000000E+01 0. -1.
         -4    1    3    3    0  501  0.58541331040E+02 -0.20199501933E+02 -0.94730900278E+02  0.11318769052E+03  0.15500000000E+01 0. -1.
<mgrwt>
<rscale>  2 0.12499995E+03</rscale>
<asrwt>0</asrwt>
<pdfrwt beam="1">  1       21 0.32737814E-02 0.12499995E+03</pdfrwt>
<pdfrwt beam="2">  1       21 0.28241209E-01 0.12499995E+03</pdfrwt>
<totfact> 0.64405837E+06</totfact>
</mgrwt>
</event>
<event>
 5    0  0.1222151E+000  0.1249998E+03  0.7546771E-02  0.1235070E+00
         21   -1    0    0  503  502  0.00000000000E+00  0.00000000000E+00  0.21800795645E+01  0.21800795645E+01  0.00000000000E+00 0. -1.
         21   -1    0    0  502  503 -0.00000000000E+00 -0.00000000000E+00 -0.17917875856E+04  0.17917875856E+04  0.00000000000E+00 0. -1.
         25    2    1    2    0    0  0.00000000000E+00  0.00000000000E+00 -0.17896075060E+04  0.17939676652E+04  0.12499983199E+03 0.  0.
          4    1    3    3  501    0  0.43241683770E+02  0.94364507911E+01 -0.15277387174E+04  0.15283804765E+04  0.15500000000E+01 0.  1.
         -4    1    3    3    0  501 -0.43241683770E+02 -0.94364507911E+01 -0.26186878867E+03  0.26558718869E+03  0.15500000000E+01 0.  1.
<mgrwt>
<rscale>  2 0.12499983E+03</rscale>
<asrwt>0</asrwt>
<pdfrwt beam="1">  1       21 0.33539606E-03 0.12499983E+03</pdfrwt>
<pdfrwt beam="2">  1       21 0.27566028E+00 0.12499983E+03</pdfrwt>
<totfact> 0.10139491E+06</totfact>
</mgrwt>
</event>
<event>
 5    0  0.1504514E+000  0.1250081E+03  0.7546771E-02  0.1235057E+00
         21   -1    0    0  503  502  0.00000000000E+00  0.00000000000E+00  0.32627553200E+02  0.32627553200E+02  0.00000000000E+00 0. -1.
         21   -1    0    0  502  503 -0.00000000000E+00 -0.00000000000E+00 -0.11973797388E+03  0.11973797388E+03  0.00000000000E+00 0. -1.
         25    2    1    2    0    0  0.00000000000E+00  0.00000000000E+00 -0.87110420684E+02  0.15236552708E+03  0.12500811354E+03 0.  0.
          4    1    3    3  501    0 -0.23499460818E+02  0.19374306764E+02 -0.11005509304E+03  0.11420207715E+03  0.15500000000E+01 0.  1.
         -4    1    3    3    0  501  0.23499460818E+02 -0.19374306764E+02  0.22944672356E+02  0.38163449934E+02  0.15500000000E+01 0.  1.
<mgrwt>
<rscale>  2 0.12500811E+03</rscale>
<asrwt>0</asrwt>
<pdfrwt beam="1">  1       21 0.50196237E-02 0.12500811E+03</pdfrwt>
<pdfrwt beam="2">  1       21 0.18421226E-01 0.12500811E+03</pdfrwt>
<totfact> 0.70448750E+06</totfact>
</mgrwt>
</event>
<event>
 5    0  0.1602231E+000  0.1249950E+03  0.7546771E-02  0.1235077E+00
         21   -1    0    0  503  502  0.00000000000E+00  0.00000000000E+00  0.72687701672E+02  0.72687701672E+02  0.00000000000E+00 0.  1.
         21   -1    0    0  502  503 -0.00000000000E+00 -0.00000000000E+00 -0.53735858786E+02  0.53735858786E+02  0.00000000000E+00 0.  1.
         25    2    1    2    0    0  0.00000000000E+00  0.00000000000E+00  0.18951842886E+02  0.12642356046E+03  0.12499497706E+03 0.  0.
          4    1    3    3  501    0 -0.57169656937E+02  0.25130499887E+02  0.11400794530E+02  0.63500333187E+02  0.15500000000E+01 0.  1.
         -4    1    3    3    0  501  0.57169656937E+02 -0.25130499887E+02  0.75510483557E+01  0.62923227271E+02  0.15500000000E+01 0.  1.
<mgrwt>
<rscale>  2 0.12499498E+03</rscale>
<asrwt>0</asrwt>
<pdfrwt beam="1">  1       21 0.11182723E-01 0.12499498E+03</pdfrwt>
<pdfrwt beam="2">  1       21 0.82670552E-02 0.12499498E+03</pdfrwt>
<totfact> 0.73857306E+06</totfact>
</mgrwt>
</event>
<event>
 5    0  0.1483018E+000  0.1250010E+03  0.7546771E-02  0.1235068E+00
         21   -1    0    0  503  502  0.00000000000E+00  0.00000000000E+00  0.15809951494E+02  0.15809951494E+02  0.00000000000E+00 0.  1.
         21   -1    0    0  502  503 -0.00000000000E+00 -0.00000000000E+00 -0.24707943662E+03  0.24707943662E+03  0.00000000000E+00 0.  1.
         25    2    1    2    0    0  0.00000000000E+00  0.00000000000E+00 -0.23126948513E+03  0.26288938811E+03  0.12500102253E+03 0.  0.
          4    1    3    3  501    0  0.20082072510E+02 -0.48708400985E+02 -0.44997151913E+02  0.69303276568E+02  0.15500000000E+01 0. -1.
         -4    1    3    3    0  501 -0.20082072510E+02  0.48708400985E+02 -0.18627233321E+03  0.19358611155E+03  0.15500000000E+01 0. -1.
<mgrwt>
<rscale>  2 0.12500102E+03</rscale>
<asrwt>0</asrwt>
<pdfrwt beam="1">  1       21 0.24323004E-02 0.12500102E+03</pdfrwt>
<pdfrwt beam="2">  1       21 0.38012218E-01 0.12500102E+03</pdfrwt>
<totfact> 0.58683941E+06</totfact>
</mgrwt>
</event>
<event>
 5    0  0.1421575E+000  0.1250051E+03  0.7546771E-02  0.1235061E+00
         21   -1    0    0  503  502  0.00000000000E+00  0.00000000000E+00  0.59671811827E+02  0.59671811827E+02  0.00000000000E+00 0. -1.
         21   -1    0    0  502  503 -0.00000000000E+00 -0.00000000000E+00 -0.65467584170E+02  0.65467584170E+02  0.00000000000E+00 0. -1.
         25    2    1    2    0    0  0.00000000000E+00  0.00000000000E+00 -0.57957723427E+01  0.12513939600E+03  0.12500510971E+03 0.  0.
          4    1    3    3  501    0 -0.20763900816E+02  0.14582568295E+02  0.54263155150E+02  0.59922311220E+02  0.15500000000E+01 0. -1.
         -4    1    3    3    0  501  0.20763900816E+02 -0.14582568295E+02 -0.60058927493E+02  0.65217084776E+02  0.15500000000E+01 0. -1.
<mgrwt>
<rscale>  2 0.12500511E+03</rscale>
<asrwt>0</asrwt>
<pdfrwt beam="1">  1       21 0.91802787E-02 0.12500511E+03</pdfrwt>
<pdfrwt beam="2">  1       21 0.10071936E-01 0.12500511E+03</pdfrwt>
<totfact> 0.74015086E+06</totfact>
</mgrwt>
</event>
<event>
 5    0  0.1542063E+000  0.1250164E+03  0.7546771E-02  0.1235044E+00
         21   -1    0    0  503  502  0.00000000000E+00  0.00000000000E+00  0.68822299834E+02  0.68822299834E+02  0.00000000000E+00 0. -1.
         21   -1    0    0  502  503 -0.00000000000E+00 -0.00000000000E+00 -0.56773363600E+02  0.56773363600E+02  0.00000000000E+00 0. -1.
         25    2    1    2    0    0  0.00000000000E+00  0.00000000000E+00  0.12048936233E+02  0.12559566343E+03  0.12501637416E+03 0.  0.
          4    1    3    3  501    0  0.38114871264E+02 -0.27114994855E+02  0.47652015788E+02  0.66791342748E+02  0.15500000000E+01 0. -1.
         -4    1    3    3    0  501 -0.38114871264E+02  0.27114994855E+02 -0.35603079555E+02  0.58804320685E+02  0.15500000000E+01 0. -1.
<mgrwt>
<rscale>  2 0.12501637E+03</rscale>
<asrwt>0</asrwt>
<pdfrwt beam="1">  1       21 0.10588046E-01 0.12501637E+03</pdfrwt>
<pdfrwt beam="2">  1       21 0.87343636E-02 0.12501637E+03</pdfrwt>
<totfact> 0.73931177E+06</totfact>
</mgrwt>
</event>
<event>
 5    0  0.1222151E+000  0.1250012E+03  0.7546771E-02  0.1235067E+00
         21   -1    0    0  503  502  0.00000000000E+00  0.00000000000E+00  0.45213521937E+01  0.45213521937E+01  0.00000000000E+00 0. -1.
         21   -1    0    0  502  503 -0.00000000000E+00 -0.00000000000E+00 -0.86397290205E+03  0.86397290205E+03  0.00000000000E+00 0. -1.
         25    2    1    2    0    0  0.00000000000E+00  0.00000000000E+00 -0.85945154986E+03  0.86849425424E+03  0.12500121241E+03 0.  0.
          4    1    3    3  501    0 -0.50065414084E+02 -0.88237891826E+01 -0.68210897263E+03  0.68400252776E+03  0.15500000000E+01 0. -1.
         -4    1    3    3    0  501  0.50065414084E+02  0.88237891826E+01 -0.17734257723E+03  0.18449172649E+03  0.15500000000E+01 0. -1.
<mgrwt>
<rscale>  2 0.12500121E+03</rscale>
<asrwt>0</asrwt>
<pdfrwt beam="1">  1       21 0.69559305E-03 0.12500121E+03</pdfrwt>
<pdfrwt beam="2">  1       21 0.13291883E+00 0.12500121E+03</pdfrwt>
<totfact> 0.27214148E+06</totfact>
</mgrwt>
</event>
<event>
 5    0  0.1570237E+000  0.1249898E+03  0.7546771E-02  0.1235085E+00
         21   -1    0    0  503  502  0.00000000000E+00  0.00000000000E+00  0.38935320596E+02  0.38935320596E+02  0.00000000000E+00 0. -1.
         21   -1    0    0  502  503 -0.00000000000E+00 -0.00000000000E+00 -0.10031023993E+03  0.10031023993E+03  0.00000000000E+00 0. -1.
         25    2    1    2    0    0  0.00000000000E+00  0.00000000000E+00 -0.61374919331E+02  0.13924556052E+03  0.12498978119E+03 0.  0.
          4    1    3    3  501    0  0.61651178551E+02 -0.82524500224E+01 -0.37206170159E+02  0.72496016070E+02  0.15500000000E+01 0.  1.
         -4    1    3    3    0  501 -0.61651178551E+02  0.82524500224E+01 -0.24168749171E+02  0.66749544452E+02  0.15500000000E+01 0.  1.
<mgrwt>
<rscale>  2 0.12498978E+03</rscale>
<asrwt>0</asrwt>
<pdfrwt beam="1">  1       21 0.59900494E-02 0.12498978E+03</pdfrwt>
<pdfrwt beam="2">  1       21 0.15432344E-01 0.12498978E+03</pdfrwt>
<totfact> 0.72156737E+06</totfact>
</mgrwt>
</event>
<event>
 5    0  0.1438109E+000  0.1250047E+03  0.7546771E-02  0.1235062E+00
         21   -1    0    0  503  502  0.00000000000E+00  0.00000000000E+00  0.13613371279E+02  0.13613371279E+02  0.00000000000E+00 0. -1.
         21   -1    0    0  502  503 -0.00000000000E+00 -0.00000000000E+00 -0.28696378101E+03  0.28696378101E+03  0.00000000000E+00 0. -1.
         25    2    1    2    0    0  0.00000000000E+00  0.00000000000E+00 -0.27335040973E+03  0.30057715229E+03  0.12500471182E+03 0.  0.
          4    1    3    3  501    0 -0.83725860068E+01  0.52453517172E+02 -0.57556767545E+02  0.78336809039E+02  0.15500000000E+01 0.  1.
         -4    1    3    3    0  501  0.83725860068E+01 -0.52453517172E+02 -0.21579364218E+03  0.22224034325E+03  0.15500000000E+01 0.  1.
<mgrwt>
<rscale>  2 0.12500471E+03</rscale>
<asrwt>0</asrwt>
<pdfrwt beam="1">  1       21 0.20943648E-02 0.12500471E+03</pdfrwt>
<pdfrwt beam="2">  1       21 0.44148275E-01 0.12500471E+03</pdfrwt>
<totfact> 0.55401684E+06</totfact>
</mgrwt>
</event>
<event>
 5    0  0.1503916E+000  0.1250032E+03  0.7546771E-02  0.1235064E+00
         21   -1    0    0  503  502  0.00000000000E+00  0.00000000000E+00  0.24365423670E+03  0.24365423670E+03  0.00000000000E+00 0.  1.
         21   -1    0    0  502  503 -0.00000000000E+00 -0.00000000000E+00 -0.16032763955E+02  0.16032763955E+02  0.00000000000E+00 0.  1.
         25    2    1    2    0    0  0.00000000000E+00  0.00000000000E+00  0.22762147274E+03  0.25968700065E+03  0.12500321378E+03 0.  0.
          4    1    3    3  501    0 -0.46213992332E+02 -0.31499548214E+02  0.17168508572E+03  0.18057166385E+03  0.15500000000E+01 0. -1.
         -4    1    3    3    0  501  0.46213992332E+02  0.31499548214E+02  0.55936387023E+02  0.79115336808E+02  0.15500000000E+01 0. -1.
<mgrwt>
<rscale>  2 0.12500321E+03</rscale>
<asrwt>0</asrwt>
<pdfrwt beam="1">  1       21 0.37485264E-01 0.12500321E+03</pdfrwt>
<pdfrwt beam="2">  1       21 0.24665792E-02 0.12500321E+03</pdfrwt>
<totfact> 0.58973198E+06</totfact>
</mgrwt>
</event>
<event>
 5    0  0.1222151E+000  0.1250009E+03  0.7546771E-02  0.1235068E+00
         21   -1    0    0  503  502  0.00000000000E+00  0.00000000000E+00  0.94892864479E+03  0.94892864479E+03  0.00000000000E+00 0. -1.
         21   -1    0    0  502  503 -0.00000000000E+00 -0.00000000000E+00 -0.41165406448E+01  0.41165406448E+01  0.00000000000E+00 0. -1.
         25    2    1    2    0    0  0.00000000000E+00  0.00000000000E+00  0.94481210415E+03  0.95304518544E+03  0.12500085336E+03 0.  0.
          4    1    3    3  501    0  0.39197777865E+02  0.43439341983E+02  0.63952608243E+03  0.64219892154E+03  0.15500000000E+01 0. -1.
         -4    1    3    3    0  501 -0.39197777865E+02 -0.43439341983E+02  0.30528602172E+03  0.31084626390E+03  0.15500000000E+01 0. -1.
<mgrwt>
<rscale>  2 0.12500085E+03</rscale>
<asrwt>0</asrwt>
<pdfrwt beam="1">  1       21 0.14598885E+00 0.12500085E+03</pdfrwt>
<pdfrwt beam="2">  1       21 0.63331470E-03 0.12500085E+03</pdfrwt>
<totfact> 0.24829555E+06</totfact>
</mgrwt>
</event>
<event>
 5    0  0.1512403E+000  0.1250795E+03  0.7546771E-02  0.1234945E+00
         21   -1    0    0  503  502  0.00000000000E+00  0.00000000000E+00  0.11802025295E+03  0.11802025295E+03  0.00000000000E+00 0.  1.
         21   -1    0    0  502  503 -0.00000000000E+00 -0.00000000000E+00 -0.33140250463E+02  0.33140250463E+02  0.00000000000E+00 0.  1.
         25    2    1    2    0    0  0.00000000000E+00  0.00000000000E+00  0.84880002486E+02  0.15116050341E+03  0.12507950659E+03 0.  0.
          4    1    3    3  501    0  0.61977661104E+01 -0.61892844741E+02  0.34827149964E+02  0.71305465495E+02  0.15500000000E+01 0. -1.
         -4    1    3    3    0  501 -0.61977661104E+01  0.61892844741E+02  0.50052852522E+02  0.79855037916E+02  0.15500000000E+01 0. -1.
<mgrwt>
<rscale>  2 0.12507951E+03</rscale>
<asrwt>0</asrwt>
<pdfrwt beam="1">  1       21 0.18156962E-01 0.12507951E+03</pdfrwt>
<pdfrwt beam="2">  1       21 0.50985001E-02 0.12507951E+03</pdfrwt>
<totfact> 0.70471012E+06</totfact>
</mgrwt>
</event>
<event>
 5    0  0.1366079E+000  0.1250046E+03  0.7546771E-02  0.1235062E+00
         21   -1    0    0  503  502  0.00000000000E+00  0.00000000000E+00  0.42677912984E+03  0.42677912984E+03  0.00000000000E+00 0. -1.
         21   -1    0    0  502  503 -0.00000000000E+00 -0.00000000000E+00 -0.91535309975E+01  0.91535309975E+01  0.00000000000E+00 0. -1.
         25    2    1    2    0    0  0.00000000000E+00  0.00000000000E+00  0.41762559884E+03  0.43593266083E+03  0.12500457582E+03 0.  0.
          4    1    3    3  501    0  0.13197687305E+02 -0.55205896670E+02  0.29990256236E+03  0.30523076416E+03  0.15500000000E+01 0.  1.
         -4    1    3    3    0  501 -0.13197687305E+02  0.55205896670E+02  0.11772303648E+03  0.13070189668E+03  0.15500000000E+01 0.  1.
<mgrwt>
<rscale>  2 0.12500458E+03</rscale>
<asrwt>0</asrwt>
<pdfrwt beam="1">  1       21 0.65658312E-01 0.12500458E+03</pdfrwt>
<pdfrwt beam="2">  1       21 0.14082359E-02 0.12500458E+03</pdfrwt>
<totfact> 0.45740634E+06</totfact>
</mgrwt>
</event>
<event>
 5    0  0.1283139E+000  0.1250021E+03  0.7546771E-02  0.1235066E+00
         21   -1    0    0  503  502  0.00000000000E+00  0.00000000000E+00  0.76172276843E+01  0.76172276843E+01  0.00000000000E+00 0. -1.
         21   -1    0    0  502  503 -0.00000000000E+00 -0.00000000000E+00 -0.51283528113E+03  0.51283528113E+03  0.00000000000E+00 0. -1.
         25    2    1    2    0    0  0.00000000000E+00  0.00000000000E+00 -0.50521805344E+03  0.52045250881E+03  0.12500212960E+03 0.  0.
          4    1    3    3  501    0 -0.34093119026E+02  0.38144128344E+02 -0.40195602229E+03  0.40520163085E+03  0.15500000000E+01 0. -1.
         -4    1    3    3    0  501  0.34093119026E+02 -0.38144128344E+02 -0.10326203115E+03  0.11525087796E+03  0.15500000000E+01 0. -1.
<mgrwt>
<rscale>  2 0.12500213E+03</rscale>
<asrwt>0</asrwt>
<pdfrwt beam="1">  1       21 0.11718814E-02 0.12500213E+03</pdfrwt>
<pdfrwt beam="2">  1       21 0.78897722E-01 0.12500213E+03</pdfrwt>
<totfact> 0.40954005E+06</totfact>
</mgrwt>
</event>
<event>
 5    0  0.1585285E+000  0.1250028E+03  0.7546771E-02  0.1235065E+00
         21   -1    0    0  503  502  0.00000000000E+00  0.00000000000E+00  0.11717636441E+03  0.11717636441E+03  0.00000000000E+00 0. -1.
         21   -1    0    0  502  503 -0.00000000000E+00 -0.00000000000E+00 -0.33338005014E+02  0.33338005014E+02  0.00000000000E+00 0. -1.
         25    2    1    2    0    0  0.00000000000E+00  0.00000000000E+00  0.83838359396E+02  0.15051436942E+03  0.12500281956E+03 0.  0.
          4    1    3    3  501    0 -0.57139298269E+02  0.16911065594E+01  0.11546927831E+02  0.58339465976E+02  0.15500000000E+01 0.  1.
         -4    1    3    3    0  501  0.57139298269E+02 -0.16911065594E+01  0.72291431565E+02  0.92174903448E+02  0.15500000000E+01 0.  1.
<mgrwt>
<rscale>  2 0.12500282E+03</rscale>
<asrwt>0</asrwt>
<pdfrwt beam="1">  1       21 0.18027133E-01 0.12500282E+03</pdfrwt>
<pdfrwt beam="2">  1       21 0.51289239E-02 0.12500282E+03</pdfrwt>
<totfact> 0.70689573E+06</totfact>
</mgrwt>
</event>
<event>
 5    0  0.1402223E+000  0.1250003E+03  0.7546771E-02  0.1235069E+00
         21   -1    0    0  503  502  0.00000000000E+00  0.00000000000E+00  0.11019097587E+03  0.11019097587E+03  0.00000000000E+00 0.  1.
         21   -1    0    0  502  503 -0.00000000000E+00 -0.00000000000E+00 -0.35450003215E+02  0.35450003215E+02  0.00000000000E+00 0.  1.
         25    2    1    2    0    0  0.00000000000E+00  0.00000000000E+00  0.74740972658E+02  0.14564097909E+03  0.12500032718E+03 0.  0.
          4    1    3    3  501    0  0.72206572661E+01  0.30815234425E+02  0.10013764528E+03  0.10503174314E+03  0.15500000000E+01 0.  1.
         -4    1    3    3    0  501 -0.72206572661E+01 -0.30815234425E+02 -0.25396672624E+02  0.40609235949E+02  0.15500000000E+01 0.  1.
<mgrwt>
<rscale>  2 0.12500033E+03</rscale>
<asrwt>0</asrwt>
<pdfrwt beam="1">  1       21 0.16952458E-01 0.12500033E+03</pdfrwt>
<pdfrwt beam="2">  1       21 0.54538467E-02 0.12500033E+03</pdfrwt>
<totfact> 0.71310576E+06</totfact>
</mgrwt>
</event>
<event>
 5    0  0.1222151E+000  0.1249960E+03  0.7546771E-02  0.1235076E+00
         21   -1    0    0  503  502  0.00000000000E+00  0.00000000000E+00  0.84780327129E+03  0.84780327129E+03  0.00000000000E+00 0.  1.
         21   -1    0    0  502  503 -0.00000000000E+00 -0.00000000000E+00 -0.46071996515E+01  0.46071996515E+01  0.00000000000E+00 0.  1.
         25    2    1    2    0    0  0.00000000000E+00  0.00000000000E+00  0.84319607164E+03  0.85241047094E+03  0.12499598291E+03 0.  0.
          4    1    3    3  501    0  0.67497967889E+01  0.50157173285E+02  0.67144647982E+03  0.67335286407E+03  0.15500000000E+01 0.  1.
         -4    1    3    3    0  501 -0.67497967889E+01 -0.50157173285E+02  0.17174959182E+03  0.17905760687E+03  0.15500000000E+01 0.  1.
<mgrwt>
<rscale>  2 0.12499598E+03</rscale>
<asrwt>0</asrwt>
<pdfrwt beam="1">  1       21 0.13043115E+00 0.12499598E+03</pdfrwt>
<pdfrwt beam="2">  1       21 0.70880062E-03 0.12499598E+03</pdfrwt>
<totfact> 0.27701002E+06</totfact>
</mgrwt>
</event>
<event>
 5    0  0.1225005E+000  0.1250112E+03  0.7546771E-02  0.1235052E+00
         21   -1    0    0  503  502  0.00000000000E+00  0.00000000000E+00  0.66811336066E+03  0.66811336066E+03  0.00000000000E+00 0. -1.
         21   -1    0    0  502  503 -0.00000000000E+00 -0.00000000000E+00 -0.58477347085E+01  0.58477347085E+01  0.00000000000E+00 0. -1.
         25    2    1    2    0    0  0.00000000000E+00  0.00000000000E+00  0.66226562595E+03  0.67396109537E+03  0.12501119451E+03 0.  0.
          4    1    3    3  501    0 -0.31026326752E+02  0.37245460720E+02  0.54370567021E+03  0.54586455794E+03  0.15500000000E+01 0.  1.
         -4    1    3    3    0  501  0.31026326752E+02 -0.37245460720E+02  0.11855995574E+03  0.12809653743E+03  0.15500000000E+01 0.  1.
<mgrwt>
<rscale>  2 0.12501119E+03</rscale>
<asrwt>0</asrwt>
<pdfrwt beam="1">  1       21 0.10278661E+00 0.12501119E+03</pdfrwt>
<pdfrwt beam="2">  1       21 0.89965202E-03 0.12501119E+03</pdfrwt>
<totfact> 0.33928997E+06</totfact>
</mgrwt>
</event>
<event>
 5    0  0.1484104E+000  0.1250017E+03  0.7546771E-02  0.1235067E+00
         21   -1    0    0  503  502  0.00000000000E+00  0.00000000000E+00  0.11952428829E+03  0.11952428829E+03  0.00000000000E+00 0.  1.
         21   -1    0    0  502  503 -0.00000000000E+00 -0.00000000000E+00 -0.32682543084E+02  0.32682543084E+02  0.00000000000E+00 0.  1.
         25    2    1    2    0    0  0.00000000000E+00  0.00000000000E+00  0.86841745209E+02  0.15220683138E+03  0.12500172322E+03 0.  0.
          4    1    3    3  501    0  0.31194351400E+02 -0.54110157588E+02  0.45515241026E+02  0.77298359485E+02  0.15500000000E+01 0.  1.
         -4    1    3    3    0  501 -0.31194351400E+02  0.54110157588E+02  0.41326504183E+02  0.74908471893E+02  0.15500000000E+01 0.  1.
<mgrwt>
<rscale>  2 0.12500172E+03</rscale>
<asrwt>0</asrwt>
<pdfrwt beam="1">  1       21 0.18388352E-01 0.12500172E+03</pdfrwt>
<pdfrwt beam="2">  1       21 0.50280836E-02 0.12500172E+03</pdfrwt>
<totfact> 0.70479981E+06</totfact>
</mgrwt>
</event>
<event>
 5    0  0.1529873E+000  0.1249991E+03  0.7546771E-02  0.1235071E+00
         21   -1    0    0  503  502  0.00000000000E+00  0.00000000000E+00  0.23464406273E+02  0.23464406273E+02  0.00000000000E+00 0.  1.
         21   -1    0    0  502  503 -0.00000000000E+00 -0.00000000000E+00 -0.16647322257E+03  0.16647322257E+03  0.00000000000E+00 0.  1.
         25    2    1    2    0    0  0.00000000000E+00  0.00000000000E+00 -0.14300881629E+03  0.18993762884E+03  0.12499912524E+03 0.  0.
          4    1    3    3  501    0  0.55665088543E+02  0.21338105589E+02 -0.99926832002E+02  0.11636877196E+03  0.15500000000E+01 0.  1.
         -4    1    3    3    0  501 -0.55665088543E+02 -0.21338105589E+02 -0.43081984292E+02  0.73568856884E+02  0.15500000000E+01 0.  1.
<mgrwt>
<rscale>  2 0.12499913E+03</rscale>
<asrwt>0</asrwt>
<pdfrwt beam="1">  1       21 0.36099087E-02 0.12499913E+03</pdfrwt>
<pdfrwt beam="2">  1       21 0.25611264E-01 0.12499913E+03</pdfrwt>
<totfact> 0.66030861E+06</totfact>
</mgrwt>
</event>
<event>
 5    0  0.1328614E+000  0.1249997E+03  0.7546771E-02  0.1235070E+00
         21   -1    0    0  503  502  0.00000000000E+00  0.00000000000E+00  0.78169782824E+03  0.78169782824E+03  0.00000000000E+00 0. -1.
         21   -1    0    0  502  503 -0.00000000000E+00 -0.00000000000E+00 -0.49971082235E+01  0.49971082235E+01  0.00000000000E+00 0. -1.
         25    2    1    2    0    0  0.00000000000E+00  0.00000000000E+00  0.77670072002E+03  0.78669493646E+03  0.12499965833E+03 0.  0.
          4    1    3    3  501    0  0.56191522508E+02 -0.27265410321E+02  0.37756583553E+03  0.38269995095E+03  0.15500000000E+01 0.  1.
         -4    1    3    3    0  501 -0.56191522508E+02  0.27265410321E+02  0.39913488449E+03  0.40399498551E+03  0.15500000000E+01 0.  1.
<mgrwt>
<rscale>  2 0.12499966E+03</rscale>
<asrwt>0</asrwt>
<pdfrwt beam="1">  1       21 0.12026111E+00 0.12499966E+03</pdfrwt>
<pdfrwt beam="2">  1       21 0.76878650E-03 0.12499966E+03</pdfrwt>
<totfact> 0.29808686E+06</totfact>
</mgrwt>
</event>
<event>
 5    0  0.1222151E+000  0.1249965E+03  0.7546771E-02  0.1235075E+00
         21   -1    0    0  503  502  0.00000000000E+00  0.00000000000E+00  0.41287013885E+01  0.41287013885E+01  0.00000000000E+00 0. -1.
         21   -1    0    0  502  503 -0.00000000000E+00 -0.00000000000E+00 -0.94606817728E+03  0.94606817728E+03  0.00000000000E+00 0. -1.
         25    2    1    2    0    0  0.00000000000E+00  0.00000000000E+00 -0.94193947589E+03  0.95019687866E+03  0.12499652791E+03 0.  0.
          4    1    3    3  501    0  0.53990150186E+02  0.10217274093E+02 -0.24491384740E+03  0.25100702013E+03  0.15500000000E+01 0. -1.
         -4    1    3    3    0  501 -0.53990150186E+02 -0.10217274093E+02 -0.69702562849E+03  0.69918985853E+03  0.15500000000E+01 0. -1.
<mgrwt>
<rscale>  2 0.12499653E+03</rscale>
<asrwt>0</asrwt>
<pdfrwt beam="1">  1       21 0.63518435E-03 0.12499653E+03</pdfrwt>
<pdfrwt beam="2">  1       21 0.14554906E+00 0.12499653E+03</pdfrwt>
<totfact> 0.24908254E+06</totfact>
</mgrwt>
</event>
<event>
 5    0  0.1461543E+000  0.1250020E+03  0.7546771E-02  0.1235066E+00
         21   -1    0    0  503  502  0.00000000000E+00  0.00000000000E+00  0.14842413578E+03  0.14842413578E+03  0.00000000000E+00 0.  1.
         21   -1    0    0  502  503 -0.00000000000E+00 -0.00000000000E+00 -0.26319004660E+02  0.26319004660E+02  0.00000000000E+00 0.  1.
         25    2    1    2    0    0  0.00000000000E+00  0.00000000000E+00  0.12210513112E+03  0.17474314044E+03  0.12500200833E+03 0.  0.
          4    1    3    3  501    0  0.14075278188E+02 -0.39520243209E+02 -0.36760835453E+01  0.42141181398E+02  0.15500000000E+01 0. -1.
         -4    1    3    3    0  501 -0.14075278188E+02  0.39520243209E+02  0.12578121467E+03  0.13260195905E+03  0.15500000000E+01 0. -1.
<mgrwt>
<rscale>  2 0.12500201E+03</rscale>
<asrwt>0</asrwt>
<pdfrwt beam="1">  1       21 0.22834482E-01 0.12500201E+03</pdfrwt>
<pdfrwt beam="2">  1       21 0.40490777E-02 0.12500201E+03</pdfrwt>
<totfact> 0.67756311E+06</totfact>
</mgrwt>
</event>
<event>
 5    0  0.1328268E+000  0.1249853E+03  0.7546771E-02  0.1235092E+00
         21   -1    0    0  503  502  0.00000000000E+00  0.00000000000E+00  0.46291399562E+03  0.46291399562E+03  0.00000000000E+00 0.  1.
         21   -1    0    0  502  503 -0.00000000000E+00 -0.00000000000E+00 -0.84364043537E+01  0.84364043537E+01  0.00000000000E+00 0.  1.
         25    2    1    2    0    0  0.00000000000E+00  0.00000000000E+00  0.45447759126E+03  0.47135039997E+03  0.12498527350E+03 0.  0.
          4    1    3    3  501    0  0.69756944719E+00  0.52470350175E+02  0.35508925295E+03  0.35894902746E+03  0.15500000000E+01 0. -1.
         -4    1    3    3    0  501 -0.69756944719E+00 -0.52470350175E+02  0.99388338313E+02  0.11240137251E+03  0.15500000000E+01 0. -1.
<mgrwt>
<rscale>  2 0.12498527E+03</rscale>
<asrwt>0</asrwt>
<pdfrwt beam="1">  1       21 0.71217518E-01 0.12498527E+03</pdfrwt>
<pdfrwt beam="2">  1       21 0.12979087E-02 0.12498527E+03</pdfrwt>
<totfact> 0.43657699E+06</totfact>
</mgrwt>
</event>
<event>
 5    0  0.1440028E+000  0.1249993E+03  0.7546771E-02  0.1235070E+00
         21   -1    0    0  503  502  0.00000000000E+00  0.00000000000E+00  0.13729946178E+02  0.13729946178E+02  0.00000000000E+00 0. -1.
         21   -1    0    0  502  503 -0.00000000000E+00 -0.00000000000E+00 -0.28450281689E+03  0.28450281689E+03  0.00000000000E+00 0. -1.
         25    2    1    2    0    0  0.00000000000E+00  0.00000000000E+00 -0.27077287071E+03  0.29823276307E+03  0.12499933381E+03 0.  0.
          4    1    3    3  501    0 -0.99281656836E+01 -0.38069813027E+02 -0.19581106771E+02  0.43973871562E+02  0.15500000000E+01 0. -1.
         -4    1    3    3    0  501  0.99281656836E+01  0.38069813027E+02 -0.25119176394E+03  0.25425889150E+03  0.15500000000E+01 0. -1.
<mgrwt>
<rscale>  2 0.12499933E+03</rscale>
<asrwt>0</asrwt>
<pdfrwt beam="1">  1       21 0.21122995E-02 0.12499933E+03</pdfrwt>
<pdfrwt beam="2">  1       21 0.43769662E-01 0.12499933E+03</pdfrwt>
<totfact> 0.55604290E+06</totfact>
</mgrwt>
</event>
<event>
 5    0  0.1375527E+000  0.1250008E+03  0.7546771E-02  0.1235068E+00
         21   -1    0    0  503  502  0.00000000000E+00  0.00000000000E+00  0.31014868682E+02  0.31014868682E+02  0.00000000000E+00 0.  1.
         21   -1    0    0  502  503 -0.00000000000E+00 -0.00000000000E+00 -0.12594933938E+03  0.12594933938E+03  0.00000000000E+00 0.  1.
         25    2    1    2    0    0  0.00000000000E+00  0.00000000000E+00 -0.94934470699E+02  0.15696420806E+03  0.12500083554E+03 0.  0.
          4    1    3    3  501    0  0.47618054896E+01  0.23506428752E+02 -0.11991471253E+03  0.12229950027E+03  0.15500000000E+01 0. -1.
         -4    1    3    3    0  501 -0.47618054896E+01 -0.23506428752E+02  0.24980241836E+02  0.34664707793E+02  0.15500000000E+01 0. -1.
<mgrwt>
<rscale>  2 0.12500084E+03</rscale>
<asrwt>0</asrwt>
<pdfrwt beam="1">  1       21 0.47715183E-02 0.12500084E+03</pdfrwt>
<pdfrwt beam="2">  1       21 0.19376821E-01 0.12500084E+03</pdfrwt>
<totfact> 0.69890867E+06</totfact>
</mgrwt>
</event>
<event>
 5    0  0.1536688E+000  0.1250020E+03  0.7546771E-02  0.1235066E+00
         21   -1    0    0  503  502  0.00000000000E+00  0.00000000000E+00  0.26630963882E+02  0.26630963882E+02  0.00000000000E+00 0. -1.
         21   -1    0    0  502  503 -0.00000000000E+00 -0.00000000000E+00 -0.14668537571E+03  0.14668537571E+03  0.00000000000E+00 0. -1.
         25    2    1    2    0    0  0.00000000000E+00  0.00000000000E+00 -0.12005441183E+03  0.17331633959E+03  0.12500196707E+03 0.  0.
          4    1    3    3  501    0  0.59990704520E+02  0.15141207363E+02 -0.72100956399E+02  0.95021530207E+02  0.15500000000E+01 0.  1.
         -4    1    3    3    0  501 -0.59990704520E+02 -0.15141207363E+02 -0.47953455432E+02  0.78294809388E+02  0.15500000000E+01 0.  1.
<mgrwt>
<rscale>  2 0.12500197E+03</rscale>
<asrwt>0</asrwt>
<pdfrwt beam="1">  1       21 0.40970713E-02 0.12500197E+03</pdfrwt>
<pdfrwt beam="2">  1       21 0.22566981E-01 0.12500197E+03</pdfrwt>
<totfact> 0.67923269E+06</totfact>
</mgrwt>
</event>
<event>
 5    0  0.1393388E+000  0.1250010E+03  0.7546771E-02  0.1235068E+00
         21   -1    0    0  503  502  0.00000000000E+00  0.00000000000E+00  0.32887502483E+03  0.32887502483E+03  0.00000000000E+00 0.  1.
         21   -1    0    0  502  503 -0.00000000000E+00 -0.00000000000E+00 -0.11877805861E+02  0.11877805861E+02  0.00000000000E+00 0.  1.
         25    2    1    2    0    0  0.00000000000E+00  0.00000000000E+00  0.31699721897E+03  0.34075283069E+03  0.12500101916E+03 0.  0.
          4    1    3    3  501    0 -0.22138747625E+02 -0.40752300159E+02  0.44362919160E+02  0.64197704094E+02  0.15500000000E+01 0.  1.
         -4    1    3    3    0  501  0.22138747625E+02  0.40752300159E+02  0.27263429981E+03  0.27655512660E+03  0.15500000000E+01 0.  1.
<mgrwt>
<rscale>  2 0.12500102E+03</rscale>
<asrwt>0</asrwt>
<pdfrwt beam="1">  1       21 0.50596151E-01 0.12500102E+03</pdfrwt>
<pdfrwt beam="2">  1       21 0.18273550E-02 0.12500102E+03</pdfrwt>
<totfact> 0.52227366E+06</totfact>
</mgrwt>
</event>
<event>
 4    0  0.1809821E+000  0.1248636E+03  0.7546771E-02  0.1235283E+00
         21   -1    0    0  503  502  0.00000000000E+00  0.00000000000E+00  0.28756744007E+02  0.28756744007E+02  0.00000000000E+00 0. -1.
         21   -1    0    0  502  503 -0.00000000000E+00 -0.00000000000E+00 -0.13554134340E+03  0.13554134340E+03  0.00000000000E+00 0. -1.
          4    1    1    2  501    0  0.25156653505E+02 -0.16630288617E+02 -0.12529322875E+03  0.12888064008E+03  0.15500000000E+01 0. -1.
         -4    1    1    2    0  501 -0.25156653505E+02  0.16630288617E+02  0.18508629357E+02  0.35417447335E+02  0.15500000000E+01 0. -1.
<mgrwt>
<rscale>  2 0.12486357E+03</rscale>
<asrwt>0</asrwt>
<pdfrwt beam="1">  1       21 0.44241144E-02 0.12486357E+03</pdfrwt>
<pdfrwt beam="2">  1       21 0.20852514E-01 0.12486357E+03</pdfrwt>
<totfact> 0.69237852E+06</totfact>
</mgrwt>
</event>
<event>
 5    0  0.1380092E+000  0.1249965E+03  0.7546771E-02  0.1235075E+00
         21   -1    0    0  503  502  0.00000000000E+00  0.00000000000E+00  0.26675312434E+03  0.26675312434E+03  0.00000000000E+00 0. -1.
         21   -1    0    0  502  503 -0.00000000000E+00 -0.00000000000E+00 -0.14642881274E+02  0.14642881274E+02  0.00000000000E+00 0. -1.
         25    2    1    2    0    0  0.00000000000E+00  0.00000000000E+00  0.25211024306E+03  0.28139600561E+03  0.12499654922E+03 0.  0.
          4    1    3    3  501    0 -0.16514249747E+02 -0.31680411730E+02  0.24144605087E+03  0.24407983717E+03  0.15500000000E+01 0. -1.
         -4    1    3    3    0  501  0.16514249747E+02  0.31680411730E+02  0.10664192195E+02  0.37316168443E+02  0.15500000000E+01 0. -1.
<mgrwt>
<rscale>  2 0.12499655E+03</rscale>
<asrwt>0</asrwt>
<pdfrwt beam="1">  1       21 0.41038939E-01 0.12499655E+03</pdfrwt>
<pdfrwt beam="2">  1       21 0.22527512E-02 0.12499655E+03</pdfrwt>
<totfact> 0.57043519E+06</totfact>
</mgrwt>
</event>
<event>
 5    0  0.1306381E+000  0.1250036E+03  0.7546771E-02  0.1235064E+00
         21   -1    0    0  503  502  0.00000000000E+00  0.00000000000E+00  0.83694389217E+01  0.83694389217E+01  0.00000000000E+00 0.  1.
         21   -1    0    0  502  503 -0.00000000000E+00 -0.00000000000E+00 -0.46675469268E+03  0.46675469268E+03  0.00000000000E+00 0.  1.
         25    2    1    2    0    0  0.00000000000E+00  0.00000000000E+00 -0.45838525376E+03  0.47512413160E+03  0.12500359822E+03 0.  0.
          4    1    3    3  501    0 -0.45545713452E+02 -0.41215525915E+02 -0.27268589798E+03  0.27952304565E+03  0.15500000000E+01 0. -1.
         -4    1    3    3    0  501  0.45545713452E+02  0.41215525915E+02 -0.18569935577E+03  0.19560108595E+03  0.15500000000E+01 0. -1.
<mgrwt>
<rscale>  2 0.12500360E+03</rscale>
<asrwt>0</asrwt>
<pdfrwt beam="1">  1       21 0.12876055E-02 0.12500360E+03</pdfrwt>
<pdfrwt beam="2">  1       21 0.71808440E-01 0.12500360E+03</pdfrwt>
<totfact> 0.43422187E+06</totfact>
</mgrwt>
</event>
<event>
 5    0  0.1366694E+000  0.1249987E+03  0.7546771E-02  0.1235071E+00
         21   -1    0    0  503  502  0.00000000000E+00  0.00000000000E+00  0.15763423975E+02  0.15763423975E+02  0.00000000000E+00 0.  1.
         21   -1    0    0  502  503 -0.00000000000E+00 -0.00000000000E+00 -0.24779961462E+03  0.24779961462E+03  0.00000000000E+00 0.  1.
         25    2    1    2    0    0  0.00000000000E+00  0.00000000000E+00 -0.23203619065E+03  0.26356303860E+03  0.12499872617E+03 0.  0.
          4    1    3    3  501    0  0.45077496601E+02  0.61952275237E+01 -0.20630157378E+03  0.21126548082E+03  0.15500000000E+01 0.  1.
         -4    1    3    3    0  501 -0.45077496601E+02 -0.61952275237E+01 -0.25734616872E+02  0.52297557777E+02  0.15500000000E+01 0.  1.
<mgrwt>
<rscale>  2 0.12499873E+03</rscale>
<asrwt>0</asrwt>
<pdfrwt beam="1">  1       21 0.24251424E-02 0.12499873E+03</pdfrwt>
<pdfrwt beam="2">  1       21 0.38123014E-01 0.12499873E+03</pdfrwt>
<totfact> 0.58626114E+06</totfact>
</mgrwt>
</event>
<event>
 5    0  0.1543886E+000  0.1250021E+03  0.7546771E-02  0.1235066E+00
         21   -1    0    0  503  502  0.00000000000E+00  0.00000000000E+00  0.13485943974E+03  0.13485943974E+03  0.00000000000E+00 0.  1.
         21   -1    0    0  502  503 -0.00000000000E+00 -0.00000000000E+00 -0.28966322891E+02  0.28966322891E+02  0.00000000000E+00 0.  1.
         25    2    1    2    0    0  0.00000000000E+00  0.00000000000E+00  0.10589311684E+03  0.16382576263E+03  0.12500211320E+03 0.  0.
          4    1    3    3  501    0  0.40758833217E+02  0.43557895761E+02  0.77303922624E+02  0.97656908211E+02  0.15500000000E+01 0. -1.
         -4    1    3    3    0  501 -0.40758833217E+02 -0.43557895761E+02  0.28589194221E+02  0.66168854415E+02  0.15500000000E+01 0. -1.
<mgrwt>
<rscale>  2 0.12500211E+03</rscale>
<asrwt>0</asrwt>
<pdfrwt beam="1">  1       21 0.20747606E-01 0.12500211E+03</pdfrwt>
<pdfrwt beam="2">  1       21 0.44563574E-02 0.12500211E+03</pdfrwt>
<totfact> 0.69051316E+06</totfact>
</mgrwt>
</event>
<event>
 5    0  0.1504797E+000  0.1249996E+03  0.7546771E-02  0.1235070E+00
         21   -1    0    0  503  502  0.00000000000E+00  0.00000000000E+00  0.27073079626E+03  0.27073079626E+03  0.00000000000E+00 0. -1.
         21   -1    0    0  502  503 -0.00000000000E+00 -0.00000000000E+00 -0.14428447723E+02  0.14428447723E+02  0.00000000000E+00 0. -1.
         25    2    1    2    0    0  0.00000000000E+00  0.00000000000E+00  0.25630234854E+03  0.28515924399E+03  0.12499960225E+03 0.  0.
          4    1    3    3  501    0  0.39739453930E+02 -0.43283921633E+02  0.17660359855E+03  0.18612886824E+03  0.15500000000E+01 0.  1.
         -4    1    3    3    0  501 -0.39739453930E+02  0.43283921633E+02  0.79698749987E+02  0.99030375745E+02  0.15500000000E+01 0.  1.
<mgrwt>
<rscale>  2 0.12499960E+03</rscale>
<asrwt>0</asrwt>
<pdfrwt beam="1">  1       21 0.41650888E-01 0.12499960E+03</pdfrwt>
<pdfrwt beam="2">  1       21 0.22197614E-02 0.12499960E+03</pdfrwt>
<totfact> 0.56713068E+06</totfact>
</mgrwt>
</event>
<event>
 5    0  0.1222151E+000  0.1249914E+03  0.7546771E-02  0.1235083E+00
         21   -1    0    0  503  502  0.00000000000E+00  0.00000000000E+00  0.36984425589E+01  0.36984425589E+01  0.00000000000E+00 0. -1.
         21   -1    0    0  502  503 -0.00000000000E+00 -0.00000000000E+00 -0.10560428370E+04  0.10560428370E+04  0.00000000000E+00 0. -1.
         25    2    1    2    0    0  0.00000000000E+00  0.00000000000E+00 -0.10523443945E+04  0.10597412796E+04  0.12499142007E+03 0.  0.
          4    1    3    3  501    0 -0.47249188230E+02 -0.38883381111E+02 -0.63305128672E+03  0.63600372423E+03  0.15500000000E+01 0. -1.
         -4    1    3    3    0  501  0.47249188230E+02  0.38883381111E+02 -0.41929310775E+03  0.42373755536E+03  0.15500000000E+01 0. -1.
<mgrwt>
<rscale>  2 0.12499142E+03</rscale>
<asrwt>0</asrwt>
<pdfrwt beam="1">  1       21 0.56899053E-03 0.12499142E+03</pdfrwt>
<pdfrwt beam="2">  1       21 0.16246831E+00 0.12499142E+03</pdfrwt>
<totfact> 0.22174372E+06</totfact>
</mgrwt>
</event>
<event>
 5    0  0.1222151E+000  0.1250242E+03  0.7546771E-02  0.1235031E+00
         21   -1    0    0  503  502  0.00000000000E+00  0.00000000000E+00  0.36934392039E+01  0.36934392039E+01  0.00000000000E+00 0. -1.
         21   -1    0    0  502  503 -0.00000000000E+00 -0.00000000000E+00 -0.10580288538E+04  0.10580288538E+04  0.00000000000E+00 0. -1.
         25    2    1    2    0    0  0.00000000000E+00  0.00000000000E+00 -0.10543354146E+04  0.10617222930E+04  0.12502424161E+03 0.  0.
          4    1    3    3  501    0  0.56220989601E+02 -0.59630051253E+01 -0.30104636533E+03  0.30631303217E+03  0.15500000000E+01 0.  1.
         -4    1    3    3    0  501 -0.56220989601E+02  0.59630051253E+01 -0.75328904928E+03  0.75540926084E+03  0.15500000000E+01 0.  1.
<mgrwt>
<rscale>  2 0.12502424E+03</rscale>
<asrwt>0</asrwt>
<pdfrwt beam="1">  1       21 0.56822157E-03 0.12502424E+03</pdfrwt>
<pdfrwt beam="2">  1       21 0.16277363E+00 0.12502424E+03</pdfrwt>
<totfact> 0.22110138E+06</totfact>
</mgrwt>
</event>
<event>
 5    0  0.1471281E+000  0.1250000E+03  0.7546771E-02  0.1235069E+00
         21   -1    0    0  503  502  0.00000000000E+00  0.00000000000E+00  0.51521153765E+02  0.51521153765E+02  0.00000000000E+00 0. -1.
         21   -1    0    0  502  503 -0.00000000000E+00 -0.00000000000E+00 -0.75818311657E+02  0.75818311657E+02  0.00000000000E+00 0. -1.
         25    2    1    2    0    0  0.00000000000E+00  0.00000000000E+00 -0.24297157892E+02  0.12733946542E+03  0.12499995029E+03 0.  0.
          4    1    3    3  501    0 -0.36652606143E+01 -0.31459565919E+02  0.42717640530E+02  0.53200918560E+02  0.15500000000E+01 0. -1.
         -4    1    3    3    0  501  0.36652606143E+01  0.31459565919E+02 -0.67014798422E+02  0.74138546862E+02  0.15500000000E+01 0. -1.
<mgrwt>
<rscale>  2 0.12499995E+03</rscale>
<asrwt>0</asrwt>
<pdfrwt beam="1">  1       21 0.79263314E-02 0.12499995E+03</pdfrwt>
<pdfrwt beam="2">  1       21 0.11664356E-01 0.12499995E+03</pdfrwt>
<totfact> 0.73723087E+06</totfact>
</mgrwt>
</event>
<event>
 5    0  0.1222151E+000  0.1249986E+03  0.7546771E-02  0.1235072E+00
         21   -1    0    0  503  502  0.00000000000E+00  0.00000000000E+00  0.69123832982E+03  0.69123832982E+03  0.00000000000E+00 0. -1.
         21   -1    0    0  502  503 -0.00000000000E+00 -0.00000000000E+00 -0.56509602308E+01  0.56509602308E+01  0.00000000000E+00 0. -1.
         25    2    1    2    0    0  0.00000000000E+00  0.00000000000E+00  0.68558736959E+03  0.69688929005E+03  0.12499856498E+03 0.  0.
          4    1    3    3  501    0 -0.16362301199E+02  0.21863135849E+02  0.29488692481E+02  0.40220729654E+02  0.15500000000E+01 0. -1.
         -4    1    3    3    0  501  0.16362301199E+02 -0.21863135849E+02  0.65609867711E+03  0.65666856040E+03  0.15500000000E+01 0. -1.
<mgrwt>
<rscale>  2 0.12499856E+03</rscale>
<asrwt>0</asrwt>
<pdfrwt beam="1">  1       21 0.10634429E+00 0.12499856E+03</pdfrwt>
<pdfrwt beam="2">  1       21 0.86937904E-03 0.12499856E+03</pdfrwt>
<totfact> 0.33031605E+06</totfact>
</mgrwt>
</event>
<event>
 5    0  0.1400495E+000  0.1250210E+03  0.7546771E-02  0.1235036E+00
         21   -1    0    0  503  502  0.00000000000E+00  0.00000000000E+00  0.14689629105E+02  0.14689629105E+02  0.00000000000E+00 0. -1.
         21   -1    0    0  502  503 -0.00000000000E+00 -0.00000000000E+00 -0.26600829042E+03  0.26600829042E+03  0.00000000000E+00 0. -1.
         25    2    1    2    0    0  0.00000000000E+00  0.00000000000E+00 -0.25131866131E+03  0.28069791952E+03  0.12502100824E+03 0.  0.
          4    1    3    3  501    0 -0.43626254474E+02  0.18115289174E+01 -0.22603357279E+03  0.23021752810E+03  0.15500000000E+01 0. -1.
         -4    1    3    3    0  501  0.43626254474E+02 -0.18115289174E+01 -0.25285088522E+02  0.50480391421E+02  0.15500000000E+01 0. -1.
<mgrwt>
<rscale>  2 0.12502101E+03</rscale>
<asrwt>0</asrwt>
<pdfrwt beam="1">  1       21 0.22599430E-02 0.12502101E+03</pdfrwt>
<pdfrwt beam="2">  1       21 0.40924351E-01 0.12502101E+03</pdfrwt>
<totfact> 0.57069230E+06</totfact>
</mgrwt>
</event>
<event>
 5    0  0.1313132E+000  0.1249440E+03  0.7546771E-02  0.1235157E+00
         21   -1    0    0  503  502  0.00000000000E+00  0.00000000000E+00  0.82210353879E+02  0.82210353879E+02  0.00000000000E+00 0.  1.
         21   -1    0    0  502  503 -0.00000000000E+00 -0.00000000000E+00 -0.47472771877E+02  0.47472771877E+02  0.00000000000E+00 0.  1.
         25    2    1    2    0    0  0.00000000000E+00  0.00000000000E+00  0.34737582002E+02  0.12968312576E+03  0.12494404148E+03 0.  0.
          4    1    3    3  501    0  0.39845744981E+02  0.41200103882E+02 -0.83756082832E+01  0.57945537077E+02  0.15500000000E+01 0.  1.
         -4    1    3    3    0  501 -0.39845744981E+02 -0.41200103882E+02  0.43113190285E+02  0.71737588679E+02  0.15500000000E+01 0.  1.
<mgrwt>
<rscale>  2 0.12494404E+03</rscale>
<asrwt>0</asrwt>
<pdfrwt beam="1">  1       21 0.12647747E-01 0.12494404E+03</pdfrwt>
<pdfrwt beam="2">  1       21 0.73035034E-02 0.12494404E+03</pdfrwt>
<totfact> 0.73512265E+06</totfact>
</mgrwt>
</event>
<event>
 5    0  0.1496475E+000  0.1249988E+03  0.7546771E-02  0.1235071E+00
         21   -1    0    0  503  502  0.00000000000E+00  0.00000000000E+00  0.16395844920E+03  0.16395844920E+03  0.00000000000E+00 0. -1.
         21   -1    0    0  502  503 -0.00000000000E+00 -0.00000000000E+00 -0.23824159776E+02  0.23824159776E+02  0.00000000000E+00 0. -1.
         25    2    1    2    0    0  0.00000000000E+00  0.00000000000E+00  0.14013428942E+03  0.18778260898E+03  0.12499875664E+03 0.  0.
          4    1    3    3  501    0  0.49040330046E+02  0.28050254971E+02  0.29981453921E+02  0.63977033802E+02  0.15500000000E+01 0. -1.
         -4    1    3    3    0  501 -0.49040330046E+02 -0.28050254971E+02  0.11015283550E+03  0.12380557517E+03  0.15500000000E+01 0. -1.
<mgrwt>
<rscale>  2 0.12499876E+03</rscale>
<asrwt>0</asrwt>
<pdfrwt beam="1">  1       21 0.25224376E-01 0.12499876E+03</pdfrwt>
<pdfrwt beam="2">  1       21 0.36652555E-02 0.12499876E+03</pdfrwt>
<totfact> 0.66271847E+06</totfact>
</mgrwt>
</event>
<event>
 5    0  0.1468378E+000  0.1249963E+03  0.7546771E-02  0.1235075E+00
         21   -1    0    0  503  502  0.00000000000E+00  0.00000000000E+00  0.31053126005E+02  0.31053126005E+02  0.00000000000E+00 0. -1.
         21   -1    0    0  502  503 -0.00000000000E+00 -0.00000000000E+00 -0.12578495850E+03  0.12578495850E+03  0.00000000000E+00 0. -1.
         25    2    1    2    0    0  0.00000000000E+00  0.00000000000E+00 -0.94731832493E+02  0.15683808450E+03  0.12499625860E+03 0.  0.
          4    1    3    3  501    0  0.12538602681E+02 -0.23257809865E+02  0.23673677324E+02  0.35510389676E+02  0.15500000000E+01 0.  1.
         -4    1    3    3    0  501 -0.12538602681E+02  0.23257809865E+02 -0.11840550982E+03  0.12132769483E+03  0.15500000000E+01 0.  1.
<mgrwt>
<rscale>  2 0.12499626E+03</rscale>
<asrwt>0</asrwt>
<pdfrwt beam="1">  1       21 0.47774040E-02 0.12499626E+03</pdfrwt>
<pdfrwt beam="2">  1       21 0.19351532E-01 0.12499626E+03</pdfrwt>
<totfact> 0.69914578E+06</totfact>
</mgrwt>
</event>
<event>
 5    0  0.1505125E+000  0.1250149E+03  0.7546771E-02  0.1235046E+00
         21   -1    0    0  503  502  0.00000000000E+00  0.00000000000E+00  0.82601590174E+02  0.82601590174E+02  0.00000000000E+00 0. -1.
         21   -1    0    0  502  503 -0.00000000000E+00 -0.00000000000E+00 -0.47301497560E+02  0.47301497560E+02  0.00000000000E+00 0. -1.
         25    2    1    2    0    0  0.00000000000E+00  0.00000000000E+00  0.35300092614E+02  0.12990308773E+03  0.12501486177E+03 0.  0.
          4    1    3    3  501    0  0.19639231501E+02 -0.24308126941E+02  0.73878689180E+02  0.80231213778E+02  0.15500000000E+01 0.  1.
         -4    1    3    3    0  501 -0.19639231501E+02  0.24308126941E+02 -0.38578596566E+02  0.49671873957E+02  0.15500000000E+01 0.  1.
<mgrwt>
<rscale>  2 0.12501486E+03</rscale>
<asrwt>0</asrwt>
<pdfrwt beam="1">  1       21 0.12707937E-01 0.12501486E+03</pdfrwt>
<pdfrwt beam="2">  1       21 0.72771535E-02 0.12501486E+03</pdfrwt>
<totfact> 0.73350035E+06</totfact>
</mgrwt>
</event>
<event>
 5    0  0.1552132E+000  0.1250019E+03  0.7546771E-02  0.1235066E+00
         21   -1    0    0  503  502  0.00000000000E+00  0.00000000000E+00  0.11586368599E+03  0.11586368599E+03  0.00000000000E+00 0. -1.
         21   -1    0    0  502  503 -0.00000000000E+00 -0.00000000000E+00 -0.33715228598E+02  0.33715228598E+02  0.00000000000E+00 0. -1.
         25    2    1    2    0    0  0.00000000000E+00  0.00000000000E+00  0.82148457389E+02  0.14957891459E+03  0.12500193053E+03 0.  0.
          4    1    3    3  501    0 -0.48702391628E+02 -0.34953243178E+02  0.62153507186E+02  0.86366157229E+02  0.15500000000E+01 0. -1.
         -4    1    3    3    0  501  0.48702391628E+02  0.34953243178E+02  0.19994950203E+02  0.63212757356E+02  0.15500000000E+01 0. -1.
<mgrwt>
<rscale>  2 0.12500193E+03</rscale>
<asrwt>0</asrwt>
<pdfrwt beam="1">  1       21 0.17825182E-01 0.12500193E+03</pdfrwt>
<pdfrwt beam="2">  1       21 0.51869583E-02 0.12500193E+03</pdfrwt>
<totfact> 0.70808657E+06</totfact>
</mgrwt>
</event>
<event>
 5    0  0.1374076E+000  0.1249949E+03  0.7546771E-02  0.1235077E+00
         21   -1    0    0  503  502  0.00000000000E+00  0.00000000000E+00  0.52124013011E+03  0.52124013011E+03  0.00000000000E+00 0. -1.
         21   -1    0    0  502  503 -0.00000000000E+00 -0.00000000000E+00 -0.74935327979E+01  0.74935327979E+01  0.00000000000E+00 0. -1.
         25    2    1    2    0    0  0.00000000000E+00  0.00000000000E+00  0.51374659732E+03  0.52873366291E+03  0.12499488006E+03 0.  0.
          4    1    3    3  501    0 -0.47377153054E+02  0.33328509152E+02  0.15783758969E+03  0.16813831025E+03  0.15500000000E+01 0.  1.
         -4    1    3    3    0  501  0.47377153054E+02 -0.33328509152E+02  0.35590900762E+03  0.36059535266E+03  0.15500000000E+01 0.  1.
<mgrwt>
<rscale>  2 0.12499488E+03</rscale>
<asrwt>0</asrwt>
<pdfrwt beam="1">  1       21 0.80190761E-01 0.12499488E+03</pdfrwt>
<pdfrwt beam="2">  1       21 0.11528516E-02 0.12499488E+03</pdfrwt>
<totfact> 0.40532628E+06</totfact>
</mgrwt>
</event>
<event>
 5    0  0.1366880E+000  0.1250005E+03  0.7546771E-02  0.1235069E+00
         21   -1    0    0  503  502  0.00000000000E+00  0.00000000000E+00  0.35684368696E+03  0.35684368696E+03  0.00000000000E+00 0. -1.
         21   -1    0    0  502  503 -0.00000000000E+00 -0.00000000000E+00 -0.10946749038E+02  0.10946749038E+02  0.00000000000E+00 0. -1.
         25    2    1    2    0    0  0.00000000000E+00  0.00000000000E+00  0.34589693792E+03  0.36779043600E+03  0.12500045259E+03 0.  0.
          4    1    3    3  501    0 -0.28631246907E+01  0.41783541917E+02  0.30937199883E+03  0.31219785076E+03  0.15500000000E+01 0. -1.
         -4    1    3    3    0  501  0.28631246907E+01 -0.41783541917E+02  0.36524939097E+02  0.55592585244E+02  0.15500000000E+01 0. -1.
<mgrwt>
<rscale>  2 0.12500045E+03</rscale>
<asrwt>0</asrwt>
<pdfrwt beam="1">  1       21 0.54899020E-01 0.12500045E+03</pdfrwt>
<pdfrwt beam="2">  1       21 0.16841155E-02 0.12500045E+03</pdfrwt>
<totfact> 0.50250235E+06</totfact>
</mgrwt>
</event>
<event>
 5    0  0.1397498E+000  0.1250004E+03  0.7546771E-02  0.1235069E+00
         21   -1    0    0  503  502  0.00000000000E+00  0.00000000000E+00  0.15385961811E+02  0.15385961811E+02  0.00000000000E+00 0.  1.
         21   -1    0    0  502  503 -0.00000000000E+00 -0.00000000000E+00 -0.25388558023E+03  0.25388558023E+03  0.00000000000E+00 0.  1.
         25    2    1    2    0    0  0.00000000000E+00  0.00000000000E+00 -0.23849961842E+03  0.26927154204E+03  0.12500038147E+03 0.  0.
          4    1    3    3  501    0  0.14086744761E+02  0.44972246230E+02 -0.20762134600E+03  0.21290834912E+03  0.15500000000E+01 0. -1.
         -4    1    3    3    0  501 -0.14086744761E+02 -0.44972246230E+02 -0.30878272417E+02  0.56363192923E+02  0.15500000000E+01 0. -1.
<mgrwt>
<rscale>  2 0.12500038E+03</rscale>
<asrwt>0</asrwt>
<pdfrwt beam="1">  1       21 0.23670712E-02 0.12500038E+03</pdfrwt>
<pdfrwt beam="2">  1       21 0.39059317E-01 0.12500038E+03</pdfrwt>
<totfact> 0.58109209E+06</totfact>
</mgrwt>
</event>
<event>
 4    0  0.1540720E+000  0.1253712E+03  0.7546771E-02  0.1234490E+00
         21   -1    0    0  503  502  0.00000000000E+00  0.00000000000E+00  0.15573300858E+03  0.15573300858E+03  0.00000000000E+00 0.  1.
         21   -1    0    0  502  503 -0.00000000000E+00 -0.00000000000E+00 -0.25232193828E+02  0.25232193828E+02  0.00000000000E+00 0.  1.
          4    1    1    2  501    0 -0.44575761141E+02  0.41060263336E+02  0.42239533743E+02  0.73888594637E+02  0.15500000000E+01 0. -1.
         -4    1    1    2    0  501  0.44575761141E+02 -0.41060263336E+02  0.88261281010E+02  0.10707660777E+03  0.15500000000E+01 0. -1.
<mgrwt>
<rscale>  2 0.12537122E+03</rscale>
<asrwt>0</asrwt>
<pdfrwt beam="1">  1       21 0.23958924E-01 0.12537122E+03</pdfrwt>
<pdfrwt beam="2">  1       21 0.38818761E-02 0.12537122E+03</pdfrwt>
<totfact> 0.66413613E+06</totfact>
</mgrwt>
</event>
<event>
 5    0  0.1409907E+000  0.1250089E+03  0.7546771E-02  0.1235055E+00
         21   -1    0    0  503  502  0.00000000000E+00  0.00000000000E+00  0.36143292560E+03  0.36143292560E+03  0.00000000000E+00 0. -1.
         21   -1    0    0  502  503 -0.00000000000E+00 -0.00000000000E+00 -0.10809210906E+02  0.10809210906E+02  0.00000000000E+00 0. -1.
         25    2    1    2    0    0  0.00000000000E+00  0.00000000000E+00  0.35062371469E+03  0.37224213650E+03  0.12500887522E+03 0.  0.
          4    1    3    3  501    0 -0.53364762179E+01  0.61530575036E+02  0.14707639453E+03  0.15952541481E+03  0.15500000000E+01 0. -1.
         -4    1    3    3    0  501  0.53364762179E+01 -0.61530575036E+02  0.20354732016E+03  0.21271672169E+03  0.15500000000E+01 0. -1.
<mgrwt>
<rscale>  2 0.12500888E+03</rscale>
<asrwt>0</asrwt>
<pdfrwt beam="1">  1       21 0.55605056E-01 0.12500888E+03</pdfrwt>
<pdfrwt beam="2">  1       21 0.16629558E-02 0.12500888E+03</pdfrwt>
<totfact> 0.49925492E+06</totfact>
</mgrwt>
</event>
<event>
 5    0  0.1222151E+000  0.1249940E+03  0.7546771E-02  0.1235079E+00
         21   -1    0    0  503  502  0.00000000000E+00  0.00000000000E+00  0.19192592955E+04  0.19192592955E+04  0.00000000000E+00 0. -1.
         21   -1    0    0  502  503 -0.00000000000E+00 -0.00000000000E+00 -0.20350963725E+01  0.20350963725E+01  0.00000000000E+00 0. -1.
         25    2    1    2    0    0  0.00000000000E+00  0.00000000000E+00  0.19172241991E+04  0.19212943918E+04  0.12499404194E+03 0.  0.
          4    1    3    3  501    0 -0.26619017284E+02 -0.40670166793E+02  0.15619817441E+04  0.15627386237E+04  0.15500000000E+01 0.  1.
         -4    1    3    3    0  501  0.26619017284E+02  0.40670166793E+02  0.35524245501E+03  0.35855576818E+03  0.15500000000E+01 0.  1.
<mgrwt>
<rscale>  2 0.12499404E+03</rscale>
<asrwt>0</asrwt>
<pdfrwt beam="1">  1       21 0.29526921E+00 0.12499404E+03</pdfrwt>
<pdfrwt beam="2">  1       21 0.31309328E-03 0.12499404E+03</pdfrwt>
<totfact> 0.87426650E+05</totfact>
</mgrwt>
</event>
<event>
 5    0  0.1465138E+000  0.1249984E+03  0.7546771E-02  0.1235072E+00
         21   -1    0    0  503  502  0.00000000000E+00  0.00000000000E+00  0.12863573993E+02  0.12863573993E+02  0.00000000000E+00 0. -1.
         21   -1    0    0  502  503 -0.00000000000E+00 -0.00000000000E+00 -0.30365983203E+03  0.30365983203E+03  0.00000000000E+00 0. -1.
         25    2    1    2    0    0  0.00000000000E+00  0.00000000000E+00 -0.29079625803E+03  0.31652340602E+03  0.12499841148E+03 0.  0.
          4    1    3    3  501    0  0.14900368802E+02  0.56607983953E+02 -0.90078355560E+02  0.10743834268E+03  0.15500000000E+01 0. -1.
         -4    1    3    3    0  501 -0.14900368802E+02 -0.56607983953E+02 -0.20071790247E+03  0.20908506334E+03  0.15500000000E+01 0. -1.
<mgrwt>
<rscale>  2 0.12499841E+03</rscale>
<asrwt>0</asrwt>
<pdfrwt beam="1">  1       21 0.19790114E-02 0.12499841E+03</pdfrwt>
<pdfrwt beam="2">  1       21 0.46716896E-01 0.12499841E+03</pdfrwt>
<totfact> 0.54112157E+06</totfact>
</mgrwt>
</event>
<event>
 5    0  0.1503980E+000  0.1249947E+03  0.7546771E-02  0.1235078E+00
         21   -1    0    0  503  502  0.00000000000E+00  0.00000000000E+00  0.31412804585E+02  0.31412804585E+02  0.00000000000E+00 0.  1.
         21   -1    0    0  502  503 -0.00000000000E+00 -0.00000000000E+00 -0.12434151591E+03  0.12434151591E+03  0.00000000000E+00 0.  1.
         25    2    1    2    0    0  0.00000000000E+00  0.00000000000E+00 -0.92928711327E+02  0.15575432050E+03  0.12499465174E+03 0.  0.
          4    1    3    3  501    0  0.42823348200E+02  0.72714961968E+01  0.94959434144E+01  0.44489203739E+02  0.15500000000E+01 0. -1.
         -4    1    3    3    0  501 -0.42823348200E+02 -0.72714961968E+01 -0.10242465474E+03  0.11126511676E+03  0.15500000000E+01 0. -1.
<mgrwt>
<rscale>  2 0.12499465E+03</rscale>
<asrwt>0</asrwt>
<pdfrwt beam="1">  1       21 0.48327391E-02 0.12499465E+03</pdfrwt>
<pdfrwt beam="2">  1       21 0.19129464E-01 0.12499465E+03</pdfrwt>
<totfact> 0.70051556E+06</totfact>
</mgrwt>
</event>
<event>
 5    0  0.1304785E+000  0.1250089E+03  0.7546771E-02  0.1235055E+00
         21   -1    0    0  503  502  0.00000000000E+00  0.00000000000E+00  0.13393394581E+02  0.13393394581E+02  0.00000000000E+00 0.  1.
         21   -1    0    0  502  503 -0.00000000000E+00 -0.00000000000E+00 -0.29169654323E+03  0.29169654323E+03  0.00000000000E+00 0.  1.
         25    2    1    2    0    0  0.00000000000E+00  0.00000000000E+00 -0.27830314865E+03  0.30508993782E+03  0.12500891010E+03 0.  0.
          4    1    3    3  501    0  0.28039463293E+02  0.28524862465E+01 -0.27525562028E+03  0.27669912753E+03  0.15500000000E+01 0.  1.
         -4    1    3    3    0  501 -0.28039463293E+02 -0.28524862465E+01 -0.30475283746E+01  0.28390810287E+02  0.15500000000E+01 0.  1.
<mgrwt>
<rscale>  2 0.12500891E+03</rscale>
<asrwt>0</asrwt>
<pdfrwt beam="1">  1       21 0.20605224E-02 0.12500891E+03</pdfrwt>
<pdfrwt beam="2">  1       21 0.44876388E-01 0.12500891E+03</pdfrwt>
<totfact> 0.55023501E+06</totfact>
</mgrwt>
</event>
<event>
 5    0  0.1452037E+000  0.1250005E+03  0.7546771E-02  0.1235068E+00
         21   -1    0    0  503  502  0.00000000000E+00  0.00000000000E+00  0.23275517654E+02  0.23275517654E+02  0.00000000000E+00 0. -1.
         21   -1    0    0  502  503 -0.00000000000E+00 -0.00000000000E+00 -0.16782801399E+03  0.16782801399E+03  0.00000000000E+00 0. -1.
         25    2    1    2    0    0  0.00000000000E+00  0.00000000000E+00 -0.14455249634E+03  0.19110353165E+03  0.12500054244E+03 0.  0.
          4    1    3    3  501    0 -0.17696508505E+01  0.41952540524E+02 -0.14301187022E+03  0.14905685105E+03  0.15500000000E+01 0. -1.
         -4    1    3    3    0  501  0.17696508505E+01 -0.41952540524E+02 -0.15406261192E+01  0.42046680599E+02  0.15500000000E+01 0. -1.
<mgrwt>
<rscale>  2 0.12500054E+03</rscale>
<asrwt>0</asrwt>
<pdfrwt beam="1">  1       21 0.35808489E-02 0.12500054E+03</pdfrwt>
<pdfrwt beam="2">  1       21 0.25819694E-01 0.12500054E+03</pdfrwt>
<totfact> 0.65899121E+06</totfact>
</mgrwt>
</event>
<event>
 5    0  0.1541826E+000  0.1250064E+03  0.7546771E-02  0.1235059E+00
         21   -1    0    0  503  502  0.00000000000E+00  0.00000000000E+00  0.27857399913E+02  0.27857399913E+02  0.00000000000E+00 0. -1.
         21   -1    0    0  502  503 -0.00000000000E+00 -0.00000000000E+00 -0.14023751105E+03  0.14023751105E+03  0.00000000000E+00 0. -1.
         25    2    1    2    0    0  0.00000000000E+00  0.00000000000E+00 -0.11238011114E+03  0.16809491097E+03  0.12500643869E+03 0.  0.
          4    1    3    3  501    0 -0.21938075575E+02  0.57487638190E+02 -0.70805928317E+02  0.93818919678E+02  0.15500000000E+01 0.  1.
         -4    1    3    3    0  501  0.21938075575E+02 -0.57487638190E+02 -0.41574182823E+02  0.74275991289E+02  0.15500000000E+01 0.  1.
<mgrwt>
<rscale>  2 0.12500644E+03</rscale>
<asrwt>0</asrwt>
<pdfrwt beam="1">  1       21 0.42857539E-02 0.12500644E+03</pdfrwt>
<pdfrwt beam="2">  1       21 0.21575002E-01 0.12500644E+03</pdfrwt>
<totfact> 0.68532453E+06</totfact>
</mgrwt>
</event>
<event>
 5    0  0.1524870E+000  0.1250009E+03  0.7546771E-02  0.1235068E+00
         21   -1    0    0  503  502  0.00000000000E+00  0.00000000000E+00  0.22831611836E+02  0.22831611836E+02  0.00000000000E+00 0. -1.
         21   -1    0    0  502  503 -0.00000000000E+00 -0.00000000000E+00 -0.17109198524E+03  0.17109198524E+03  0.00000000000E+00 0. -1.
         25    2    1    2    0    0  0.00000000000E+00  0.00000000000E+00 -0.14826037341E+03  0.19392359708E+03  0.12500089272E+03 0.  0.
          4    1    3    3  501    0  0.48151459439E+02  0.28269843069E+02 -0.11762845540E+03  0.13021752222E+03  0.15500000000E+01 0. -1.
         -4    1    3    3    0  501 -0.48151459439E+02 -0.28269843069E+02 -0.30631918006E+02  0.63706074859E+02  0.15500000000E+01 0. -1.
<mgrwt>
<rscale>  2 0.12500089E+03</rscale>
<asrwt>0</asrwt>
<pdfrwt beam="1">  1       21 0.35125556E-02 0.12500089E+03</pdfrwt>
<pdfrwt beam="2">  1       21 0.26321844E-01 0.12500089E+03</pdfrwt>
<totfact> 0.65587540E+06</totfact>
</mgrwt>
</event>
<event>
 5    0  0.1587618E+000  0.1249941E+03  0.7546771E-02  0.1235079E+00
         21   -1    0    0  503  502  0.00000000000E+00  0.00000000000E+00  0.18472155204E+03  0.18472155204E+03  0.00000000000E+00 0. -1.
         21   -1    0    0  502  503 -0.00000000000E+00 -0.00000000000E+00 -0.21144681195E+02  0.21144681195E+02  0.00000000000E+00 0. -1.
         25    2    1    2    0    0  0.00000000000E+00  0.00000000000E+00  0.16357687084E+03  0.20586623323E+03  0.12499405310E+03 0.  0.
          4    1    3    3  501    0 -0.40440232521E+02 -0.47368395719E+02  0.89907118228E+02  0.10938404695E+03  0.15500000000E+01 0.  1.
         -4    1    3    3    0  501  0.40440232521E+02  0.47368395719E+02  0.73669752617E+02  0.96482186283E+02  0.15500000000E+01 0.  1.
<mgrwt>
<rscale>  2 0.12499405E+03</rscale>
<asrwt>0</asrwt>
<pdfrwt beam="1">  1       21 0.28418699E-01 0.12499405E+03</pdfrwt>
<pdfrwt beam="2">  1       21 0.32530280E-02 0.12499405E+03</pdfrwt>
<totfact> 0.64306773E+06</totfact>
</mgrwt>
</event>
<event>
 5    0  0.1372137E+000  0.1250010E+03  0.7546771E-02  0.1235068E+00
         21   -1    0    0  503  502  0.00000000000E+00  0.00000000000E+00  0.12754770503E+02  0.12754770503E+02  0.00000000000E+00 0.  1.
         21   -1    0    0  502  503 -0.00000000000E+00 -0.00000000000E+00 -0.30626294278E+03  0.30626294278E+03  0.00000000000E+00 0.  1.
         25    2    1    2    0    0  0.00000000000E+00  0.00000000000E+00 -0.29350817228E+03  0.31901771329E+03  0.12500101678E+03 0.  0.
          4    1    3    3  501    0  0.25639059060E+02 -0.30439206354E+02 -0.23827546123E+02  0.46411863646E+02  0.15500000000E+01 0. -1.
         -4    1    3    3    0  501 -0.25639059060E+02  0.30439206354E+02 -0.26968062616E+03  0.27260584964E+03  0.15500000000E+01 0. -1.
<mgrwt>
<rscale>  2 0.12500102E+03</rscale>
<asrwt>0</asrwt>
<pdfrwt beam="1">  1       21 0.19622725E-02 0.12500102E+03</pdfrwt>
<pdfrwt beam="2">  1       21 0.47117374E-01 0.12500102E+03</pdfrwt>
<totfact> 0.53909901E+06</totfact>
</mgrwt>
</event>
<event>
 5    0  0.1449342E+000  0.1249915E+03  0.7546771E-02  0.1235083E+00
         21   -1    0    0  503  502  0.00000000000E+00  0.00000000000E+00  0.60497610413E+02  0.60497610413E+02  0.00000000000E+00 0. -1.
         21   -1    0    0  502  503 -0.00000000000E+00 -0.00000000000E+00 -0.64559920426E+02  0.64559920426E+02  0.00000000000E+00 0. -1.
         25    2    1    2    0    0  0.00000000000E+00  0.00000000000E+00 -0.40623100126E+01  0.12505753084E+03  0.12499153434E+03 0.  0.
          4    1    3    3  501    0 -0.51671405190E+00 -0.48989854522E+02 -0.40820757133E+02  0.63788788611E+02  0.15500000000E+01 0. -1.
         -4    1    3    3    0  501  0.51671405190E+00  0.48989854522E+02  0.36758447121E+02  0.61268742228E+02  0.15500000000E+01 0. -1.
<mgrwt>
<rscale>  2 0.12499153E+03</rscale>
<asrwt>0</asrwt>
<pdfrwt beam="1">  1       21 0.93073247E-02 0.12499153E+03</pdfrwt>
<pdfrwt beam="2">  1       21 0.99322954E-02 0.12499153E+03</pdfrwt>
<totfact> 0.74051837E+06</totfact>
</mgrwt>
</event>
<event>
 5    0  0.1222151E+000  0.1250005E+03  0.7546771E-02  0.1235069E+00
         21   -1    0    0  503  502  0.00000000000E+00  0.00000000000E+00  0.42114229847E+01  0.42114229847E+01  0.00000000000E+00 0. -1.
         21   -1    0    0  502  503 -0.00000000000E+00 -0.00000000000E+00 -0.92754409855E+03  0.92754409855E+03  0.00000000000E+00 0. -1.
         25    2    1    2    0    0  0.00000000000E+00  0.00000000000E+00 -0.92333267557E+03  0.93175552154E+03  0.12500048857E+03 0.  0.
          4    1    3    3  501    0 -0.53375124918E+02  0.18311420851E+02 -0.66163214463E+03  0.66403592478E+03  0.15500000000E+01 0.  1.
         -4    1    3    3    0  501  0.53375124918E+02 -0.18311420851E+02 -0.26170053094E+03  0.26771959676E+03  0.15500000000E+01 0.  1.
<mgrwt>
<rscale>  2 0.12500049E+03</rscale>
<asrwt>0</asrwt>
<pdfrwt beam="1">  1       21 0.64791095E-03 0.12500049E+03</pdfrwt>
<pdfrwt beam="2">  1       21 0.14269915E+00 0.12500049E+03</pdfrwt>
<totfact> 0.25406005E+06</totfact>
</mgrwt>
</event>
<event>
 5    0  0.1525823E+000  0.1250127E+03  0.7546771E-02  0.1235049E+00
         21   -1    0    0  503  502  0.00000000000E+00  0.00000000000E+00  0.12437461542E+03  0.12437461542E+03  0.00000000000E+00 0. -1.
         21   -1    0    0  502  503 -0.00000000000E+00 -0.00000000000E+00 -0.31413522150E+02  0.31413522150E+02  0.00000000000E+00 0. -1.
         25    2    1    2    0    0  0.00000000000E+00  0.00000000000E+00  0.92961093265E+02  0.15578813757E+03  0.12501271513E+03 0.  0.
          4    1    3    3  501    0  0.42287535245E+02  0.67654657790E+01  0.10318693404E+03  0.11173161156E+03  0.15500000000E+01 0.  1.
         -4    1    3    3    0  501 -0.42287535245E+02 -0.67654657790E+01 -0.10225840777E+02  0.44056526008E+02  0.15500000000E+01 0.  1.
<mgrwt>
<rscale>  2 0.12501272E+03</rscale>
<asrwt>0</asrwt>
<pdfrwt beam="1">  1       21 0.19134556E-01 0.12501272E+03</pdfrwt>
<pdfrwt beam="2">  1       21 0.48328496E-02 0.12501272E+03</pdfrwt>
<totfact> 0.70015190E+06</totfact>
</mgrwt>
</event>
<event>
 5    0  0.1222151E+000  0.1250011E+03  0.7546771E-02  0.1235068E+00
         21   -1    0    0  503  502  0.00000000000E+00  0.00000000000E+00  0.80855394475E+02  0.80855394475E+02  0.00000000000E+00 0. -1.
         21   -1    0    0  502  503 -0.00000000000E+00 -0.00000000000E+00 -0.48312433742E+02  0.48312433742E+02  0.00000000000E+00 0. -1.
         25    2    1    2    0    0  0.00000000000E+00  0.00000000000E+00  0.32542960733E+02  0.12916782822E+03  0.12500113421E+03 0.  0.
          4    1    3    3  501    0  0.35510214846E+01 -0.21208307420E+02 -0.44348434387E+02  0.49311136570E+02  0.15500000000E+01 0. -1.
         -4    1    3    3    0  501 -0.35510214846E+01  0.21208307420E+02  0.76891395120E+02  0.79856691646E+02  0.15500000000E+01 0. -1.
<mgrwt>
<rscale>  2 0.12500113E+03</rscale>
<asrwt>0</asrwt>
<pdfrwt beam="1">  1       21 0.12439291E-01 0.12500113E+03</pdfrwt>
<pdfrwt beam="2">  1       21 0.74326821E-02 0.12500113E+03</pdfrwt>
<totfact> 0.73474224E+06</totfact>
</mgrwt>
</event>
<event>
 5    0  0.1525797E+000  0.1249970E+03  0.7546771E-02  0.1235074E+00
         21   -1    0    0  503  502  0.00000000000E+00  0.00000000000E+00  0.52263061174E+02  0.52263061174E+02  0.00000000000E+00 0.  1.
         21   -1    0    0  502  503 -0.00000000000E+00 -0.00000000000E+00 -0.74738472001E+02  0.74738472001E+02  0.00000000000E+00 0.  1.
         25    2    1    2    0    0  0.00000000000E+00  0.00000000000E+00 -0.22475410827E+02  0.12700153318E+03  0.12499698131E+03 0.  0.
          4    1    3    3  501    0 -0.35305457347E+02 -0.61969241591E+01 -0.63232406191E+02  0.72702248110E+02  0.15500000000E+01 0.  1.
         -4    1    3    3    0  501  0.35305457347E+02  0.61969241591E+01  0.40756995364E+02  0.54299285066E+02  0.15500000000E+01 0.  1.
<mgrwt>
<rscale>  2 0.12499698E+03</rscale>
<asrwt>0</asrwt>
<pdfrwt beam="1">  1       21 0.80404710E-02 0.12499698E+03</pdfrwt>
<pdfrwt beam="2">  1       21 0.11498226E-01 0.12499698E+03</pdfrwt>
<totfact> 0.73774612E+06</totfact>
</mgrwt>
</event>
<event>
 5    0  0.1328198E+000  0.1250040E+03  0.7546771E-02  0.1235063E+00
         21   -1    0    0  503  502  0.00000000000E+00  0.00000000000E+00  0.56819059181E+01  0.56819059181E+01  0.00000000000E+00 0. -1.
         21   -1    0    0  502  503 -0.00000000000E+00 -0.00000000000E+00 -0.68753341287E+03  0.68753341287E+03  0.00000000000E+00 0. -1.
         25    2    1    2    0    0  0.00000000000E+00  0.00000000000E+00 -0.68185150695E+03  0.69321531878E+03  0.12500400262E+03 0.  0.
          4    1    3    3  501    0  0.81943412522E+01 -0.61853128868E+02 -0.35943565634E+03  0.36481413121E+03  0.15500000000E+01 0.  1.
         -4    1    3    3    0  501 -0.81943412522E+01  0.61853128868E+02 -0.32241585061E+03  0.32840118758E+03  0.15500000000E+01 0.  1.
<mgrwt>
<rscale>  2 0.12500400E+03</rscale>
<asrwt>0</asrwt>
<pdfrwt beam="1">  1       21 0.87413945E-03 0.12500400E+03</pdfrwt>
<pdfrwt beam="2">  1       21 0.10577436E+00 0.12500400E+03</pdfrwt>
<totfact> 0.33170068E+06</totfact>
</mgrwt>
</event>
<event>
 5    0  0.1322198E+000  0.1250059E+03  0.7546771E-02  0.1235060E+00
         21   -1    0    0  503  502  0.00000000000E+00  0.00000000000E+00  0.47638831314E+03  0.47638831314E+03  0.00000000000E+00 0. -1.
         21   -1    0    0  502  503 -0.00000000000E+00 -0.00000000000E+00 -0.82004953855E+01  0.82004953855E+01  0.00000000000E+00 0. -1.
         25    2    1    2    0    0  0.00000000000E+00  0.00000000000E+00  0.46818781775E+03  0.48458880853E+03  0.12500592248E+03 0.  0.
          4    1    3    3  501    0  0.24144762956E+02  0.46286770780E+02  0.10099953090E+03  0.11370462818E+03  0.15500000000E+01 0. -1.
         -4    1    3    3    0  501 -0.24144762956E+02 -0.46286770780E+02  0.36718828686E+03  0.37088418035E+03  0.15500000000E+01 0. -1.
<mgrwt>
<rscale>  2 0.12500592E+03</rscale>
<asrwt>0</asrwt>
<pdfrwt beam="1">  1       21 0.73290488E-01 0.12500592E+03</pdfrwt>
<pdfrwt beam="2">  1       21 0.12616150E-02 0.12500592E+03</pdfrwt>
<totfact> 0.42886058E+06</totfact>
</mgrwt>
</event>
<event>
 5    0  0.1578842E+000  0.1250035E+03  0.7546771E-02  0.1235064E+00
         21   -1    0    0  503  502  0.00000000000E+00  0.00000000000E+00  0.76939706975E+02  0.76939706975E+02  0.00000000000E+00 0. -1.
         21   -1    0    0  502  503 -0.00000000000E+00 -0.00000000000E+00 -0.50773108289E+02  0.50773108289E+02  0.00000000000E+00 0. -1.
         25    2    1    2    0    0  0.00000000000E+00  0.00000000000E+00  0.26166598686E+02  0.12771281526E+03  0.12500348914E+03 0.  0.
          4    1    3    3  501    0  0.43989261365E+02 -0.22874682335E+02 -0.25763956916E+02  0.55897139313E+02  0.15500000000E+01 0.  1.
         -4    1    3    3    0  501 -0.43989261365E+02  0.22874682335E+02  0.51930555602E+02  0.71815675952E+02  0.15500000000E+01 0.  1.
<mgrwt>
<rscale>  2 0.12500349E+03</rscale>
<asrwt>0</asrwt>
<pdfrwt beam="1">  1       21 0.11836878E-01 0.12500349E+03</pdfrwt>
<pdfrwt beam="2">  1       21 0.78112474E-02 0.12500349E+03</pdfrwt>
<totfact> 0.73665829E+06</totfact>
</mgrwt>
</event>
<event>
 5    0  0.1258046E+000  0.1249950E+03  0.7546771E-02  0.1235077E+00
         21   -1    0    0  503  502  0.00000000000E+00  0.00000000000E+00  0.73544188252E+03  0.73544188252E+03  0.00000000000E+00 0.  1.
         21   -1    0    0  502  503 -0.00000000000E+00 -0.00000000000E+00 -0.53110039065E+01  0.53110039065E+01  0.00000000000E+00 0.  1.
         25    2    1    2    0    0  0.00000000000E+00  0.00000000000E+00  0.73013087862E+03  0.74075288643E+03  0.12499495528E+03 0.  0.
          4    1    3    3  501    0 -0.13037752643E+01  0.61799179572E+02  0.41895657096E+03  0.42349480431E+03  0.15500000000E+01 0.  1.
         -4    1    3    3    0  501  0.13037752643E+01 -0.61799179572E+02  0.31117430765E+03  0.31725808212E+03  0.15500000000E+01 0.  1.
<mgrwt>
<rscale>  2 0.12499496E+03</rscale>
<asrwt>0</asrwt>
<pdfrwt beam="1">  1       21 0.11314482E+00 0.12499496E+03</pdfrwt>
<pdfrwt beam="2">  1       21 0.81707811E-03 0.12499496E+03</pdfrwt>
<totfact> 0.31400741E+06</totfact>
</mgrwt>
</event>
<event>
 5    0  0.1366226E+000  0.1249742E+03  0.7546771E-02  0.1235110E+00
         21   -1    0    0  503  502  0.00000000000E+00  0.00000000000E+00  0.82064041231E+01  0.82064041231E+01  0.00000000000E+00 0. -1.
         21   -1    0    0  502  503 -0.00000000000E+00 -0.00000000000E+00 -0.47580367054E+03  0.47580367054E+03  0.00000000000E+00 0. -1.
         25    2    1    2    0    0  0.00000000000E+00  0.00000000000E+00 -0.46759726641E+03  0.48401007466E+03  0.12497419259E+03 0.  0.
          4    1    3    3  501    0 -0.22212136127E+02 -0.55536633116E+02 -0.16402892561E+03  0.17460122436E+03  0.15500000000E+01 0.  1.
         -4    1    3    3    0  501  0.22212136127E+02  0.55536633116E+02 -0.30356834080E+03  0.30940885030E+03  0.15500000000E+01 0.  1.
<mgrwt>
<rscale>  2 0.12497419E+03</rscale>
<asrwt>0</asrwt>
<pdfrwt beam="1">  1       21 0.12625235E-02 0.12497419E+03</pdfrwt>
<pdfrwt beam="2">  1       21 0.73200577E-01 0.12497419E+03</pdfrwt>
<totfact> 0.42952334E+06</totfact>
</mgrwt>
</event>
<event>
 5    0  0.1480141E+000  0.1249987E+03  0.7546771E-02  0.1235071E+00
         21   -1    0    0  503  502  0.00000000000E+00  0.00000000000E+00  0.15240490180E+03  0.15240490180E+03  0.00000000000E+00 0.  1.
         21   -1    0    0  502  503 -0.00000000000E+00 -0.00000000000E+00 -0.25630220093E+02  0.25630220093E+02  0.00000000000E+00 0.  1.
         25    2    1    2    0    0  0.00000000000E+00  0.00000000000E+00  0.12677468170E+03  0.17803512189E+03  0.12499873881E+03 0.  0.
          4    1    3    3  501    0  0.60778009935E+02  0.19855003743E+01  0.83822875787E+02  0.10356923148E+03  0.15500000000E+01 0.  1.
         -4    1    3    3    0  501 -0.60778009935E+02 -0.19855003743E+01  0.42951805917E+02  0.74465890413E+02  0.15500000000E+01 0.  1.
<mgrwt>
<rscale>  2 0.12499874E+03</rscale>
<asrwt>0</asrwt>
<pdfrwt beam="1">  1       21 0.23446907E-01 0.12499874E+03</pdfrwt>
<pdfrwt beam="2">  1       21 0.39431109E-02 0.12499874E+03</pdfrwt>
<totfact> 0.67379815E+06</totfact>
</mgrwt>
</event>
<event>
 5    0  0.1457313E+000  0.1249786E+03  0.7546771E-02  0.1235103E+00
         21   -1    0    0  503  502  0.00000000000E+00  0.00000000000E+00  0.26139003227E+03  0.26139003227E+03  0.00000000000E+00 0. -1.
         21   -1    0    0  502  503 -0.00000000000E+00 -0.00000000000E+00 -0.14939035140E+02  0.14939035140E+02  0.00000000000E+00 0. -1.
         25    2    1    2    0    0  0.00000000000E+00  0.00000000000E+00  0.24645099713E+03  0.27632906741E+03  0.12497863621E+03 0.  0.
          4    1    3    3  501    0 -0.40018641459E+02  0.46224317537E+02  0.94882002268E+02  0.11288567691E+03  0.15500000000E+01 0. -1.
         -4    1    3    3    0  501  0.40018641459E+02 -0.46224317537E+02  0.15156899486E+03  0.16344339051E+03  0.15500000000E+01 0. -1.
<mgrwt>
<rscale>  2 0.12497864E+03</rscale>
<asrwt>0</asrwt>
<pdfrwt beam="1">  1       21 0.40213848E-01 0.12497864E+03</pdfrwt>
<pdfrwt beam="2">  1       21 0.22983133E-02 0.12497864E+03</pdfrwt>
<totfact> 0.57513447E+06</totfact>
</mgrwt>
</event>
<event>
 5    0  0.1222151E+000  0.1250102E+03  0.7546771E-02  0.1235053E+00
         21   -1    0    0  503  502  0.00000000000E+00  0.00000000000E+00  0.26062077378E+02  0.26062077378E+02  0.00000000000E+00 0. -1.
         21   -1    0    0  502  503 -0.00000000000E+00 -0.00000000000E+00 -0.14990688810E+03  0.14990688810E+03  0.00000000000E+00 0. -1.
         25    2    1    2    0    0  0.00000000000E+00  0.00000000000E+00 -0.12384481073E+03  0.17596896548E+03  0.12501015826E+03 0.  0.
          4    1    3    3  501    0  0.36670110245E+01 -0.23477414561E+02  0.19426933232E+02  0.30731810866E+02  0.15500000000E+01 0.  1.
         -4    1    3    3    0  501 -0.36670110245E+01  0.23477414561E+02 -0.14327174396E+03  0.14523715462E+03  0.15500000000E+01 0.  1.
<mgrwt>
<rscale>  2 0.12501016E+03</rscale>
<asrwt>0</asrwt>
<pdfrwt beam="1">  1       21 0.40095504E-02 0.12501016E+03</pdfrwt>
<pdfrwt beam="2">  1       21 0.23062598E-01 0.12501016E+03</pdfrwt>
<totfact> 0.67599575E+06</totfact>
</mgrwt>
</event>
<event>
 5    0  0.1222151E+000  0.1249911E+03  0.7546771E-02  0.1235083E+00
         21   -1    0    0  503  502  0.00000000000E+00  0.00000000000E+00  0.15301516570E+04  0.15301516570E+04  0.00000000000E+00 0. -1.
         21   -1    0    0  502  503 -0.00000000000E+00 -0.00000000000E+00 -0.25524876211E+01  0.25524876211E+01  0.00000000000E+00 0. -1.
         25    2    1    2    0    0  0.00000000000E+00  0.00000000000E+00  0.15275991694E+04  0.15327041446E+04  0.12499109029E+03 0.  0.
          4    1    3    3  501    0 -0.40685166493E+02 -0.44375836465E+02  0.96854784961E+03  0.97041838251E+03  0.15500000000E+01 0. -1.
         -4    1    3    3    0  501  0.40685166493E+02  0.44375836465E+02  0.55905131980E+03  0.56228576214E+03  0.15500000000E+01 0. -1.
<mgrwt>
<rscale>  2 0.12499109E+03</rscale>
<asrwt>0</asrwt>
<pdfrwt beam="1">  1       21 0.23540721E+00 0.12499109E+03</pdfrwt>
<pdfrwt beam="2">  1       21 0.39269163E-03 0.12499109E+03</pdfrwt>
<totfact> 0.13517804E+06</totfact>
</mgrwt>
</event>
<event>
 5    0  0.1478712E+000  0.1249843E+03  0.7546771E-02  0.1235094E+00
         21   -1    0    0  503  502  0.00000000000E+00  0.00000000000E+00  0.55782382146E+02  0.55782382146E+02  0.00000000000E+00 0. -1.
         21   -1    0    0  502  503 -0.00000000000E+00 -0.00000000000E+00 -0.70008987807E+02  0.70008987807E+02  0.00000000000E+00 0. -1.
         25    2    1    2    0    0  0.00000000000E+00  0.00000000000E+00 -0.14226605661E+02  0.12579136995E+03  0.12498428880E+03 0.  0.
          4    1    3    3  501    0 -0.81375754630E+01 -0.27450709467E+02  0.48770958245E+02  0.56575351990E+02  0.15500000000E+01 0.  1.
         -4    1    3    3    0  501  0.81375754630E+01  0.27450709467E+02 -0.62997563906E+02  0.69216017964E+02  0.15500000000E+01 0.  1.
<mgrwt>
<rscale>  2 0.12498429E+03</rscale>
<asrwt>0</asrwt>
<pdfrwt beam="1">  1       21 0.85819050E-02 0.12498429E+03</pdfrwt>
<pdfrwt beam="2">  1       21 0.10770613E-01 0.12498429E+03</pdfrwt>
<totfact> 0.73964503E+06</totfact>
</mgrwt>
</event>
<event>
 5    0  0.1365879E+000  0.1250018E+03  0.7546771E-02  0.1235066E+00
         21   -1    0    0  503  502  0.00000000000E+00  0.00000000000E+00  0.56115064393E+02  0.56115064393E+02  0.00000000000E+00 0. -1.
         21   -1    0    0  502  503 -0.00000000000E+00 -0.00000000000E+00 -0.69613491376E+02  0.69613491376E+02  0.00000000000E+00 0. -1.
         25    2    1    2    0    0  0.00000000000E+00  0.00000000000E+00 -0.13498426983E+02  0.12572855577E+03  0.12500184881E+03 0.  0.
          4    1    3    3  501    0 -0.80719380504E+01 -0.22990178602E+02 -0.64618542775E+02  0.69077225382E+02  0.15500000000E+01 0.  1.
         -4    1    3    3    0  501  0.80719380504E+01  0.22990178602E+02  0.51120115792E+02  0.56651330388E+02  0.15500000000E+01 0.  1.
<mgrwt>
<rscale>  2 0.12500185E+03</rscale>
<asrwt>0</asrwt>
<pdfrwt beam="1">  1       21 0.86330868E-02 0.12500185E+03</pdfrwt>
<pdfrwt beam="2">  1       21 0.10709768E-01 0.12500185E+03</pdfrwt>
<totfact> 0.73940088E+06</totfact>
</mgrwt>
</event>
<event>
 5    0  0.1411661E+000  0.1250006E+03  0.7546771E-02  0.1235068E+00
         21   -1    0    0  503  502  0.00000000000E+00  0.00000000000E+00  0.10724382242E+02  0.10724382242E+02  0.00000000000E+00 0. -1.
         21   -1    0    0  502  503 -0.00000000000E+00 -0.00000000000E+00 -0.36424375857E+03  0.36424375857E+03  0.00000000000E+00 0. -1.
         25    2    1    2    0    0  0.00000000000E+00  0.00000000000E+00 -0.35351937633E+03  0.37496814081E+03  0.12500062874E+03 0.  0.
          4    1    3    3  501    0 -0.23857680244E+02  0.49793674321E+02 -0.26448770921E+03  0.27019391135E+03  0.15500000000E+01 0.  1.
         -4    1    3    3    0  501  0.23857680244E+02 -0.49793674321E+02 -0.89031667116E+02  0.10477422946E+03  0.15500000000E+01 0.  1.
<mgrwt>
<rscale>  2 0.12500063E+03</rscale>
<asrwt>0</asrwt>
<pdfrwt beam="1">  1       21 0.16499047E-02 0.12500063E+03</pdfrwt>
<pdfrwt beam="2">  1       21 0.56037510E-01 0.12500063E+03</pdfrwt>
<totfact> 0.49744903E+06</totfact>
</mgrwt>
</event>
<event>
 5    0  0.1268508E+000  0.1249967E+03  0.7546771E-02  0.1235074E+00
         21   -1    0    0  503  502  0.00000000000E+00  0.00000000000E+00  0.61039330943E+03  0.61039330943E+03  0.00000000000E+00 0. -1.
         21   -1    0    0  502  503 -0.00000000000E+00 -0.00000000000E+00 -0.63992221318E+01  0.63992221318E+01  0.00000000000E+00 0. -1.
         25    2    1    2    0    0  0.00000000000E+00  0.00000000000E+00  0.60399408730E+03  0.61679253156E+03  0.12499667795E+03 0.  0.
          4    1    3    3  501    0  0.12658181002E+02 -0.59612212891E+02  0.36997722766E+03  0.37496586106E+03  0.15500000000E+01 0. -1.
         -4    1    3    3    0  501 -0.12658181002E+02  0.59612212891E+02  0.23401685964E+03  0.24182667050E+03  0.15500000000E+01 0. -1.
<mgrwt>
<rscale>  2 0.12499668E+03</rscale>
<asrwt>0</asrwt>
<pdfrwt beam="1">  1       21 0.93906617E-01 0.12499668E+03</pdfrwt>
<pdfrwt beam="2">  1       21 0.98449619E-03 0.12499668E+03</pdfrwt>
<totfact> 0.36347067E+06</totfact>
</mgrwt>
</event>
<event>
 5    0  0.1368000E+000  0.1250029E+03  0.7546771E-02  0.1235065E+00
         21   -1    0    0  503  502  0.00000000000E+00  0.00000000000E+00  0.39988529888E+03  0.39988529888E+03  0.00000000000E+00 0.  1.
         21   -1    0    0  502  503 -0.00000000000E+00 -0.00000000000E+00 -0.97688822048E+01  0.97688822048E+01  0.00000000000E+00 0.  1.
         25    2    1    2    0    0  0.00000000000E+00  0.00000000000E+00  0.39011641667E+03  0.40965418108E+03  0.12500291805E+03 0.  0.
          4    1    3    3  501    0 -0.93927276804E+01 -0.46739226755E+02  0.32741848508E+03  0.33087466739E+03  0.15500000000E+01 0. -1.
         -4    1    3    3    0  501  0.93927276804E+01  0.46739226755E+02  0.62697931590E+02  0.78779513686E+02  0.15500000000E+01 0. -1.
<mgrwt>
<rscale>  2 0.12500292E+03</rscale>
<asrwt>0</asrwt>
<pdfrwt beam="1">  1       21 0.61520802E-01 0.12500292E+03</pdfrwt>
<pdfrwt beam="2">  1       21 0.15029053E-02 0.12500292E+03</pdfrwt>
<totfact> 0.47404073E+06</totfact>
</mgrwt>
</event>
<event>
 4    0  0.1313898E+000  0.1256694E+03  0.7546771E-02  0.1234027E+00
         21   -1    0    0  503  502  0.00000000000E+00  0.00000000000E+00  0.12064698123E+02  0.12064698123E+02  0.00000000000E+00 0. -1.
         21   -1    0    0  502  503 -0.00000000000E+00 -0.00000000000E+00 -0.32725234584E+03  0.32725234584E+03  0.00000000000E+00 0. -1.
          4    1    1    2  501    0 -0.57928801487E+02 -0.57568056065E+01 -0.93874798669E+02  0.11047066207E+03  0.15500000000E+01 0.  1.
         -4    1    1    2    0  501  0.57928801487E+02  0.57568056065E+01 -0.22131284905E+03  0.22884638190E+03  0.15500000000E+01 0.  1.
<mgrwt>
<rscale>  2 0.12566942E+03</rscale>
<asrwt>0</asrwt>
<pdfrwt beam="1">  1       21 0.18561080E-02 0.12566942E+03</pdfrwt>
<pdfrwt beam="2">  1       21 0.50346500E-01 0.12566942E+03</pdfrwt>
<totfact> 0.51468478E+06</totfact>
</mgrwt>
</event>
<event>
 5    0  0.1580187E+000  0.1250227E+03  0.7546771E-02  0.1235034E+00
         21   -1    0    0  503  502  0.00000000000E+00  0.00000000000E+00  0.44297572850E+02  0.44297572850E+02  0.00000000000E+00 0.  1.
         21   -1    0    0  502  503 -0.00000000000E+00 -0.00000000000E+00 -0.88214057827E+02  0.88214057827E+02  0.00000000000E+00 0.  1.
         25    2    1    2    0    0  0.00000000000E+00  0.00000000000E+00 -0.43916484978E+02  0.13251163068E+03  0.12502269639E+03 0.  0.
          4    1    3    3  501    0  0.18417324028E+02 -0.52905258723E+02  0.73974057084E+01  0.56526881535E+02  0.15500000000E+01 0.  1.
         -4    1    3    3    0  501 -0.18417324028E+02  0.52905258723E+02 -0.51313890686E+02  0.75984749142E+02  0.15500000000E+01 0.  1.
<mgrwt>
<rscale>  2 0.12502270E+03</rscale>
<asrwt>0</asrwt>
<pdfrwt beam="1">  1       21 0.68150112E-02 0.12502270E+03</pdfrwt>
<pdfrwt beam="2">  1       21 0.13571394E-01 0.12502270E+03</pdfrwt>
<totfact> 0.72985416E+06</totfact>
</mgrwt>
</event>
<event>
 5    0  0.1570311E+000  0.1250032E+03  0.7546771E-02  0.1235064E+00
         21   -1    0    0  503  502  0.00000000000E+00  0.00000000000E+00  0.11695306092E+03  0.11695306092E+03  0.00000000000E+00 0. -1.
         21   -1    0    0  502  503 -0.00000000000E+00 -0.00000000000E+00 -0.33401865052E+02  0.33401865052E+02  0.00000000000E+00 0. -1.
         25    2    1    2    0    0  0.00000000000E+00  0.00000000000E+00  0.83551195867E+02  0.15035492597E+03  0.12500320569E+03 0.  0.
          4    1    3    3  501    0  0.32656125590E+02  0.38268487809E+02 -0.27956927337E+01  0.50409504021E+02  0.15500000000E+01 0.  1.
         -4    1    3    3    0  501 -0.32656125590E+02 -0.38268487809E+02  0.86346888601E+02  0.99945421950E+02  0.15500000000E+01 0.  1.
<mgrwt>
<rscale>  2 0.12500321E+03</rscale>
<asrwt>0</asrwt>
<pdfrwt beam="1">  1       21 0.17992778E-01 0.12500321E+03</pdfrwt>
<pdfrwt beam="2">  1       21 0.51387485E-02 0.12500321E+03</pdfrwt>
<totfact> 0.70708874E+06</totfact>
</mgrwt>
</event>
<event>
 5    0  0.1222151E+000  0.1249994E+03  0.7546771E-02  0.1235070E+00
         21   -1    0    0  503  502  0.00000000000E+00  0.00000000000E+00  0.85013347757E+03  0.85013347757E+03  0.00000000000E+00 0.  1.
         21   -1    0    0  502  503 -0.00000000000E+00 -0.00000000000E+00 -0.45948244042E+01  0.45948244042E+01  0.00000000000E+00 0.  1.
         25    2    1    2    0    0  0.00000000000E+00  0.00000000000E+00  0.84553865316E+03  0.85472830197E+03  0.12499942479E+03 0.  0.
          4    1    3    3  501    0  0.38491636850E+02  0.22833436510E+02  0.12464816285E+03  0.13244825002E+03  0.15500000000E+01 0.  1.
         -4    1    3    3    0  501 -0.38491636850E+02 -0.22833436510E+02  0.72089049031E+03  0.72228005195E+03  0.15500000000E+01 0.  1.
<mgrwt>
<rscale>  2 0.12499942E+03</rscale>
<asrwt>0</asrwt>
<pdfrwt beam="1">  1       21 0.13078964E+00 0.12499942E+03</pdfrwt>
<pdfrwt beam="2">  1       21 0.70689674E-03 0.12499942E+03</pdfrwt>
<totfact> 0.27628235E+06</totfact>
</mgrwt>
</event>
<event>
 5    0  0.1613319E+000  0.1250169E+03  0.7546771E-02  0.1235043E+00
         21   -1    0    0  503  502  0.00000000000E+00  0.00000000000E+00  0.76975664797E+02  0.76975664797E+02  0.00000000000E+00 0. -1.
         21   -1    0    0  502  503 -0.00000000000E+00 -0.00000000000E+00 -0.50760261730E+02  0.50760261730E+02  0.00000000000E+00 0. -1.
         25    2    1    2    0    0  0.00000000000E+00  0.00000000000E+00  0.26215403067E+02  0.12773592653E+03  0.12501687713E+03 0.  0.
          4    1    3    3  501    0  0.51650910998E+02 -0.29612880917E+02  0.32498424664E+02  0.67847545488E+02  0.15500000000E+01 0. -1.
         -4    1    3    3    0  501 -0.51650910998E+02  0.29612880917E+02 -0.62830215971E+01  0.59888381039E+02  0.15500000000E+01 0. -1.
<mgrwt>
<rscale>  2 0.12501688E+03</rscale>
<asrwt>0</asrwt>
<pdfrwt beam="1">  1       21 0.11842410E-01 0.12501688E+03</pdfrwt>
<pdfrwt beam="2">  1       21 0.78092711E-02 0.12501688E+03</pdfrwt>
<totfact> 0.73637531E+06</totfact>
</mgrwt>
</event>
<event>
 5    0  0.1222151E+000  0.1250059E+03  0.7546771E-02  0.1235060E+00
         21   -1    0    0  503  502  0.00000000000E+00  0.00000000000E+00  0.50373634432E+01  0.50373634432E+01  0.00000000000E+00 0. -1.
         21   -1    0    0  502  503 -0.00000000000E+00 -0.00000000000E+00 -0.77552787481E+03  0.77552787481E+03  0.00000000000E+00 0. -1.
         25    2    1    2    0    0  0.00000000000E+00  0.00000000000E+00 -0.77049051137E+03  0.78056523826E+03  0.12500585212E+03 0.  0.
          4    1    3    3  501    0  0.83206907598E+01 -0.49833341657E+02 -0.15568021432E+03  0.16368056533E+03  0.15500000000E+01 0.  1.
         -4    1    3    3    0  501 -0.83206907598E+01  0.49833341657E+02 -0.61481029705E+03  0.61688467292E+03  0.15500000000E+01 0.  1.
<mgrwt>
<rscale>  2 0.12500585E+03</rscale>
<asrwt>0</asrwt>
<pdfrwt beam="1">  1       21 0.77497931E-03 0.12500585E+03</pdfrwt>
<pdfrwt beam="2">  1       21 0.11931193E+00 0.12500585E+03</pdfrwt>
<totfact> 0.30012578E+06</totfact>
</mgrwt>
</event>
<event>
 5    0  0.1635517E+000  0.1249879E+03  0.7546771E-02  0.1235088E+00
         21   -1    0    0  503  502  0.00000000000E+00  0.00000000000E+00  0.31999775658E+02  0.31999775658E+02  0.00000000000E+00 0. -1.
         21   -1    0    0  502  503 -0.00000000000E+00 -0.00000000000E+00 -0.12204744717E+03  0.12204744717E+03  0.00000000000E+00 0. -1.
         25    2    1    2    0    0  0.00000000000E+00  0.00000000000E+00 -0.90047671508E+02  0.15404722282E+03  0.12498785427E+03 0.  0.
          4    1    3    3  501    0  0.30367747409E+02  0.54069201029E+02 -0.35685289957E+02  0.71564802815E+02  0.15500000000E+01 0. -1.
         -4    1    3    3    0  501 -0.30367747409E+02 -0.54069201029E+02 -0.54362381550E+02  0.82482420009E+02  0.15500000000E+01 0. -1.
<mgrwt>
<rscale>  2 0.12498785E+03</rscale>
<asrwt>0</asrwt>
<pdfrwt beam="1">  1       21 0.49230424E-02 0.12498785E+03</pdfrwt>
<pdfrwt beam="2">  1       21 0.18776530E-01 0.12498785E+03</pdfrwt>
<totfact> 0.70275981E+06</totfact>
</mgrwt>
</event>
<event>
 5    0  0.1222151E+000  0.1250065E+03  0.7546771E-02  0.1235059E+00
         21   -1    0    0  503  502  0.00000000000E+00  0.00000000000E+00  0.13464463672E+04  0.13464463672E+04  0.00000000000E+00 0. -1.
         21   -1    0    0  502  503 -0.00000000000E+00 -0.00000000000E+00 -0.29014560791E+01  0.29014560791E+01  0.00000000000E+00 0. -1.
         25    2    1    2    0    0  0.00000000000E+00  0.00000000000E+00  0.13435449111E+04  0.13493478233E+04  0.12500647979E+03 0.  0.
          4    1    3    3  501    0  0.37322381874E+02  0.57791094020E+01  0.13445275121E+03  0.13966496734E+03  0.15500000000E+01 0.  1.
         -4    1    3    3    0  501 -0.37322381874E+02 -0.57791094020E+01  0.12090921599E+04  0.12096828559E+04  0.15500000000E+01 0.  1.
<mgrwt>
<rscale>  2 0.12500648E+03</rscale>
<asrwt>0</asrwt>
<pdfrwt beam="1">  1       21 0.20714510E+00 0.12500648E+03</pdfrwt>
<pdfrwt beam="2">  1       21 0.44637893E-03 0.12500648E+03</pdfrwt>
<totfact> 0.16386328E+06</totfact>
</mgrwt>
</event>
<event>
 5    0  0.1528480E+000  0.1250089E+03  0.7546771E-02  0.1235055E+00
         21   -1    0    0  503  502  0.00000000000E+00  0.00000000000E+00  0.30426153879E+02  0.30426153879E+02  0.00000000000E+00 0.  1.
         21   -1    0    0  502  503 -0.00000000000E+00 -0.00000000000E+00 -0.12840292153E+03  0.12840292153E+03  0.00000000000E+00 0.  1.
         25    2    1    2    0    0  0.00000000000E+00  0.00000000000E+00 -0.97976767656E+02  0.15882907541E+03  0.12500891247E+03 0.  0.
          4    1    3    3  501    0  0.49356028197E+02 -0.38272979930E+02 -0.51387669452E+02  0.80894583155E+02  0.15500000000E+01 0. -1.
         -4    1    3    3    0  501 -0.49356028197E+02  0.38272979930E+02 -0.46589098203E+02  0.77934492258E+02  0.15500000000E+01 0. -1.
<mgrwt>
<rscale>  2 0.12500891E+03</rscale>
<asrwt>0</asrwt>
<pdfrwt beam="1">  1       21 0.46809468E-02 0.12500891E+03</pdfrwt>
<pdfrwt beam="2">  1       21 0.19754296E-01 0.12500891E+03</pdfrwt>
<totfact> 0.69647069E+06</totfact>
</mgrwt>
</event>
<event>
 5    0  0.1534195E+000  0.1250005E+03  0.7546771E-02  0.1235068E+00
         21   -1    0    0  503  502  0.00000000000E+00  0.00000000000E+00  0.25292529111E+02  0.25292529111E+02  0.00000000000E+00 0.  1.
         21   -1    0    0  502  503 -0.00000000000E+00 -0.00000000000E+00 -0.15444409951E+03  0.15444409951E+03  0.00000000000E+00 0.  1.
         25    2    1    2    0    0  0.00000000000E+00  0.00000000000E+00 -0.12915157040E+03  0.17973662862E+03  0.12500051012E+03 0.  0.
          4    1    3    3  501    0 -0.12140618426E+02 -0.56626986169E+02 -0.30858352083E+02  0.65640312093E+02  0.15500000000E+01 0. -1.
         -4    1    3    3    0  501  0.12140618426E+02  0.56626986169E+02 -0.98293218315E+02  0.11409631653E+03  0.15500000000E+01 0. -1.
<mgrwt>
<rscale>  2 0.12500051E+03</rscale>
<asrwt>0</asrwt>
<pdfrwt beam="1">  1       21 0.38911583E-02 0.12500051E+03</pdfrwt>
<pdfrwt beam="2">  1       21 0.23760631E-01 0.12500051E+03</pdfrwt>
<totfact> 0.67180893E+06</totfact>
</mgrwt>
</event>
<event>
 5    0  0.1222151E+000  0.1250039E+03  0.7546771E-02  0.1235063E+00
         21   -1    0    0  503  502  0.00000000000E+00  0.00000000000E+00  0.89225885034E+03  0.89225885034E+03  0.00000000000E+00 0.  1.
         21   -1    0    0  502  503 -0.00000000000E+00 -0.00000000000E+00 -0.43782051382E+01  0.43782051382E+01  0.00000000000E+00 0.  1.
         25    2    1    2    0    0  0.00000000000E+00  0.00000000000E+00  0.88788064520E+03  0.89663705548E+03  0.12500387647E+03 0.  0.
          4    1    3    3  501    0  0.11688030488E+02  0.21477678116E+02  0.31503868023E+02  0.39909859864E+02  0.15500000000E+01 0. -1.
         -4    1    3    3    0  501 -0.11688030488E+02 -0.21477678116E+02  0.85637677718E+03  0.85672719561E+03  0.15500000000E+01 0. -1.
<mgrwt>
<rscale>  2 0.12500388E+03</rscale>
<asrwt>0</asrwt>
<pdfrwt beam="1">  1       21 0.13727045E+00 0.12500388E+03</pdfrwt>
<pdfrwt beam="2">  1       21 0.67357073E-03 0.12500388E+03</pdfrwt>
<totfact> 0.26393531E+06</totfact>
</mgrwt>
</event>
<event>
 5    0  0.1222151E+000  0.1249974E+03  0.7546771E-02  0.1235073E+00
         21   -1    0    0  503  502  0.00000000000E+00  0.00000000000E+00  0.20099633676E+01  0.20099633676E+01  0.00000000000E+00 0. -1.
         21   -1    0    0  502  503 -0.00000000000E+00 -0.00000000000E+00 -0.19433639101E+04  0.19433639101E+04  0.00000000000E+00 0. -1.
         25    2    1    2    0    0  0.00000000000E+00  0.00000000000E+00 -0.19413539467E+04  0.19453738734E+04  0.12499744428E+03 0.  0.
          4    1    3    3  501    0 -0.15750282545E+02  0.57778329942E+02 -0.12478965843E+04  0.12493337002E+04  0.15500000000E+01 0.  1.
         -4    1    3    3    0  501  0.15750282545E+02 -0.57778329942E+02 -0.69345736242E+03  0.69604017327E+03  0.15500000000E+01 0.  1.
<mgrwt>
<rscale>  2 0.12499744E+03</rscale>
<asrwt>0</asrwt>
<pdfrwt beam="1">  1       21 0.30922352E-03 0.12499744E+03</pdfrwt>
<pdfrwt beam="2">  1       21 0.29898062E+00 0.12499744E+03</pdfrwt>
<totfact> 0.84934811E+05</totfact>
</mgrwt>
</event>
<event>
 4    0  0.2018274E+000  0.1248952E+03  0.7546771E-02  0.1235233E+00
         21   -1    0    0  503  502  0.00000000000E+00  0.00000000000E+00  0.45094291227E+02  0.45094291227E+02  0.00000000000E+00 0. -1.
         21   -1    0    0  502  503 -0.00000000000E+00 -0.00000000000E+00 -0.86478886775E+02  0.86478886775E+02  0.00000000000E+00 0. -1.
          4    1    1    2  501    0  0.48482479814E+02 -0.27768255354E+02  0.86477872916E+01  0.56558054947E+02  0.15500000000E+01 0.  1.
         -4    1    1    2    0  501 -0.48482479814E+02  0.27768255354E+02 -0.50032382840E+02  0.75015123055E+02  0.15500000000E+01 0.  1.
<mgrwt>
<rscale>  2 0.12489522E+03</rscale>
<asrwt>0</asrwt>
<pdfrwt beam="1">  1       21 0.69375833E-02 0.12489522E+03</pdfrwt>
<pdfrwt beam="2">  1       21 0.13304444E-01 0.12489522E+03</pdfrwt>
<totfact> 0.73349412E+06</totfact>
</mgrwt>
</event>
<event>
 5    0  0.1278392E+000  0.1250077E+03  0.7546771E-02  0.1235057E+00
         21   -1    0    0  503  502  0.00000000000E+00  0.00000000000E+00  0.11126039145E+02  0.11126039145E+02  0.00000000000E+00 0. -1.
         21   -1    0    0  502  503 -0.00000000000E+00 -0.00000000000E+00 -0.35113391020E+03  0.35113391020E+03  0.00000000000E+00 0. -1.
         25    2    1    2    0    0  0.00000000000E+00  0.00000000000E+00 -0.34000787105E+03  0.36225994934E+03  0.12500767385E+03 0.  0.
          4    1    3    3  501    0  0.25100041868E+02  0.15183025918E+02 -0.32988279623E+03  0.33118816121E+03  0.15500000000E+01 0. -1.
         -4    1    3    3    0  501 -0.25100041868E+02 -0.15183025918E+02 -0.10125074828E+02  0.31071788137E+02  0.15500000000E+01 0. -1.
<mgrwt>
<rscale>  2 0.12500767E+03</rscale>
<asrwt>0</asrwt>
<pdfrwt beam="1">  1       21 0.17116986E-02 0.12500767E+03</pdfrwt>
<pdfrwt beam="2">  1       21 0.54020594E-01 0.12500767E+03</pdfrwt>
<totfact> 0.50635825E+06</totfact>
</mgrwt>
</event>
<event>
 5    0  0.1506134E+000  0.1249948E+03  0.7546771E-02  0.1235077E+00
         21   -1    0    0  503  502  0.00000000000E+00  0.00000000000E+00  0.29659915637E+02  0.29659915637E+02  0.00000000000E+00 0.  1.
         21   -1    0    0  502  503 -0.00000000000E+00 -0.00000000000E+00 -0.13169032341E+03  0.13169032341E+03  0.00000000000E+00 0.  1.
         25    2    1    2    0    0  0.00000000000E+00  0.00000000000E+00 -0.10203040777E+03  0.16135023904E+03  0.12499478201E+03 0.  0.
          4    1    3    3  501    0 -0.29571741013E+02  0.38930305454E+02 -0.79668534559E+00  0.48919257525E+02  0.15500000000E+01 0.  1.
         -4    1    3    3    0  501  0.29571741013E+02 -0.38930305454E+02 -0.10123372242E+03  0.11243098152E+03  0.15500000000E+01 0.  1.
<mgrwt>
<rscale>  2 0.12499478E+03</rscale>
<asrwt>0</asrwt>
<pdfrwt beam="1">  1       21 0.45630641E-02 0.12499478E+03</pdfrwt>
<pdfrwt beam="2">  1       21 0.20260049E-01 0.12499478E+03</pdfrwt>
<totfact> 0.69364087E+06</totfact>
</mgrwt>
</event>
<event>
 5    0  0.1368164E+000  0.1250002E+03  0.7546771E-02  0.1235069E+00
         21   -1    0    0  503  502  0.00000000000E+00  0.00000000000E+00  0.30190618090E+03  0.30190618090E+03  0.00000000000E+00 0. -1.
         21   -1    0    0  502  503 -0.00000000000E+00 -0.00000000000E+00 -0.12938657455E+02  0.12938657455E+02  0.00000000000E+00 0. -1.
         25    2    1    2    0    0  0.00000000000E+00  0.00000000000E+00  0.28896752344E+03  0.31484483835E+03  0.12500017053E+03 0.  0.
          4    1    3    3  501    0  0.88755300662E+01 -0.47395525337E+02  0.44404917084E+02  0.65569123962E+02  0.15500000000E+01 0. -1.
         -4    1    3    3    0  501 -0.88755300662E+01  0.47395525337E+02  0.24456260636E+03  0.24927571439E+03  0.15500000000E+01 0. -1.
<mgrwt>
<rscale>  2 0.12500017E+03</rscale>
<asrwt>0</asrwt>
<pdfrwt beam="1">  1       21 0.46447100E-01 0.12500017E+03</pdfrwt>
<pdfrwt beam="2">  1       21 0.19905629E-02 0.12500017E+03</pdfrwt>
<totfact> 0.54244178E+06</totfact>
</mgrwt>
</event>
<event>
 5    0  0.1527968E+000  0.1250056E+03  0.7546771E-02  0.1235061E+00
         21   -1    0    0  503  502  0.00000000000E+00  0.00000000000E+00  0.30173812722E+02  0.30173812722E+02  0.00000000000E+00 0. -1.
         21   -1    0    0  502  503 -0.00000000000E+00 -0.00000000000E+00 -0.12946987473E+03  0.12946987473E+03  0.00000000000E+00 0. -1.
         25    2    1    2    0    0  0.00000000000E+00  0.00000000000E+00 -0.99296062012E+02  0.15964368746E+03  0.12500559593E+03 0.  0.
          4    1    3    3  501    0  0.39346447331E+02 -0.35163143457E+02 -0.92380228787E+02  0.10640065200E+03  0.15500000000E+01 0.  1.
         -4    1    3    3    0  501 -0.39346447331E+02  0.35163143457E+02 -0.69158332245E+01  0.53243035456E+02  0.15500000000E+01 0.  1.
<mgrwt>
<rscale>  2 0.12500560E+03</rscale>
<asrwt>0</asrwt>
<pdfrwt beam="1">  1       21 0.46421251E-02 0.12500560E+03</pdfrwt>
<pdfrwt beam="2">  1       21 0.19918442E-01 0.12500560E+03</pdfrwt>
<totfact> 0.69553163E+06</totfact>
</mgrwt>
</event>
<event>
 5    0  0.1589740E+000  0.1250006E+03  0.7546771E-02  0.1235068E+00
         21   -1    0    0  503  502  0.00000000000E+00  0.00000000000E+00  0.64572810895E+02  0.64572810895E+02  0.00000000000E+00 0. -1.
         21   -1    0    0  502  503 -0.00000000000E+00 -0.00000000000E+00 -0.60494286883E+02  0.60494286883E+02  0.00000000000E+00 0. -1.
         25    2    1    2    0    0  0.00000000000E+00  0.00000000000E+00  0.40785240119E+01  0.12506709778E+03  0.12500057835E+03 0.  0.
          4    1    3    3  501    0  0.57864882557E+02  0.22836467808E+02 -0.37977736135E+01  0.62343199146E+02  0.15500000000E+01 0.  1.
         -4    1    3    3    0  501 -0.57864882557E+02 -0.22836467808E+02  0.78762976254E+01  0.62723898632E+02  0.15500000000E+01 0.  1.
<mgrwt>
<rscale>  2 0.12500058E+03</rscale>
<asrwt>0</asrwt>
<pdfrwt beam="1">  1       21 0.99342786E-02 0.12500058E+03</pdfrwt>
<pdfrwt beam="2">  1       21 0.93068134E-02 0.12500058E+03</pdfrwt>
<totfact> 0.74033424E+06</totfact>
</mgrwt>
</event>
<event>
 5    0  0.1258547E+000  0.1250024E+03  0.7546771E-02  0.1235066E+00
         21   -1    0    0  503  502  0.00000000000E+00  0.00000000000E+00  0.46759150327E+03  0.46759150327E+03  0.00000000000E+00 0. -1.
         21   -1    0    0  502  503 -0.00000000000E+00 -0.00000000000E+00 -0.83543027632E+01  0.83543027632E+01  0.00000000000E+00 0. -1.
         25    2    1    2    0    0  0.00000000000E+00  0.00000000000E+00  0.45923720050E+03  0.47594580603E+03  0.12500241578E+03 0.  0.
          4    1    3    3  501    0 -0.19744181853E+02  0.21540461433E+02  0.43990027451E+03  0.44087240581E+03  0.15500000000E+01 0. -1.
         -4    1    3    3    0  501  0.19744181853E+02 -0.21540461433E+02  0.19336925997E+02  0.35073400217E+02  0.15500000000E+01 0. -1.
<mgrwt>
<rscale>  2 0.12500242E+03</rscale>
<asrwt>0</asrwt>
<pdfrwt beam="1">  1       21 0.71937134E-01 0.12500242E+03</pdfrwt>
<pdfrwt beam="2">  1       21 0.12852777E-02 0.12500242E+03</pdfrwt>
<totfact> 0.43376759E+06</totfact>
</mgrwt>
</event>
<event>
 5    0  0.1222151E+000  0.1250003E+03  0.7546771E-02  0.1235069E+00
         21   -1    0    0  503  502  0.00000000000E+00  0.00000000000E+00  0.19529666797E+01  0.19529666797E+01  0.00000000000E+00 0. -1.
         21   -1    0    0  502  503 -0.00000000000E+00 -0.00000000000E+00 -0.20001710663E+04  0.20001710663E+04  0.00000000000E+00 0. -1.
         25    2    1    2    0    0  0.00000000000E+00  0.00000000000E+00 -0.19982180996E+04  0.20021240330E+04  0.12500027914E+03 0.  0.
          4    1    3    3  501    0 -0.45063317593E+02  0.99099980458E+01 -0.16739067331E+04  0.16745432405E+04  0.15500000000E+01 0. -1.
         -4    1    3    3    0  501  0.45063317593E+02 -0.99099980458E+01 -0.32431136650E+03  0.32758079247E+03  0.15500000000E+01 0. -1.
<mgrwt>
<rscale>  2 0.12500028E+03</rscale>
<asrwt>0</asrwt>
<pdfrwt beam="1">  1       21 0.30045722E-03 0.12500028E+03</pdfrwt>
<pdfrwt beam="2">  1       21 0.30771780E+00 0.12500028E+03</pdfrwt>
<totfact> 0.79272362E+05</totfact>
</mgrwt>
</event>
<event>
 5    0  0.1560458E+000  0.1249951E+03  0.7546771E-02  0.1235077E+00
         21   -1    0    0  503  502  0.00000000000E+00  0.00000000000E+00  0.85020167391E+02  0.85020167391E+02  0.00000000000E+00 0. -1.
         21   -1    0    0  502  503 -0.00000000000E+00 -0.00000000000E+00 -0.45941382759E+02  0.45941382759E+02  0.00000000000E+00 0. -1.
         25    2    1    2    0    0  0.00000000000E+00  0.00000000000E+00  0.39078784631E+02  0.13096155015E+03  0.12499510474E+03 0.  0.
          4    1    3    3  501    0  0.36970567370E+02 -0.47689142700E+02  0.36513461942E+02  0.70545819055E+02  0.15500000000E+01 0. -1.
         -4    1    3    3    0  501 -0.36970567370E+02  0.47689142700E+02  0.25653226897E+01  0.60415731095E+02  0.15500000000E+01 0. -1.
<mgrwt>
<rscale>  2 0.12499510E+03</rscale>
<asrwt>0</asrwt>
<pdfrwt beam="1">  1       21 0.13080026E-01 0.12499510E+03</pdfrwt>
<pdfrwt beam="2">  1       21 0.70679051E-02 0.12499510E+03</pdfrwt>
<totfact> 0.73245000E+06</totfact>
</mgrwt>
</event>
<event>
 5    0  0.1364537E+000  0.1250232E+03  0.7546771E-02  0.1235033E+00
         21   -1    0    0  503  502  0.00000000000E+00  0.00000000000E+00  0.49723534878E+03  0.49723534878E+03  0.00000000000E+00 0. -1.
         21   -1    0    0  502  503 -0.00000000000E+00 -0.00000000000E+00 -0.78588500105E+01  0.78588500105E+01  0.00000000000E+00 0. -1.
         25    2    1    2    0    0  0.00000000000E+00  0.00000000000E+00  0.48937649877E+03  0.50509419879E+03  0.12502316627E+03 0.  0.
          4    1    3    3  501    0  0.28063375639E+02  0.53734824559E+02  0.30599938002E+03  0.31195032857E+03  0.15500000000E+01 0. -1.
         -4    1    3    3    0  501 -0.28063375639E+02 -0.53734824559E+02  0.18337711875E+03  0.19314387022E+03  0.15500000000E+01 0. -1.
<mgrwt>
<rscale>  2 0.12502317E+03</rscale>
<asrwt>0</asrwt>
<pdfrwt beam="1">  1       21 0.76497721E-01 0.12502317E+03</pdfrwt>
<pdfrwt beam="2">  1       21 0.12090542E-02 0.12502317E+03</pdfrwt>
<totfact> 0.41745068E+06</totfact>
</mgrwt>
</event>
<event>
 5    0  0.1447077E+000  0.1250031E+03  0.7546771E-02  0.1235064E+00
         21   -1    0    0  503  502  0.00000000000E+00  0.00000000000E+00  0.23772147518E+02  0.23772147518E+02  0.00000000000E+00 0.  1.
         21   -1    0    0  502  503 -0.00000000000E+00 -0.00000000000E+00 -0.16432852621E+03  0.16432852621E+03  0.00000000000E+00 0.  1.
         25    2    1    2    0    0  0.00000000000E+00  0.00000000000E+00 -0.14055637869E+03  0.18810067373E+03  0.12500307142E+03 0.  0.
          4    1    3    3  501    0 -0.18968503868E+02  0.23956581135E+02 -0.15228900050E+03  0.15533210902E+03  0.15500000000E+01 0.  1.
         -4    1    3    3    0  501  0.18968503868E+02 -0.23956581135E+02  0.11732621808E+02  0.32768564710E+02  0.15500000000E+01 0.  1.
<mgrwt>
<rscale>  2 0.12500307E+03</rscale>
<asrwt>0</asrwt>
<pdfrwt beam="1">  1       21 0.36572534E-02 0.12500307E+03</pdfrwt>
<pdfrwt beam="2">  1       21 0.25281312E-01 0.12500307E+03</pdfrwt>
<totfact> 0.66229025E+06</totfact>
</mgrwt>
</event>
<event>
 5    0  0.1623191E+000  0.1250113E+03  0.7546771E-02  0.1235052E+00
         21   -1    0    0  503  502  0.00000000000E+00  0.00000000000E+00  0.10916975491E+03  0.10916975491E+03  0.00000000000E+00 0.  1.
         21   -1    0    0  502  503 -0.00000000000E+00 -0.00000000000E+00 -0.35787902818E+02  0.35787902818E+02  0.00000000000E+00 0.  1.
         25    2    1    2    0    0  0.00000000000E+00  0.00000000000E+00  0.73381852097E+02  0.14495765773E+03  0.12501130476E+03 0.  0.
          4    1    3    3  501    0 -0.18905746435E+01  0.61368586860E+02  0.50157582579E+02  0.79296048552E+02  0.15500000000E+01 0.  1.
         -4    1    3    3    0  501  0.18905746435E+01 -0.61368586860E+02  0.23224269517E+02  0.65661609182E+02  0.15500000000E+01 0.  1.
<mgrwt>
<rscale>  2 0.12501130E+03</rscale>
<asrwt>0</asrwt>
<pdfrwt beam="1">  1       21 0.16795347E-01 0.12501130E+03</pdfrwt>
<pdfrwt beam="2">  1       21 0.55058312E-02 0.12501130E+03</pdfrwt>
<totfact> 0.71377966E+06</totfact>
</mgrwt>
</event>
<event>
 5    0  0.1448530E+000  0.1249982E+03  0.7546771E-02  0.1235072E+00
         21   -1    0    0  503  502  0.00000000000E+00  0.00000000000E+00  0.26605804603E+03  0.26605804603E+03  0.00000000000E+00 0. -1.
         21   -1    0    0  502  503 -0.00000000000E+00 -0.00000000000E+00 -0.14681528188E+02  0.14681528188E+02  0.00000000000E+00 0. -1.
         25    2    1    2    0    0  0.00000000000E+00  0.00000000000E+00  0.25137651784E+03  0.28073957421E+03  0.12499821923E+03 0.  0.
          4    1    3    3  501    0 -0.57569791735E+01 -0.46702443415E+02  0.21800399098E+03  0.22303005092E+03  0.15500000000E+01 0. -1.
         -4    1    3    3    0  501  0.57569791735E+01  0.46702443415E+02  0.33372526859E+02  0.57709523296E+02  0.15500000000E+01 0. -1.
<mgrwt>
<rscale>  2 0.12499822E+03</rscale>
<asrwt>0</asrwt>
<pdfrwt beam="1">  1       21 0.40932003E-01 0.12499822E+03</pdfrwt>
<pdfrwt beam="2">  1       21 0.22586968E-02 0.12499822E+03</pdfrwt>
<totfact> 0.57098321E+06</totfact>
</mgrwt>
</event>
<event>
 5    0  0.1573314E+000  0.1250006E+03  0.7546771E-02  0.1235068E+00
         21   -1    0    0  503  502  0.00000000000E+00  0.00000000000E+00  0.34674121409E+02  0.34674121409E+02  0.00000000000E+00 0.  1.
         21   -1    0    0  502  503 -0.00000000000E+00 -0.00000000000E+00 -0.11265711767E+03  0.11265711767E+03  0.00000000000E+00 0.  1.
         25    2    1    2    0    0  0.00000000000E+00  0.00000000000E+00 -0.77982996263E+02  0.14733123908E+03  0.12500058521E+03 0.  0.
          4    1    3    3  501    0  0.37992173669E+01  0.52709693770E+02 -0.78280123640E+02  0.94461241402E+02  0.15500000000E+01 0.  1.
         -4    1    3    3    0  501 -0.37992173669E+01 -0.52709693770E+02  0.29712737722E+00  0.52869997680E+02  0.15500000000E+01 0.  1.
<mgrwt>
<rscale>  2 0.12500059E+03</rscale>
<asrwt>0</asrwt>
<pdfrwt beam="1">  1       21 0.53344802E-02 0.12500059E+03</pdfrwt>
<pdfrwt beam="2">  1       21 0.17331864E-01 0.12500059E+03</pdfrwt>
<totfact> 0.71095018E+06</totfact>
</mgrwt>
</event>
<event>
 5    0  0.1411437E+000  0.1250066E+03  0.7546771E-02  0.1235059E+00
         21   -1    0    0  503  502  0.00000000000E+00  0.00000000000E+00  0.32342218799E+03  0.32342218799E+03  0.00000000000E+00 0. -1.
         21   -1    0    0  502  503 -0.00000000000E+00 -0.00000000000E+00 -0.12079137503E+02  0.12079137503E+02  0.00000000000E+00 0. -1.
         25    2    1    2    0    0  0.00000000000E+00  0.00000000000E+00  0.31134305049E+03  0.33550132550E+03  0.12500657711E+03 0.  0.
          4    1    3    3  501    0 -0.53527299887E+02 -0.27186389474E+02  0.20215649744E+03  0.21088841496E+03  0.15500000000E+01 0. -1.
         -4    1    3    3    0  501  0.53527299887E+02  0.27186389474E+02  0.10918655305E+03  0.12461291054E+03  0.15500000000E+01 0. -1.
<mgrwt>
<rscale>  2 0.12500658E+03</rscale>
<asrwt>0</asrwt>
<pdfrwt beam="1">  1       21 0.49757253E-01 0.12500658E+03</pdfrwt>
<pdfrwt beam="2">  1       21 0.18583291E-02 0.12500658E+03</pdfrwt>
<totfact> 0.52618684E+06</totfact>
</mgrwt>
</event>
<event>
 5    0  0.1509312E+000  0.1250030E+03  0.7546771E-02  0.1235065E+00
         21   -1    0    0  503  502  0.00000000000E+00  0.00000000000E+00  0.91565186333E+02  0.91565186333E+02  0.00000000000E+00 0.  1.
         21   -1    0    0  502  503 -0.00000000000E+00 -0.00000000000E+00 -0.42662892353E+02  0.42662892353E+02  0.00000000000E+00 0.  1.
         25    2    1    2    0    0  0.00000000000E+00  0.00000000000E+00  0.48902293980E+02  0.13422807869E+03  0.12500297097E+03 0.  0.
          4    1    3    3  501    0  0.53228619381E+02  0.22985905711E+01  0.59501498483E+02  0.79883667051E+02  0.15500000000E+01 0. -1.
         -4    1    3    3    0  501 -0.53228619381E+02 -0.22985905711E+01 -0.10599204504E+02  0.54344411635E+02  0.15500000000E+01 0. -1.
<mgrwt>
<rscale>  2 0.12500297E+03</rscale>
<asrwt>0</asrwt>
<pdfrwt beam="1">  1       21 0.14086952E-01 0.12500297E+03</pdfrwt>
<pdfrwt beam="2">  1       21 0.65635219E-02 0.12500297E+03</pdfrwt>
<totfact> 0.72793326E+06</totfact>
</mgrwt>
</event>
<event>
 5    0  0.1588995E+000  0.1249970E+03  0.7546771E-02  0.1235074E+00
         21   -1    0    0  503  502  0.00000000000E+00  0.00000000000E+00  0.11185002166E+03  0.11185002166E+03  0.00000000000E+00 0.  1.
         21   -1    0    0  502  503 -0.00000000000E+00 -0.00000000000E+00 -0.34922304954E+02  0.34922304954E+02  0.00000000000E+00 0.  1.
         25    2    1    2    0    0  0.00000000000E+00  0.00000000000E+00  0.76927716705E+02  0.14677232661E+03  0.12499696901E+03 0.  0.
          4    1    3    3  501    0  0.89918779887E+01  0.58864057747E+02  0.16252189489E+02  0.61744370815E+02  0.15500000000E+01 0.  1.
         -4    1    3    3    0  501 -0.89918779887E+01 -0.58864057747E+02  0.60675527216E+02  0.85027955798E+02  0.15500000000E+01 0.  1.
<mgrwt>
<rscale>  2 0.12499697E+03</rscale>
<asrwt>0</asrwt>
<pdfrwt beam="1">  1       21 0.17207696E-01 0.12499697E+03</pdfrwt>
<pdfrwt beam="2">  1       21 0.53726623E-02 0.12499697E+03</pdfrwt>
<totfact> 0.71172543E+06</totfact>
</mgrwt>
</event>
<event>
 5    0  0.1222151E+000  0.1250008E+03  0.7546771E-02  0.1235068E+00
         21   -1    0    0  503  502  0.00000000000E+00  0.00000000000E+00  0.19119136024E+01  0.19119136024E+01  0.00000000000E+00 0.  1.
         21   -1    0    0  502  503 -0.00000000000E+00 -0.00000000000E+00 -0.20431354974E+04  0.20431354974E+04  0.00000000000E+00 0.  1.
         25    2    1    2    0    0  0.00000000000E+00  0.00000000000E+00 -0.20412235838E+04  0.20450474110E+04  0.12500077678E+03 0.  0.
          4    1    3    3  501    0  0.10055036548E+02 -0.58756987438E+02 -0.71436036610E+03  0.71684490825E+03  0.15500000000E+01 0. -1.
         -4    1    3    3    0  501 -0.10055036548E+02  0.58756987438E+02 -0.13268632177E+04  0.13282025028E+04  0.15500000000E+01 0. -1.
<mgrwt>
<rscale>  2 0.12500078E+03</rscale>
<asrwt>0</asrwt>
<pdfrwt beam="1">  1       21 0.29414022E-03 0.12500078E+03</pdfrwt>
<pdfrwt beam="2">  1       21 0.31432889E+00 0.12500078E+03</pdfrwt>
<totfact> 0.75168398E+05</totfact>
</mgrwt>
</event>
<event>
 5    0  0.1308058E+000  0.1249045E+03  0.7546771E-02  0.1235219E+00
         21   -1    0    0  503  502  0.00000000000E+00  0.00000000000E+00  0.15747313662E+03  0.15747313662E+03  0.00000000000E+00 0. -1.
         21   -1    0    0  502  503 -0.00000000000E+00 -0.00000000000E+00 -0.24767925055E+02  0.24767925055E+02  0.00000000000E+00 0. -1.
         25    2    1    2    0    0  0.00000000000E+00  0.00000000000E+00  0.13270521157E+03  0.18224106168E+03  0.12490448905E+03 0.  0.
          4    1    3    3  501    0  0.15134083432E+02  0.32751331220E+02  0.14069498229E+03  0.14525553594E+03  0.15500000000E+01 0.  1.
         -4    1    3    3    0  501 -0.15134083432E+02 -0.32751331220E+02 -0.79897707249E+01  0.36985525740E+02  0.15500000000E+01 0.  1.
<mgrwt>
<rscale>  2 0.12490449E+03</rscale>
<asrwt>0</asrwt>
<pdfrwt beam="1">  1       21 0.24226636E-01 0.12490449E+03</pdfrwt>
<pdfrwt beam="2">  1       21 0.38104501E-02 0.12490449E+03</pdfrwt>
<totfact> 0.67057649E+06</totfact>
</mgrwt>
</event>
<event>
 5    0  0.1222151E+000  0.1250035E+03  0.7546771E-02  0.1235064E+00
         21   -1    0    0  503  502  0.00000000000E+00  0.00000000000E+00  0.28662057929E+01  0.28662057929E+01  0.00000000000E+00 0. -1.
         21   -1    0    0  502  503 -0.00000000000E+00 -0.00000000000E+00 -0.13629416994E+04  0.13629416994E+04  0.00000000000E+00 0. -1.
         25    2    1    2    0    0  0.00000000000E+00  0.00000000000E+00 -0.13600754936E+04  0.13658079052E+04  0.12500354226E+03 0.  0.
          4    1    3    3  501    0 -0.44391163836E+02 -0.34253288869E+01 -0.11590172659E+04  0.11598731540E+04  0.15500000000E+01 0.  1.
         -4    1    3    3    0  501  0.44391163836E+02  0.34253288869E+01 -0.20105822774E+03  0.20593475119E+03  0.15500000000E+01 0.  1.
<mgrwt>
<rscale>  2 0.12500354E+03</rscale>
<asrwt>0</asrwt>
<pdfrwt beam="1">  1       21 0.44095546E-03 0.12500354E+03</pdfrwt>
<pdfrwt beam="2">  1       21 0.20968300E+00 0.12500354E+03</pdfrwt>
<totfact> 0.16109192E+06</totfact>
</mgrwt>
</event>
<event>
 5    0  0.1522942E+000  0.1250050E+03  0.7546771E-02  0.1235061E+00
         21   -1    0    0  503  502  0.00000000000E+00  0.00000000000E+00  0.51106948930E+02  0.51106948930E+02  0.00000000000E+00 0.  1.
         21   -1    0    0  502  503 -0.00000000000E+00 -0.00000000000E+00 -0.76438990354E+02  0.76438990354E+02  0.00000000000E+00 0.  1.
         25    2    1    2    0    0  0.00000000000E+00  0.00000000000E+00 -0.25332041425E+02  0.12754593928E+03  0.12500501712E+03 0.  0.
          4    1    3    3  501    0  0.12709809529E+02  0.52730606659E+02  0.18982281324E+02  0.57487265034E+02  0.15500000000E+01 0. -1.
         -4    1    3    3    0  501 -0.12709809529E+02 -0.52730606659E+02 -0.44314322749E+02  0.70058674249E+02  0.15500000000E+01 0. -1.
<mgrwt>
<rscale>  2 0.12500502E+03</rscale>
<asrwt>0</asrwt>
<pdfrwt beam="1">  1       21 0.78626076E-02 0.12500502E+03</pdfrwt>
<pdfrwt beam="2">  1       21 0.11759845E-01 0.12500502E+03</pdfrwt>
<totfact> 0.73685553E+06</totfact>
</mgrwt>
</event>
<event>
 5    0  0.1416657E+000  0.1250000E+03  0.7546771E-02  0.1235069E+00
         21   -1    0    0  503  502  0.00000000000E+00  0.00000000000E+00  0.12468654289E+02  0.12468654289E+02  0.00000000000E+00 0.  1.
         21   -1    0    0  502  503 -0.00000000000E+00 -0.00000000000E+00 -0.31328584271E+03  0.31328584271E+03  0.00000000000E+00 0.  1.
         25    2    1    2    0    0  0.00000000000E+00  0.00000000000E+00 -0.30081718842E+03  0.32575449699E+03  0.12500004586E+03 0.  0.
          4    1    3    3  501    0  0.14083131385E+02  0.56478211876E+02 -0.91226499398E+02  0.10822568872E+03  0.15500000000E+01 0.  1.
         -4    1    3    3    0  501 -0.14083131385E+02 -0.56478211876E+02 -0.20959068902E+03  0.21752880827E+03  0.15500000000E+01 0.  1.
<mgrwt>
<rscale>  2 0.12500005E+03</rscale>
<asrwt>0</asrwt>
<pdfrwt beam="1">  1       21 0.19182547E-02 0.12500005E+03</pdfrwt>
<pdfrwt beam="2">  1       21 0.48197818E-01 0.12500005E+03</pdfrwt>
<totfact> 0.53380396E+06</totfact>
</mgrwt>
</event>
<event>
 5    0  0.1549189E+000  0.1249962E+03  0.7546771E-02  0.1235075E+00
         21   -1    0    0  503  502  0.00000000000E+00  0.00000000000E+00  0.12684170621E+03  0.12684170621E+03  0.00000000000E+00 0.  1.
         21   -1    0    0  502  503 -0.00000000000E+00 -0.00000000000E+00 -0.30794366904E+02  0.30794366904E+02  0.00000000000E+00 0.  1.
         25    2    1    2    0    0  0.00000000000E+00  0.00000000000E+00  0.96047339305E+02  0.15763607311E+03  0.12499616058E+03 0.  0.
          4    1    3    3  501    0  0.55937736418E+02  0.19070568290E+02  0.73587271347E+02  0.94393887169E+02  0.15500000000E+01 0.  1.
         -4    1    3    3    0  501 -0.55937736418E+02 -0.19070568290E+02  0.22460067958E+02  0.63242185945E+02  0.15500000000E+01 0.  1.
<mgrwt>
<rscale>  2 0.12499616E+03</rscale>
<asrwt>0</asrwt>
<pdfrwt beam="1">  1       21 0.19514108E-01 0.12499616E+03</pdfrwt>
<pdfrwt beam="2">  1       21 0.47375950E-02 0.12499616E+03</pdfrwt>
<totfact> 0.69816318E+06</totfact>
</mgrwt>
</event>
<event>
 5    0  0.1222151E+000  0.1249952E+03  0.7546771E-02  0.1235077E+00
         21   -1    0    0  503  502  0.00000000000E+00  0.00000000000E+00  0.46540937843E+01  0.46540937843E+01  0.00000000000E+00 0.  1.
         21   -1    0    0  502  503 -0.00000000000E+00 -0.00000000000E+00 -0.83924999978E+03  0.83924999978E+03  0.00000000000E+00 0.  1.
         25    2    1    2    0    0  0.00000000000E+00  0.00000000000E+00 -0.83459590600E+03  0.84390409356E+03  0.12499517123E+03 0.  0.
          4    1    3    3  501    0 -0.31348783943E+02  0.52279464958E+02 -0.32481062381E+03  0.33048484466E+03  0.15500000000E+01 0.  1.
         -4    1    3    3    0  501  0.31348783943E+02 -0.52279464958E+02 -0.50978528219E+03  0.51341924891E+03  0.15500000000E+01 0.  1.
<mgrwt>
<rscale>  2 0.12499517E+03</rscale>
<asrwt>0</asrwt>
<pdfrwt beam="1">  1       21 0.71601477E-03 0.12499517E+03</pdfrwt>
<pdfrwt beam="2">  1       21 0.12911532E+00 0.12499517E+03</pdfrwt>
<totfact> 0.27962217E+06</totfact>
</mgrwt>
</event>
<event>
 5    0  0.1222151E+000  0.1250071E+03  0.7546771E-02  0.1235058E+00
         21   -1    0    0  503  502  0.00000000000E+00  0.00000000000E+00  0.11357582077E+04  0.11357582077E+04  0.00000000000E+00 0. -1.
         21   -1    0    0  502  503 -0.00000000000E+00 -0.00000000000E+00 -0.34397239925E+01  0.34397239925E+01  0.00000000000E+00 0. -1.
         25    2    1    2    0    0  0.00000000000E+00  0.00000000000E+00  0.11323184837E+04  0.11391979317E+04  0.12500711591E+03 0.  0.
          4    1    3    3  501    0  0.53619330515E+02  0.22767909894E+02  0.77213908526E+03  0.77433492741E+03  0.15500000000E+01 0.  1.
         -4    1    3    3    0  501 -0.53619330515E+02 -0.22767909894E+02  0.36017939845E+03  0.36486300428E+03  0.15500000000E+01 0.  1.
<mgrwt>
<rscale>  2 0.12500712E+03</rscale>
<asrwt>0</asrwt>
<pdfrwt beam="1">  1       21 0.17473173E+00 0.12500712E+03</pdfrwt>
<pdfrwt beam="2">  1       21 0.52918921E-03 0.12500712E+03</pdfrwt>
<totfact> 0.20395142E+06</totfact>
</mgrwt>
</event>
<event>
 5    0  0.1392859E+000  0.1250052E+03  0.7546771E-02  0.1235061E+00
         21   -1    0    0  503  502  0.00000000000E+00  0.00000000000E+00  0.11653900080E+02  0.11653900080E+02  0.00000000000E+00 0. -1.
         21   -1    0    0  502  503 -0.00000000000E+00 -0.00000000000E+00 -0.33521588354E+03  0.33521588354E+03  0.00000000000E+00 0. -1.
         25    2    1    2    0    0  0.00000000000E+00  0.00000000000E+00 -0.32356198346E+03  0.34686978362E+03  0.12500515848E+03 0.  0.
          4    1    3    3  501    0  0.56161643389E+02 -0.80077176982E+01 -0.23445415402E+03  0.24122480504E+03  0.15500000000E+01 0.  1.
         -4    1    3    3    0  501 -0.56161643389E+02  0.80077176982E+01 -0.89107829439E+02  0.10564497858E+03  0.15500000000E+01 0.  1.
<mgrwt>
<rscale>  2 0.12500516E+03</rscale>
<asrwt>0</asrwt>
<pdfrwt beam="1">  1       21 0.17929077E-02 0.12500516E+03</pdfrwt>
<pdfrwt beam="2">  1       21 0.51571675E-01 0.12500516E+03</pdfrwt>
<totfact> 0.51763750E+06</totfact>
</mgrwt>
</event>
<event>
 5    0  0.1502379E+000  0.1249983E+03  0.7546771E-02  0.1235072E+00
         21   -1    0    0  503  502  0.00000000000E+00  0.00000000000E+00  0.20654069302E+03  0.20654069302E+03  0.00000000000E+00 0.  1.
         21   -1    0    0  502  503 -0.00000000000E+00 -0.00000000000E+00 -0.18912228088E+02  0.18912228088E+02  0.00000000000E+00 0.  1.
         25    2    1    2    0    0  0.00000000000E+00  0.00000000000E+00  0.18762846493E+03  0.22545292111E+03  0.12499831512E+03 0.  0.
          4    1    3    3  501    0 -0.39758954726E+02  0.17482733750E+02  0.17482435545E+03  0.18014543630E+03  0.15500000000E+01 0. -1.
         -4    1    3    3    0  501  0.39758954726E+02 -0.17482733750E+02  0.12804109482E+02  0.45307484811E+02  0.15500000000E+01 0. -1.
<mgrwt>
<rscale>  2 0.12499832E+03</rscale>
<asrwt>0</asrwt>
<pdfrwt beam="1">  1       21 0.31775490E-01 0.12499832E+03</pdfrwt>
<pdfrwt beam="2">  1       21 0.29095737E-02 0.12499832E+03</pdfrwt>
<totfact> 0.62272074E+06</totfact>
</mgrwt>
</event>
<event>
 5    0  0.1328343E+000  0.1249976E+03  0.7546771E-02  0.1235073E+00
         21   -1    0    0  503  502  0.00000000000E+00  0.00000000000E+00  0.46243200619E+03  0.46243200619E+03  0.00000000000E+00 0.  1.
         21   -1    0    0  502  503 -0.00000000000E+00 -0.00000000000E+00 -0.84468637126E+01  0.84468637126E+01  0.00000000000E+00 0.  1.
         25    2    1    2    0    0  0.00000000000E+00  0.00000000000E+00  0.45398514248E+03  0.47087886990E+03  0.12499760210E+03 0.  0.
          4    1    3    3  501    0  0.24303951217E+02 -0.14470845159E+02  0.17127043415E+02  0.33103255437E+02  0.15500000000E+01 0. -1.
         -4    1    3    3    0  501 -0.24303951217E+02  0.14470845159E+02  0.43685809906E+03  0.43777561447E+03  0.15500000000E+01 0. -1.
<mgrwt>
<rscale>  2 0.12499760E+03</rscale>
<asrwt>0</asrwt>
<pdfrwt beam="1">  1       21 0.71143366E-01 0.12499760E+03</pdfrwt>
<pdfrwt beam="2">  1       21 0.12995179E-02 0.12499760E+03</pdfrwt>
<totfact> 0.43671338E+06</totfact>
</mgrwt>
</event>
<event>
 5    0  0.1317037E+000  0.1249982E+03  0.7546771E-02  0.1235072E+00
         21   -1    0    0  503  502  0.00000000000E+00  0.00000000000E+00  0.11104608373E+02  0.11104608373E+02  0.00000000000E+00 0.  1.
         21   -1    0    0  502  503 -0.00000000000E+00 -0.00000000000E+00 -0.35175828594E+03  0.35175828594E+03  0.00000000000E+00 0.  1.
         25    2    1    2    0    0  0.00000000000E+00  0.00000000000E+00 -0.34065367757E+03  0.36286289432E+03  0.12499820810E+03 0.  0.
          4    1    3    3  501    0  0.32051295291E+02  0.50797238405E+01 -0.15334423264E+02  0.35925424994E+02  0.15500000000E+01 0. -1.
         -4    1    3    3    0  501 -0.32051295291E+02 -0.50797238405E+01 -0.32531925431E+03  0.32693746932E+03  0.15500000000E+01 0. -1.
<mgrwt>
<rscale>  2 0.12499821E+03</rscale>
<asrwt>0</asrwt>
<pdfrwt beam="1">  1       21 0.17084011E-02 0.12499821E+03</pdfrwt>
<pdfrwt beam="2">  1       21 0.54116664E-01 0.12499821E+03</pdfrwt>
<totfact> 0.50604543E+06</totfact>
</mgrwt>
</event>
<event>
 5    0  0.1320732E+000  0.1249948E+03  0.7546771E-02  0.1235077E+00
         21   -1    0    0  503  502  0.00000000000E+00  0.00000000000E+00  0.61156263294E+03  0.61156263294E+03  0.00000000000E+00 0. -1.
         21   -1    0    0  502  503 -0.00000000000E+00 -0.00000000000E+00 -0.63867986674E+01  0.63867986674E+01  0.00000000000E+00 0. -1.
         25    2    1    2    0    0  0.00000000000E+00  0.00000000000E+00  0.60517583427E+03  0.61794943161E+03  0.12499483844E+03 0.  0.
          4    1    3    3  501    0 -0.37437200665E+01  0.59417231054E+02  0.20890296399E+03  0.21722631896E+03  0.15500000000E+01 0.  1.
         -4    1    3    3    0  501  0.37437200665E+01 -0.59417231054E+02  0.39627287028E+03  0.40072311264E+03  0.15500000000E+01 0.  1.
<mgrwt>
<rscale>  2 0.12499484E+03</rscale>
<asrwt>0</asrwt>
<pdfrwt beam="1">  1       21 0.94086512E-01 0.12499484E+03</pdfrwt>
<pdfrwt beam="2">  1       21 0.98258490E-03 0.12499484E+03</pdfrwt>
<totfact> 0.36297934E+06</totfact>
</mgrwt>
</event>
<event>
 5    0  0.1496459E+000  0.1250097E+03  0.7546771E-02  0.1235054E+00
         21   -1    0    0  503  502  0.00000000000E+00  0.00000000000E+00  0.56601477665E+02  0.56601477665E+02  0.00000000000E+00 0.  1.
         21   -1    0    0  502  503 -0.00000000000E+00 -0.00000000000E+00 -0.69023883256E+02  0.69023883256E+02  0.00000000000E+00 0.  1.
         25    2    1    2    0    0  0.00000000000E+00  0.00000000000E+00 -0.12422405591E+02  0.12562536092E+03  0.12500966021E+03 0.  0.
          4    1    3    3  501    0 -0.53112295440E+00 -0.51278341507E+02  0.29667595765E+02  0.59264822094E+02  0.15500000000E+01 0. -1.
         -4    1    3    3    0  501  0.53112295440E+00  0.51278341507E+02 -0.42090001356E+02  0.66360538827E+02  0.15500000000E+01 0. -1.
<mgrwt>
<rscale>  2 0.12500966E+03</rscale>
<asrwt>0</asrwt>
<pdfrwt beam="1">  1       21 0.87079196E-02 0.12500966E+03</pdfrwt>
<pdfrwt beam="2">  1       21 0.10619059E-01 0.12500966E+03</pdfrwt>
<totfact> 0.73939697E+06</totfact>
</mgrwt>
</event>
<event>
 5    0  0.1481980E+000  0.1249891E+03  0.7546771E-02  0.1235086E+00
         21   -1    0    0  503  502  0.00000000000E+00  0.00000000000E+00  0.22459969644E+02  0.22459969644E+02  0.00000000000E+00 0. -1.
         21   -1    0    0  502  503 -0.00000000000E+00 -0.00000000000E+00 -0.17389016256E+03  0.17389016256E+03  0.00000000000E+00 0. -1.
         25    2    1    2    0    0  0.00000000000E+00  0.00000000000E+00 -0.15143019291E+03  0.19635013220E+03  0.12498908388E+03 0.  0.
          4    1    3    3  501    0  0.36599042170E+01  0.29282995256E+02 -0.16222055602E+03  0.16489026656E+03  0.15500000000E+01 0.  1.
         -4    1    3    3    0  501 -0.36599042170E+01 -0.29282995256E+02  0.10790363110E+02  0.31459865640E+02  0.15500000000E+01 0.  1.
<mgrwt>
<rscale>  2 0.12498908E+03</rscale>
<asrwt>0</asrwt>
<pdfrwt beam="1">  1       21 0.34553801E-02 0.12498908E+03</pdfrwt>
<pdfrwt beam="2">  1       21 0.26752332E-01 0.12498908E+03</pdfrwt>
<totfact> 0.65341621E+06</totfact>
</mgrwt>
</event>
<event>
 5    0  0.1494260E+000  0.1249979E+03  0.7546771E-02  0.1235073E+00
         21   -1    0    0  503  502  0.00000000000E+00  0.00000000000E+00  0.12903891641E+02  0.12903891641E+02  0.00000000000E+00 0. -1.
         21   -1    0    0  502  503 -0.00000000000E+00 -0.00000000000E+00 -0.30270853829E+03  0.30270853829E+03  0.00000000000E+00 0. -1.
         25    2    1    2    0    0  0.00000000000E+00  0.00000000000E+00 -0.28980464665E+03  0.31561242993E+03  0.12499789081E+03 0.  0.
          4    1    3    3  501    0 -0.16098029303E+02 -0.60109187900E+02 -0.13074132382E+03  0.14480316734E+03  0.15500000000E+01 0. -1.
         -4    1    3    3    0  501  0.16098029303E+02  0.60109187900E+02 -0.15906332283E+03  0.17080926259E+03  0.15500000000E+01 0. -1.
<mgrwt>
<rscale>  2 0.12499789E+03</rscale>
<asrwt>0</asrwt>
<pdfrwt beam="1">  1       21 0.19852142E-02 0.12499789E+03</pdfrwt>
<pdfrwt beam="2">  1       21 0.46570541E-01 0.12499789E+03</pdfrwt>
<totfact> 0.54185746E+06</totfact>
</mgrwt>
</event>
<event>
 5    0  0.1555849E+000  0.1250241E+03  0.7546771E-02  0.1235032E+00
         21   -1    0    0  503  502  0.00000000000E+00  0.00000000000E+00  0.36280455331E+02  0.36280455331E+02  0.00000000000E+00 0.  1.
         21   -1    0    0  502  503 -0.00000000000E+00 -0.00000000000E+00 -0.10770976670E+03  0.10770976670E+03  0.00000000000E+00 0.  1.
         25    2    1    2    0    0  0.00000000000E+00  0.00000000000E+00 -0.71429311368E+02  0.14399022203E+03  0.12502414774E+03 0.  0.
          4    1    3    3  501    0 -0.43556275308E+01 -0.49327871266E+02 -0.79617615427E+02  0.93774077234E+02  0.15500000000E+01 0. -1.
         -4    1    3    3    0  501  0.43556275308E+01  0.49327871266E+02  0.81883040587E+01  0.50216144796E+02  0.15500000000E+01 0. -1.
<mgrwt>
<rscale>  2 0.12502415E+03</rscale>
<asrwt>0</asrwt>
<pdfrwt beam="1">  1       21 0.55816086E-02 0.12502415E+03</pdfrwt>
<pdfrwt beam="2">  1       21 0.16570733E-01 0.12502415E+03</pdfrwt>
<totfact> 0.71478607E+06</totfact>
</mgrwt>
</event>
<event>
 5    0  0.1281756E+000  0.1250003E+03  0.7546771E-02  0.1235069E+00
         21   -1    0    0  503  502  0.00000000000E+00  0.00000000000E+00  0.11382107777E+02  0.11382107777E+02  0.00000000000E+00 0.  1.
         21   -1    0    0  502  503 -0.00000000000E+00 -0.00000000000E+00 -0.34319387442E+03  0.34319387442E+03  0.00000000000E+00 0.  1.
         25    2    1    2    0    0  0.00000000000E+00  0.00000000000E+00 -0.33181176664E+03  0.35457598220E+03  0.12500031467E+03 0.  0.
          4    1    3    3  501    0 -0.20592993723E+02  0.33769221424E+02 -0.30310576683E+03  0.30567947280E+03  0.15500000000E+01 0. -1.
         -4    1    3    3    0  501  0.20592993723E+02 -0.33769221424E+02 -0.28705999816E+02  0.48896509400E+02  0.15500000000E+01 0. -1.
<mgrwt>
<rscale>  2 0.12500031E+03</rscale>
<asrwt>0</asrwt>
<pdfrwt beam="1">  1       21 0.17510939E-02 0.12500031E+03</pdfrwt>
<pdfrwt beam="2">  1       21 0.52799047E-01 0.12500031E+03</pdfrwt>
<totfact> 0.51201850E+06</totfact>
</mgrwt>
</event>
<event>
 5    0  0.1224143E+000  0.1250396E+03  0.7546771E-02  0.1235007E+00
         21   -1    0    0  503  502  0.00000000000E+00  0.00000000000E+00  0.56266060998E+01  0.56266060998E+01  0.00000000000E+00 0.  1.
         21   -1    0    0  502  503 -0.00000000000E+00 -0.00000000000E+00 -0.69468596468E+03  0.69468596468E+03  0.00000000000E+00 0.  1.
         25    2    1    2    0    0  0.00000000000E+00  0.00000000000E+00 -0.68905935858E+03  0.70031257078E+03  0.12503958231E+03 0.  0.
          4    1    3    3  501    0 -0.46354236960E+02  0.96490986573E+01 -0.11602952910E+03  0.12532786806E+03  0.15500000000E+01 0. -1.
         -4    1    3    3    0  501  0.46354236960E+02 -0.96490986573E+01 -0.57302982947E+03  0.57498470272E+03  0.15500000000E+01 0. -1.
<mgrwt>
<rscale>  2 0.12503958E+03</rscale>
<asrwt>0</asrwt>
<pdfrwt beam="1">  1       21 0.86563211E-03 0.12503958E+03</pdfrwt>
<pdfrwt beam="2">  1       21 0.10687471E+00 0.12503958E+03</pdfrwt>
<totfact> 0.32865843E+06</totfact>
</mgrwt>
</event>
<event>
 5    0  0.1701452E+000  0.1249998E+03  0.7546771E-02  0.1235070E+00
         21   -1    0    0  503  502  0.00000000000E+00  0.00000000000E+00  0.59960205268E+02  0.59960205268E+02  0.00000000000E+00 0. -1.
         21   -1    0    0  502  503 -0.00000000000E+00 -0.00000000000E+00 -0.65147200233E+02  0.65147200233E+02  0.00000000000E+00 0. -1.
         25    2    1    2    0    0  0.00000000000E+00  0.00000000000E+00 -0.51869949650E+01  0.12510740550E+03  0.12499983198E+03 0.  0.
          4    1    3    3  501    0  0.33970473926E+02  0.52432911754E+02 -0.33902131741E+01  0.62586734850E+02  0.15500000000E+01 0.  1.
         -4    1    3    3    0  501 -0.33970473926E+02 -0.52432911754E+02 -0.17967817909E+01  0.62520670651E+02  0.15500000000E+01 0.  1.
<mgrwt>
<rscale>  2 0.12499983E+03</rscale>
<asrwt>0</asrwt>
<pdfrwt beam="1">  1       21 0.92246470E-02 0.12499983E+03</pdfrwt>
<pdfrwt beam="2">  1       21 0.10022646E-01 0.12499983E+03</pdfrwt>
<totfact> 0.74029393E+06</totfact>
</mgrwt>
</event>
<event>
 5    0  0.1272262E+000  0.1249986E+03  0.7546771E-02  0.1235071E+00
         21   -1    0    0  503  502  0.00000000000E+00  0.00000000000E+00  0.93266364483E+01  0.93266364483E+01  0.00000000000E+00 0. -1.
         21   -1    0    0  502  503 -0.00000000000E+00 -0.00000000000E+00 -0.41881803002E+03  0.41881803002E+03  0.00000000000E+00 0. -1.
         25    2    1    2    0    0  0.00000000000E+00  0.00000000000E+00 -0.40949139357E+03  0.42814466647E+03  0.12499861606E+03 0.  0.
          4    1    3    3  501    0  0.13625744232E+02 -0.30638207930E+02 -0.24169340855E+02  0.41363271491E+02  0.15500000000E+01 0. -1.
         -4    1    3    3    0  501 -0.13625744232E+02  0.30638207930E+02 -0.38532205271E+03  0.38678139498E+03  0.15500000000E+01 0. -1.
<mgrwt>
<rscale>  2 0.12499862E+03</rscale>
<asrwt>0</asrwt>
<pdfrwt beam="1">  1       21 0.14348670E-02 0.12499862E+03</pdfrwt>
<pdfrwt beam="2">  1       21 0.64433550E-01 0.12499862E+03</pdfrwt>
<totfact> 0.46230498E+06</totfact>
</mgrwt>
</event>
<event>
 5    0  0.1222151E+000  0.1250076E+03  0.7546771E-02  0.1235057E+00
         21   -1    0    0  503  502  0.00000000000E+00  0.00000000000E+00  0.43685091682E+01  0.43685091682E+01  0.00000000000E+00 0. -1.
         21   -1    0    0  502  503 -0.00000000000E+00 -0.00000000000E+00 -0.89429255379E+03  0.89429255379E+03  0.00000000000E+00 0. -1.
         25    2    1    2    0    0  0.00000000000E+00  0.00000000000E+00 -0.88992404462E+03  0.89866106296E+03  0.12500760329E+03 0.  0.
          4    1    3    3  501    0  0.53143428164E+02  0.30407737279E+02 -0.53459759316E+03  0.53809464182E+03  0.15500000000E+01 0.  1.
         -4    1    3    3    0  501 -0.53143428164E+02 -0.30407737279E+02 -0.35532645146E+03  0.36056642114E+03  0.15500000000E+01 0.  1.
<mgrwt>
<rscale>  2 0.12500760E+03</rscale>
<asrwt>0</asrwt>
<pdfrwt beam="1">  1       21 0.67207803E-03 0.12500760E+03</pdfrwt>
<pdfrwt beam="2">  1       21 0.13758353E+00 0.12500760E+03</pdfrwt>
<totfact> 0.26332679E+06</totfact>
</mgrwt>
</event>
<event>
 5    0  0.1579067E+000  0.1249771E+03  0.7546771E-02  0.1235105E+00
         21   -1    0    0  503  502  0.00000000000E+00  0.00000000000E+00  0.47116651959E+02  0.47116651959E+02  0.00000000000E+00 0.  1.
         21   -1    0    0  502  503 -0.00000000000E+00 -0.00000000000E+00 -0.82875603550E+02  0.82875603550E+02  0.00000000000E+00 0.  1.
         25    2    1    2    0    0  0.00000000000E+00  0.00000000000E+00 -0.35758951592E+02  0.12999225551E+03  0.12497713340E+03 0.  0.
          4    1    3    3  501    0 -0.25108776203E+02 -0.56993085746E+02 -0.22949074768E+02  0.66390699635E+02  0.15500000000E+01 0. -1.
         -4    1    3    3    0  501  0.25108776203E+02  0.56993085746E+02 -0.12809876823E+02  0.63601555874E+02  0.15500000000E+01 0. -1.
<mgrwt>
<rscale>  2 0.12497713E+03</rscale>
<asrwt>0</asrwt>
<pdfrwt beam="1">  1       21 0.72487158E-02 0.12497713E+03</pdfrwt>
<pdfrwt beam="2">  1       21 0.12750093E-01 0.12497713E+03</pdfrwt>
<totfact> 0.73408796E+06</totfact>
</mgrwt>
</event>
<event>
 5    0  0.1464529E+000  0.1250025E+03  0.7546771E-02  0.1235065E+00
         21   -1    0    0  503  502  0.00000000000E+00  0.00000000000E+00  0.50705478424E+02  0.50705478424E+02  0.00000000000E+00 0.  1.
         21   -1    0    0  502  503 -0.00000000000E+00 -0.00000000000E+00 -0.77041143605E+02  0.77041143605E+02  0.00000000000E+00 0.  1.
         25    2    1    2    0    0  0.00000000000E+00  0.00000000000E+00 -0.26335665181E+02  0.12774662203E+03  0.12500252869E+03 0.  0.
          4    1    3    3  501    0 -0.19562419875E+02 -0.36135811584E+02 -0.61270427221E+02  0.73789924123E+02  0.15500000000E+01 0. -1.
         -4    1    3    3    0  501  0.19562419875E+02  0.36135811584E+02  0.34934762040E+02  0.53956697907E+02  0.15500000000E+01 0. -1.
<mgrwt>
<rscale>  2 0.12500253E+03</rscale>
<asrwt>0</asrwt>
<pdfrwt beam="1">  1       21 0.78008429E-02 0.12500253E+03</pdfrwt>
<pdfrwt beam="2">  1       21 0.11852484E-01 0.12500253E+03</pdfrwt>
<totfact> 0.73663061E+06</totfact>
</mgrwt>
</event>
<event>
 5    0  0.1484631E+000  0.1250076E+03  0.7546771E-02  0.1235057E+00
         21   -1    0    0  503  502  0.00000000000E+00  0.00000000000E+00  0.33552498354E+02  0.33552498354E+02  0.00000000000E+00 0. -1.
         21   -1    0    0  502  503 -0.00000000000E+00 -0.00000000000E+00 -0.11643614199E+03  0.11643614199E+03  0.00000000000E+00 0. -1.
         25    2    1    2    0    0  0.00000000000E+00  0.00000000000E+00 -0.82883643631E+02  0.14998864034E+03  0.12500757517E+03 0.  0.
          4    1    3    3  501    0  0.36228876718E+02 -0.29626311876E+02 -0.91116659113E+02  0.10244460909E+03  0.15500000000E+01 0.  1.
         -4    1    3    3    0  501 -0.36228876718E+02  0.29626311876E+02  0.82330154820E+01  0.47544031250E+02  0.15500000000E+01 0.  1.
<mgrwt>
<rscale>  2 0.12500758E+03</rscale>
<asrwt>0</asrwt>
<pdfrwt beam="1">  1       21 0.51619227E-02 0.12500758E+03</pdfrwt>
<pdfrwt beam="2">  1       21 0.17913253E-01 0.12500758E+03</pdfrwt>
<totfact> 0.70746985E+06</totfact>
</mgrwt>
</event>
<event>
 5    0  0.1521537E+000  0.1249968E+03  0.7546771E-02  0.1235074E+00
         21   -1    0    0  503  502  0.00000000000E+00  0.00000000000E+00  0.26303437747E+02  0.26303437747E+02  0.00000000000E+00 0.  1.
         21   -1    0    0  502  503 -0.00000000000E+00 -0.00000000000E+00 -0.14849963155E+03  0.14849963155E+03  0.00000000000E+00 0.  1.
         25    2    1    2    0    0  0.00000000000E+00  0.00000000000E+00 -0.12219619381E+03  0.17480306930E+03  0.12499681298E+03 0.  0.
          4    1    3    3  501    0  0.14958741326E+02 -0.54809953233E+02 -0.97451429783E+02  0.11281435450E+03  0.15500000000E+01 0. -1.
         -4    1    3    3    0  501 -0.14958741326E+02  0.54809953233E+02 -0.24744764024E+02  0.61988714797E+02  0.15500000000E+01 0. -1.
<mgrwt>
<rscale>  2 0.12499681E+03</rscale>
<asrwt>0</asrwt>
<pdfrwt beam="1">  1       21 0.40466829E-02 0.12499681E+03</pdfrwt>
<pdfrwt beam="2">  1       21 0.22846096E-01 0.12499681E+03</pdfrwt>
<totfact> 0.67758251E+06</totfact>
</mgrwt>
</event>
<event>
 5    0  0.1222151E+000  0.1249990E+03  0.7546771E-02  0.1235071E+00
         21   -1    0    0  503  502  0.00000000000E+00  0.00000000000E+00  0.89897824740E+03  0.89897824740E+03  0.00000000000E+00 0.  1.
         21   -1    0    0  502  503 -0.00000000000E+00 -0.00000000000E+00 -0.43451418067E+01  0.43451418067E+01  0.00000000000E+00 0.  1.
         25    2    1    2    0    0  0.00000000000E+00  0.00000000000E+00  0.89463310559E+03  0.90332338921E+03  0.12499900745E+03 0.  0.
          4    1    3    3  501    0 -0.25441127219E+02  0.29501936604E+02  0.94306231041E+02  0.10204745431E+03  0.15500000000E+01 0. -1.
         -4    1    3    3    0  501  0.25441127219E+02 -0.29501936604E+02  0.80032687455E+03  0.80127593490E+03  0.15500000000E+01 0. -1.
<mgrwt>
<rscale>  2 0.12499901E+03</rscale>
<asrwt>0</asrwt>
<pdfrwt beam="1">  1       21 0.13830420E+00 0.12499901E+03</pdfrwt>
<pdfrwt beam="2">  1       21 0.66848407E-03 0.12499901E+03</pdfrwt>
<totfact> 0.26204451E+06</totfact>
</mgrwt>
</event>
<event>
 5    0  0.1353687E+000  0.1249870E+03  0.7546771E-02  0.1235090E+00
         21   -1    0    0  503  502  0.00000000000E+00  0.00000000000E+00  0.53896941870E+03  0.53896941870E+03  0.00000000000E+00 0.  1.
         21   -1    0    0  502  503 -0.00000000000E+00 -0.00000000000E+00 -0.72461242924E+01  0.72461242924E+01  0.00000000000E+00 0.  1.
         25    2    1    2    0    0  0.00000000000E+00  0.00000000000E+00  0.53172329441E+03  0.54621554300E+03  0.12498702969E+03 0.  0.
          4    1    3    3  501    0  0.15853989508E+02 -0.59732842315E+02  0.22588575457E+03  0.23419252348E+03  0.15500000000E+01 0. -1.
         -4    1    3    3    0  501 -0.15853989508E+02  0.59732842315E+02  0.30583753984E+03  0.31202301952E+03  0.15500000000E+01 0. -1.
<mgrwt>
<rscale>  2 0.12498703E+03</rscale>
<asrwt>0</asrwt>
<pdfrwt beam="1">  1       21 0.82918341E-01 0.12498703E+03</pdfrwt>
<pdfrwt beam="2">  1       21 0.11147888E-02 0.12498703E+03</pdfrwt>
<totfact> 0.39656511E+06</totfact>
</mgrwt>
</event>
<event>
 5    0  0.1452288E+000  0.1249987E+03  0.7546771E-02  0.1235071E+00
         21   -1    0    0  503  502  0.00000000000E+00  0.00000000000E+00  0.24203099476E+03  0.24203099476E+03  0.00000000000E+00 0.  1.
         21   -1    0    0  502  503 -0.00000000000E+00 -0.00000000000E+00 -0.16139113936E+02  0.16139113936E+02  0.00000000000E+00 0.  1.
         25    2    1    2    0    0  0.00000000000E+00  0.00000000000E+00  0.22589188083E+03  0.25817010870E+03  0.12499865280E+03 0.  0.
          4    1    3    3  501    0 -0.57547359295E+02 -0.16074297537E+02  0.75217676772E+02  0.96073841404E+02  0.15500000000E+01 0.  1.
         -4    1    3    3    0  501  0.57547359295E+02  0.16074297537E+02  0.15067420405E+03  0.16209626729E+03  0.15500000000E+01 0.  1.
<mgrwt>
<rscale>  2 0.12499865E+03</rscale>
<asrwt>0</asrwt>
<pdfrwt beam="1">  1       21 0.37235535E-01 0.12499865E+03</pdfrwt>
<pdfrwt beam="2">  1       21 0.24829408E-02 0.12499865E+03</pdfrwt>
<totfact> 0.59119407E+06</totfact>
</mgrwt>
</event>
<event>
 5    0  0.1246913E+000  0.1250011E+03  0.7546771E-02  0.1235068E+00
         21   -1    0    0  503  502  0.00000000000E+00  0.00000000000E+00  0.66137378337E+03  0.66137378337E+03  0.00000000000E+00 0. -1.
         21   -1    0    0  502  503 -0.00000000000E+00 -0.00000000000E+00 -0.59063673812E+01  0.59063673812E+01  0.00000000000E+00 0. -1.
         25    2    1    2    0    0  0.00000000000E+00  0.00000000000E+00  0.65546741599E+03  0.66728015075E+03  0.12500106465E+03 0.  0.
          4    1    3    3  501    0  0.82361773208E+01 -0.45903974257E+02  0.10577100461E+03  0.11560673590E+03  0.15500000000E+01 0.  1.
         -4    1    3    3    0  501 -0.82361773208E+01  0.45903974257E+02  0.54969641138E+03  0.55167341485E+03  0.15500000000E+01 0.  1.
<mgrwt>
<rscale>  2 0.12500106E+03</rscale>
<asrwt>0</asrwt>
<pdfrwt beam="1">  1       21 0.10174975E+00 0.12500106E+03</pdfrwt>
<pdfrwt beam="2">  1       21 0.90867243E-03 0.12500106E+03</pdfrwt>
<totfact> 0.34209241E+06</totfact>
</mgrwt>
</event>
<event>
 5    0  0.1539462E+000  0.1250026E+03  0.7546771E-02  0.1235065E+00
         21   -1    0    0  503  502  0.00000000000E+00  0.00000000000E+00  0.18621191376E+02  0.18621191376E+02  0.00000000000E+00 0. -1.
         21   -1    0    0  502  503 -0.00000000000E+00 -0.00000000000E+00 -0.20978331771E+03  0.20978331771E+03  0.00000000000E+00 0. -1.
         25    2    1    2    0    0  0.00000000000E+00  0.00000000000E+00 -0.19116212633E+03  0.22840450908E+03  0.12500264488E+03 0.  0.
          4    1    3    3  501    0  0.46797920675E+02 -0.40577435674E+02 -0.80575873590E+02  0.10164372863E+03  0.15500000000E+01 0.  1.
         -4    1    3    3    0  501 -0.46797920675E+02  0.40577435674E+02 -0.11058625274E+03  0.12676078045E+03  0.15500000000E+01 0.  1.
<mgrwt>
<rscale>  2 0.12500264E+03</rscale>
<asrwt>0</asrwt>
<pdfrwt beam="1">  1       21 0.28647988E-02 0.12500264E+03</pdfrwt>
<pdfrwt beam="2">  1       21 0.32274355E-01 0.12500264E+03</pdfrwt>
<totfact> 0.61968980E+06</totfact>
</mgrwt>
</event>
<event>
 5    0  0.1322980E+000  0.1250014E+03  0.7546771E-02  0.1235067E+00
         21   -1    0    0  503  502  0.00000000000E+00  0.00000000000E+00  0.97688909157E+01  0.97688909157E+01  0.00000000000E+00 0. -1.
         21   -1    0    0  502  503 -0.00000000000E+00 -0.00000000000E+00 -0.39987540043E+03  0.39987540043E+03  0.00000000000E+00 0. -1.
         25    2    1    2    0    0  0.00000000000E+00  0.00000000000E+00 -0.39010650952E+03  0.40964429135E+03  0.12500142666E+03 0.  0.
          4    1    3    3  501    0  0.59497959430E+02  0.87171053284E+01 -0.25066213087E+03  0.25777878395E+03  0.15500000000E+01 0. -1.
         -4    1    3    3    0  501 -0.59497959430E+02 -0.87171053284E+01 -0.13944437865E+03  0.15186550740E+03  0.15500000000E+01 0. -1.
<mgrwt>
<rscale>  2 0.12500143E+03</rscale>
<asrwt>0</asrwt>
<pdfrwt beam="1">  1       21 0.15029058E-02 0.12500143E+03</pdfrwt>
<pdfrwt beam="2">  1       21 0.61519311E-01 0.12500143E+03</pdfrwt>
<totfact> 0.47406469E+06</totfact>
</mgrwt>
</event>
<event>
 5    0  0.1426462E+000  0.1250004E+03  0.7546771E-02  0.1235069E+00
         21   -1    0    0  503  502  0.00000000000E+00  0.00000000000E+00  0.18580138813E+02  0.18580138813E+02  0.00000000000E+00 0. -1.
         21   -1    0    0  502  503 -0.00000000000E+00 -0.00000000000E+00 -0.21023941103E+03  0.21023941103E+03  0.00000000000E+00 0. -1.
         25    2    1    2    0    0  0.00000000000E+00  0.00000000000E+00 -0.19165927222E+03  0.22881954984E+03  0.12500043905E+03 0.  0.
          4    1    3    3  501    0 -0.43211444899E+02 -0.45099930539E+02 -0.92854085195E+02  0.11191745325E+03  0.15500000000E+01 0. -1.
         -4    1    3    3    0  501  0.43211444899E+02  0.45099930539E+02 -0.98805187020E+02  0.11690209659E+03  0.15500000000E+01 0. -1.
<mgrwt>
<rscale>  2 0.12500044E+03</rscale>
<asrwt>0</asrwt>
<pdfrwt beam="1">  1       21 0.28584828E-02 0.12500044E+03</pdfrwt>
<pdfrwt beam="2">  1       21 0.32344525E-01 0.12500044E+03</pdfrwt>
<totfact> 0.61930964E+06</totfact>
</mgrwt>
</event>
<event>
 5    0  0.1515059E+000  0.1249982E+03  0.7546771E-02  0.1235072E+00
         21   -1    0    0  503  502  0.00000000000E+00  0.00000000000E+00  0.19405944354E+02  0.19405944354E+02  0.00000000000E+00 0. -1.
         21   -1    0    0  502  503 -0.00000000000E+00 -0.00000000000E+00 -0.20128553819E+03  0.20128553819E+03  0.00000000000E+00 0. -1.
         25    2    1    2    0    0  0.00000000000E+00  0.00000000000E+00 -0.18187959383E+03  0.22069148254E+03  0.12499817524E+03 0.  0.
          4    1    3    3  501    0  0.45930350935E+02  0.32004010659E+02 -0.41951390726E+02  0.69972676947E+02  0.15500000000E+01 0. -1.
         -4    1    3    3    0  501 -0.45930350935E+02 -0.32004010659E+02 -0.13992820311E+03  0.15071880560E+03  0.15500000000E+01 0. -1.
<mgrwt>
<rscale>  2 0.12499818E+03</rscale>
<asrwt>0</asrwt>
<pdfrwt beam="1">  1       21 0.29855300E-02 0.12499818E+03</pdfrwt>
<pdfrwt beam="2">  1       21 0.30967005E-01 0.12499818E+03</pdfrwt>
<totfact> 0.62754821E+06</totfact>
</mgrwt>
</event>
<event>
 5    0  0.1437795E+000  0.1249968E+03  0.7546771E-02  0.1235074E+00
         21   -1    0    0  503  502  0.00000000000E+00  0.00000000000E+00  0.26513585606E+03  0.26513585606E+03  0.00000000000E+00 0. -1.
         21   -1    0    0  502  503 -0.00000000000E+00 -0.00000000000E+00 -0.14732248178E+02  0.14732248178E+02  0.00000000000E+00 0. -1.
         25    2    1    2    0    0  0.00000000000E+00  0.00000000000E+00  0.25040360788E+03  0.27986810423E+03  0.12499675568E+03 0.  0.
          4    1    3    3  501    0 -0.32201538325E+02  0.33511974230E+02  0.21869601608E+03  0.22358519951E+03  0.15500000000E+01 0.  1.
         -4    1    3    3    0  501  0.32201538325E+02 -0.33511974230E+02  0.31707591796E+02  0.56282904729E+02  0.15500000000E+01 0.  1.
<mgrwt>
<rscale>  2 0.12499676E+03</rscale>
<asrwt>0</asrwt>
<pdfrwt beam="1">  1       21 0.40790128E-01 0.12499676E+03</pdfrwt>
<pdfrwt beam="2">  1       21 0.22664999E-02 0.12499676E+03</pdfrwt>
<totfact> 0.57176509E+06</totfact>
</mgrwt>
</event>
<event>
 5    0  0.1446183E+000  0.1249960E+03  0.7546771E-02  0.1235076E+00
         21   -1    0    0  503  502  0.00000000000E+00  0.00000000000E+00  0.30750048176E+03  0.30750048176E+03  0.00000000000E+00 0.  1.
         21   -1    0    0  502  503 -0.00000000000E+00 -0.00000000000E+00 -0.12702413660E+02  0.12702413660E+02  0.00000000000E+00 0.  1.
         25    2    1    2    0    0  0.00000000000E+00  0.00000000000E+00  0.29479806810E+03  0.32020289542E+03  0.12499597305E+03 0.  0.
          4    1    3    3  501    0  0.19694925439E+02  0.31979773064E+02  0.19493198575E+02  0.42343633098E+02  0.15500000000E+01 0. -1.
         -4    1    3    3    0  501 -0.19694925439E+02 -0.31979773064E+02  0.27530486952E+03  0.27785926232E+03  0.15500000000E+01 0. -1.
<mgrwt>
<rscale>  2 0.12499597E+03</rscale>
<asrwt>0</asrwt>
<pdfrwt beam="1">  1       21 0.47307761E-01 0.12499597E+03</pdfrwt>
<pdfrwt beam="2">  1       21 0.19542177E-02 0.12499597E+03</pdfrwt>
<totfact> 0.53822708E+06</totfact>
</mgrwt>
</event>
<event>
 5    0  0.1424961E+000  0.1249961E+03  0.7546771E-02  0.1235075E+00
         21   -1    0    0  503  502  0.00000000000E+00  0.00000000000E+00  0.11221021396E+02  0.11221021396E+02  0.00000000000E+00 0. -1.
         21   -1    0    0  502  503 -0.00000000000E+00 -0.00000000000E+00 -0.34809732284E+03  0.34809732284E+03  0.00000000000E+00 0. -1.
         25    2    1    2    0    0  0.00000000000E+00  0.00000000000E+00 -0.33687630144E+03  0.35931834424E+03  0.12499612006E+03 0.  0.
          4    1    3    3  501    0  0.27206480121E+02  0.45841372378E+02 -0.74759368632E+02  0.91831311002E+02  0.15500000000E+01 0.  1.
         -4    1    3    3    0  501 -0.27206480121E+02 -0.45841372378E+02 -0.26211693281E+03  0.26748703323E+03  0.15500000000E+01 0.  1.
<mgrwt>
<rscale>  2 0.12499612E+03</rscale>
<asrwt>0</asrwt>
<pdfrwt beam="1">  1       21 0.17263110E-02 0.12499612E+03</pdfrwt>
<pdfrwt beam="2">  1       21 0.53553434E-01 0.12499612E+03</pdfrwt>
<totfact> 0.50862465E+06</totfact>
</mgrwt>
</event>
<event>
 5    0  0.1503505E+000  0.1249908E+03  0.7546771E-02  0.1235084E+00
         21   -1    0    0  503  502  0.00000000000E+00  0.00000000000E+00  0.97693514106E+02  0.97693514106E+02  0.00000000000E+00 0.  1.
         21   -1    0    0  502  503 -0.00000000000E+00 -0.00000000000E+00 -0.39978858400E+02  0.39978858400E+02  0.00000000000E+00 0.  1.
         25    2    1    2    0    0  0.00000000000E+00  0.00000000000E+00  0.57714655706E+02  0.13767237251E+03  0.12499080234E+03 0.  0.
          4    1    3    3  501    0 -0.36449919896E+02  0.50181813064E+02  0.37133804646E+02  0.72305829435E+02  0.15500000000E+01 0. -1.
         -4    1    3    3    0  501  0.36449919896E+02 -0.50181813064E+02  0.20580851060E+02  0.65366543072E+02  0.15500000000E+01 0. -1.
<mgrwt>
<rscale>  2 0.12499080E+03</rscale>
<asrwt>0</asrwt>
<pdfrwt beam="1">  1       21 0.15029771E-01 0.12499080E+03</pdfrwt>
<pdfrwt beam="2">  1       21 0.61505936E-02 0.12499080E+03</pdfrwt>
<totfact> 0.72361496E+06</totfact>
</mgrwt>
</event>
<event>
 5    0  0.1454220E+000  0.1250084E+03  0.7546771E-02  0.1235056E+00
         21   -1    0    0  503  502  0.00000000000E+00  0.00000000000E+00  0.50148697612E+02  0.50148697612E+02  0.00000000000E+00 0.  1.
         21   -1    0    0  502  503 -0.00000000000E+00 -0.00000000000E+00 -0.77903873940E+02  0.77903873940E+02  0.00000000000E+00 0.  1.
         25    2    1    2    0    0  0.00000000000E+00  0.00000000000E+00 -0.27755176328E+02  0.12805257155E+03  0.12500844479E+03 0.  0.
          4    1    3    3  501    0  0.77893809138E+01  0.32630817776E+02 -0.67876847396E+02  0.75730533051E+02  0.15500000000E+01 0.  1.
         -4    1    3    3    0  501 -0.77893809138E+01 -0.32630817776E+02  0.40121671067E+02  0.52322038502E+02  0.15500000000E+01 0.  1.
<mgrwt>
<rscale>  2 0.12500844E+03</rscale>
<asrwt>0</asrwt>
<pdfrwt beam="1">  1       21 0.77151843E-02 0.12500844E+03</pdfrwt>
<pdfrwt beam="2">  1       21 0.11985211E-01 0.12500844E+03</pdfrwt>
<totfact> 0.73610587E+06</totfact>
</mgrwt>
</event>
<event>
 5    0  0.1449608E+000  0.1249937E+03  0.7546771E-02  0.1235079E+00
         21   -1    0    0  503  502  0.00000000000E+00  0.00000000000E+00  0.16317095660E+02  0.16317095660E+02  0.00000000000E+00 0. -1.
         21   -1    0    0  502  503 -0.00000000000E+00 -0.00000000000E+00 -0.23937194169E+03  0.23937194169E+03  0.00000000000E+00 0. -1.
         25    2    1    2    0    0  0.00000000000E+00  0.00000000000E+00 -0.22305484603E+03  0.25568903735E+03  0.12499367778E+03 0.  0.
          4    1    3    3  501    0  0.43443215632E+02 -0.23182626605E+02 -0.19018940102E+03  0.19646668400E+03  0.15500000000E+01 0. -1.
         -4    1    3    3    0  501 -0.43443215632E+02  0.23182626605E+02 -0.32865445006E+02  0.59222353349E+02  0.15500000000E+01 0. -1.
<mgrwt>
<rscale>  2 0.12499368E+03</rscale>
<asrwt>0</asrwt>
<pdfrwt beam="1">  1       21 0.25103226E-02 0.12499368E+03</pdfrwt>
<pdfrwt beam="2">  1       21 0.36826450E-01 0.12499368E+03</pdfrwt>
<totfact> 0.59356128E+06</totfact>
</mgrwt>
</event>
<event>
 5    0  0.1405552E+000  0.1249953E+03  0.7546771E-02  0.1235077E+00
         21   -1    0    0  503  502  0.00000000000E+00  0.00000000000E+00  0.43902673572E+03  0.43902673572E+03  0.00000000000E+00 0. -1.
         21   -1    0    0  502  503 -0.00000000000E+00 -0.00000000000E+00 -0.88968457633E+01  0.88968457633E+01  0.00000000000E+00 0. -1.
         25    2    1    2    0    0  0.00000000000E+00  0.00000000000E+00  0.43012988996E+03  0.44792358148E+03  0.12499525037E+03 0.  0.
          4    1    3    3  501    0  0.67947143360E+01 -0.61759552182E+02  0.23860197273E+03  0.24656381389E+03  0.15500000000E+01 0.  1.
         -4    1    3    3    0  501 -0.67947143360E+01  0.61759552182E+02  0.19152791722E+03  0.20135976759E+03  0.15500000000E+01 0.  1.
<mgrwt>
<rscale>  2 0.12499525E+03</rscale>
<asrwt>0</asrwt>
<pdfrwt beam="1">  1       21 0.67542558E-01 0.12499525E+03</pdfrwt>
<pdfrwt beam="2">  1       21 0.13687458E-02 0.12499525E+03</pdfrwt>
<totfact> 0.45022118E+06</totfact>
</mgrwt>
</event>
<event>
 4    0  0.1406920E+000  0.1252005E+03  0.7546771E-02  0.1234756E+00
         21   -1    0    0  503  502  0.00000000000E+00  0.00000000000E+00  0.18719505764E+03  0.18719505764E+03  0.00000000000E+00 0.  1.
         21   -1    0    0  502  503 -0.00000000000E+00 -0.00000000000E+00 -0.20934271210E+02  0.20934271210E+02  0.00000000000E+00 0.  1.
          4    1    1    2  501    0  0.31319002751E+02  0.31036634749E+02  0.15695594885E+03  0.16303902910E+03  0.15500000000E+01 0. -1.
         -4    1    1    2    0  501 -0.31319002751E+02 -0.31036634749E+02  0.93048375866E+01  0.45090299759E+02  0.15500000000E+01 0. -1.
<mgrwt>
<rscale>  2 0.12520051E+03</rscale>
<asrwt>0</asrwt>
<pdfrwt beam="1">  1       21 0.28799239E-01 0.12520051E+03</pdfrwt>
<pdfrwt beam="2">  1       21 0.32206572E-02 0.12520051E+03</pdfrwt>
<totfact> 0.63733005E+06</totfact>
</mgrwt>
</event>
<event>
 5    0  0.1431832E+000  0.1250074E+03  0.7546771E-02  0.1235058E+00
         21   -1    0    0  503  502  0.00000000000E+00  0.00000000000E+00  0.30786104085E+03  0.30786104085E+03  0.00000000000E+00 0. -1.
         21   -1    0    0  502  503 -0.00000000000E+00 -0.00000000000E+00 -0.12689862611E+02  0.12689862611E+02  0.00000000000E+00 0. -1.
         25    2    1    2    0    0  0.00000000000E+00  0.00000000000E+00  0.29517117824E+03  0.32055090346E+03  0.12500742877E+03 0.  0.
          4    1    3    3  501    0  0.44980187705E+02 -0.27645419736E+02  0.61890920562E+02  0.81365687279E+02  0.15500000000E+01 0. -1.
         -4    1    3    3    0  501 -0.44980187705E+02  0.27645419736E+02  0.23328025767E+03  0.23918521618E+03  0.15500000000E+01 0. -1.
<mgrwt>
<rscale>  2 0.12500743E+03</rscale>
<asrwt>0</asrwt>
<pdfrwt beam="1">  1       21 0.47363231E-01 0.12500743E+03</pdfrwt>
<pdfrwt beam="2">  1       21 0.19522868E-02 0.12500743E+03</pdfrwt>
<totfact> 0.53779694E+06</totfact>
</mgrwt>
</event>
<event>
 5    0  0.1452763E+000  0.1250026E+03  0.7546771E-02  0.1235065E+00
         21   -1    0    0  503  502  0.00000000000E+00  0.00000000000E+00  0.23130178061E+02  0.23130178061E+02  0.00000000000E+00 0.  1.
         21   -1    0    0  502  503 -0.00000000000E+00 -0.00000000000E+00 -0.16888808282E+03  0.16888808282E+03  0.00000000000E+00 0.  1.
         25    2    1    2    0    0  0.00000000000E+00  0.00000000000E+00 -0.14575790476E+03  0.19201826088E+03  0.12500258282E+03 0.  0.
          4    1    3    3  501    0 -0.11678409760E+02  0.42745895026E+02 -0.52129474547E+01  0.44644978635E+02  0.15500000000E+01 0. -1.
         -4    1    3    3    0  501  0.11678409760E+02 -0.42745895026E+02 -0.14054495731E+03  0.14737328225E+03  0.15500000000E+01 0. -1.
<mgrwt>
<rscale>  2 0.12500258E+03</rscale>
<asrwt>0</asrwt>
<pdfrwt beam="1">  1       21 0.35584888E-02 0.12500258E+03</pdfrwt>
<pdfrwt beam="2">  1       21 0.25982783E-01 0.12500258E+03</pdfrwt>
<totfact> 0.65794546E+06</totfact>
</mgrwt>
</event>
<event>
 5    0  0.1519532E+000  0.1249991E+03  0.7546771E-02  0.1235071E+00
         21   -1    0    0  503  502  0.00000000000E+00  0.00000000000E+00  0.36057936039E+02  0.36057936039E+02  0.00000000000E+00 0. -1.
         21   -1    0    0  502  503 -0.00000000000E+00 -0.00000000000E+00 -0.10833098279E+03  0.10833098279E+03  0.00000000000E+00 0. -1.
         25    2    1    2    0    0  0.00000000000E+00  0.00000000000E+00 -0.72273046752E+02  0.14438891883E+03  0.12499906637E+03 0.  0.
          4    1    3    3  501    0 -0.10770959134E+02 -0.45490015574E+02  0.11747819575E+02  0.48226225670E+02  0.15500000000E+01 0. -1.
         -4    1    3    3    0  501  0.10770959134E+02  0.45490015574E+02 -0.84020866327E+02  0.96162693161E+02  0.15500000000E+01 0. -1.
<mgrwt>
<rscale>  2 0.12499907E+03</rscale>
<asrwt>0</asrwt>
<pdfrwt beam="1">  1       21 0.55473748E-02 0.12499907E+03</pdfrwt>
<pdfrwt beam="2">  1       21 0.16666305E-01 0.12499907E+03</pdfrwt>
<totfact> 0.71473093E+06</totfact>
</mgrwt>
</event>
<event>
 5    0  0.1222151E+000  0.1250070E+03  0.7546771E-02  0.1235058E+00
         21   -1    0    0  503  502  0.00000000000E+00  0.00000000000E+00  0.11160531246E+04  0.11160531246E+04  0.00000000000E+00 0.  1.
         21   -1    0    0  502  503 -0.00000000000E+00 -0.00000000000E+00 -0.35004490697E+01  0.35004490697E+01  0.00000000000E+00 0.  1.
         25    2    1    2    0    0  0.00000000000E+00  0.00000000000E+00  0.11125526755E+04  0.11195535737E+04  0.12500699375E+03 0.  0.
          4    1    3    3  501    0  0.17364614740E+02  0.50275399059E+02  0.84993504511E+03  0.85159915981E+03  0.15500000000E+01 0.  1.
         -4    1    3    3    0  501 -0.17364614740E+02 -0.50275399059E+02  0.26261763044E+03  0.26795441387E+03  0.15500000000E+01 0.  1.
<mgrwt>
<rscale>  2 0.12500699E+03</rscale>
<asrwt>0</asrwt>
<pdfrwt beam="1">  1       21 0.17170020E+00 0.12500699E+03</pdfrwt>
<pdfrwt beam="2">  1       21 0.53853152E-03 0.12500699E+03</pdfrwt>
<totfact> 0.20818145E+06</totfact>
</mgrwt>
</event>
<event>
 5    0  0.1551933E+000  0.1249997E+03  0.7546771E-02  0.1235070E+00
         21   -1    0    0  503  502  0.00000000000E+00  0.00000000000E+00  0.12177984771E+03  0.12177984771E+03  0.00000000000E+00 0.  1.
         21   -1    0    0  502  503 -0.00000000000E+00 -0.00000000000E+00 -0.32076156198E+02  0.32076156198E+02  0.00000000000E+00 0.  1.
         25    2    1    2    0    0  0.00000000000E+00  0.00000000000E+00  0.89703691514E+02  0.15385600391E+03  0.12499967067E+03 0.  0.
          4    1    3    3  501    0  0.57869014361E+02  0.59684768228E+01  0.16800818719E+02  0.60573224682E+02  0.15500000000E+01 0. -1.
         -4    1    3    3    0  501 -0.57869014361E+02 -0.59684768228E+01  0.72902872795E+02  0.93282779228E+02  0.15500000000E+01 0. -1.
<mgrwt>
<rscale>  2 0.12499967E+03</rscale>
<asrwt>0</asrwt>
<pdfrwt beam="1">  1       21 0.18735361E-01 0.12499967E+03</pdfrwt>
<pdfrwt beam="2">  1       21 0.49347933E-02 0.12499967E+03</pdfrwt>
<totfact> 0.70278699E+06</totfact>
</mgrwt>
</event>
<event>
 5    0  0.1314918E+000  0.1249728E+03  0.7546771E-02  0.1235112E+00
         21   -1    0    0  503  502  0.00000000000E+00  0.00000000000E+00  0.39556447564E+03  0.39556447564E+03  0.00000000000E+00 0.  1.
         21   -1    0    0  502  503 -0.00000000000E+00 -0.00000000000E+00 -0.98708317993E+01  0.98708317993E+01  0.00000000000E+00 0.  1.
         25    2    1    2    0    0  0.00000000000E+00  0.00000000000E+00  0.38569364384E+03  0.40543530744E+03  0.12497280352E+03 0.  0.
          4    1    3    3  501    0 -0.24327636250E+02  0.87270909501E+01  0.83511165467E+01  0.27205507706E+02  0.15500000000E+01 0. -1.
         -4    1    3    3    0  501  0.24327636250E+02 -0.87270909501E+01  0.37734252729E+03  0.37822979973E+03  0.15500000000E+01 0. -1.
<mgrwt>
<rscale>  2 0.12497280E+03</rscale>
<asrwt>0</asrwt>
<pdfrwt beam="1">  1       21 0.60856061E-01 0.12497280E+03</pdfrwt>
<pdfrwt beam="2">  1       21 0.15185898E-02 0.12497280E+03</pdfrwt>
<totfact> 0.47715335E+06</totfact>
</mgrwt>
</event>
<event>
 5    0  0.1383139E+000  0.1249983E+03  0.7546771E-02  0.1235072E+00
         21   -1    0    0  503  502  0.00000000000E+00  0.00000000000E+00  0.71496497094E+02  0.71496497094E+02  0.00000000000E+00 0. -1.
         21   -1    0    0  502  503 -0.00000000000E+00 -0.00000000000E+00 -0.54634064857E+02  0.54634064857E+02  0.00000000000E+00 0. -1.
         25    2    1    2    0    0  0.00000000000E+00  0.00000000000E+00  0.16862432238E+02  0.12613056195E+03  0.12499830814E+03 0.  0.
          4    1    3    3  501    0  0.18639874724E+02  0.15856165666E+02 -0.49577595305E+02  0.55310065771E+02  0.15500000000E+01 0. -1.
         -4    1    3    3    0  501 -0.18639874724E+02 -0.15856165666E+02  0.66440027543E+02  0.70820496180E+02  0.15500000000E+01 0. -1.
<mgrwt>
<rscale>  2 0.12499831E+03</rscale>
<asrwt>0</asrwt>
<pdfrwt beam="1">  1       21 0.10999461E-01 0.12499831E+03</pdfrwt>
<pdfrwt beam="2">  1       21 0.84052407E-02 0.12499831E+03</pdfrwt>
<totfact> 0.73891247E+06</totfact>
</mgrwt>
</event>
<event>
 5    0  0.1222151E+000  0.1250004E+03  0.7546771E-02  0.1235069E+00
         21   -1    0    0  503  502  0.00000000000E+00  0.00000000000E+00  0.29836192889E+01  0.29836192889E+01  0.00000000000E+00 0. -1.
         21   -1    0    0  502  503 -0.00000000000E+00 -0.00000000000E+00 -0.13092408610E+04  0.13092408610E+04  0.00000000000E+00 0. -1.
         25    2    1    2    0    0  0.00000000000E+00  0.00000000000E+00 -0.13062572417E+04  0.13122244803E+04  0.12500042059E+03 0.  0.
          4    1    3    3  501    0  0.67712214353E+01  0.61413619845E+02 -0.55555497522E+03  0.55898230306E+03  0.15500000000E+01 0. -1.
         -4    1    3    3    0  501 -0.67712214353E+01 -0.61413619845E+02 -0.75070226651E+03  0.75324217725E+03  0.15500000000E+01 0. -1.
<mgrwt>
<rscale>  2 0.12500042E+03</rscale>
<asrwt>0</asrwt>
<pdfrwt beam="1">  1       21 0.45901887E-03 0.12500042E+03</pdfrwt>
<pdfrwt beam="2">  1       21 0.20142144E+00 0.12500042E+03</pdfrwt>
<totfact> 0.17034112E+06</totfact>
</mgrwt>
</event>
<event>
 5    0  0.1222151E+000  0.1249838E+03  0.7546771E-02  0.1235095E+00
         21   -1    0    0  503  502  0.00000000000E+00  0.00000000000E+00  0.47727331210E+01  0.47727331210E+01  0.00000000000E+00 0. -1.
         21   -1    0    0  502  503 -0.00000000000E+00 -0.00000000000E+00 -0.81823922290E+03  0.81823922290E+03  0.00000000000E+00 0. -1.
         25    2    1    2    0    0  0.00000000000E+00  0.00000000000E+00 -0.81346648978E+03  0.82301195602E+03  0.12498379799E+03 0.  0.
          4    1    3    3  501    0  0.14105729627E+02  0.55452395347E+02 -0.57186916870E+03  0.57472662055E+03  0.15500000000E+01 0. -1.
         -4    1    3    3    0  501 -0.14105729627E+02 -0.55452395347E+02 -0.24159732108E+03  0.24828533548E+03  0.15500000000E+01 0. -1.
<mgrwt>
<rscale>  2 0.12498380E+03</rscale>
<asrwt>0</asrwt>
<pdfrwt beam="1">  1       21 0.73426700E-03 0.12498380E+03</pdfrwt>
<pdfrwt beam="2">  1       21 0.12588289E+00 0.12498380E+03</pdfrwt>
<totfact> 0.28625933E+06</totfact>
</mgrwt>
</event>
<event>
 5    0  0.1527257E+000  0.1249957E+03  0.7546771E-02  0.1235076E+00
         21   -1    0    0  503  502  0.00000000000E+00  0.00000000000E+00  0.14249161123E+03  0.14249161123E+03  0.00000000000E+00 0.  1.
         21   -1    0    0  502  503 -0.00000000000E+00 -0.00000000000E+00 -0.27412023637E+02  0.27412023637E+02  0.00000000000E+00 0.  1.
         25    2    1    2    0    0  0.00000000000E+00  0.00000000000E+00  0.11507958759E+03  0.16990363486E+03  0.12499573457E+03 0.  0.
          4    1    3    3  501    0  0.17405462767E+02  0.57826916292E+02  0.79317004410E+02  0.99702016382E+02  0.15500000000E+01 0.  1.
         -4    1    3    3    0  501 -0.17405462767E+02 -0.57826916292E+02  0.35762583179E+02  0.70201618483E+02  0.15500000000E+01 0.  1.
<mgrwt>
<rscale>  2 0.12499573E+03</rscale>
<asrwt>0</asrwt>
<pdfrwt beam="1">  1       21 0.21921786E-01 0.12499573E+03</pdfrwt>
<pdfrwt beam="2">  1       21 0.42172345E-02 0.12499573E+03</pdfrwt>
<totfact> 0.68336460E+06</totfact>
</mgrwt>
</event>
<event>
 5    0  0.1222151E+000  0.1250703E+03  0.7546771E-02  0.1234959E+00
         21   -1    0    0  503  502  0.00000000000E+00  0.00000000000E+00  0.82054458225E+03  0.82054458225E+03  0.00000000000E+00 0.  1.
         21   -1    0    0  502  503 -0.00000000000E+00 -0.00000000000E+00 -0.47659141287E+01  0.47659141287E+01  0.00000000000E+00 0.  1.
         25    2    1    2    0    0  0.00000000000E+00  0.00000000000E+00  0.81577866812E+03  0.82531049638E+03  0.12507030052E+03 0.  0.
          4    1    3    3  501    0 -0.59188732411E+02 -0.17995010159E+02  0.46732082971E+03  0.47140034664E+03  0.15500000000E+01 0.  1.
         -4    1    3    3    0  501  0.59188732411E+02  0.17995010159E+02  0.34845783841E+03  0.35391014974E+03  0.15500000000E+01 0.  1.
<mgrwt>
<rscale>  2 0.12507030E+03</rscale>
<asrwt>0</asrwt>
<pdfrwt beam="1">  1       21 0.12623752E+00 0.12507030E+03</pdfrwt>
<pdfrwt beam="2">  1       21 0.73321821E-03 0.12507030E+03</pdfrwt>
<totfact> 0.28491614E+06</totfact>
</mgrwt>
</event>
<event>
 5    0  0.1310303E+000  0.1250313E+03  0.7546771E-02  0.1235020E+00
         21   -1    0    0  503  502  0.00000000000E+00  0.00000000000E+00  0.24519490111E+02  0.24519490111E+02  0.00000000000E+00 0.  1.
         21   -1    0    0  502  503 -0.00000000000E+00 -0.00000000000E+00 -0.15939194689E+03  0.15939194689E+03  0.00000000000E+00 0.  1.
         25    2    1    2    0    0  0.00000000000E+00  0.00000000000E+00 -0.13487245678E+03  0.18391143701E+03  0.12503134432E+03 0.  0.
          4    1    3    3  501    0 -0.23678014660E+02 -0.55055262864E+01 -0.15212417801E+03  0.15406208889E+03  0.15500000000E+01 0. -1.
         -4    1    3    3    0  501  0.23678014660E+02  0.55055262864E+01  0.17251721224E+02  0.29849348119E+02  0.15500000000E+01 0. -1.
<mgrwt>
<rscale>  2 0.12503134E+03</rscale>
<asrwt>0</asrwt>
<pdfrwt beam="1">  1       21 0.37722292E-02 0.12503134E+03</pdfrwt>
<pdfrwt beam="2">  1       21 0.24521838E-01 0.12503134E+03</pdfrwt>
<totfact> 0.66652651E+06</totfact>
</mgrwt>
</event>
<event>
 5    0  0.1222151E+000  0.1249977E+03  0.7546771E-02  0.1235073E+00
         21   -1    0    0  503  502  0.00000000000E+00  0.00000000000E+00  0.24626650733E+01  0.24626650733E+01  0.00000000000E+00 0.  1.
         21   -1    0    0  502  503 -0.00000000000E+00 -0.00000000000E+00 -0.15861290183E+04  0.15861290183E+04  0.00000000000E+00 0.  1.
         25    2    1    2    0    0  0.00000000000E+00  0.00000000000E+00 -0.15836663532E+04  0.15885916833E+04  0.12499767254E+03 0.  0.
          4    1    3    3  501    0 -0.10251520823E+02  0.42588631496E+02 -0.13580341012E+04  0.13587412954E+04  0.15500000000E+01 0.  1.
         -4    1    3    3    0  501  0.10251520823E+02 -0.42588631496E+02 -0.22563225197E+03  0.22985038795E+03  0.15500000000E+01 0.  1.
<mgrwt>
<rscale>  2 0.12499767E+03</rscale>
<asrwt>0</asrwt>
<pdfrwt beam="1">  1       21 0.37887047E-03 0.12499767E+03</pdfrwt>
<pdfrwt beam="2">  1       21 0.24402055E+00 0.12499767E+03</pdfrwt>
<totfact> 0.12729996E+06</totfact>
</mgrwt>
</event>
<event>
 5    0  0.1222151E+000  0.1249879E+03  0.7546771E-02  0.1235088E+00
         21   -1    0    0  503  502  0.00000000000E+00  0.00000000000E+00  0.10805264632E+04  0.10805264632E+04  0.00000000000E+00 0.  1.
         21   -1    0    0  502  503 -0.00000000000E+00 -0.00000000000E+00 -0.36144342788E+01  0.36144342788E+01  0.00000000000E+00 0.  1.
         25    2    1    2    0    0  0.00000000000E+00  0.00000000000E+00  0.10769120289E+04  0.10841408975E+04  0.12498786961E+03 0.  0.
          4    1    3    3  501    0  0.54720674903E+02  0.28128475804E+02  0.44442203986E+03  0.44866347682E+03  0.15500000000E+01 0.  1.
         -4    1    3    3    0  501 -0.54720674903E+02 -0.28128475804E+02  0.63248998906E+03  0.63547742066E+03  0.15500000000E+01 0.  1.
<mgrwt>
<rscale>  2 0.12498787E+03</rscale>
<asrwt>0</asrwt>
<pdfrwt beam="1">  1       21 0.16623458E+00 0.12498787E+03</pdfrwt>
<pdfrwt beam="2">  1       21 0.55606767E-03 0.12498787E+03</pdfrwt>
<totfact> 0.21614127E+06</totfact>
</mgrwt>
</event>
<event>
 5    0  0.1438906E+000  0.1250022E+03  0.7546771E-02  0.1235066E+00
         21   -1    0    0  503  502  0.00000000000E+00  0.00000000000E+00  0.27127129926E+03  0.27127129926E+03  0.00000000000E+00 0. -1.
         21   -1    0    0  502  503 -0.00000000000E+00 -0.00000000000E+00 -0.14400286560E+02  0.14400286560E+02  0.00000000000E+00 0. -1.
         25    2    1    2    0    0  0.00000000000E+00  0.00000000000E+00  0.25687101270E+03  0.28567158582E+03  0.12500215110E+03 0.  0.
          4    1    3    3  501    0  0.88615871520E+00 -0.49075937350E+02  0.40079983596E+02  0.63388015342E+02  0.15500000000E+01 0. -1.
         -4    1    3    3    0  501 -0.88615871520E+00  0.49075937350E+02  0.21679102911E+03  0.22228357048E+03  0.15500000000E+01 0. -1.
<mgrwt>
<rscale>  2 0.12500215E+03</rscale>
<asrwt>0</asrwt>
<pdfrwt beam="1">  1       21 0.41734042E-01 0.12500215E+03</pdfrwt>
<pdfrwt beam="2">  1       21 0.22154289E-02 0.12500215E+03</pdfrwt>
<totfact> 0.56665283E+06</totfact>
</mgrwt>
</event>
<event>
 5    0  0.1331462E+000  0.1249873E+03  0.7546771E-02  0.1235089E+00
         21   -1    0    0  503  502  0.00000000000E+00  0.00000000000E+00  0.13669035178E+02  0.13669035178E+02  0.00000000000E+00 0.  1.
         21   -1    0    0  502  503 -0.00000000000E+00 -0.00000000000E+00 -0.28571541259E+03  0.28571541259E+03  0.00000000000E+00 0.  1.
         25    2    1    2    0    0  0.00000000000E+00  0.00000000000E+00 -0.27204637742E+03  0.29938444777E+03  0.12498726376E+03 0.  0.
          4    1    3    3  501    0  0.17603143963E+02 -0.27134643237E+02 -0.79935895102E+01  0.33353553247E+02  0.15500000000E+01 0.  1.
         -4    1    3    3    0  501 -0.17603143963E+02  0.27134643237E+02 -0.26405278791E+03  0.26603089453E+03  0.15500000000E+01 0.  1.
<mgrwt>
<rscale>  2 0.12498726E+03</rscale>
<asrwt>0</asrwt>
<pdfrwt beam="1">  1       21 0.21029287E-02 0.12498726E+03</pdfrwt>
<pdfrwt beam="2">  1       21 0.43956213E-01 0.12498726E+03</pdfrwt>
<totfact> 0.55525136E+06</totfact>
</mgrwt>
</event>
<event>
 5    0  0.1542470E+000  0.1250147E+03  0.7546771E-02  0.1235046E+00
         21   -1    0    0  503  502  0.00000000000E+00  0.00000000000E+00  0.21999019897E+03  0.21999019897E+03  0.00000000000E+00 0. -1.
         21   -1    0    0  502  503 -0.00000000000E+00 -0.00000000000E+00 -0.17760653422E+02  0.17760653422E+02  0.00000000000E+00 0. -1.
         25    2    1    2    0    0  0.00000000000E+00  0.00000000000E+00  0.20222954555E+03  0.23775085240E+03  0.12501471402E+03 0.  0.
          4    1    3    3  501    0  0.24588554224E+02 -0.54730191535E+02  0.67913742663E+02  0.90634815643E+02  0.15500000000E+01 0.  1.
         -4    1    3    3    0  501 -0.24588554224E+02  0.54730191535E+02  0.13431580289E+03  0.14711603675E+03  0.15500000000E+01 0.  1.
<mgrwt>
<rscale>  2 0.12501471E+03</rscale>
<asrwt>0</asrwt>
<pdfrwt beam="1">  1       21 0.33844644E-01 0.12501471E+03</pdfrwt>
<pdfrwt beam="2">  1       21 0.27324084E-02 0.12501471E+03</pdfrwt>
<totfact> 0.61028331E+06</totfact>
</mgrwt>
</event>
<event>
 5    0  0.1542300E+000  0.1249886E+03  0.7546771E-02  0.1235087E+00
         21   -1    0    0  503  502  0.00000000000E+00  0.00000000000E+00  0.97065355137E+02  0.97065355137E+02  0.00000000000E+00 0.  1.
         21   -1    0    0  502  503 -0.00000000000E+00 -0.00000000000E+00 -0.40236175792E+02  0.40236175792E+02  0.00000000000E+00 0.  1.
         25    2    1    2    0    0  0.00000000000E+00  0.00000000000E+00  0.56829179345E+02  0.13730153093E+03  0.12498861856E+03 0.  0.
          4    1    3    3  501    0 -0.52057536654E+02 -0.27047426671E+02  0.48135506755E+01  0.58882282413E+02  0.15500000000E+01 0. -1.
         -4    1    3    3    0  501  0.52057536654E+02  0.27047426671E+02  0.52015628670E+02  0.78419248517E+02  0.15500000000E+01 0. -1.
<mgrwt>
<rscale>  2 0.12498862E+03</rscale>
<asrwt>0</asrwt>
<pdfrwt beam="1">  1       21 0.14933131E-01 0.12498862E+03</pdfrwt>
<pdfrwt beam="2">  1       21 0.61901809E-02 0.12498862E+03</pdfrwt>
<totfact> 0.72414159E+06</totfact>
</mgrwt>
</event>
<event>
 5    0  0.1222151E+000  0.1249968E+03  0.7546771E-02  0.1235074E+00
         21   -1    0    0  503  502  0.00000000000E+00  0.00000000000E+00  0.34766562093E+02  0.34766562093E+02  0.00000000000E+00 0.  1.
         21   -1    0    0  502  503 -0.00000000000E+00 -0.00000000000E+00 -0.11235085862E+03  0.11235085862E+03  0.00000000000E+00 0.  1.
         25    2    1    2    0    0  0.00000000000E+00  0.00000000000E+00 -0.77584296529E+02  0.14711742071E+03  0.12499684960E+03 0.  0.
          4    1    3    3  501    0  0.73922210209E+01 -0.20438531140E+02 -0.10773553528E+03  0.10991690748E+03  0.15500000000E+01 0.  1.
         -4    1    3    3    0  501 -0.73922210209E+01  0.20438531140E+02  0.30151238753E+02  0.37200513237E+02  0.15500000000E+01 0.  1.
<mgrwt>
<rscale>  2 0.12499685E+03</rscale>
<asrwt>0</asrwt>
<pdfrwt beam="1">  1       21 0.53487019E-02 0.12499685E+03</pdfrwt>
<pdfrwt beam="2">  1       21 0.17284747E-01 0.12499685E+03</pdfrwt>
<totfact> 0.71128917E+06</totfact>
</mgrwt>
</event>
<event>
 5    0  0.1222151E+000  0.1250007E+03  0.7546771E-02  0.1235068E+00
         21   -1    0    0  503  502  0.00000000000E+00  0.00000000000E+00  0.70895597860E+03  0.70895597860E+03  0.00000000000E+00 0. -1.
         21   -1    0    0  502  503 -0.00000000000E+00 -0.00000000000E+00 -0.55099274586E+01  0.55099274586E+01  0.00000000000E+00 0. -1.
         25    2    1    2    0    0  0.00000000000E+00  0.00000000000E+00  0.70344605114E+03  0.71446590606E+03  0.12500073621E+03 0.  0.
          4    1    3    3  501    0 -0.40470095700E+02 -0.41440945538E+02  0.21783506577E+03  0.22541006852E+03  0.15500000000E+01 0. -1.
         -4    1    3    3    0  501  0.40470095700E+02  0.41440945538E+02  0.48561098537E+03  0.48905583754E+03  0.15500000000E+01 0. -1.
<mgrwt>
<rscale>  2 0.12500074E+03</rscale>
<asrwt>0</asrwt>
<pdfrwt beam="1">  1       21 0.10907008E+00 0.12500074E+03</pdfrwt>
<pdfrwt beam="2">  1       21 0.84768171E-03 0.12500074E+03</pdfrwt>
<totfact> 0.32359269E+06</totfact>
</mgrwt>
</event>
<event>
 5    0  0.1393469E+000  0.1250011E+03  0.7546771E-02  0.1235068E+00
         21   -1    0    0  503  502  0.00000000000E+00  0.00000000000E+00  0.80522143672E+01  0.80522143672E+01  0.00000000000E+00 0. -1.
         21   -1    0    0  502  503 -0.00000000000E+00 -0.00000000000E+00 -0.48512357878E+03  0.48512357878E+03  0.00000000000E+00 0. -1.
         25    2    1    2    0    0  0.00000000000E+00  0.00000000000E+00 -0.47707136441E+03  0.49317579314E+03  0.12500110481E+03 0.  0.
          4    1    3    3  501    0 -0.48675318661E+02 -0.32070507825E+02 -0.14977688612E+03  0.16072747816E+03  0.15500000000E+01 0. -1.
         -4    1    3    3    0  501  0.48675318661E+02  0.32070507825E+02 -0.32729447829E+03  0.33244831499E+03  0.15500000000E+01 0. -1.
<mgrwt>
<rscale>  2 0.12500110E+03</rscale>
<asrwt>0</asrwt>
<pdfrwt beam="1">  1       21 0.12388021E-02 0.12500110E+03</pdfrwt>
<pdfrwt beam="2">  1       21 0.74634402E-01 0.12500110E+03</pdfrwt>
<totfact> 0.42415428E+06</totfact>
</mgrwt>
</event>
<event>
 5    0  0.1479015E+000  0.1249970E+03  0.7546771E-02  0.1235074E+00
         21   -1    0    0  503  502  0.00000000000E+00  0.00000000000E+00  0.12859899589E+03  0.12859899589E+03  0.00000000000E+00 0. -1.
         21   -1    0    0  502  503 -0.00000000000E+00 -0.00000000000E+00 -0.30373992764E+02  0.30373992764E+02  0.00000000000E+00 0. -1.
         25    2    1    2    0    0  0.00000000000E+00  0.00000000000E+00  0.98225003130E+02  0.15897298866E+03  0.12499703950E+03 0.  0.
          4    1    3    3  501    0  0.39793975865E+02 -0.91491156110E+01  0.10925728013E+03  0.11664828585E+03  0.15500000000E+01 0. -1.
         -4    1    3    3    0  501 -0.39793975865E+02  0.91491156110E+01 -0.11032276999E+02  0.42324702803E+02  0.15500000000E+01 0. -1.
<mgrwt>
<rscale>  2 0.12499704E+03</rscale>
<asrwt>0</asrwt>
<pdfrwt beam="1">  1       21 0.19784461E-01 0.12499704E+03</pdfrwt>
<pdfrwt beam="2">  1       21 0.46729220E-02 0.12499704E+03</pdfrwt>
<totfact> 0.69650447E+06</totfact>
</mgrwt>
</event>
<event>
 4    0  0.1405215E+000  0.1254141E+03  0.7546771E-02  0.1234424E+00
         21   -1    0    0  503  502  0.00000000000E+00  0.00000000000E+00  0.23205923735E+03  0.23205923735E+03  0.00000000000E+00 0. -1.
         21   -1    0    0  502  503 -0.00000000000E+00 -0.00000000000E+00 -0.16944698860E+02  0.16944698860E+02  0.00000000000E+00 0. -1.
          4    1    1    2  501    0 -0.32053186997E+02  0.17297625899E+02  0.20885740277E+03  0.21201516892E+03  0.15500000000E+01 0. -1.
         -4    1    1    2    0  501  0.32053186997E+02 -0.17297625899E+02  0.62571357180E+01  0.36988767292E+02  0.15500000000E+01 0. -1.
<mgrwt>
<rscale>  2 0.12541410E+03</rscale>
<asrwt>0</asrwt>
<pdfrwt beam="1">  1       21 0.35701419E-01 0.12541410E+03</pdfrwt>
<pdfrwt beam="2">  1       21 0.26068769E-02 0.12541410E+03</pdfrwt>
<totfact> 0.59350210E+06</totfact>
</mgrwt>
</event>
<event>
 5    0  0.1410584E+000  0.1249921E+03  0.7546771E-02  0.1235082E+00
         21   -1    0    0  503  502  0.00000000000E+00  0.00000000000E+00  0.26113969626E+03  0.26113969626E+03  0.00000000000E+00 0. -1.
         21   -1    0    0  502  503 -0.00000000000E+00 -0.00000000000E+00 -0.14956570658E+02  0.14956570658E+02  0.00000000000E+00 0. -1.
         25    2    1    2    0    0  0.00000000000E+00  0.00000000000E+00  0.24618312561E+03  0.27609626692E+03  0.12499206885E+03 0.  0.
          4    1    3    3  501    0 -0.57252234020E+02  0.31755149211E+01  0.17789077731E+03  0.18691022804E+03  0.15500000000E+01 0. -1.
         -4    1    3    3    0  501  0.57252234020E+02 -0.31755149211E+01  0.68292348299E+02  0.89186038882E+02  0.15500000000E+01 0. -1.
<mgrwt>
<rscale>  2 0.12499207E+03</rscale>
<asrwt>0</asrwt>
<pdfrwt beam="1">  1       21 0.40175334E-01 0.12499207E+03</pdfrwt>
<pdfrwt beam="2">  1       21 0.23010111E-02 0.12499207E+03</pdfrwt>
<totfact> 0.57514549E+06</totfact>
</mgrwt>
</event>
<event>
 5    0  0.1554276E+000  0.1249687E+03  0.7546771E-02  0.1235118E+00
         21   -1    0    0  503  502  0.00000000000E+00  0.00000000000E+00  0.16066431333E+03  0.16066431333E+03  0.00000000000E+00 0. -1.
         21   -1    0    0  502  503 -0.00000000000E+00 -0.00000000000E+00 -0.24300939781E+02  0.24300939781E+02  0.00000000000E+00 0. -1.
         25    2    1    2    0    0  0.00000000000E+00  0.00000000000E+00  0.13636337355E+03  0.18496525311E+03  0.12496869693E+03 0.  0.
          4    1    3    3  501    0  0.49375591326E+02  0.27487313636E+02  0.10757523336E+03  0.12152503759E+03  0.15500000000E+01 0.  1.
         -4    1    3    3    0  501 -0.49375591326E+02 -0.27487313636E+02  0.28788140194E+02  0.63440215522E+02  0.15500000000E+01 0.  1.
<mgrwt>
<rscale>  2 0.12496870E+03</rscale>
<asrwt>0</asrwt>
<pdfrwt beam="1">  1       21 0.24717586E-01 0.12496870E+03</pdfrwt>
<pdfrwt beam="2">  1       21 0.37386062E-02 0.12496870E+03</pdfrwt>
<totfact> 0.66639324E+06</totfact>
</mgrwt>
</event>
<event>
 5    0  0.1464326E+000  0.1249977E+03  0.7546771E-02  0.1235073E+00
         21   -1    0    0  503  502  0.00000000000E+00  0.00000000000E+00  0.32448274106E+03  0.32448274106E+03  0.00000000000E+00 0.  1.
         21   -1    0    0  502  503 -0.00000000000E+00 -0.00000000000E+00 -0.12037956995E+02  0.12037956995E+02  0.00000000000E+00 0.  1.
         25    2    1    2    0    0  0.00000000000E+00  0.00000000000E+00  0.31244478406E+03  0.33652069805E+03  0.12499774850E+03 0.  0.
          4    1    3    3  501    0 -0.43303950352E+02  0.35370750613E+02  0.23128567868E+03  0.23795333529E+03  0.15500000000E+01 0. -1.
         -4    1    3    3    0  501  0.43303950352E+02 -0.35370750613E+02  0.81159105386E+02  0.98567362763E+02  0.15500000000E+01 0. -1.
<mgrwt>
<rscale>  2 0.12499775E+03</rscale>
<asrwt>0</asrwt>
<pdfrwt beam="1">  1       21 0.49920415E-01 0.12499775E+03</pdfrwt>
<pdfrwt beam="2">  1       21 0.18519936E-02 0.12499775E+03</pdfrwt>
<totfact> 0.52552558E+06</totfact>
</mgrwt>
</event>
<event>
 5    0  0.1522777E+000  0.1250012E+03  0.7546771E-02  0.1235067E+00
         21   -1    0    0  503  502  0.00000000000E+00  0.00000000000E+00  0.27828382242E+02  0.27828382242E+02  0.00000000000E+00 0. -1.
         21   -1    0    0  502  503 -0.00000000000E+00 -0.00000000000E+00 -0.14037195669E+03  0.14037195669E+03  0.00000000000E+00 0. -1.
         25    2    1    2    0    0  0.00000000000E+00  0.00000000000E+00 -0.11254357445E+03  0.16820033893E+03  0.12500119146E+03 0.  0.
          4    1    3    3  501    0  0.34139865241E+02  0.36440366956E+02 -0.57361311522E+01  0.50286543360E+02  0.15500000000E+01 0.  1.
         -4    1    3    3    0  501 -0.34139865241E+02 -0.36440366956E+02 -0.10680744329E+03  0.11791379557E+03  0.15500000000E+01 0.  1.
<mgrwt>
<rscale>  2 0.12500119E+03</rscale>
<asrwt>0</asrwt>
<pdfrwt beam="1">  1       21 0.42812896E-02 0.12500119E+03</pdfrwt>
<pdfrwt beam="2">  1       21 0.21595685E-01 0.12500119E+03</pdfrwt>
<totfact> 0.68529052E+06</totfact>
</mgrwt>
</event>
<event>
 5    0  0.1465090E+000  0.1250018E+03  0.7546771E-02  0.1235066E+00
         21   -1    0    0  503  502  0.00000000000E+00  0.00000000000E+00  0.22652776631E+02  0.22652776631E+02  0.00000000000E+00 0. -1.
         21   -1    0    0  502  503 -0.00000000000E+00 -0.00000000000E+00 -0.17244526809E+03  0.17244526809E+03  0.00000000000E+00 0. -1.
         25    2    1    2    0    0  0.00000000000E+00  0.00000000000E+00 -0.14979249145E+03  0.19509804472E+03  0.12500182621E+03 0.  0.
          4    1    3    3  501    0  0.15176974495E+02 -0.33695439695E+02 -0.15352886936E+03  0.15792162435E+03  0.15500000000E+01 0.  1.
         -4    1    3    3    0  501 -0.15176974495E+02  0.33695439695E+02  0.37363779076E+01  0.37176420362E+02  0.15500000000E+01 0.  1.
<mgrwt>
<rscale>  2 0.12500183E+03</rscale>
<asrwt>0</asrwt>
<pdfrwt beam="1">  1       21 0.34850425E-02 0.12500183E+03</pdfrwt>
<pdfrwt beam="2">  1       21 0.26530041E-01 0.12500183E+03</pdfrwt>
<totfact> 0.65457265E+06</totfact>
</mgrwt>
</event>
<event>
 5    0  0.1533635E+000  0.1250022E+03  0.7546771E-02  0.1235066E+00
         21   -1    0    0  503  502  0.00000000000E+00  0.00000000000E+00  0.21620517948E+02  0.21620517948E+02  0.00000000000E+00 0. -1.
         21   -1    0    0  502  503 -0.00000000000E+00 -0.00000000000E+00 -0.18067963280E+03  0.18067963280E+03  0.00000000000E+00 0. -1.
         25    2    1    2    0    0  0.00000000000E+00  0.00000000000E+00 -0.15905911485E+03  0.20230015075E+03  0.12500219588E+03 0.  0.
          4    1    3    3  501    0  0.12519622276E+02 -0.56488322258E+02 -0.41358141822E+02  0.71137682620E+02  0.15500000000E+01 0. -1.
         -4    1    3    3    0  501 -0.12519622276E+02  0.56488322258E+02 -0.11770097303E+03  0.13116246813E+03  0.15500000000E+01 0. -1.
<mgrwt>
<rscale>  2 0.12500220E+03</rscale>
<asrwt>0</asrwt>
<pdfrwt beam="1">  1       21 0.33262335E-02 0.12500220E+03</pdfrwt>
<pdfrwt beam="2">  1       21 0.27796867E-01 0.12500220E+03</pdfrwt>
<totfact> 0.64675270E+06</totfact>
</mgrwt>
</event>
<event>
 5    0  0.1222151E+000  0.1250005E+03  0.7546771E-02  0.1235068E+00
         21   -1    0    0  503  502  0.00000000000E+00  0.00000000000E+00  0.14336217137E+02  0.14336217137E+02  0.00000000000E+00 0. -1.
         21   -1    0    0  502  503 -0.00000000000E+00 -0.00000000000E+00 -0.27247663002E+03  0.27247663002E+03  0.00000000000E+00 0. -1.
         25    2    1    2    0    0  0.00000000000E+00  0.00000000000E+00 -0.25814041288E+03  0.28681284715E+03  0.12500054612E+03 0.  0.
          4    1    3    3  501    0  0.90991917471E+00  0.24539941089E+02  0.27552409909E+01  0.24759453032E+02  0.15500000000E+01 0. -1.
         -4    1    3    3    0  501 -0.90991917471E+00 -0.24539941089E+02 -0.26089565387E+03  0.26205339412E+03  0.15500000000E+01 0. -1.
<mgrwt>
<rscale>  2 0.12500055E+03</rscale>
<asrwt>0</asrwt>
<pdfrwt beam="1">  1       21 0.22055719E-02 0.12500055E+03</pdfrwt>
<pdfrwt beam="2">  1       21 0.41919481E-01 0.12500055E+03</pdfrwt>
<totfact> 0.56569421E+06</totfact>
</mgrwt>
</event>
<event>
 5    0  0.1222151E+000  0.1249980E+03  0.7546771E-02  0.1235072E+00
         21   -1    0    0  503  502  0.00000000000E+00  0.00000000000E+00  0.24511433095E+01  0.24511433095E+01  0.00000000000E+00 0. -1.
         21   -1    0    0  502  503 -0.00000000000E+00 -0.00000000000E+00 -0.15935936581E+04  0.15935936581E+04  0.00000000000E+00 0. -1.
         25    2    1    2    0    0  0.00000000000E+00  0.00000000000E+00 -0.15911425148E+04  0.15960448014E+04  0.12499802291E+03 0.  0.
          4    1    3    3  501    0 -0.56318171239E+01 -0.45118564870E+02 -0.24840877138E+03  0.25254053626E+03  0.15500000000E+01 0.  1.
         -4    1    3    3    0  501  0.56318171239E+01  0.45118564870E+02 -0.13427337434E+04  0.13435042651E+04  0.15500000000E+01 0.  1.
<mgrwt>
<rscale>  2 0.12499802E+03</rscale>
<asrwt>0</asrwt>
<pdfrwt beam="1">  1       21 0.37710121E-03 0.12499802E+03</pdfrwt>
<pdfrwt beam="2">  1       21 0.24516680E+00 0.12499802E+03</pdfrwt>
<totfact> 0.12628243E+06</totfact>
</mgrwt>
</event>
<event>
 5    0  0.1579066E+000  0.1249990E+03  0.7546771E-02  0.1235071E+00
         21   -1    0    0  503  502  0.00000000000E+00  0.00000000000E+00  0.43276669748E+02  0.43276669748E+02  0.00000000000E+00 0.  1.
         21   -1    0    0  502  503 -0.00000000000E+00 -0.00000000000E+00 -0.90260802091E+02  0.90260802091E+02  0.00000000000E+00 0.  1.
         25    2    1    2    0    0  0.00000000000E+00  0.00000000000E+00 -0.46984132344E+02  0.13353747184E+03  0.12499899077E+03 0.  0.
          4    1    3    3  501    0 -0.56637279863E+02 -0.25049864776E+02 -0.14649774432E+02  0.63657643583E+02  0.15500000000E+01 0. -1.
         -4    1    3    3    0  501  0.56637279863E+02  0.25049864776E+02 -0.32334357911E+02  0.69879828256E+02  0.15500000000E+01 0. -1.
<mgrwt>
<rscale>  2 0.12499899E+03</rscale>
<asrwt>0</asrwt>
<pdfrwt beam="1">  1       21 0.66579492E-02 0.12499899E+03</pdfrwt>
<pdfrwt beam="2">  1       21 0.13886277E-01 0.12499899E+03</pdfrwt>
<totfact> 0.72892588E+06</totfact>
</mgrwt>
</event>
<event>
 5    0  0.1454361E+000  0.1250018E+03  0.7546771E-02  0.1235066E+00
         21   -1    0    0  503  502  0.00000000000E+00  0.00000000000E+00  0.15315806150E+02  0.15315806150E+02  0.00000000000E+00 0. -1.
         21   -1    0    0  502  503 -0.00000000000E+00 -0.00000000000E+00 -0.25505451417E+03  0.25505451417E+03  0.00000000000E+00 0. -1.
         25    2    1    2    0    0  0.00000000000E+00  0.00000000000E+00 -0.23973870802E+03  0.27037032032E+03  0.12500184793E+03 0.  0.
          4    1    3    3  501    0 -0.96031672650E+01 -0.44581724724E+02 -0.27488869460E+02  0.53270924951E+02  0.15500000000E+01 0.  1.
         -4    1    3    3    0  501  0.96031672650E+01  0.44581724724E+02 -0.21224983856E+03  0.21709939537E+03  0.15500000000E+01 0.  1.
<mgrwt>
<rscale>  2 0.12500185E+03</rscale>
<asrwt>0</asrwt>
<pdfrwt beam="1">  1       21 0.23562779E-02 0.12500185E+03</pdfrwt>
<pdfrwt beam="2">  1       21 0.39239156E-01 0.12500185E+03</pdfrwt>
<totfact> 0.58008917E+06</totfact>
</mgrwt>
</event>
<event>
 5    0  0.1439845E+000  0.1250009E+03  0.7546771E-02  0.1235068E+00
         21   -1    0    0  503  502  0.00000000000E+00  0.00000000000E+00  0.11000942102E+02  0.11000942102E+02  0.00000000000E+00 0. -1.
         21   -1    0    0  502  503 -0.00000000000E+00 -0.00000000000E+00 -0.35508850909E+03  0.35508850909E+03  0.00000000000E+00 0. -1.
         25    2    1    2    0    0  0.00000000000E+00  0.00000000000E+00 -0.34408756698E+03  0.36608945119E+03  0.12500093007E+03 0.  0.
          4    1    3    3  501    0 -0.57184357885E+02 -0.15797810397E+02 -0.11463211895E+03  0.12908348769E+03  0.15500000000E+01 0.  1.
         -4    1    3    3    0  501  0.57184357885E+02  0.15797810397E+02 -0.22945544803E+03  0.23700596350E+03  0.15500000000E+01 0.  1.
<mgrwt>
<rscale>  2 0.12500093E+03</rscale>
<asrwt>0</asrwt>
<pdfrwt beam="1">  1       21 0.16924528E-02 0.12500093E+03</pdfrwt>
<pdfrwt beam="2">  1       21 0.54628996E-01 0.12500093E+03</pdfrwt>
<totfact> 0.50370521E+06</totfact>
</mgrwt>
</event>
<event>
 5    0  0.1222151E+000  0.1250052E+03  0.7546771E-02  0.1235061E+00
         21   -1    0    0  503  502  0.00000000000E+00  0.00000000000E+00  0.21345212228E+01  0.21345212228E+01  0.00000000000E+00 0. -1.
         21   -1    0    0  502  503 -0.00000000000E+00 -0.00000000000E+00 -0.18301870172E+04  0.18301870172E+04  0.00000000000E+00 0. -1.
         25    2    1    2    0    0  0.00000000000E+00  0.00000000000E+00 -0.18280524960E+04  0.18323215384E+04  0.12500516837E+03 0.  0.
          4    1    3    3  501    0  0.25419532719E+02  0.41992017624E+02 -0.34733169162E+03  0.35078652866E+03  0.15500000000E+01 0. -1.
         -4    1    3    3    0  501 -0.25419532719E+02 -0.41992017624E+02 -0.14807208043E+04  0.14815350097E+04  0.15500000000E+01 0. -1.
<mgrwt>
<rscale>  2 0.12500517E+03</rscale>
<asrwt>0</asrwt>
<pdfrwt beam="1">  1       21 0.32838866E-03 0.12500517E+03</pdfrwt>
<pdfrwt beam="2">  1       21 0.28156656E+00 0.12500517E+03</pdfrwt>
<totfact> 0.97017670E+05</totfact>
</mgrwt>
</event>
<event>
 5    0  0.1502905E+000  0.1250110E+03  0.7546771E-02  0.1235052E+00
         21   -1    0    0  503  502  0.00000000000E+00  0.00000000000E+00  0.64433147283E+02  0.64433147283E+02  0.00000000000E+00 0.  1.
         21   -1    0    0  502  503 -0.00000000000E+00 -0.00000000000E+00 -0.60635479922E+02  0.60635479922E+02  0.00000000000E+00 0.  1.
         25    2    1    2    0    0  0.00000000000E+00  0.00000000000E+00  0.37976673610E+01  0.12506862720E+03  0.12501095645E+03 0.  0.
          4    1    3    3  501    0  0.21941140665E+02 -0.14309561344E+02 -0.54857885858E+02  0.60810914648E+02  0.15500000000E+01 0.  1.
         -4    1    3    3    0  501 -0.21941140665E+02  0.14309561344E+02  0.58655553219E+02  0.64257712556E+02  0.15500000000E+01 0.  1.
<mgrwt>
<rscale>  2 0.12501096E+03</rscale>
<asrwt>0</asrwt>
<pdfrwt beam="1">  1       21 0.99127919E-02 0.12501096E+03</pdfrwt>
<pdfrwt beam="2">  1       21 0.93285353E-02 0.12501096E+03</pdfrwt>
<totfact> 0.74013578E+06</totfact>
</mgrwt>
</event>
<event>
 5    0  0.1593483E+000  0.1249769E+03  0.7546771E-02  0.1235105E+00
         21   -1    0    0  503  502  0.00000000000E+00  0.00000000000E+00  0.50755524249E+02  0.50755524249E+02  0.00000000000E+00 0. -1.
         21   -1    0    0  502  503 -0.00000000000E+00 -0.00000000000E+00 -0.76933586542E+02  0.76933586542E+02  0.00000000000E+00 0. -1.
         25    2    1    2    0    0  0.00000000000E+00  0.00000000000E+00 -0.26178062293E+02  0.12768911079E+03  0.12497687014E+03 0.  0.
          4    1    3    3  501    0 -0.56657157713E+02  0.14124333475E+02  0.95934814134E+01  0.59194321534E+02  0.15500000000E+01 0. -1.
         -4    1    3    3    0  501  0.56657157713E+02 -0.14124333475E+02 -0.35771543707E+02  0.68494789257E+02  0.15500000000E+01 0. -1.
<mgrwt>
<rscale>  2 0.12497687E+03</rscale>
<asrwt>0</asrwt>
<pdfrwt beam="1">  1       21 0.78085423E-02 0.12497687E+03</pdfrwt>
<pdfrwt beam="2">  1       21 0.11835936E-01 0.12497687E+03</pdfrwt>
<totfact> 0.73719121E+06</totfact>
</mgrwt>
</event>
<event>
 5    0  0.1270172E+000  0.1249981E+03  0.7546771E-02  0.1235072E+00
         21   -1    0    0  503  502  0.00000000000E+00  0.00000000000E+00  0.54882635992E+01  0.54882635992E+01  0.00000000000E+00 0. -1.
         21   -1    0    0  502  503 -0.00000000000E+00 -0.00000000000E+00 -0.71172460060E+03  0.71172460060E+03  0.00000000000E+00 0. -1.
         25    2    1    2    0    0  0.00000000000E+00  0.00000000000E+00 -0.70623633700E+03  0.71721286420E+03  0.12499811548E+03 0.  0.
          4    1    3    3  501    0 -0.32887007833E+02  0.41876672573E+02 -0.54067620365E+03  0.54329400022E+03  0.15500000000E+01 0.  1.
         -4    1    3    3    0  501  0.32887007833E+02 -0.41876672573E+02 -0.16556013335E+03  0.17391886397E+03  0.15500000000E+01 0.  1.
<mgrwt>
<rscale>  2 0.12499812E+03</rscale>
<asrwt>0</asrwt>
<pdfrwt beam="1">  1       21 0.84434820E-03 0.12499812E+03</pdfrwt>
<pdfrwt beam="2">  1       21 0.10949610E+00 0.12499812E+03</pdfrwt>
<totfact> 0.32258509E+06</totfact>
</mgrwt>
</event>
<event>
 5    0  0.1564706E+000  0.1249985E+03  0.7546771E-02  0.1235072E+00
         21   -1    0    0  503  502  0.00000000000E+00  0.00000000000E+00  0.16463714612E+03  0.16463714612E+03  0.00000000000E+00 0. -1.
         21   -1    0    0  502  503 -0.00000000000E+00 -0.00000000000E+00 -0.23725833304E+02  0.23725833304E+02  0.00000000000E+00 0. -1.
         25    2    1    2    0    0  0.00000000000E+00  0.00000000000E+00  0.14091131281E+03  0.18836297942E+03  0.12499845574E+03 0.  0.
          4    1    3    3  501    0  0.56908742110E+02 -0.56693060692E+01  0.10836920913E+03  0.12254400821E+03  0.15500000000E+01 0.  1.
         -4    1    3    3    0  501 -0.56908742110E+02  0.56693060692E+01  0.32542103686E+02  0.65818971217E+02  0.15500000000E+01 0.  1.
<mgrwt>
<rscale>  2 0.12499846E+03</rscale>
<asrwt>0</asrwt>
<pdfrwt beam="1">  1       21 0.25328791E-01 0.12499846E+03</pdfrwt>
<pdfrwt beam="2">  1       21 0.36501283E-02 0.12499846E+03</pdfrwt>
<totfact> 0.66207458E+06</totfact>
</mgrwt>
</event>
<event>
 5    0  0.1402998E+000  0.1249791E+03  0.7546771E-02  0.1235102E+00
         21   -1    0    0  503  502  0.00000000000E+00  0.00000000000E+00  0.13839483514E+02  0.13839483514E+02  0.00000000000E+00 0.  1.
         21   -1    0    0  502  503 -0.00000000000E+00 -0.00000000000E+00 -0.28215985926E+03  0.28215985926E+03  0.00000000000E+00 0.  1.
         25    2    1    2    0    0  0.00000000000E+00  0.00000000000E+00 -0.26832037575E+03  0.29599934277E+03  0.12497914579E+03 0.  0.
          4    1    3    3  501    0 -0.36564258443E+02 -0.35038166686E+02 -0.22079037606E+03  0.22652905063E+03  0.15500000000E+01 0. -1.
         -4    1    3    3    0  501  0.36564258443E+02  0.35038166686E+02 -0.47529999691E+02  0.69470292146E+02  0.15500000000E+01 0. -1.
<mgrwt>
<rscale>  2 0.12497915E+03</rscale>
<asrwt>0</asrwt>
<pdfrwt beam="1">  1       21 0.21291513E-02 0.12497915E+03</pdfrwt>
<pdfrwt beam="2">  1       21 0.43409209E-01 0.12497915E+03</pdfrwt>
<totfact> 0.55819540E+06</totfact>
</mgrwt>
</event>
<event>
 5    0  0.1285891E+000  0.1249977E+03  0.7546771E-02  0.1235073E+00
         21   -1    0    0  503  502  0.00000000000E+00  0.00000000000E+00  0.57458544789E+03  0.57458544789E+03  0.00000000000E+00 0.  1.
         21   -1    0    0  502  503 -0.00000000000E+00 -0.00000000000E+00 -0.67981248109E+01  0.67981248109E+01  0.00000000000E+00 0.  1.
         25    2    1    2    0    0  0.00000000000E+00  0.00000000000E+00  0.56778732308E+03  0.58138357270E+03  0.12499765741E+03 0.  0.
          4    1    3    3  501    0  0.37228259824E+02 -0.43229233446E+01  0.51379129573E+02  0.63614844584E+02  0.15500000000E+01 0. -1.
         -4    1    3    3    0  501 -0.37228259824E+02  0.43229233446E+01  0.51640819351E+03  0.51776872812E+03  0.15500000000E+01 0. -1.
<mgrwt>
<rscale>  2 0.12499766E+03</rscale>
<asrwt>0</asrwt>
<pdfrwt beam="1">  1       21 0.88397723E-01 0.12499766E+03</pdfrwt>
<pdfrwt beam="2">  1       21 0.10458658E-02 0.12499766E+03</pdfrwt>
<totfact> 0.37950519E+06</totfact>
</mgrwt>
</event>
<event>
 5    0  0.1222151E+000  0.1249933E+03  0.7546771E-02  0.1235080E+00
         21   -1    0    0  503  502  0.00000000000E+00  0.00000000000E+00  0.12515821125E+04  0.12515821125E+04  0.00000000000E+00 0.  1.
         21   -1    0    0  502  503 -0.00000000000E+00 -0.00000000000E+00 -0.31207148977E+01  0.31207148977E+01  0.00000000000E+00 0.  1.
         25    2    1    2    0    0  0.00000000000E+00  0.00000000000E+00  0.12484613976E+04  0.12547028274E+04  0.12499329493E+03 0.  0.
          4    1    3    3  501    0  0.19089555262E+02 -0.55049314294E+02  0.85061077668E+03  0.85260538001E+03  0.15500000000E+01 0. -1.
         -4    1    3    3    0  501 -0.19089555262E+02  0.55049314294E+02  0.39785062093E+03  0.40209744740E+03  0.15500000000E+01 0. -1.
<mgrwt>
<rscale>  2 0.12499329E+03</rscale>
<asrwt>0</asrwt>
<pdfrwt beam="1">  1       21 0.19255069E+00 0.12499329E+03</pdfrwt>
<pdfrwt beam="2">  1       21 0.48011099E-03 0.12499329E+03</pdfrwt>
<totfact> 0.18088785E+06</totfact>
</mgrwt>
</event>
<event>
 5    0  0.1554944E+000  0.1249974E+03  0.7546771E-02  0.1235073E+00
         21   -1    0    0  503  502  0.00000000000E+00  0.00000000000E+00  0.14164651153E+03  0.14164651153E+03  0.00000000000E+00 0.  1.
         21   -1    0    0  502  503 -0.00000000000E+00 -0.00000000000E+00 -0.27576327254E+02  0.27576327254E+02  0.00000000000E+00 0.  1.
         25    2    1    2    0    0  0.00000000000E+00  0.00000000000E+00  0.11407018428E+03  0.16922283878E+03  0.12499744888E+03 0.  0.
          4    1    3    3  501    0  0.17415441631E+02  0.54130715041E+02  0.92084301599E+02  0.10823748435E+03  0.15500000000E+01 0. -1.
         -4    1    3    3    0  501 -0.17415441631E+02 -0.54130715041E+02  0.21985882677E+02  0.60985354432E+02  0.15500000000E+01 0. -1.
<mgrwt>
<rscale>  2 0.12499745E+03</rscale>
<asrwt>0</asrwt>
<pdfrwt beam="1">  1       21 0.21791771E-01 0.12499745E+03</pdfrwt>
<pdfrwt beam="2">  1       21 0.42425120E-02 0.12499745E+03</pdfrwt>
<totfact> 0.68414189E+06</totfact>
</mgrwt>
</event>
<event>
 5    0  0.1424024E+000  0.1249988E+03  0.7546771E-02  0.1235071E+00
         21   -1    0    0  503  502  0.00000000000E+00  0.00000000000E+00  0.60945280343E+02  0.60945280343E+02  0.00000000000E+00 0.  1.
         21   -1    0    0  502  503 -0.00000000000E+00 -0.00000000000E+00 -0.64093100443E+02  0.64093100443E+02  0.00000000000E+00 0.  1.
         25    2    1    2    0    0  0.00000000000E+00  0.00000000000E+00 -0.31478201004E+01  0.12503838079E+03  0.12499875159E+03 0.  0.
          4    1    3    3  501    0 -0.17145642736E+01 -0.27472636489E+02  0.54533835877E+02  0.61106687373E+02  0.15500000000E+01 0.  1.
         -4    1    3    3    0  501  0.17145642736E+01  0.27472636489E+02 -0.57681655977E+02  0.63931693412E+02  0.15500000000E+01 0.  1.
<mgrwt>
<rscale>  2 0.12499875E+03</rscale>
<asrwt>0</asrwt>
<pdfrwt beam="1">  1       21 0.93761970E-02 0.12499875E+03</pdfrwt>
<pdfrwt beam="2">  1       21 0.98604770E-02 0.12499875E+03</pdfrwt>
<totfact> 0.74040761E+06</totfact>
</mgrwt>
</event>
<event>
 5    0  0.1222151E+000  0.1249972E+03  0.7546771E-02  0.1235074E+00
         21   -1    0    0  503  502  0.00000000000E+00  0.00000000000E+00  0.31814646139E+01  0.31814646139E+01  0.00000000000E+00 0.  1.
         21   -1    0    0  502  503 -0.00000000000E+00 -0.00000000000E+00 -0.12277604817E+04  0.12277604817E+04  0.00000000000E+00 0.  1.
         25    2    1    2    0    0  0.00000000000E+00  0.00000000000E+00 -0.12245790171E+04  0.12309419463E+04  0.12499722440E+03 0.  0.
          4    1    3    3  501    0 -0.40239131488E+02  0.47726019050E+02 -0.58677369483E+03  0.59008705463E+03  0.15500000000E+01 0. -1.
         -4    1    3    3    0  501  0.40239131488E+02 -0.47726019050E+02 -0.63780532227E+03  0.64085489170E+03  0.15500000000E+01 0. -1.
<mgrwt>
<rscale>  2 0.12499722E+03</rscale>
<asrwt>0</asrwt>
<pdfrwt beam="1">  1       21 0.48945559E-03 0.12499722E+03</pdfrwt>
<pdfrwt beam="2">  1       21 0.18888642E+00 0.12499722E+03</pdfrwt>
<totfact> 0.18538728E+06</totfact>
</mgrwt>
</event>
<event>
 4    0  0.2015809E+000  0.1244980E+03  0.7546771E-02  0.1235856E+00
         21   -1    0    0  503  502  0.00000000000E+00  0.00000000000E+00  0.11001738122E+03  0.11001738122E+03  0.00000000000E+00 0.  1.
         21   -1    0    0  502  503 -0.00000000000E+00 -0.00000000000E+00 -0.35221149532E+02  0.35221149532E+02  0.00000000000E+00 0.  1.
          4    1    1    2  501    0  0.82155526291E+01  0.60976389404E+02  0.48274416590E+02  0.78220439572E+02  0.15500000000E+01 0.  1.
         -4    1    1    2    0  501 -0.82155526291E+01 -0.60976389404E+02  0.26521815103E+02  0.67018091185E+02  0.15500000000E+01 0.  1.
<mgrwt>
<rscale>  2 0.12449801E+03</rscale>
<asrwt>0</asrwt>
<pdfrwt beam="1">  1       21 0.16925751E-01 0.12449801E+03</pdfrwt>
<pdfrwt beam="2">  1       21 0.54186384E-02 0.12449801E+03</pdfrwt>
<totfact> 0.72282405E+06</totfact>
</mgrwt>
</event>
<event>
 5    0  0.1354069E+000  0.1249951E+03  0.7546771E-02  0.1235077E+00
         21   -1    0    0  503  502  0.00000000000E+00  0.00000000000E+00  0.52713129696E+03  0.52713129696E+03  0.00000000000E+00 0. -1.
         21   -1    0    0  502  503 -0.00000000000E+00 -0.00000000000E+00 -0.74098159852E+01  0.74098159852E+01  0.00000000000E+00 0. -1.
         25    2    1    2    0    0  0.00000000000E+00  0.00000000000E+00  0.51972148097E+03  0.53454111295E+03  0.12499513447E+03 0.  0.
          4    1    3    3  501    0  0.50835854261E+02  0.35488571978E+02  0.22678471217E+03  0.23511152884E+03  0.15500000000E+01 0. -1.
         -4    1    3    3    0  501 -0.50835854261E+02 -0.35488571978E+02  0.29293676880E+03  0.29942958410E+03  0.15500000000E+01 0. -1.
<mgrwt>
<rscale>  2 0.12499513E+03</rscale>
<asrwt>0</asrwt>
<pdfrwt beam="1">  1       21 0.81097093E-01 0.12499513E+03</pdfrwt>
<pdfrwt beam="2">  1       21 0.11399721E-02 0.12499513E+03</pdfrwt>
<totfact> 0.40235595E+06</totfact>
</mgrwt>
</event>
<event>
 5    0  0.1613107E+000  0.1249968E+03  0.7546771E-02  0.1235074E+00
         21   -1    0    0  503  502  0.00000000000E+00  0.00000000000E+00  0.46869099804E+02  0.46869099804E+02  0.00000000000E+00 0.  1.
         21   -1    0    0  502  503 -0.00000000000E+00 -0.00000000000E+00 -0.83339600630E+02  0.83339600630E+02  0.00000000000E+00 0.  1.
         25    2    1    2    0    0  0.00000000000E+00  0.00000000000E+00 -0.36470500826E+02  0.13020870043E+03  0.12499683291E+03 0.  0.
          4    1    3    3  501    0 -0.60606497263E+02  0.15056126929E+02 -0.20269917908E+02  0.65674245641E+02  0.15500000000E+01 0.  1.
         -4    1    3    3    0  501  0.60606497263E+02 -0.15056126929E+02 -0.16200582918E+02  0.64534454793E+02  0.15500000000E+01 0.  1.
<mgrwt>
<rscale>  2 0.12499683E+03</rscale>
<asrwt>0</asrwt>
<pdfrwt beam="1">  1       21 0.72106308E-02 0.12499683E+03</pdfrwt>
<pdfrwt beam="2">  1       21 0.12821477E-01 0.12499683E+03</pdfrwt>
<totfact> 0.73342965E+06</totfact>
</mgrwt>
</event>
<event>
 5    0  0.1252443E+000  0.1249949E+03  0.7546771E-02  0.1235077E+00
         21   -1    0    0  503  502  0.00000000000E+00  0.00000000000E+00  0.56632173639E+03  0.56632173639E+03  0.00000000000E+00 0. -1.
         21   -1    0    0  502  503 -0.00000000000E+00 -0.00000000000E+00 -0.68970184449E+01  0.68970184449E+01  0.00000000000E+00 0. -1.
         25    2    1    2    0    0  0.00000000000E+00  0.00000000000E+00  0.55942471794E+03  0.57321875483E+03  0.12499490328E+03 0.  0.
          4    1    3    3  501    0  0.45755910622E+02  0.20306642466E+01  0.47459051083E+03  0.47679794717E+03  0.15500000000E+01 0. -1.
         -4    1    3    3    0  501 -0.45755910622E+02 -0.20306642466E+01  0.84834207114E+02  0.96420807665E+02  0.15500000000E+01 0. -1.
<mgrwt>
<rscale>  2 0.12499490E+03</rscale>
<asrwt>0</asrwt>
<pdfrwt beam="1">  1       21 0.87126384E-01 0.12499490E+03</pdfrwt>
<pdfrwt beam="2">  1       21 0.10610802E-02 0.12499490E+03</pdfrwt>
<totfact> 0.38337348E+06</totfact>
</mgrwt>
</event>
<event>
 5    0  0.1336089E+000  0.1250088E+03  0.7546771E-02  0.1235056E+00
         21   -1    0    0  503  502  0.00000000000E+00  0.00000000000E+00  0.33913452427E+03  0.33913452427E+03  0.00000000000E+00 0.  1.
         21   -1    0    0  502  503 -0.00000000000E+00 -0.00000000000E+00 -0.11519907474E+02  0.11519907474E+02  0.00000000000E+00 0.  1.
         25    2    1    2    0    0  0.00000000000E+00  0.00000000000E+00  0.32761461679E+03  0.35065443174E+03  0.12500877314E+03 0.  0.
          4    1    3    3  501    0  0.13828033601E+02  0.33519981291E+02  0.30655021201E+03  0.30869117033E+03  0.15500000000E+01 0.  1.
         -4    1    3    3    0  501 -0.13828033601E+02 -0.33519981291E+02  0.21064404784E+02  0.41963261407E+02  0.15500000000E+01 0.  1.
<mgrwt>
<rscale>  2 0.12500877E+03</rscale>
<asrwt>0</asrwt>
<pdfrwt beam="1">  1       21 0.52174535E-01 0.12500877E+03</pdfrwt>
<pdfrwt beam="2">  1       21 0.17722937E-02 0.12500877E+03</pdfrwt>
<totfact> 0.51478826E+06</totfact>
</mgrwt>
</event>
<event>
 5    0  0.1494822E+000  0.1250038E+03  0.7546771E-02  0.1235063E+00
         21   -1    0    0  503  502  0.00000000000E+00  0.00000000000E+00  0.90409166609E+02  0.90409166609E+02  0.00000000000E+00 0.  1.
         21   -1    0    0  502  503 -0.00000000000E+00 -0.00000000000E+00 -0.43208974475E+02  0.43208974475E+02  0.00000000000E+00 0.  1.
         25    2    1    2    0    0  0.00000000000E+00  0.00000000000E+00  0.47200192134E+02  0.13361814108E+03  0.12500379790E+03 0.  0.
          4    1    3    3  501    0  0.27447116167E+02 -0.29011267865E+02  0.74964513613E+02  0.84953391046E+02  0.15500000000E+01 0.  1.
         -4    1    3    3    0  501 -0.27447116167E+02  0.29011267865E+02 -0.27764321479E+02  0.48664750038E+02  0.15500000000E+01 0.  1.
<mgrwt>
<rscale>  2 0.12500380E+03</rscale>
<asrwt>0</asrwt>
<pdfrwt beam="1">  1       21 0.13909103E-01 0.12500380E+03</pdfrwt>
<pdfrwt beam="2">  1       21 0.66475345E-02 0.12500380E+03</pdfrwt>
<totfact> 0.72872906E+06</totfact>
</mgrwt>
</event>
<event>
 5    0  0.1571236E+000  0.1249992E+03  0.7546771E-02  0.1235071E+00
         21   -1    0    0  503  502  0.00000000000E+00  0.00000000000E+00  0.44194303490E+02  0.44194303490E+02  0.00000000000E+00 0. -1.
         21   -1    0    0  502  503 -0.00000000000E+00 -0.00000000000E+00 -0.88386944074E+02  0.88386944074E+02  0.00000000000E+00 0. -1.
         25    2    1    2    0    0  0.00000000000E+00  0.00000000000E+00 -0.44192640584E+02  0.13258124756E+03  0.12499919089E+03 0.  0.
          4    1    3    3  501    0 -0.45154263382E+02 -0.39980022948E+02 -0.39410944566E+02  0.72062020427E+02  0.15500000000E+01 0.  1.
         -4    1    3    3    0  501  0.45154263382E+02  0.39980022948E+02 -0.47816960181E+01  0.60519227137E+02  0.15500000000E+01 0.  1.
<mgrwt>
<rscale>  2 0.12499919E+03</rscale>
<asrwt>0</asrwt>
<pdfrwt beam="1">  1       21 0.67991236E-02 0.12499919E+03</pdfrwt>
<pdfrwt beam="2">  1       21 0.13597991E-01 0.12499919E+03</pdfrwt>
<totfact> 0.73019875E+06</totfact>
</mgrwt>
</event>
<event>
 5    0  0.1473530E+000  0.1249955E+03  0.7546771E-02  0.1235076E+00
         21   -1    0    0  503  502  0.00000000000E+00  0.00000000000E+00  0.25383038644E+03  0.25383038644E+03  0.00000000000E+00 0. -1.
         21   -1    0    0  502  503 -0.00000000000E+00 -0.00000000000E+00 -0.15388114684E+02  0.15388114684E+02  0.00000000000E+00 0. -1.
         25    2    1    2    0    0  0.00000000000E+00  0.00000000000E+00  0.23844227176E+03  0.26921850112E+03  0.12499553747E+03 0.  0.
          4    1    3    3  501    0 -0.43081465030E+02  0.35195094620E+02  0.57965307477E+02  0.80355999685E+02  0.15500000000E+01 0. -1.
         -4    1    3    3    0  501  0.43081465030E+02 -0.35195094620E+02  0.18047696428E+03  0.18886250144E+03  0.15500000000E+01 0. -1.
<mgrwt>
<rscale>  2 0.12499554E+03</rscale>
<asrwt>0</asrwt>
<pdfrwt beam="1">  1       21 0.39050826E-01 0.12499554E+03</pdfrwt>
<pdfrwt beam="2">  1       21 0.23674024E-02 0.12499554E+03</pdfrwt>
<totfact> 0.58121042E+06</totfact>
</mgrwt>
</event>
<event>
 5    0  0.1472827E+000  0.1249990E+03  0.7546771E-02  0.1235071E+00
         21   -1    0    0  503  502  0.00000000000E+00  0.00000000000E+00  0.68724682440E+02  0.68724682440E+02  0.00000000000E+00 0.  1.
         21   -1    0    0  502  503 -0.00000000000E+00 -0.00000000000E+00 -0.56838222952E+02  0.56838222952E+02  0.00000000000E+00 0.  1.
         25    2    1    2    0    0  0.00000000000E+00  0.00000000000E+00  0.11886459487E+02  0.12556290539E+03  0.12499902116E+03 0.  0.
          4    1    3    3  501    0  0.15863963813E+02  0.30388435659E+02  0.58415489879E+02  0.67748758863E+02  0.15500000000E+01 0.  1.
         -4    1    3    3    0  501 -0.15863963813E+02 -0.30388435659E+02 -0.46529030392E+02  0.57814146529E+02  0.15500000000E+01 0.  1.
<mgrwt>
<rscale>  2 0.12499902E+03</rscale>
<asrwt>0</asrwt>
<pdfrwt beam="1">  1       21 0.10573028E-01 0.12499902E+03</pdfrwt>
<pdfrwt beam="2">  1       21 0.87443420E-02 0.12499902E+03</pdfrwt>
<totfact> 0.73968458E+06</totfact>
</mgrwt>
</event>
<event>
 5    0  0.1222151E+000  0.1250031E+03  0.7546771E-02  0.1235064E+00
         21   -1    0    0  503  502  0.00000000000E+00  0.00000000000E+00  0.11187283293E+04  0.11187283293E+04  0.00000000000E+00 0. -1.
         21   -1    0    0  502  503 -0.00000000000E+00 -0.00000000000E+00 -0.34918596346E+01  0.34918596346E+01  0.00000000000E+00 0. -1.
         25    2    1    2    0    0  0.00000000000E+00  0.00000000000E+00  0.11152364696E+04  0.11222201889E+04  0.12500307668E+03 0.  0.
          4    1    3    3  501    0  0.35888332359E+02 -0.45660147651E+02  0.76453414888E+03  0.76673834441E+03  0.15500000000E+01 0.  1.
         -4    1    3    3    0  501 -0.35888332359E+02  0.45660147651E+02  0.35070232075E+03  0.35548184449E+03  0.15500000000E+01 0.  1.
<mgrwt>
<rscale>  2 0.12500308E+03</rscale>
<asrwt>0</asrwt>
<pdfrwt beam="1">  1       21 0.17211177E+00 0.12500308E+03</pdfrwt>
<pdfrwt beam="2">  1       21 0.53721007E-03 0.12500308E+03</pdfrwt>
<totfact> 0.20762353E+06</totfact>
</mgrwt>
</event>
<event>
 5    0  0.1351183E+000  0.1250140E+03  0.7546771E-02  0.1235047E+00
         21   -1    0    0  503  502  0.00000000000E+00  0.00000000000E+00  0.49340391570E+03  0.49340391570E+03  0.00000000000E+00 0. -1.
         21   -1    0    0  502  503 -0.00000000000E+00 -0.00000000000E+00 -0.79187165402E+01  0.79187165402E+01  0.00000000000E+00 0. -1.
         25    2    1    2    0    0  0.00000000000E+00  0.00000000000E+00  0.48548519916E+03  0.50132263224E+03  0.12501401119E+03 0.  0.
          4    1    3    3  501    0 -0.88977381746E+01 -0.39362820316E+02  0.43406084003E+03  0.43593556487E+03  0.15500000000E+01 0. -1.
         -4    1    3    3    0  501  0.88977381746E+01  0.39362820316E+02  0.51424359129E+02  0.65387067373E+02  0.15500000000E+01 0. -1.
<mgrwt>
<rscale>  2 0.12501401E+03</rscale>
<asrwt>0</asrwt>
<pdfrwt beam="1">  1       21 0.75908271E-01 0.12501401E+03</pdfrwt>
<pdfrwt beam="2">  1       21 0.12182645E-02 0.12501401E+03</pdfrwt>
<totfact> 0.41957801E+06</totfact>
</mgrwt>
</event>
<event>
 5    0  0.1325857E+000  0.1249975E+03  0.7546771E-02  0.1235073E+00
         21   -1    0    0  503  502  0.00000000000E+00  0.00000000000E+00  0.58086286466E+03  0.58086286466E+03  0.00000000000E+00 0.  1.
         21   -1    0    0  502  503 -0.00000000000E+00 -0.00000000000E+00 -0.67246445276E+01  0.67246445276E+01  0.00000000000E+00 0.  1.
         25    2    1    2    0    0  0.00000000000E+00  0.00000000000E+00  0.57413822013E+03  0.58758750919E+03  0.12499754052E+03 0.  0.
          4    1    3    3  501    0  0.61741612067E+02  0.95740540321E+01  0.28674983917E+03  0.29348179149E+03  0.15500000000E+01 0. -1.
         -4    1    3    3    0  501 -0.61741612067E+02 -0.95740540321E+01  0.28738838096E+03  0.29410571769E+03  0.15500000000E+01 0. -1.
<mgrwt>
<rscale>  2 0.12499754E+03</rscale>
<asrwt>0</asrwt>
<pdfrwt beam="1">  1       21 0.89363478E-01 0.12499754E+03</pdfrwt>
<pdfrwt beam="2">  1       21 0.10345612E-02 0.12499754E+03</pdfrwt>
<totfact> 0.37662367E+06</totfact>
</mgrwt>
</event>
<event>
 5    0  0.1222151E+000  0.1249962E+03  0.7546771E-02  0.1235075E+00
         21   -1    0    0  503  502  0.00000000000E+00  0.00000000000E+00  0.30064592791E+01  0.30064592791E+01  0.00000000000E+00 0. -1.
         21   -1    0    0  502  503 -0.00000000000E+00 -0.00000000000E+00 -0.12992070414E+04  0.12992070414E+04  0.00000000000E+00 0. -1.
         25    2    1    2    0    0  0.00000000000E+00  0.00000000000E+00 -0.12962005821E+04  0.13022135006E+04  0.12499620898E+03 0.  0.
          4    1    3    3  501    0 -0.23257571327E+02 -0.56333358848E+02 -0.50478196898E+03  0.50845019486E+03  0.15500000000E+01 0. -1.
         -4    1    3    3    0  501  0.23257571327E+02  0.56333358848E+02 -0.79141861310E+03  0.79376330578E+03  0.15500000000E+01 0. -1.
<mgrwt>
<rscale>  2 0.12499621E+03</rscale>
<asrwt>0</asrwt>
<pdfrwt beam="1">  1       21 0.46253160E-03 0.12499621E+03</pdfrwt>
<pdfrwt beam="2">  1       21 0.19987827E+00 0.12499621E+03</pdfrwt>
<totfact> 0.17214229E+06</totfact>
</mgrwt>
</event>
<event>
 5    0  0.1317349E+000  0.1250013E+03  0.7546771E-02  0.1235067E+00
         21   -1    0    0  503  502  0.00000000000E+00  0.00000000000E+00  0.64797741191E+03  0.64797741191E+03  0.00000000000E+00 0. -1.
         21   -1    0    0  502  503 -0.00000000000E+00 -0.00000000000E+00 -0.60285034225E+01  0.60285034225E+01  0.00000000000E+00 0. -1.
         25    2    1    2    0    0  0.00000000000E+00  0.00000000000E+00  0.64194890849E+03  0.65400591533E+03  0.12500134472E+03 0.  0.
          4    1    3    3  501    0  0.16086603412E+02  0.60197494461E+02  0.34518585486E+03  0.35076800602E+03  0.15500000000E+01 0.  1.
         -4    1    3    3    0  501 -0.16086603412E+02 -0.60197494461E+02  0.29676305363E+03  0.30323790932E+03  0.15500000000E+01 0.  1.
<mgrwt>
<rscale>  2 0.12500134E+03</rscale>
<asrwt>0</asrwt>
<pdfrwt beam="1">  1       21 0.99688778E-01 0.12500134E+03</pdfrwt>
<pdfrwt beam="2">  1       21 0.92746258E-03 0.12500134E+03</pdfrwt>
<totfact> 0.34757332E+06</totfact>
</mgrwt>
</event>
<event>
 5    0  0.1381420E+000  0.1249932E+03  0.7546771E-02  0.1235080E+00
         21   -1    0    0  503  502  0.00000000000E+00  0.00000000000E+00  0.28552109775E+02  0.28552109775E+02  0.00000000000E+00 0. -1.
         21   -1    0    0  502  503 -0.00000000000E+00 -0.00000000000E+00 -0.13679626766E+03  0.13679626766E+03  0.00000000000E+00 0. -1.
         25    2    1    2    0    0  0.00000000000E+00  0.00000000000E+00 -0.10824415789E+03  0.16534837744E+03  0.12499315263E+03 0.  0.
          4    1    3    3  501    0 -0.72268247284E+00 -0.29351095062E+02  0.18832278357E+02  0.34915129377E+02  0.15500000000E+01 0. -1.
         -4    1    3    3    0  501  0.72268247284E+00  0.29351095062E+02 -0.12707643625E+03  0.13043324806E+03  0.15500000000E+01 0. -1.
<mgrwt>
<rscale>  2 0.12499315E+03</rscale>
<asrwt>0</asrwt>
<pdfrwt beam="1">  1       21 0.43926323E-02 0.12499315E+03</pdfrwt>
<pdfrwt beam="2">  1       21 0.21045579E-01 0.12499315E+03</pdfrwt>
<totfact> 0.68883801E+06</totfact>
</mgrwt>
</event>
<event>
 5    0  0.1329973E+000  0.1250042E+03  0.7546771E-02  0.1235063E+00
         21   -1    0    0  503  502  0.00000000000E+00  0.00000000000E+00  0.37731464511E+03  0.37731464511E+03  0.00000000000E+00 0. -1.
         21   -1    0    0  502  503 -0.00000000000E+00 -0.00000000000E+00 -0.10353463796E+02  0.10353463796E+02  0.00000000000E+00 0. -1.
         25    2    1    2    0    0  0.00000000000E+00  0.00000000000E+00  0.36696118131E+03  0.38766810890E+03  0.12500421621E+03 0.  0.
          4    1    3    3  501    0 -0.22966408822E+02  0.55120848160E+02  0.24052547395E+03  0.24783193894E+03  0.15500000000E+01 0. -1.
         -4    1    3    3    0  501  0.22966408822E+02 -0.55120848160E+02  0.12643570736E+03  0.13983616997E+03  0.15500000000E+01 0. -1.
<mgrwt>
<rscale>  2 0.12500422E+03</rscale>
<asrwt>0</asrwt>
<pdfrwt beam="1">  1       21 0.58048396E-01 0.12500422E+03</pdfrwt>
<pdfrwt beam="2">  1       21 0.15928409E-02 0.12500422E+03</pdfrwt>
<totfact> 0.48865066E+06</totfact>
</mgrwt>
</event>
<event>
 5    0  0.1543014E+000  0.1249948E+03  0.7546771E-02  0.1235077E+00
         21   -1    0    0  503  502  0.00000000000E+00  0.00000000000E+00  0.14106703602E+03  0.14106703602E+03  0.00000000000E+00 0. -1.
         21   -1    0    0  502  503 -0.00000000000E+00 -0.00000000000E+00 -0.27688435764E+02  0.27688435764E+02  0.00000000000E+00 0. -1.
         25    2    1    2    0    0  0.00000000000E+00  0.00000000000E+00  0.11337860025E+03  0.16875547178E+03  0.12499480893E+03 0.  0.
          4    1    3    3  501    0  0.53003427014E+02  0.32783783007E+02  0.50745277749E+02  0.80384236124E+02  0.15500000000E+01 0. -1.
         -4    1    3    3    0  501 -0.53003427014E+02 -0.32783783007E+02  0.62633322503E+02  0.88371235655E+02  0.15500000000E+01 0. -1.
<mgrwt>
<rscale>  2 0.12499481E+03</rscale>
<asrwt>0</asrwt>
<pdfrwt beam="1">  1       21 0.21702621E-01 0.12499481E+03</pdfrwt>
<pdfrwt beam="2">  1       21 0.42597594E-02 0.12499481E+03</pdfrwt>
<totfact> 0.68474210E+06</totfact>
</mgrwt>
</event>
<event>
 5    0  0.1387850E+000  0.1250110E+03  0.7546771E-02  0.1235052E+00
         21   -1    0    0  503  502  0.00000000000E+00  0.00000000000E+00  0.40199530820E+03  0.40199530820E+03  0.00000000000E+00 0. -1.
         21   -1    0    0  502  503 -0.00000000000E+00 -0.00000000000E+00 -0.97188614682E+01  0.97188614682E+01  0.00000000000E+00 0. -1.
         25    2    1    2    0    0  0.00000000000E+00  0.00000000000E+00  0.39227644673E+03  0.41171416967E+03  0.12501098690E+03 0.  0.
          4    1    3    3  501    0 -0.18659154764E+02 -0.55894325083E+02  0.12767027924E+03  0.14062162826E+03  0.15500000000E+01 0.  1.
         -4    1    3    3    0  501  0.18659154764E+02  0.55894325083E+02  0.26460616750E+03  0.27109254141E+03  0.15500000000E+01 0.  1.
<mgrwt>
<rscale>  2 0.12501099E+03</rscale>
<asrwt>0</asrwt>
<pdfrwt beam="1">  1       21 0.61845419E-01 0.12501099E+03</pdfrwt>
<pdfrwt beam="2">  1       21 0.14952098E-02 0.12501099E+03</pdfrwt>
<totfact> 0.47260979E+06</totfact>
</mgrwt>
</event>
<event>
 5    0  0.1451942E+000  0.1250271E+03  0.7546771E-02  0.1235027E+00
         21   -1    0    0  503  502  0.00000000000E+00  0.00000000000E+00  0.44222382973E+02  0.44222382973E+02  0.00000000000E+00 0.  1.
         21   -1    0    0  502  503 -0.00000000000E+00 -0.00000000000E+00 -0.88370286879E+02  0.88370286879E+02  0.00000000000E+00 0.  1.
         25    2    1    2    0    0  0.00000000000E+00  0.00000000000E+00 -0.44147903906E+02  0.13259266985E+03  0.12502711178E+03 0.  0.
          4    1    3    3  501    0  0.53504030415E+01 -0.41046527792E+02 -0.71726928826E+02  0.82828733392E+02  0.15500000000E+01 0. -1.
         -4    1    3    3    0  501 -0.53504030415E+01  0.41046527792E+02  0.27579024920E+02  0.49763936460E+02  0.15500000000E+01 0. -1.
<mgrwt>
<rscale>  2 0.12502711E+03</rscale>
<asrwt>0</asrwt>
<pdfrwt beam="1">  1       21 0.68034437E-02 0.12502711E+03</pdfrwt>
<pdfrwt beam="2">  1       21 0.13595428E-01 0.12502711E+03</pdfrwt>
<totfact> 0.72966362E+06</totfact>
</mgrwt>
</event>
<event>
 5    0  0.1300740E+000  0.1249982E+03  0.7546771E-02  0.1235072E+00
         21   -1    0    0  503  502  0.00000000000E+00  0.00000000000E+00  0.62173956422E+01  0.62173956422E+01  0.00000000000E+00 0.  1.
         21   -1    0    0  502  503 -0.00000000000E+00 -0.00000000000E+00 -0.62825937567E+03  0.62825937567E+03  0.00000000000E+00 0.  1.
         25    2    1    2    0    0  0.00000000000E+00  0.00000000000E+00 -0.62204198002E+03  0.63447677131E+03  0.12499819366E+03 0.  0.
          4    1    3    3  501    0  0.31882086492E+02  0.18707215308E+02 -0.56670202809E+03  0.56790845960E+03  0.15500000000E+01 0. -1.
         -4    1    3    3    0  501 -0.31882086492E+02 -0.18707215308E+02 -0.55339951933E+02  0.66568311707E+02  0.15500000000E+01 0. -1.
<mgrwt>
<rscale>  2 0.12499819E+03</rscale>
<asrwt>0</asrwt>
<pdfrwt beam="1">  1       21 0.95652239E-03 0.12499819E+03</pdfrwt>
<pdfrwt beam="2">  1       21 0.96655290E-01 0.12499819E+03</pdfrwt>
<totfact> 0.35580058E+06</totfact>
</mgrwt>
</event>
<event>
 5    0  0.1398708E+000  0.1249885E+03  0.7546771E-02  0.1235087E+00
         21   -1    0    0  503  502  0.00000000000E+00  0.00000000000E+00  0.17332144734E+02  0.17332144734E+02  0.00000000000E+00 0. -1.
         21   -1    0    0  502  503 -0.00000000000E+00 -0.00000000000E+00 -0.22533443085E+03  0.22533443085E+03  0.00000000000E+00 0. -1.
         25    2    1    2    0    0  0.00000000000E+00  0.00000000000E+00 -0.20800228612E+03  0.24266657559E+03  0.12498846297E+03 0.  0.
          4    1    3    3  501    0  0.40250590132E+02  0.72056686434E+00 -0.19675781656E+03  0.20083991162E+03  0.15500000000E+01 0.  1.
         -4    1    3    3    0  501 -0.40250590132E+02 -0.72056686434E+00 -0.11244469555E+02  0.41826663961E+02  0.15500000000E+01 0.  1.
<mgrwt>
<rscale>  2 0.12498846E+03</rscale>
<asrwt>0</asrwt>
<pdfrwt beam="1">  1       21 0.26664840E-02 0.12498846E+03</pdfrwt>
<pdfrwt beam="2">  1       21 0.34666833E-01 0.12498846E+03</pdfrwt>
<totfact> 0.60593205E+06</totfact>
</mgrwt>
</event>
<event>
 5    0  0.1411590E+000  0.1249993E+03  0.7546771E-02  0.1235070E+00
         21   -1    0    0  503  502  0.00000000000E+00  0.00000000000E+00  0.28047426360E+03  0.28047426360E+03  0.00000000000E+00 0. -1.
         21   -1    0    0  502  503 -0.00000000000E+00 -0.00000000000E+00 -0.13927136615E+02  0.13927136615E+02  0.00000000000E+00 0. -1.
         25    2    1    2    0    0  0.00000000000E+00  0.00000000000E+00  0.26654712698E+03  0.29440140021E+03  0.12499925418E+03 0.  0.
          4    1    3    3  501    0 -0.17092748438E+02  0.29207673670E+02  0.95726434922E+01  0.35203526156E+02  0.15500000000E+01 0.  1.
         -4    1    3    3    0  501  0.17092748438E+02 -0.29207673670E+02  0.25697448349E+03  0.25919787406E+03  0.15500000000E+01 0.  1.
<mgrwt>
<rscale>  2 0.12499925E+03</rscale>
<asrwt>0</asrwt>
<pdfrwt beam="1">  1       21 0.43149883E-01 0.12499925E+03</pdfrwt>
<pdfrwt beam="2">  1       21 0.21426366E-02 0.12499925E+03</pdfrwt>
<totfact> 0.55925722E+06</totfact>
</mgrwt>
</event>
<event>
 5    0  0.1480220E+000  0.1249967E+03  0.7546771E-02  0.1235074E+00
         21   -1    0    0  503  502  0.00000000000E+00  0.00000000000E+00  0.18509341010E+03  0.18509341010E+03  0.00000000000E+00 0. -1.
         21   -1    0    0  502  503 -0.00000000000E+00 -0.00000000000E+00 -0.21103095865E+02  0.21103095865E+02  0.00000000000E+00 0. -1.
         25    2    1    2    0    0  0.00000000000E+00  0.00000000000E+00  0.16399031423E+03  0.20619650596E+03  0.12499670359E+03 0.  0.
          4    1    3    3  501    0 -0.15249966565E+02 -0.53999319933E+02  0.36663630439E+02  0.67045598889E+02  0.15500000000E+01 0. -1.
         -4    1    3    3    0  501  0.15249966565E+02  0.53999319933E+02  0.12732668379E+03  0.13915090707E+03  0.15500000000E+01 0. -1.
<mgrwt>
<rscale>  2 0.12499670E+03</rscale>
<asrwt>0</asrwt>
<pdfrwt beam="1">  1       21 0.28475908E-01 0.12499670E+03</pdfrwt>
<pdfrwt beam="2">  1       21 0.32466302E-02 0.12499670E+03</pdfrwt>
<totfact> 0.64267302E+06</totfact>
</mgrwt>
</event>
<event>
 5    0  0.1222151E+000  0.1250017E+03  0.7546771E-02  0.1235067E+00
         21   -1    0    0  503  502  0.00000000000E+00  0.00000000000E+00  0.40678303731E+01  0.40678303731E+01  0.00000000000E+00 0. -1.
         21   -1    0    0  502  503 -0.00000000000E+00 -0.00000000000E+00 -0.96030395608E+03  0.96030395608E+03  0.00000000000E+00 0. -1.
         25    2    1    2    0    0  0.00000000000E+00  0.00000000000E+00 -0.95623612570E+03  0.96437178645E+03  0.12500165759E+03 0.  0.
          4    1    3    3  501    0  0.97495687612E+01 -0.57273999920E+02 -0.30074546431E+03  0.30630965045E+03  0.15500000000E+01 0.  1.
         -4    1    3    3    0  501 -0.97495687612E+01  0.57273999920E+02 -0.65549066139E+03  0.65806213600E+03  0.15500000000E+01 0.  1.
<mgrwt>
<rscale>  2 0.12500166E+03</rscale>
<asrwt>0</asrwt>
<pdfrwt beam="1">  1       21 0.62581930E-03 0.12500166E+03</pdfrwt>
<pdfrwt beam="2">  1       21 0.14773925E+00 0.12500166E+03</pdfrwt>
<totfact> 0.24529490E+06</totfact>
</mgrwt>
</event>
<event>
 5    0  0.1508837E+000  0.1250028E+03  0.7546771E-02  0.1235065E+00
         21   -1    0    0  503  502  0.00000000000E+00  0.00000000000E+00  0.23099536232E+03  0.23099536232E+03  0.00000000000E+00 0. -1.
         21   -1    0    0  502  503 -0.00000000000E+00 -0.00000000000E+00 -0.16911270897E+02  0.16911270897E+02  0.00000000000E+00 0. -1.
         25    2    1    2    0    0  0.00000000000E+00  0.00000000000E+00  0.21408409142E+03  0.24790663321E+03  0.12500280234E+03 0.  0.
          4    1    3    3  501    0  0.95340452529E+01  0.58018957404E+02  0.14896827692E+03  0.16015944389E+03  0.15500000000E+01 0. -1.
         -4    1    3    3    0  501 -0.95340452529E+01 -0.58018957404E+02  0.65115814495E+02  0.87747189325E+02  0.15500000000E+01 0. -1.
<mgrwt>
<rscale>  2 0.12500280E+03</rscale>
<asrwt>0</asrwt>
<pdfrwt beam="1">  1       21 0.35537746E-01 0.12500280E+03</pdfrwt>
<pdfrwt beam="2">  1       21 0.26017342E-02 0.12500280E+03</pdfrwt>
<totfact> 0.60071595E+06</totfact>
</mgrwt>
</event>
<event>
 5    0  0.1454198E+000  0.1250280E+03  0.7546771E-02  0.1235026E+00
         21   -1    0    0  503  502  0.00000000000E+00  0.00000000000E+00  0.38669794195E+02  0.38669794195E+02  0.00000000000E+00 0. -1.
         21   -1    0    0  502  503 -0.00000000000E+00 -0.00000000000E+00 -0.10106081919E+03  0.10106081919E+03  0.00000000000E+00 0. -1.
         25    2    1    2    0    0  0.00000000000E+00  0.00000000000E+00 -0.62391024991E+02  0.13973061338E+03  0.12502801413E+03 0.  0.
          4    1    3    3  501    0 -0.13624533116E+02 -0.26576671935E+02  0.30156769950E+02  0.42470939095E+02  0.15500000000E+01 0.  1.
         -4    1    3    3    0  501  0.13624533116E+02  0.26576671935E+02 -0.92547794941E+02  0.97259674286E+02  0.15500000000E+01 0.  1.
<mgrwt>
<rscale>  2 0.12502801E+03</rscale>
<asrwt>0</asrwt>
<pdfrwt beam="1">  1       21 0.59491990E-02 0.12502801E+03</pdfrwt>
<pdfrwt beam="2">  1       21 0.15547818E-01 0.12502801E+03</pdfrwt>
<totfact> 0.72023077E+06</totfact>
</mgrwt>
</event>
<event>
 5    0  0.1298101E+000  0.1249974E+03  0.7546771E-02  0.1235073E+00
         21   -1    0    0  503  502  0.00000000000E+00  0.00000000000E+00  0.90558082912E+01  0.90558082912E+01  0.00000000000E+00 0. -1.
         21   -1    0    0  502  503 -0.00000000000E+00 -0.00000000000E+00 -0.43133524806E+03  0.43133524806E+03  0.00000000000E+00 0. -1.
         25    2    1    2    0    0  0.00000000000E+00  0.00000000000E+00 -0.42227943977E+03  0.44039105635E+03  0.12499742902E+03 0.  0.
          4    1    3    3  501    0  0.46266016573E+02  0.13635591574E+01 -0.35900016540E+03  0.36197503345E+03  0.15500000000E+01 0. -1.
         -4    1    3    3    0  501 -0.46266016573E+02 -0.13635591574E+01 -0.63279274369E+02  0.78416022902E+02  0.15500000000E+01 0. -1.
<mgrwt>
<rscale>  2 0.12499743E+03</rscale>
<asrwt>0</asrwt>
<pdfrwt beam="1">  1       21 0.13932018E-02 0.12499743E+03</pdfrwt>
<pdfrwt beam="2">  1       21 0.66359244E-01 0.12499743E+03</pdfrwt>
<totfact> 0.45475698E+06</totfact>
</mgrwt>
</event>
<event>
 5    0  0.1222151E+000  0.1250003E+03  0.7546771E-02  0.1235069E+00
         21   -1    0    0  503  502  0.00000000000E+00  0.00000000000E+00  0.33919831082E+01  0.33919831082E+01  0.00000000000E+00 0. -1.
         21   -1    0    0  502  503 -0.00000000000E+00 -0.00000000000E+00 -0.11516188231E+04  0.11516188231E+04  0.00000000000E+00 0. -1.
         25    2    1    2    0    0  0.00000000000E+00  0.00000000000E+00 -0.11482268400E+04  0.11550108062E+04  0.12500034552E+03 0.  0.
          4    1    3    3  501    0  0.25871935457E+02  0.20991358765E+02 -0.10625164084E+04  0.10630397523E+04  0.15500000000E+01 0. -1.
         -4    1    3    3    0  501 -0.25871935457E+02 -0.20991358765E+02 -0.85710431559E+02  0.91971053953E+02  0.15500000000E+01 0. -1.
<mgrwt>
<rscale>  2 0.12500035E+03</rscale>
<asrwt>0</asrwt>
<pdfrwt beam="1">  1       21 0.52184281E-03 0.12500035E+03</pdfrwt>
<pdfrwt beam="2">  1       21 0.17717238E+00 0.12500035E+03</pdfrwt>
<totfact> 0.20063439E+06</totfact>
</mgrwt>
</event>
<event>
 5    0  0.1500456E+000  0.1250009E+03  0.7546771E-02  0.1235068E+00
         21   -1    0    0  503  502  0.00000000000E+00  0.00000000000E+00  0.26230207778E+03  0.26230207778E+03  0.00000000000E+00 0.  1.
         21   -1    0    0  502  503 -0.00000000000E+00 -0.00000000000E+00 -0.14892403453E+02  0.14892403453E+02  0.00000000000E+00 0.  1.
         25    2    1    2    0    0  0.00000000000E+00  0.00000000000E+00  0.24740967432E+03  0.27719448123E+03  0.12500093390E+03 0.  0.
          4    1    3    3  501    0  0.11968189863E+02  0.59025137045E+02  0.16059215487E+03  0.17152098145E+03  0.15500000000E+01 0. -1.
         -4    1    3    3    0  501 -0.11968189863E+02 -0.59025137045E+02  0.86817519456E+02  0.10567349978E+03  0.15500000000E+01 0. -1.
<mgrwt>
<rscale>  2 0.12500093E+03</rscale>
<asrwt>0</asrwt>
<pdfrwt beam="1">  1       21 0.40354162E-01 0.12500093E+03</pdfrwt>
<pdfrwt beam="2">  1       21 0.22911392E-02 0.12500093E+03</pdfrwt>
<totfact> 0.57404953E+06</totfact>
</mgrwt>
</event>
<event>
 5    0  0.1462810E+000  0.1249966E+03  0.7546771E-02  0.1235075E+00
         21   -1    0    0  503  502  0.00000000000E+00  0.00000000000E+00  0.35918065089E+03  0.35918065089E+03  0.00000000000E+00 0. -1.
         21   -1    0    0  502  503 -0.00000000000E+00 -0.00000000000E+00 -0.10874848908E+02  0.10874848908E+02  0.00000000000E+00 0. -1.
         25    2    1    2    0    0  0.00000000000E+00  0.00000000000E+00  0.34830580198E+03  0.37005549980E+03  0.12499656490E+03 0.  0.
          4    1    3    3  501    0  0.40424824343E+02  0.44816297300E+02  0.22197852569E+03  0.23004246412E+03  0.15500000000E+01 0.  1.
         -4    1    3    3    0  501 -0.40424824343E+02 -0.44816297300E+02  0.12632727629E+03  0.14001303568E+03  0.15500000000E+01 0.  1.
<mgrwt>
<rscale>  2 0.12499656E+03</rscale>
<asrwt>0</asrwt>
<pdfrwt beam="1">  1       21 0.55258552E-01 0.12499656E+03</pdfrwt>
<pdfrwt beam="2">  1       21 0.16730540E-02 0.12499656E+03</pdfrwt>
<totfact> 0.50094843E+06</totfact>
</mgrwt>
</event>
<event>
 5    0  0.1423276E+000  0.1250005E+03  0.7546771E-02  0.1235068E+00
         21   -1    0    0  503  502  0.00000000000E+00  0.00000000000E+00  0.22357310142E+03  0.22357310142E+03  0.00000000000E+00 0.  1.
         21   -1    0    0  502  503 -0.00000000000E+00 -0.00000000000E+00 -0.17472053905E+02  0.17472053905E+02  0.00000000000E+00 0.  1.
         25    2    1    2    0    0  0.00000000000E+00  0.00000000000E+00  0.20610104752E+03  0.24104515533E+03  0.12500050048E+03 0.  0.
          4    1    3    3  501    0 -0.40874214912E+02  0.14890860263E+02  0.18953539737E+03  0.19446981390E+03  0.15500000000E+01 0. -1.
         -4    1    3    3    0  501  0.40874214912E+02 -0.14890860263E+02  0.16565650150E+02  0.46575341426E+02  0.15500000000E+01 0. -1.
<mgrwt>
<rscale>  2 0.12500050E+03</rscale>
<asrwt>0</asrwt>
<pdfrwt beam="1">  1       21 0.34395860E-01 0.12500050E+03</pdfrwt>
<pdfrwt beam="2">  1       21 0.26880084E-02 0.12500050E+03</pdfrwt>
<totfact> 0.60730906E+06</totfact>
</mgrwt>
</event>
<event>
 5    0  0.1397772E+000  0.1249924E+03  0.7546771E-02  0.1235081E+00
         21   -1    0    0  503  502  0.00000000000E+00  0.00000000000E+00  0.21718483059E+03  0.21718483059E+03  0.00000000000E+00 0.  1.
         21   -1    0    0  502  503 -0.00000000000E+00 -0.00000000000E+00 -0.17983639962E+02  0.17983639962E+02  0.00000000000E+00 0.  1.
         25    2    1    2    0    0  0.00000000000E+00  0.00000000000E+00  0.19920119062E+03  0.23516847055E+03  0.12499238054E+03 0.  0.
          4    1    3    3  501    0  0.35160549955E+02  0.32986754304E+02  0.17436312989E+03  0.18091239261E+03  0.15500000000E+01 0. -1.
         -4    1    3    3    0  501 -0.35160549955E+02 -0.32986754304E+02  0.24838060730E+02  0.54256077941E+02  0.15500000000E+01 0. -1.
<mgrwt>
<rscale>  2 0.12499238E+03</rscale>
<asrwt>0</asrwt>
<pdfrwt beam="1">  1       21 0.33413049E-01 0.12499238E+03</pdfrwt>
<pdfrwt beam="2">  1       21 0.27667140E-02 0.12499238E+03</pdfrwt>
<totfact> 0.61315146E+06</totfact>
</mgrwt>
</event>
<event>
 5    0  0.1222151E+000  0.1250055E+03  0.7546771E-02  0.1235061E+00
         21   -1    0    0  503  502  0.00000000000E+00  0.00000000000E+00  0.27049405166E+01  0.27049405166E+01  0.00000000000E+00 0. -1.
         21   -1    0    0  502  503 -0.00000000000E+00 -0.00000000000E+00 -0.14442432414E+04  0.14442432414E+04  0.00000000000E+00 0. -1.
         25    2    1    2    0    0  0.00000000000E+00  0.00000000000E+00 -0.14415383009E+04  0.14469481819E+04  0.12500547283E+03 0.  0.
          4    1    3    3  501    0 -0.20407604573E+02  0.52597737228E+02 -0.40991906617E+03  0.41378621968E+03  0.15500000000E+01 0. -1.
         -4    1    3    3    0  501  0.20407604573E+02 -0.52597737228E+02 -0.10316192347E+04  0.10331619623E+04  0.15500000000E+01 0. -1.
<mgrwt>
<rscale>  2 0.12500547E+03</rscale>
<asrwt>0</asrwt>
<pdfrwt beam="1">  1       21 0.41614500E-03 0.12500547E+03</pdfrwt>
<pdfrwt beam="2">  1       21 0.22219110E+00 0.12500547E+03</pdfrwt>
<totfact> 0.14796036E+06</totfact>
</mgrwt>
</event>
<event>
 5    0  0.1407995E+000  0.1249972E+03  0.7546771E-02  0.1235074E+00
         21   -1    0    0  503  502  0.00000000000E+00  0.00000000000E+00  0.84938197708E+01  0.84938197708E+01  0.00000000000E+00 0.  1.
         21   -1    0    0  502  503 -0.00000000000E+00 -0.00000000000E+00 -0.45987230944E+03  0.45987230944E+03  0.00000000000E+00 0.  1.
         25    2    1    2    0    0  0.00000000000E+00  0.00000000000E+00 -0.45137848967E+03  0.46836612921E+03  0.12499716019E+03 0.  0.
          4    1    3    3  501    0  0.60113331384E+02 -0.15181647142E+02 -0.19676797631E+03  0.20631077049E+03  0.15500000000E+01 0. -1.
         -4    1    3    3    0  501 -0.60113331384E+02  0.15181647142E+02 -0.25461051336E+03  0.26205535872E+03  0.15500000000E+01 0. -1.
<mgrwt>
<rscale>  2 0.12499716E+03</rscale>
<asrwt>0</asrwt>
<pdfrwt beam="1">  1       21 0.13067416E-02 0.12499716E+03</pdfrwt>
<pdfrwt beam="2">  1       21 0.70749579E-01 0.12499716E+03</pdfrwt>
<totfact> 0.43816397E+06</totfact>
</mgrwt>
</event>
<event>
 5    0  0.1451446E+000  0.1250011E+03  0.7546771E-02  0.1235068E+00
         21   -1    0    0  503  502  0.00000000000E+00  0.00000000000E+00  0.38950782675E+02  0.38950782675E+02  0.00000000000E+00 0. -1.
         21   -1    0    0  502  503 -0.00000000000E+00 -0.00000000000E+00 -0.10028864174E+03  0.10028864174E+03  0.00000000000E+00 0. -1.
         25    2    1    2    0    0  0.00000000000E+00  0.00000000000E+00 -0.61337859060E+02  0.13923942441E+03  0.12500113742E+03 0.  0.
          4    1    3    3  501    0 -0.26034348981E+01 -0.42780714696E+02 -0.81311222641E+02  0.91928694381E+02  0.15500000000E+01 0. -1.
         -4    1    3    3    0  501  0.26034348981E+01  0.42780714696E+02  0.19973363581E+02  0.47310730029E+02  0.15500000000E+01 0. -1.
<mgrwt>
<rscale>  2 0.12500114E+03</rscale>
<asrwt>0</asrwt>
<pdfrwt beam="1">  1       21 0.59924282E-02 0.12500114E+03</pdfrwt>
<pdfrwt beam="2">  1       21 0.15429022E-01 0.12500114E+03</pdfrwt>
<totfact> 0.72136665E+06</totfact>
</mgrwt>
</event>
<event>
 5    0  0.1486907E+000  0.1250005E+03  0.7546771E-02  0.1235068E+00
         21   -1    0    0  503  502  0.00000000000E+00  0.00000000000E+00  0.25928166990E+02  0.25928166990E+02  0.00000000000E+00 0.  1.
         21   -1    0    0  502  503 -0.00000000000E+00 -0.00000000000E+00 -0.15065790072E+03  0.15065790072E+03  0.00000000000E+00 0.  1.
         25    2    1    2    0    0  0.00000000000E+00  0.00000000000E+00 -0.12472973373E+03  0.17658606771E+03  0.12500053133E+03 0.  0.
          4    1    3    3  501    0  0.18222772394E+02  0.34963272967E+02  0.61084374099E+01  0.39927627000E+02  0.15500000000E+01 0. -1.
         -4    1    3    3    0  501 -0.18222772394E+02 -0.34963272967E+02 -0.13083817114E+03  0.13665844071E+03  0.15500000000E+01 0. -1.
<mgrwt>
<rscale>  2 0.12500053E+03</rscale>
<asrwt>0</asrwt>
<pdfrwt beam="1">  1       21 0.39889487E-02 0.12500053E+03</pdfrwt>
<pdfrwt beam="2">  1       21 0.23178139E-01 0.12500053E+03</pdfrwt>
<totfact> 0.67544435E+06</totfact>
</mgrwt>
</event>
<event>
 5    0  0.1496569E+000  0.1250014E+03  0.7546771E-02  0.1235067E+00
         21   -1    0    0  503  502  0.00000000000E+00  0.00000000000E+00  0.12946368030E+03  0.12946368030E+03  0.00000000000E+00 0.  1.
         21   -1    0    0  502  503 -0.00000000000E+00 -0.00000000000E+00 -0.30173245259E+02  0.30173245259E+02  0.00000000000E+00 0.  1.
         25    2    1    2    0    0  0.00000000000E+00  0.00000000000E+00  0.99290435037E+02  0.15963692555E+03  0.12500143003E+03 0.  0.
          4    1    3    3  501    0  0.61512802268E+02 -0.49979134179E+01  0.37189070288E+02  0.72071030451E+02  0.15500000000E+01 0. -1.
         -4    1    3    3    0  501 -0.61512802268E+02  0.49979134179E+01  0.62101364749E+02  0.87565895102E+02  0.15500000000E+01 0. -1.
<mgrwt>
<rscale>  2 0.12500143E+03</rscale>
<asrwt>0</asrwt>
<pdfrwt beam="1">  1       21 0.19917489E-01 0.12500143E+03</pdfrwt>
<pdfrwt beam="2">  1       21 0.46420378E-02 0.12500143E+03</pdfrwt>
<totfact> 0.69561358E+06</totfact>
</mgrwt>
</event>
<event>
 5    0  0.1533320E+000  0.1249879E+03  0.7546771E-02  0.1235088E+00
         21   -1    0    0  503  502  0.00000000000E+00  0.00000000000E+00  0.15519327766E+02  0.15519327766E+02  0.00000000000E+00 0.  1.
         21   -1    0    0  502  503 -0.00000000000E+00 -0.00000000000E+00 -0.25165369496E+03  0.25165369496E+03  0.00000000000E+00 0.  1.
         25    2    1    2    0    0  0.00000000000E+00  0.00000000000E+00 -0.23613436719E+03  0.26717302272E+03  0.12498793823E+03 0.  0.
          4    1    3    3  501    0 -0.12490176088E+02 -0.59841459040E+02 -0.90518878848E+02  0.10923861335E+03  0.15500000000E+01 0.  1.
         -4    1    3    3    0  501  0.12490176088E+02  0.59841459040E+02 -0.14561548834E+03  0.15793440937E+03  0.15500000000E+01 0.  1.
<mgrwt>
<rscale>  2 0.12498794E+03</rscale>
<asrwt>0</asrwt>
<pdfrwt beam="1">  1       21 0.23875890E-02 0.12498794E+03</pdfrwt>
<pdfrwt beam="2">  1       21 0.38715951E-01 0.12498794E+03</pdfrwt>
<totfact> 0.58315709E+06</totfact>
</mgrwt>
</event>
<event>
 5    0  0.1459632E+000  0.1250044E+03  0.7546771E-02  0.1235062E+00
         21   -1    0    0  503  502  0.00000000000E+00  0.00000000000E+00  0.32457353522E+03  0.32457353522E+03  0.00000000000E+00 0. -1.
         21   -1    0    0  502  503 -0.00000000000E+00 -0.00000000000E+00 -0.12035868651E+02  0.12035868651E+02  0.00000000000E+00 0. -1.
         25    2    1    2    0    0  0.00000000000E+00  0.00000000000E+00  0.31253766657E+03  0.33660940387E+03  0.12500439092E+03 0.  0.
          4    1    3    3  501    0  0.32793789210E+01 -0.62376943085E+02  0.15202432181E+03  0.16436372555E+03  0.15500000000E+01 0.  1.
         -4    1    3    3    0  501 -0.32793789210E+01  0.62376943085E+02  0.16051334477E+03  0.17224567833E+03  0.15500000000E+01 0.  1.
<mgrwt>
<rscale>  2 0.12500439E+03</rscale>
<asrwt>0</asrwt>
<pdfrwt beam="1">  1       21 0.49934383E-01 0.12500439E+03</pdfrwt>
<pdfrwt beam="2">  1       21 0.18516723E-02 0.12500439E+03</pdfrwt>
<totfact> 0.52537051E+06</totfact>
</mgrwt>
</event>
<event>
 5    0  0.1222151E+000  0.1249962E+03  0.7546771E-02  0.1235075E+00
         21   -1    0    0  503  502  0.00000000000E+00  0.00000000000E+00  0.98930838805E+03  0.98930838805E+03  0.00000000000E+00 0.  1.
         21   -1    0    0  502  503 -0.00000000000E+00 -0.00000000000E+00 -0.39482247964E+01  0.39482247964E+01  0.00000000000E+00 0.  1.
         25    2    1    2    0    0  0.00000000000E+00  0.00000000000E+00  0.98536016325E+03  0.99325661284E+03  0.12499619048E+03 0.  0.
          4    1    3    3  501    0  0.35774715857E+02  0.40009512090E+02  0.23852058741E+03  0.24448939542E+03  0.15500000000E+01 0.  1.
         -4    1    3    3    0  501 -0.35774715857E+02 -0.40009512090E+02  0.74683957584E+03  0.74876721742E+03  0.15500000000E+01 0.  1.
<mgrwt>
<rscale>  2 0.12499619E+03</rscale>
<asrwt>0</asrwt>
<pdfrwt beam="1">  1       21 0.15220109E+00 0.12499619E+03</pdfrwt>
<pdfrwt beam="2">  1       21 0.60741998E-03 0.12499619E+03</pdfrwt>
<totfact> 0.23790155E+06</totfact>
</mgrwt>
</event>
<event>
 5    0  0.1595417E+000  0.1250149E+03  0.7546771E-02  0.1235046E+00
         21   -1    0    0  503  502  0.00000000000E+00  0.00000000000E+00  0.56677806794E+02  0.56677806794E+02  0.00000000000E+00 0.  1.
         21   -1    0    0  502  503 -0.00000000000E+00 -0.00000000000E+00 -0.68936743235E+02  0.68936743235E+02  0.00000000000E+00 0.  1.
         25    2    1    2    0    0  0.00000000000E+00  0.00000000000E+00 -0.12258936441E+02  0.12561455003E+03  0.12501493373E+03 0.  0.
          4    1    3    3  501    0  0.28310127546E+00  0.50941983954E+02 -0.42491645407E+02  0.66355921400E+02  0.15500000000E+01 0. -1.
         -4    1    3    3    0  501 -0.28310127546E+00 -0.50941983954E+02  0.30232708965E+02  0.59258628628E+02  0.15500000000E+01 0. -1.
<mgrwt>
<rscale>  2 0.12501493E+03</rscale>
<asrwt>0</asrwt>
<pdfrwt beam="1">  1       21 0.87196626E-02 0.12501493E+03</pdfrwt>
<pdfrwt beam="2">  1       21 0.10605653E-01 0.12501493E+03</pdfrwt>
<totfact> 0.73931262E+06</totfact>
</mgrwt>
</event>
<event>
 5    0  0.1282790E+000  0.1250015E+03  0.7546771E-02  0.1235067E+00
         21   -1    0    0  503  502  0.00000000000E+00  0.00000000000E+00  0.47369061182E+03  0.47369061182E+03  0.00000000000E+00 0. -1.
         21   -1    0    0  502  503 -0.00000000000E+00 -0.00000000000E+00 -0.82466088763E+01  0.82466088763E+01  0.00000000000E+00 0. -1.
         25    2    1    2    0    0  0.00000000000E+00  0.00000000000E+00  0.46544400294E+03  0.48193722070E+03  0.12500145926E+03 0.  0.
          4    1    3    3  501    0 -0.43335803786E+01  0.24808440522E+02  0.45318176829E+03  0.45388363735E+03  0.15500000000E+01 0.  1.
         -4    1    3    3    0  501  0.43335803786E+01 -0.24808440522E+02  0.12262234653E+02  0.28053583349E+02  0.15500000000E+01 0.  1.
<mgrwt>
<rscale>  2 0.12500146E+03</rscale>
<asrwt>0</asrwt>
<pdfrwt beam="1">  1       21 0.72875457E-01 0.12500146E+03</pdfrwt>
<pdfrwt beam="2">  1       21 0.12687094E-02 0.12500146E+03</pdfrwt>
<totfact> 0.43039349E+06</totfact>
</mgrwt>
</event>
<event>
 5    0  0.1222151E+000  0.1250035E+03  0.7546771E-02  0.1235064E+00
         21   -1    0    0  503  502  0.00000000000E+00  0.00000000000E+00  0.13444507833E+01  0.13444507833E+01  0.00000000000E+00 0.  1.
         21   -1    0    0  502  503 -0.00000000000E+00 -0.00000000000E+00 -0.29056232019E+04  0.29056232019E+04  0.00000000000E+00 0.  1.
         25    2    1    2    0    0  0.00000000000E+00  0.00000000000E+00 -0.29042787511E+04  0.29069676527E+04  0.12500347819E+03 0.  0.
          4    1    3    3  501    0  0.46283411993E+02 -0.39799857718E+02 -0.17622981638E+04  0.17633557224E+04  0.15500000000E+01 0. -1.
         -4    1    3    3    0  501 -0.46283411993E+02  0.39799857718E+02 -0.11419805873E+04  0.11436119303E+04  0.15500000000E+01 0. -1.
<mgrwt>
<rscale>  2 0.12500348E+03</rscale>
<asrwt>0</asrwt>
<pdfrwt beam="1">  1       21 0.20683945E-03 0.12500348E+03</pdfrwt>
<pdfrwt beam="2">  1       21 0.44701708E+00 0.12500348E+03</pdfrwt>
<totfact> 0.20563413E+05</totfact>
</mgrwt>
</event>
<event>
 5    0  0.1732127E+000  0.1250015E+03  0.7546771E-02  0.1235067E+00
         21   -1    0    0  503  502  0.00000000000E+00  0.00000000000E+00  0.99559093893E+02  0.99559093893E+02  0.00000000000E+00 0. -1.
         21   -1    0    0  502  503 -0.00000000000E+00 -0.00000000000E+00 -0.39236408782E+02  0.39236408782E+02  0.00000000000E+00 0. -1.
         25    2    1    2    0    0  0.00000000000E+00  0.00000000000E+00  0.60322685112E+02  0.13879550267E+03  0.12500146089E+03 0.  0.
          4    1    3    3  501    0 -0.56689278728E+02 -0.31496170989E+01  0.11995984999E+01  0.56810526728E+02  0.15500000000E+01 0. -1.
         -4    1    3    3    0  501  0.56689278728E+02  0.31496170989E+01  0.59123086612E+02  0.81984975947E+02  0.15500000000E+01 0. -1.
<mgrwt>
<rscale>  2 0.12500146E+03</rscale>
<asrwt>0</asrwt>
<pdfrwt beam="1">  1       21 0.15316784E-01 0.12500146E+03</pdfrwt>
<pdfrwt beam="2">  1       21 0.60363706E-02 0.12500146E+03</pdfrwt>
<totfact> 0.72194258E+06</totfact>
</mgrwt>
</event>
<event>
 5    0  0.1461245E+000  0.1250041E+03  0.7546771E-02  0.1235063E+00
         21   -1    0    0  503  502  0.00000000000E+00  0.00000000000E+00  0.19237190080E+03  0.19237190080E+03  0.00000000000E+00 0. -1.
         21   -1    0    0  502  503 -0.00000000000E+00 -0.00000000000E+00 -0.20307063854E+02  0.20307063854E+02  0.00000000000E+00 0. -1.
         25    2    1    2    0    0  0.00000000000E+00  0.00000000000E+00  0.17206483694E+03  0.21267896465E+03  0.12500413550E+03 0.  0.
          4    1    3    3  501    0  0.56724209802E+02  0.61906574085E+01  0.42717600124E+02  0.71296255703E+02  0.15500000000E+01 0. -1.
         -4    1    3    3    0  501 -0.56724209802E+02 -0.61906574085E+01  0.12934723682E+03  0.14138270895E+03  0.15500000000E+01 0. -1.
<mgrwt>
<rscale>  2 0.12500414E+03</rscale>
<asrwt>0</asrwt>
<pdfrwt beam="1">  1       21 0.29595676E-01 0.12500414E+03</pdfrwt>
<pdfrwt beam="2">  1       21 0.31241638E-02 0.12500414E+03</pdfrwt>
<totfact> 0.63572128E+06</totfact>
</mgrwt>
</event>
<event>
 5    0  0.1222151E+000  0.1249875E+03  0.7546771E-02  0.1235089E+00
         21   -1    0    0  503  502  0.00000000000E+00  0.00000000000E+00  0.45569406701E+01  0.45569406701E+01  0.00000000000E+00 0. -1.
         21   -1    0    0  502  503 -0.00000000000E+00 -0.00000000000E+00 -0.85703759089E+03  0.85703759089E+03  0.00000000000E+00 0. -1.
         25    2    1    2    0    0  0.00000000000E+00  0.00000000000E+00 -0.85248065022E+03  0.86159453156E+03  0.12498751064E+03 0.  0.
          4    1    3    3  501    0 -0.35169564261E+02 -0.16000411493E+02 -0.76466252989E+03  0.76563966626E+03  0.15500000000E+01 0.  1.
         -4    1    3    3    0  501  0.35169564261E+02  0.16000411493E+02 -0.87818120327E+02  0.95954865307E+02  0.15500000000E+01 0.  1.
<mgrwt>
<rscale>  2 0.12498751E+03</rscale>
<asrwt>0</asrwt>
<pdfrwt beam="1">  1       21 0.70106768E-03 0.12498751E+03</pdfrwt>
<pdfrwt beam="2">  1       21 0.13185196E+00 0.12498751E+03</pdfrwt>
<totfact> 0.27429242E+06</totfact>
</mgrwt>
</event>
<event>
 5    0  0.1542961E+000  0.1249984E+03  0.7546771E-02  0.1235072E+00
         21   -1    0    0  503  502  0.00000000000E+00  0.00000000000E+00  0.25807774815E+02  0.25807774815E+02  0.00000000000E+00 0. -1.
         21   -1    0    0  502  503 -0.00000000000E+00 -0.00000000000E+00 -0.15135564801E+03  0.15135564801E+03  0.00000000000E+00 0. -1.
         25    2    1    2    0    0  0.00000000000E+00  0.00000000000E+00 -0.12554787320E+03  0.17716342283E+03  0.12499843969E+03 0.  0.
          4    1    3    3  501    0 -0.27149286654E+02 -0.33000513660E+02  0.18292315041E+01  0.42800306722E+02  0.15500000000E+01 0.  1.
         -4    1    3    3    0  501  0.27149286654E+02  0.33000513660E+02 -0.12737710470E+03  0.13436311611E+03  0.15500000000E+01 0.  1.
<mgrwt>
<rscale>  2 0.12499844E+03</rscale>
<asrwt>0</asrwt>
<pdfrwt beam="1">  1       21 0.39704269E-02 0.12499844E+03</pdfrwt>
<pdfrwt beam="2">  1       21 0.23285484E-01 0.12499844E+03</pdfrwt>
<totfact> 0.67481110E+06</totfact>
</mgrwt>
</event>
<event>
 5    0  0.1452866E+000  0.1249964E+03  0.7546771E-02  0.1235075E+00
         21   -1    0    0  503  502  0.00000000000E+00  0.00000000000E+00  0.28046806480E+02  0.28046806480E+02  0.00000000000E+00 0. -1.
         21   -1    0    0  502  503 -0.00000000000E+00 -0.00000000000E+00 -0.13926799349E+03  0.13926799349E+03  0.00000000000E+00 0. -1.
         25    2    1    2    0    0  0.00000000000E+00  0.00000000000E+00 -0.11122118701E+03  0.16731479997E+03  0.12499635935E+03 0.  0.
          4    1    3    3  501    0 -0.39025781764E+02 -0.11935960042E+02 -0.11893640058E+03  0.12575272827E+03  0.15500000000E+01 0. -1.
         -4    1    3    3    0  501  0.39025781764E+02  0.11935960042E+02  0.77152135623E+01  0.41562071709E+02  0.15500000000E+01 0. -1.
<mgrwt>
<rscale>  2 0.12499636E+03</rscale>
<asrwt>0</asrwt>
<pdfrwt beam="1">  1       21 0.43148933E-02 0.12499636E+03</pdfrwt>
<pdfrwt beam="2">  1       21 0.21425845E-01 0.12499636E+03</pdfrwt>
<totfact> 0.68642917E+06</totfact>
</mgrwt>
</event>
<event>
 5    0  0.1311215E+000  0.1249967E+03  0.7546771E-02  0.1235074E+00
         21   -1    0    0  503  502  0.00000000000E+00  0.00000000000E+00  0.88406386146E+01  0.88406386146E+01  0.00000000000E+00 0.  1.
         21   -1    0    0  502  503 -0.00000000000E+00 -0.00000000000E+00 -0.44182796996E+03  0.44182796996E+03  0.00000000000E+00 0.  1.
         25    2    1    2    0    0  0.00000000000E+00  0.00000000000E+00 -0.43298733135E+03  0.45066860857E+03  0.12499666255E+03 0.  0.
          4    1    3    3  501    0 -0.31774510239E+02 -0.15867225485E+02 -0.31163595264E+02  0.47275369013E+02  0.15500000000E+01 0.  1.
         -4    1    3    3    0  501  0.31774510239E+02  0.15867225485E+02 -0.40182373608E+03  0.40339323956E+03  0.15500000000E+01 0.  1.
<mgrwt>
<rscale>  2 0.12499666E+03</rscale>
<asrwt>0</asrwt>
<pdfrwt beam="1">  1       21 0.13600986E-02 0.12499666E+03</pdfrwt>
<pdfrwt beam="2">  1       21 0.67973517E-01 0.12499666E+03</pdfrwt>
<totfact> 0.44856028E+06</totfact>
</mgrwt>
</event>
<event>
 5    0  0.1503103E+000  0.1249984E+03  0.7546771E-02  0.1235072E+00
         21   -1    0    0  503  502  0.00000000000E+00  0.00000000000E+00  0.27881881272E+03  0.27881881272E+03  0.00000000000E+00 0. -1.
         21   -1    0    0  502  503 -0.00000000000E+00 -0.00000000000E+00 -0.14009636467E+02  0.14009636467E+02  0.00000000000E+00 0. -1.
         25    2    1    2    0    0  0.00000000000E+00  0.00000000000E+00  0.26480917626E+03  0.29282844919E+03  0.12499840329E+03 0.  0.
          4    1    3    3  501    0 -0.53722135921E+02  0.26342099277E+02  0.90251486518E+02  0.10829454003E+03  0.15500000000E+01 0. -1.
         -4    1    3    3    0  501  0.53722135921E+02 -0.26342099277E+02  0.17455768974E+03  0.18453390916E+03  0.15500000000E+01 0. -1.
<mgrwt>
<rscale>  2 0.12499840E+03</rscale>
<asrwt>0</asrwt>
<pdfrwt beam="1">  1       21 0.42895198E-01 0.12499840E+03</pdfrwt>
<pdfrwt beam="2">  1       21 0.21553289E-02 0.12499840E+03</pdfrwt>
<totfact> 0.56059725E+06</totfact>
</mgrwt>
</event>
<event>
 5    0  0.1389803E+000  0.1249505E+03  0.7546771E-02  0.1235147E+00
         21   -1    0    0  503  502  0.00000000000E+00  0.00000000000E+00  0.34426488620E+03  0.34426488620E+03  0.00000000000E+00 0.  1.
         21   -1    0    0  502  503 -0.00000000000E+00 -0.00000000000E+00 -0.11337648912E+02  0.11337648912E+02  0.00000000000E+00 0.  1.
         25    2    1    2    0    0  0.00000000000E+00  0.00000000000E+00  0.33292723728E+03  0.35560253511E+03  0.12495046078E+03 0.  0.
          4    1    3    3  501    0  0.60185674418E+02  0.15729703898E+02  0.18231248977E+03  0.19263952194E+03  0.15500000000E+01 0.  1.
         -4    1    3    3    0  501 -0.60185674418E+02 -0.15729703898E+02  0.15061474752E+03  0.16296301317E+03  0.15500000000E+01 0.  1.
<mgrwt>
<rscale>  2 0.12495046E+03</rscale>
<asrwt>0</asrwt>
<pdfrwt beam="1">  1       21 0.52963821E-01 0.12495046E+03</pdfrwt>
<pdfrwt beam="2">  1       21 0.17442539E-02 0.12495046E+03</pdfrwt>
<totfact> 0.51190798E+06</totfact>
</mgrwt>
</event>
<event>
 5    0  0.1565953E+000  0.1250012E+03  0.7546771E-02  0.1235067E+00
         21   -1    0    0  503  502  0.00000000000E+00  0.00000000000E+00  0.83401315043E+02  0.83401315043E+02  0.00000000000E+00 0. -1.
         21   -1    0    0  502  503 -0.00000000000E+00 -0.00000000000E+00 -0.46837659469E+02  0.46837659469E+02  0.00000000000E+00 0. -1.
         25    2    1    2    0    0  0.00000000000E+00  0.00000000000E+00  0.36563655574E+02  0.13023897451E+03  0.12500115829E+03 0.  0.
          4    1    3    3  501    0 -0.14194424728E+02  0.54232476189E+02 -0.10465548061E+02  0.57048868203E+02  0.15500000000E+01 0. -1.
         -4    1    3    3    0  501  0.14194424728E+02 -0.54232476189E+02  0.47029203635E+02  0.73190106309E+02  0.15500000000E+01 0. -1.
<mgrwt>
<rscale>  2 0.12500116E+03</rscale>
<asrwt>0</asrwt>
<pdfrwt beam="1">  1       21 0.12830972E-01 0.12500116E+03</pdfrwt>
<pdfrwt beam="2">  1       21 0.72057937E-02 0.12500116E+03</pdfrwt>
<totfact> 0.73330825E+06</totfact>
</mgrwt>
</event>
<event>
 5    0  0.1400070E+000  0.1250064E+03  0.7546771E-02  0.1235059E+00
         21   -1    0    0  503  502  0.00000000000E+00  0.00000000000E+00  0.32106075372E+02  0.32106075372E+02  0.00000000000E+00 0.  1.
         21   -1    0    0  502  503 -0.00000000000E+00 -0.00000000000E+00 -0.12167938813E+03  0.12167938813E+03  0.00000000000E+00 0.  1.
         25    2    1    2    0    0  0.00000000000E+00  0.00000000000E+00 -0.89573312753E+02  0.15378546350E+03  0.12500636154E+03 0.  0.
          4    1    3    3  501    0  0.49528266576E+02  0.49590753911E+01  0.16792926785E+01  0.49828346778E+02  0.15500000000E+01 0. -1.
         -4    1    3    3    0  501 -0.49528266576E+02 -0.49590753911E+01 -0.91252605432E+02  0.10395711672E+03  0.15500000000E+01 0. -1.
<mgrwt>
<rscale>  2 0.12500636E+03</rscale>
<asrwt>0</asrwt>
<pdfrwt beam="1">  1       21 0.49393963E-02 0.12500636E+03</pdfrwt>
<pdfrwt beam="2">  1       21 0.18719906E-01 0.12500636E+03</pdfrwt>
<totfact> 0.70275477E+06</totfact>
</mgrwt>
</event>
<event>
 5    0  0.1485490E+000  0.1250048E+03  0.7546771E-02  0.1235062E+00
         21   -1    0    0  503  502  0.00000000000E+00  0.00000000000E+00  0.50211177081E+02  0.50211177081E+02  0.00000000000E+00 0. -1.
         21   -1    0    0  502  503 -0.00000000000E+00 -0.00000000000E+00 -0.77802443291E+02  0.77802443291E+02  0.00000000000E+00 0. -1.
         25    2    1    2    0    0  0.00000000000E+00  0.00000000000E+00 -0.27591266210E+02  0.12801362037E+03  0.12500483602E+03 0.  0.
          4    1    3    3  501    0  0.41921681702E+02  0.41393153165E+01  0.33462570014E+02  0.53821068551E+02  0.15500000000E+01 0.  1.
         -4    1    3    3    0  501 -0.41921681702E+02 -0.41393153165E+01 -0.61053836224E+02  0.74192551821E+02  0.15500000000E+01 0.  1.
<mgrwt>
<rscale>  2 0.12500484E+03</rscale>
<asrwt>0</asrwt>
<pdfrwt beam="1">  1       21 0.77247965E-02 0.12500484E+03</pdfrwt>
<pdfrwt beam="2">  1       21 0.11969607E-01 0.12500484E+03</pdfrwt>
<totfact> 0.73622629E+06</totfact>
</mgrwt>
</event>
<event>
 5    0  0.1504464E+000  0.1250007E+03  0.7546771E-02  0.1235068E+00
         21   -1    0    0  503  502  0.00000000000E+00  0.00000000000E+00  0.91242616494E+02  0.91242616494E+02  0.00000000000E+00 0. -1.
         21   -1    0    0  502  503 -0.00000000000E+00 -0.00000000000E+00 -0.42812193718E+02  0.42812193718E+02  0.00000000000E+00 0. -1.
         25    2    1    2    0    0  0.00000000000E+00  0.00000000000E+00  0.48430422777E+02  0.13405481021E+03  0.12500074516E+03 0.  0.
          4    1    3    3  501    0  0.59388837193E+02  0.12923037995E+02  0.86795536264E+01  0.61414786862E+02  0.15500000000E+01 0. -1.
         -4    1    3    3    0  501 -0.59388837193E+02 -0.12923037995E+02  0.39750869150E+02  0.72640023350E+02  0.15500000000E+01 0. -1.
<mgrwt>
<rscale>  2 0.12500075E+03</rscale>
<asrwt>0</asrwt>
<pdfrwt beam="1">  1       21 0.14037326E-01 0.12500075E+03</pdfrwt>
<pdfrwt beam="2">  1       21 0.65864914E-02 0.12500075E+03</pdfrwt>
<totfact> 0.72820482E+06</totfact>
</mgrwt>
</event>
<event>
 5    0  0.1552884E+000  0.1249566E+03  0.7546771E-02  0.1235137E+00
         21   -1    0    0  503  502  0.00000000000E+00  0.00000000000E+00  0.23675579568E+02  0.23675579568E+02  0.00000000000E+00 0. -1.
         21   -1    0    0  502  503 -0.00000000000E+00 -0.00000000000E+00 -0.16487617392E+03  0.16487617392E+03  0.00000000000E+00 0. -1.
         25    2    1    2    0    0  0.00000000000E+00  0.00000000000E+00 -0.14120059435E+03  0.18855175349E+03  0.12495661606E+03 0.  0.
          4    1    3    3  501    0 -0.86321955977E+01 -0.57206609884E+02 -0.10611728948E+03  0.12087345714E+03  0.15500000000E+01 0.  1.
         -4    1    3    3    0  501  0.86321955977E+01  0.57206609884E+02 -0.35083304872E+02  0.67678296344E+02  0.15500000000E+01 0.  1.
<mgrwt>
<rscale>  2 0.12495662E+03</rscale>
<asrwt>0</asrwt>
<pdfrwt beam="1">  1       21 0.36423967E-02 0.12495662E+03</pdfrwt>
<pdfrwt beam="2">  1       21 0.25365566E-01 0.12495662E+03</pdfrwt>
<totfact> 0.66256607E+06</totfact>
</mgrwt>
</event>
<event>
 5    0  0.1483478E+000  0.1250018E+03  0.7546771E-02  0.1235066E+00
         21   -1    0    0  503  502  0.00000000000E+00  0.00000000000E+00  0.34553318091E+02  0.34553318091E+02  0.00000000000E+00 0. -1.
         21   -1    0    0  502  503 -0.00000000000E+00 -0.00000000000E+00 -0.11305317759E+03  0.11305317759E+03  0.00000000000E+00 0. -1.
         25    2    1    2    0    0  0.00000000000E+00  0.00000000000E+00 -0.78499859497E+02  0.14760649568E+03  0.12500179849E+03 0.  0.
          4    1    3    3  501    0  0.10166807778E+01 -0.47933679808E+02  0.80614670259E+01  0.48642173578E+02  0.15500000000E+01 0. -1.
         -4    1    3    3    0  501 -0.10166807778E+01  0.47933679808E+02 -0.86561326523E+02  0.98964322102E+02  0.15500000000E+01 0. -1.
<mgrwt>
<rscale>  2 0.12500180E+03</rscale>
<asrwt>0</asrwt>
<pdfrwt beam="1">  1       21 0.53158951E-02 0.12500180E+03</pdfrwt>
<pdfrwt beam="2">  1       21 0.17392796E-01 0.12500180E+03</pdfrwt>
<totfact> 0.71057925E+06</totfact>
</mgrwt>
</event>
<event>
 5    0  0.1222151E+000  0.1249985E+03  0.7546771E-02  0.1235072E+00
         21   -1    0    0  503  502  0.00000000000E+00  0.00000000000E+00  0.13574161322E+04  0.13574161322E+04  0.00000000000E+00 0.  1.
         21   -1    0    0  502  503 -0.00000000000E+00 -0.00000000000E+00 -0.28776399111E+01  0.28776399111E+01  0.00000000000E+00 0.  1.
         25    2    1    2    0    0  0.00000000000E+00  0.00000000000E+00  0.13545384923E+04  0.13602937721E+04  0.12499847740E+03 0.  0.
          4    1    3    3  501    0 -0.10681407962E+02  0.41793874617E+02  0.18539403919E+03  0.19035275858E+03  0.15500000000E+01 0. -1.
         -4    1    3    3    0  501  0.10681407962E+02 -0.41793874617E+02  0.11691444531E+04  0.11699410135E+04  0.15500000000E+01 0. -1.
<mgrwt>
<rscale>  2 0.12499848E+03</rscale>
<asrwt>0</asrwt>
<pdfrwt beam="1">  1       21 0.20883274E+00 0.12499848E+03</pdfrwt>
<pdfrwt beam="2">  1       21 0.44271492E-03 0.12499848E+03</pdfrwt>
<totfact> 0.16203965E+06</totfact>
</mgrwt>
</event>
<event>
 5    0  0.1508322E+000  0.1250086E+03  0.7546771E-02  0.1235056E+00
         21   -1    0    0  503  502  0.00000000000E+00  0.00000000000E+00  0.57356762311E+02  0.57356762311E+02  0.00000000000E+00 0.  1.
         21   -1    0    0  502  503 -0.00000000000E+00 -0.00000000000E+00 -0.68113856084E+02  0.68113856084E+02  0.00000000000E+00 0.  1.
         25    2    1    2    0    0  0.00000000000E+00  0.00000000000E+00 -0.10757093773E+02  0.12547061840E+03  0.12500864376E+03 0.  0.
          4    1    3    3  501    0  0.58280193823E+02 -0.58926846008E+01  0.16452304827E+02  0.60863663692E+02  0.15500000000E+01 0. -1.
         -4    1    3    3    0  501 -0.58280193823E+02  0.58926846008E+01 -0.27209398600E+02  0.64606954703E+02  0.15500000000E+01 0. -1.
<mgrwt>
<rscale>  2 0.12500864E+03</rscale>
<asrwt>0</asrwt>
<pdfrwt beam="1">  1       21 0.88241173E-02 0.12500864E+03</pdfrwt>
<pdfrwt beam="2">  1       21 0.10479055E-01 0.12500864E+03</pdfrwt>
<totfact> 0.73963211E+06</totfact>
</mgrwt>
</event>
<event>
 5    0  0.1222151E+000  0.1250030E+03  0.7546771E-02  0.1235065E+00
         21   -1    0    0  503  502  0.00000000000E+00  0.00000000000E+00  0.40496409998E+01  0.40496409998E+01  0.00000000000E+00 0. -1.
         21   -1    0    0  502  503 -0.00000000000E+00 -0.00000000000E+00 -0.96463772374E+03  0.96463772374E+03  0.00000000000E+00 0. -1.
         25    2    1    2    0    0  0.00000000000E+00  0.00000000000E+00 -0.96058808274E+03  0.96868736474E+03  0.12500298358E+03 0.  0.
          4    1    3    3  501    0 -0.51813155195E+02 -0.15114222591E+02 -0.23634553965E+03  0.24243485597E+03  0.15500000000E+01 0. -1.
         -4    1    3    3    0  501  0.51813155195E+02  0.15114222591E+02 -0.72424254309E+03  0.72625250877E+03  0.15500000000E+01 0. -1.
<mgrwt>
<rscale>  2 0.12500298E+03</rscale>
<asrwt>0</asrwt>
<pdfrwt beam="1">  1       21 0.62302089E-03 0.12500298E+03</pdfrwt>
<pdfrwt beam="2">  1       21 0.14840599E+00 0.12500298E+03</pdfrwt>
<totfact> 0.24415828E+06</totfact>
</mgrwt>
</event>
<event>
 5    0  0.1222151E+000  0.1250002E+03  0.7546771E-02  0.1235069E+00
         21   -1    0    0  503  502  0.00000000000E+00  0.00000000000E+00  0.51369223609E+01  0.51369223609E+01  0.00000000000E+00 0.  1.
         21   -1    0    0  502  503 -0.00000000000E+00 -0.00000000000E+00 -0.76042850658E+03  0.76042850658E+03  0.00000000000E+00 0.  1.
         25    2    1    2    0    0  0.00000000000E+00  0.00000000000E+00 -0.75529158422E+03  0.76556542894E+03  0.12500019519E+03 0.  0.
          4    1    3    3  501    0  0.47394883063E+02  0.38964685732E+02 -0.44994048997E+03  0.45410722157E+03  0.15500000000E+01 0.  1.
         -4    1    3    3    0  501 -0.47394883063E+02 -0.38964685732E+02 -0.30535109426E+03  0.31145820737E+03  0.15500000000E+01 0.  1.
<mgrwt>
<rscale>  2 0.12500020E+03</rscale>
<asrwt>0</asrwt>
<pdfrwt beam="1">  1       21 0.79029591E-03 0.12500020E+03</pdfrwt>
<pdfrwt beam="2">  1       21 0.11698898E+00 0.12500020E+03</pdfrwt>
<totfact> 0.30528670E+06</totfact>
</mgrwt>
</event>
<event>
 5    0  0.1297523E+000  0.1250053E+03  0.7546771E-02  0.1235061E+00
         21   -1    0    0  503  502  0.00000000000E+00  0.00000000000E+00  0.40721094958E+03  0.40721094958E+03  0.00000000000E+00 0. -1.
         21   -1    0    0  502  503 -0.00000000000E+00 -0.00000000000E+00 -0.95935055556E+01  0.95935055556E+01  0.00000000000E+00 0. -1.
         25    2    1    2    0    0  0.00000000000E+00  0.00000000000E+00  0.39761744402E+03  0.41680445513E+03  0.12500528800E+03 0.  0.
          4    1    3    3  501    0  0.61386121157E+02 -0.11653144010E+02  0.19999402049E+03  0.20953296249E+03  0.15500000000E+01 0. -1.
         -4    1    3    3    0  501 -0.61386121157E+02  0.11653144010E+02  0.19762342353E+03  0.20727149265E+03  0.15500000000E+01 0. -1.
<mgrwt>
<rscale>  2 0.12500529E+03</rscale>
<asrwt>0</asrwt>
<pdfrwt beam="1">  1       21 0.62647825E-01 0.12500529E+03</pdfrwt>
<pdfrwt beam="2">  1       21 0.14759242E-02 0.12500529E+03</pdfrwt>
<totfact> 0.46940150E+06</totfact>
</mgrwt>
</event>
<event>
 5    0  0.1222151E+000  0.1249992E+03  0.7546771E-02  0.1235071E+00
         21   -1    0    0  503  502  0.00000000000E+00  0.00000000000E+00  0.25372887344E+01  0.25372887344E+01  0.00000000000E+00 0. -1.
         21   -1    0    0  502  503 -0.00000000000E+00 -0.00000000000E+00 -0.15395177563E+04  0.15395177563E+04  0.00000000000E+00 0. -1.
         25    2    1    2    0    0  0.00000000000E+00  0.00000000000E+00 -0.15369804676E+04  0.15420550450E+04  0.12499921695E+03 0.  0.
          4    1    3    3  501    0 -0.60008235884E+02 -0.14934723385E+02 -0.65831178499E+03  0.66121164773E+03  0.15500000000E+01 0.  1.
         -4    1    3    3    0  501  0.60008235884E+02  0.14934723385E+02 -0.87866868258E+03  0.88084339731E+03  0.15500000000E+01 0.  1.
<mgrwt>
<rscale>  2 0.12499922E+03</rscale>
<asrwt>0</asrwt>
<pdfrwt beam="1">  1       21 0.39035210E-03 0.12499922E+03</pdfrwt>
<pdfrwt beam="2">  1       21 0.23684890E+00 0.12499922E+03</pdfrwt>
<totfact> 0.13380821E+06</totfact>
</mgrwt>
</event>
<event>
 5    0  0.1438308E+000  0.1250048E+03  0.7546771E-02  0.1235062E+00
         21   -1    0    0  503  502  0.00000000000E+00  0.00000000000E+00  0.16845638258E+02  0.16845638258E+02  0.00000000000E+00 0.  1.
         21   -1    0    0  502  503 -0.00000000000E+00 -0.00000000000E+00 -0.23190280820E+03  0.23190280820E+03  0.00000000000E+00 0.  1.
         25    2    1    2    0    0  0.00000000000E+00  0.00000000000E+00 -0.21505716994E+03  0.24874844646E+03  0.12500481300E+03 0.  0.
          4    1    3    3  501    0  0.24231632783E+02  0.56481654732E+02 -0.12993598690E+03  0.14374669575E+03  0.15500000000E+01 0. -1.
         -4    1    3    3    0  501 -0.24231632783E+02 -0.56481654732E+02 -0.85121183049E+02  0.10500175071E+03  0.15500000000E+01 0. -1.
<mgrwt>
<rscale>  2 0.12500481E+03</rscale>
<asrwt>0</asrwt>
<pdfrwt beam="1">  1       21 0.25916367E-02 0.12500481E+03</pdfrwt>
<pdfrwt beam="2">  1       21 0.35677355E-01 0.12500481E+03</pdfrwt>
<totfact> 0.59988942E+06</totfact>
</mgrwt>
</event>
<event>
 5    0  0.1517643E+000  0.1250097E+03  0.7546771E-02  0.1235054E+00
         21   -1    0    0  503  502  0.00000000000E+00  0.00000000000E+00  0.30649737383E+02  0.30649737383E+02  0.00000000000E+00 0. -1.
         21   -1    0    0  502  503 -0.00000000000E+00 -0.00000000000E+00 -0.12746784935E+03  0.12746784935E+03  0.00000000000E+00 0. -1.
         25    2    1    2    0    0  0.00000000000E+00  0.00000000000E+00 -0.96818111971E+02  0.15811758674E+03  0.12500969734E+03 0.  0.
          4    1    3    3  501    0  0.38603764841E+02  0.25069653617E+02  0.50403148540E+01  0.46330826306E+02  0.15500000000E+01 0. -1.
         -4    1    3    3    0  501 -0.38603764841E+02 -0.25069653617E+02 -0.10185842682E+03  0.11178676043E+03  0.15500000000E+01 0. -1.
<mgrwt>
<rscale>  2 0.12500970E+03</rscale>
<asrwt>0</asrwt>
<pdfrwt beam="1">  1       21 0.47153443E-02 0.12500970E+03</pdfrwt>
<pdfrwt beam="2">  1       21 0.19610438E-01 0.12500970E+03</pdfrwt>
<totfact> 0.69733044E+06</totfact>
</mgrwt>
</event>
<event>
 5    0  0.1222151E+000  0.1250055E+03  0.7546771E-02  0.1235061E+00
         21   -1    0    0  503  502  0.00000000000E+00  0.00000000000E+00  0.85505302916E+03  0.85505302916E+03  0.00000000000E+00 0.  1.
         21   -1    0    0  502  503 -0.00000000000E+00 -0.00000000000E+00 -0.45688339641E+01  0.45688339641E+01  0.00000000000E+00 0.  1.
         25    2    1    2    0    0  0.00000000000E+00  0.00000000000E+00  0.85048419519E+03  0.85962186312E+03  0.12500552501E+03 0.  0.
          4    1    3    3  501    0 -0.42919320210E+02  0.45132794605E+02  0.45973230420E+03  0.46393451178E+03  0.15500000000E+01 0. -1.
         -4    1    3    3    0  501  0.42919320210E+02 -0.45132794605E+02  0.39075189099E+03  0.39568735134E+03  0.15500000000E+01 0. -1.
<mgrwt>
<rscale>  2 0.12500553E+03</rscale>
<asrwt>0</asrwt>
<pdfrwt beam="1">  1       21 0.13154649E+00 0.12500553E+03</pdfrwt>
<pdfrwt beam="2">  1       21 0.70289821E-03 0.12500553E+03</pdfrwt>
<totfact> 0.27476288E+06</totfact>
</mgrwt>
</event>
<event>
 5    0  0.1396252E+000  0.1250017E+03  0.7546771E-02  0.1235067E+00
         21   -1    0    0  503  502  0.00000000000E+00  0.00000000000E+00  0.22723736847E+02  0.22723736847E+02  0.00000000000E+00 0. -1.
         21   -1    0    0  502  503 -0.00000000000E+00 -0.00000000000E+00 -0.17190651045E+03  0.17190651045E+03  0.00000000000E+00 0. -1.
         25    2    1    2    0    0  0.00000000000E+00  0.00000000000E+00 -0.14918277360E+03  0.19463024729E+03  0.12500173288E+03 0.  0.
          4    1    3    3  501    0  0.16521982063E+02 -0.15545071799E+02  0.16055161378E+02  0.27835155027E+02  0.15500000000E+01 0.  1.
         -4    1    3    3    0  501 -0.16521982063E+02  0.15545071799E+02 -0.16523793498E+03  0.16679509227E+03  0.15500000000E+01 0.  1.
<mgrwt>
<rscale>  2 0.12500173E+03</rscale>
<asrwt>0</asrwt>
<pdfrwt beam="1">  1       21 0.34959595E-02 0.12500173E+03</pdfrwt>
<pdfrwt beam="2">  1       21 0.26447156E-01 0.12500173E+03</pdfrwt>
<totfact> 0.65508637E+06</totfact>
</mgrwt>
</event>
<event>
 5    0  0.1524821E+000  0.1249848E+03  0.7546771E-02  0.1235093E+00
         21   -1    0    0  503  502  0.00000000000E+00  0.00000000000E+00  0.23880800564E+03  0.23880800564E+03  0.00000000000E+00 0. -1.
         21   -1    0    0  502  503 -0.00000000000E+00 -0.00000000000E+00 -0.16353295823E+02  0.16353295823E+02  0.00000000000E+00 0. -1.
         25    2    1    2    0    0  0.00000000000E+00  0.00000000000E+00  0.22245470982E+03  0.25516130147E+03  0.12498476645E+03 0.  0.
          4    1    3    3  501    0 -0.56350496039E+02  0.60730987795E+01  0.16487885500E+03  0.17435509817E+03  0.15500000000E+01 0.  1.
         -4    1    3    3    0  501  0.56350496039E+02 -0.60730987795E+01  0.57575854821E+02  0.80806203295E+02  0.15500000000E+01 0.  1.
<mgrwt>
<rscale>  2 0.12498477E+03</rscale>
<asrwt>0</asrwt>
<pdfrwt beam="1">  1       21 0.36739691E-01 0.12498477E+03</pdfrwt>
<pdfrwt beam="2">  1       21 0.25158918E-02 0.12498477E+03</pdfrwt>
<totfact> 0.59418442E+06</totfact>
</mgrwt>
</event>
<event>
 5    0  0.1222151E+000  0.1250004E+03  0.7546771E-02  0.1235069E+00
         21   -1    0    0  503  502  0.00000000000E+00  0.00000000000E+00  0.81602248437E+03  0.81602248437E+03  0.00000000000E+00 0. -1.
         21   -1    0    0  502  503 -0.00000000000E+00 -0.00000000000E+00 -0.47869677670E+01  0.47869677670E+01  0.00000000000E+00 0. -1.
         25    2    1    2    0    0  0.00000000000E+00  0.00000000000E+00  0.81123551660E+03  0.82080945213E+03  0.12500037328E+03 0.  0.
          4    1    3    3  501    0  0.51424070136E+02  0.21082916881E+02  0.59307213157E+03  0.59567262831E+03  0.15500000000E+01 0. -1.
         -4    1    3    3    0  501 -0.51424070136E+02 -0.21082916881E+02  0.21816338503E+03  0.22513682383E+03  0.15500000000E+01 0. -1.
<mgrwt>
<rscale>  2 0.12500037E+03</rscale>
<asrwt>0</asrwt>
<pdfrwt beam="1">  1       21 0.12554181E+00 0.12500037E+03</pdfrwt>
<pdfrwt beam="2">  1       21 0.73645723E-03 0.12500037E+03</pdfrwt>
<totfact> 0.28684616E+06</totfact>
</mgrwt>
</event>
<event>
 5    0  0.1452618E+000  0.1250099E+03  0.7546771E-02  0.1235054E+00
         21   -1    0    0  503  502  0.00000000000E+00  0.00000000000E+00  0.18987226631E+02  0.18987226631E+02  0.00000000000E+00 0. -1.
         21   -1    0    0  502  503 -0.00000000000E+00 -0.00000000000E+00 -0.20576287374E+03  0.20576287374E+03  0.00000000000E+00 0. -1.
         25    2    1    2    0    0  0.00000000000E+00  0.00000000000E+00 -0.18677564711E+03  0.22475010037E+03  0.12500986067E+03 0.  0.
          4    1    3    3  501    0 -0.28327299019E+01 -0.53662072516E+02 -0.15071729907E+03  0.16001796501E+03  0.15500000000E+01 0. -1.
         -4    1    3    3    0  501  0.28327299019E+01  0.53662072516E+02 -0.36058348033E+02  0.64732135361E+02  0.15500000000E+01 0. -1.
<mgrwt>
<rscale>  2 0.12500986E+03</rscale>
<asrwt>0</asrwt>
<pdfrwt beam="1">  1       21 0.29211116E-02 0.12500986E+03</pdfrwt>
<pdfrwt beam="2">  1       21 0.31655829E-01 0.12500986E+03</pdfrwt>
<totfact> 0.62324756E+06</totfact>
</mgrwt>
</event>
<event>
 5    0  0.1496747E+000  0.1250070E+03  0.7546771E-02  0.1235058E+00
         21   -1    0    0  503  502  0.00000000000E+00  0.00000000000E+00  0.15847024701E+03  0.15847024701E+03  0.00000000000E+00 0.  1.
         21   -1    0    0  502  503 -0.00000000000E+00 -0.00000000000E+00 -0.24652498592E+02  0.24652498592E+02  0.00000000000E+00 0.  1.
         25    2    1    2    0    0  0.00000000000E+00  0.00000000000E+00  0.13381774842E+03  0.18312274560E+03  0.12500700046E+03 0.  0.
          4    1    3    3  501    0 -0.50223441315E+02 -0.37078580052E+02  0.70803934021E+02  0.94407704818E+02  0.15500000000E+01 0.  1.
         -4    1    3    3    0  501  0.50223441315E+02  0.37078580052E+02  0.63013814395E+02  0.88715040781E+02  0.15500000000E+01 0.  1.
<mgrwt>
<rscale>  2 0.12500700E+03</rscale>
<asrwt>0</asrwt>
<pdfrwt beam="1">  1       21 0.24380037E-01 0.12500700E+03</pdfrwt>
<pdfrwt beam="2">  1       21 0.37926922E-02 0.12500700E+03</pdfrwt>
<totfact> 0.66783243E+06</totfact>
</mgrwt>
</event>
<event>
 5    0  0.1222151E+000  0.1249855E+03  0.7546771E-02  0.1235092E+00
         21   -1    0    0  503  502  0.00000000000E+00  0.00000000000E+00  0.34081053984E+01  0.34081053984E+01  0.00000000000E+00 0. -1.
         21   -1    0    0  502  503 -0.00000000000E+00 -0.00000000000E+00 -0.11458985421E+04  0.11458985421E+04  0.00000000000E+00 0. -1.
         25    2    1    2    0    0  0.00000000000E+00  0.00000000000E+00 -0.11424904367E+04  0.11493066475E+04  0.12498548728E+03 0.  0.
          4    1    3    3  501    0  0.50423773342E+02 -0.36348609751E+02 -0.62879048959E+03  0.63185731035E+03  0.15500000000E+01 0.  1.
         -4    1    3    3    0  501 -0.50423773342E+02  0.36348609751E+02 -0.51369994713E+03  0.51744933716E+03  0.15500000000E+01 0.  1.
<mgrwt>
<rscale>  2 0.12498549E+03</rscale>
<asrwt>0</asrwt>
<pdfrwt beam="1">  1       21 0.52432412E-03 0.12498549E+03</pdfrwt>
<pdfrwt beam="2">  1       21 0.17629201E+00 0.12498549E+03</pdfrwt>
<totfact> 0.20191065E+06</totfact>
</mgrwt>
</event>
<event>
 5    0  0.1222151E+000  0.1250002E+03  0.7546771E-02  0.1235069E+00
         21   -1    0    0  503  502  0.00000000000E+00  0.00000000000E+00  0.58002024393E+01  0.58002024393E+01  0.00000000000E+00 0. -1.
         21   -1    0    0  502  503 -0.00000000000E+00 -0.00000000000E+00 -0.67347012713E+03  0.67347012713E+03  0.00000000000E+00 0. -1.
         25    2    1    2    0    0  0.00000000000E+00  0.00000000000E+00 -0.66766992470E+03  0.67927032957E+03  0.12500020919E+03 0.  0.
          4    1    3    3  501    0  0.46267822990E+02 -0.32887998492E+02 -0.19197038282E+03  0.20019331225E+03  0.15500000000E+01 0. -1.
         -4    1    3    3    0  501 -0.46267822990E+02  0.32887998492E+02 -0.47569954187E+03  0.47907701732E+03  0.15500000000E+01 0. -1.
<mgrwt>
<rscale>  2 0.12500021E+03</rscale>
<asrwt>0</asrwt>
<pdfrwt beam="1">  1       21 0.89233898E-03 0.12500021E+03</pdfrwt>
<pdfrwt beam="2">  1       21 0.10361077E+00 0.12500021E+03</pdfrwt>
<totfact> 0.33724597E+06</totfact>
</mgrwt>
</event>
<event>
 5    0  0.1542482E+000  0.1249979E+03  0.7546771E-02  0.1235073E+00
         21   -1    0    0  503  502  0.00000000000E+00  0.00000000000E+00  0.12784721659E+03  0.12784721659E+03  0.00000000000E+00 0.  1.
         21   -1    0    0  502  503 -0.00000000000E+00 -0.00000000000E+00 -0.30553031046E+02  0.30553031046E+02  0.00000000000E+00 0.  1.
         25    2    1    2    0    0  0.00000000000E+00  0.00000000000E+00  0.97294185544E+02  0.15840024764E+03  0.12499791962E+03 0.  0.
          4    1    3    3  501    0  0.62158043346E+02 -0.46639412719E+00  0.56649443579E+02  0.84115407827E+02  0.15500000000E+01 0. -1.
         -4    1    3    3    0  501 -0.62158043346E+02  0.46639412719E+00  0.40644741965E+02  0.74284839809E+02  0.15500000000E+01 0. -1.
<mgrwt>
<rscale>  2 0.12499792E+03</rscale>
<asrwt>0</asrwt>
<pdfrwt beam="1">  1       21 0.19668802E-01 0.12499792E+03</pdfrwt>
<pdfrwt beam="2">  1       21 0.47004664E-02 0.12499792E+03</pdfrwt>
<totfact> 0.69719187E+06</totfact>
</mgrwt>
</event>
<event>
 5    0  0.1548462E+000  0.1249784E+03  0.7546771E-02  0.1235103E+00
         21   -1    0    0  503  502  0.00000000000E+00  0.00000000000E+00  0.62703153582E+02  0.62703153582E+02  0.00000000000E+00 0. -1.
         21   -1    0    0  502  503 -0.00000000000E+00 -0.00000000000E+00 -0.62275953029E+02  0.62275953029E+02  0.00000000000E+00 0. -1.
         25    2    1    2    0    0  0.00000000000E+00  0.00000000000E+00  0.42720055242E+00  0.12497910661E+03  0.12497837649E+03 0.  0.
          4    1    3    3  501    0  0.15510734884E+01 -0.38381223927E+02  0.49478195322E+02  0.62657948350E+02  0.15500000000E+01 0. -1.
         -4    1    3    3    0  501 -0.15510734884E+01  0.38381223927E+02 -0.49050994769E+02  0.62321158261E+02  0.15500000000E+01 0. -1.
<mgrwt>
<rscale>  2 0.12497838E+03</rscale>
<asrwt>0</asrwt>
<pdfrwt beam="1">  1       21 0.96466391E-02 0.12497838E+03</pdfrwt>
<pdfrwt beam="2">  1       21 0.95809158E-02 0.12497838E+03</pdfrwt>
<totfact> 0.74087355E+06</totfact>
</mgrwt>
</event>
<event>
 5    0  0.1531306E+000  0.1249970E+03  0.7546771E-02  0.1235074E+00
         21   -1    0    0  503  502  0.00000000000E+00  0.00000000000E+00  0.22215403588E+03  0.22215403588E+03  0.00000000000E+00 0.  1.
         21   -1    0    0  502  503 -0.00000000000E+00 -0.00000000000E+00 -0.17582672914E+02  0.17582672914E+02  0.00000000000E+00 0.  1.
         25    2    1    2    0    0  0.00000000000E+00  0.00000000000E+00  0.20457136297E+03  0.23973670879E+03  0.12499698795E+03 0.  0.
          4    1    3    3  501    0 -0.18093251769E+01  0.59288780966E+02  0.13992942545E+03  0.15199039382E+03  0.15500000000E+01 0.  1.
         -4    1    3    3    0  501  0.18093251769E+01 -0.59288780966E+02  0.64641937517E+02  0.87746314976E+02  0.15500000000E+01 0.  1.
<mgrwt>
<rscale>  2 0.12499699E+03</rscale>
<asrwt>0</asrwt>
<pdfrwt beam="1">  1       21 0.34177542E-01 0.12499699E+03</pdfrwt>
<pdfrwt beam="2">  1       21 0.27050268E-02 0.12499699E+03</pdfrwt>
<totfact> 0.60862775E+06</totfact>
</mgrwt>
</event>
<event>
 5    0  0.1494210E+000  0.1250009E+03  0.7546771E-02  0.1235068E+00
         21   -1    0    0  503  502  0.00000000000E+00  0.00000000000E+00  0.85847337190E+02  0.85847337190E+02  0.00000000000E+00 0. -1.
         21   -1    0    0  502  503 -0.00000000000E+00 -0.00000000000E+00 -0.45502922387E+02  0.45502922387E+02  0.00000000000E+00 0. -1.
         25    2    1    2    0    0  0.00000000000E+00  0.00000000000E+00  0.40344414804E+02  0.13135025958E+03  0.12500087554E+03 0.  0.
          4    1    3    3  501    0 -0.31328698309E+02 -0.50574800936E+02  0.10768486971E+00  0.59512283803E+02  0.15500000000E+01 0. -1.
         -4    1    3    3    0  501  0.31328698309E+02  0.50574800936E+02  0.40236729934E+02  0.71837975774E+02  0.15500000000E+01 0. -1.
<mgrwt>
<rscale>  2 0.12500088E+03</rscale>
<asrwt>0</asrwt>
<pdfrwt beam="1">  1       21 0.13207283E-01 0.12500088E+03</pdfrwt>
<pdfrwt beam="2">  1       21 0.70004496E-02 0.12500088E+03</pdfrwt>
<totfact> 0.73181875E+06</totfact>
</mgrwt>
</event>
<event>
 5    0  0.1222151E+000  0.1249969E+03  0.7546771E-02  0.1235074E+00
         21   -1    0    0  503  502  0.00000000000E+00  0.00000000000E+00  0.82148321584E+03  0.82148321584E+03  0.00000000000E+00 0.  1.
         21   -1    0    0  502  503 -0.00000000000E+00 -0.00000000000E+00 -0.47548856946E+01  0.47548856946E+01  0.00000000000E+00 0.  1.
         25    2    1    2    0    0  0.00000000000E+00  0.00000000000E+00  0.81672833015E+03  0.82623810154E+03  0.12499694062E+03 0.  0.
          4    1    3    3  501    0 -0.47766355659E+02 -0.33203630218E+02  0.25769661799E+03  0.26418564536E+03  0.15500000000E+01 0.  1.
         -4    1    3    3    0  501  0.47766355659E+02  0.33203630218E+02  0.55903171216E+03  0.56205245618E+03  0.15500000000E+01 0.  1.
<mgrwt>
<rscale>  2 0.12499694E+03</rscale>
<asrwt>0</asrwt>
<pdfrwt beam="1">  1       21 0.12638192E+00 0.12499694E+03</pdfrwt>
<pdfrwt beam="2">  1       21 0.73152153E-03 0.12499694E+03</pdfrwt>
<totfact> 0.28513927E+06</totfact>
</mgrwt>
</event>
<event>
 5    0  0.1551608E+000  0.1249990E+03  0.7546771E-02  0.1235071E+00
         21   -1    0    0  503  502  0.00000000000E+00  0.00000000000E+00  0.94608425543E+02  0.94608425543E+02  0.00000000000E+00 0. -1.
         21   -1    0    0  502  503 -0.00000000000E+00 -0.00000000000E+00 -0.41287935505E+02  0.41287935505E+02  0.00000000000E+00 0. -1.
         25    2    1    2    0    0  0.00000000000E+00  0.00000000000E+00  0.53320490038E+02  0.13589636105E+03  0.12499898515E+03 0.  0.
          4    1    3    3  501    0  0.30986133018E+02 -0.54141312251E+02  0.30482720095E+02  0.69447972297E+02  0.15500000000E+01 0. -1.
         -4    1    3    3    0  501 -0.30986133018E+02  0.54141312251E+02  0.22837769943E+02  0.66448388751E+02  0.15500000000E+01 0. -1.
<mgrwt>
<rscale>  2 0.12499899E+03</rscale>
<asrwt>0</asrwt>
<pdfrwt beam="1">  1       21 0.14555142E-01 0.12499899E+03</pdfrwt>
<pdfrwt beam="2">  1       21 0.63519901E-02 0.12499899E+03</pdfrwt>
<totfact> 0.72579883E+06</totfact>
</mgrwt>
</event>
<event>
 5    0  0.1557767E+000  0.1250000E+03  0.7546771E-02  0.1235069E+00
         21   -1    0    0  503  502  0.00000000000E+00  0.00000000000E+00  0.24120790413E+02  0.24120790413E+02  0.00000000000E+00 0. -1.
         21   -1    0    0  502  503 -0.00000000000E+00 -0.00000000000E+00 -0.16194545306E+03  0.16194545306E+03  0.00000000000E+00 0. -1.
         25    2    1    2    0    0  0.00000000000E+00  0.00000000000E+00 -0.13782466265E+03  0.18606624347E+03  0.12500003731E+03 0.  0.
          4    1    3    3  501    0 -0.25657815671E+02 -0.55163378516E+02 -0.47728720887E+02  0.77341807141E+02  0.15500000000E+01 0.  1.
         -4    1    3    3    0  501  0.25657815671E+02  0.55163378516E+02 -0.90095941760E+02  0.10872443633E+03  0.15500000000E+01 0.  1.
<mgrwt>
<rscale>  2 0.12500004E+03</rscale>
<asrwt>0</asrwt>
<pdfrwt beam="1">  1       21 0.37108909E-02 0.12500004E+03</pdfrwt>
<pdfrwt beam="2">  1       21 0.24914684E-01 0.12500004E+03</pdfrwt>
<totfact> 0.66462295E+06</totfact>
</mgrwt>
</event>
<event>
 5    0  0.1640227E+000  0.1250058E+03  0.7546771E-02  0.1235060E+00
         21   -1    0    0  503  502  0.00000000000E+00  0.00000000000E+00  0.91966865240E+02  0.91966865240E+02  0.00000000000E+00 0. -1.
         21   -1    0    0  502  503 -0.00000000000E+00 -0.00000000000E+00 -0.42478455855E+02  0.42478455855E+02  0.00000000000E+00 0. -1.
         25    2    1    2    0    0  0.00000000000E+00  0.00000000000E+00  0.49488409384E+02  0.13444532109E+03  0.12500576667E+03 0.  0.
          4    1    3    3  501    0  0.35243411185E+02  0.49997770150E+02  0.38447306441E+02  0.72266679214E+02  0.15500000000E+01 0.  1.
         -4    1    3    3    0  501 -0.35243411185E+02 -0.49997770150E+02  0.11041102943E+02  0.62178641881E+02  0.15500000000E+01 0.  1.
<mgrwt>
<rscale>  2 0.12500577E+03</rscale>
<asrwt>0</asrwt>
<pdfrwt beam="1">  1       21 0.14148748E-01 0.12500577E+03</pdfrwt>
<pdfrwt beam="2">  1       21 0.65351471E-02 0.12500577E+03</pdfrwt>
<totfact> 0.72759296E+06</totfact>
</mgrwt>
</event>
<event>
 5    0  0.1584477E+000  0.1249943E+03  0.7546771E-02  0.1235078E+00
         21   -1    0    0  503  502  0.00000000000E+00  0.00000000000E+00  0.12324545300E+03  0.12324545300E+03  0.00000000000E+00 0. -1.
         21   -1    0    0  502  503 -0.00000000000E+00 -0.00000000000E+00 -0.31692004213E+02  0.31692004213E+02  0.00000000000E+00 0. -1.
         25    2    1    2    0    0  0.00000000000E+00  0.00000000000E+00  0.91553448788E+02  0.15493745721E+03  0.12499432652E+03 0.  0.
          4    1    3    3  501    0 -0.37695854146E+01  0.49734380222E+02 -0.86377331948E+00  0.49908585981E+02  0.15500000000E+01 0.  1.
         -4    1    3    3    0  501  0.37695854146E+01 -0.49734380222E+02  0.92417222107E+02  0.10502887123E+03  0.15500000000E+01 0.  1.
<mgrwt>
<rscale>  2 0.12499433E+03</rscale>
<asrwt>0</asrwt>
<pdfrwt beam="1">  1       21 0.18960839E-01 0.12499433E+03</pdfrwt>
<pdfrwt beam="2">  1       21 0.48756930E-02 0.12499433E+03</pdfrwt>
<totfact> 0.70153557E+06</totfact>
</mgrwt>
</event>
<event>
 5    0  0.1294157E+000  0.1250000E+03  0.7546771E-02  0.1235069E+00
         21   -1    0    0  503  502  0.00000000000E+00  0.00000000000E+00  0.55401851014E+03  0.55401851014E+03  0.00000000000E+00 0. -1.
         21   -1    0    0  502  503 -0.00000000000E+00 -0.00000000000E+00 -0.70507535460E+01  0.70507535460E+01  0.00000000000E+00 0. -1.
         25    2    1    2    0    0  0.00000000000E+00  0.00000000000E+00  0.54696775659E+03  0.56106926368E+03  0.12499996760E+03 0.  0.
          4    1    3    3  501    0  0.12413397845E+02 -0.34422396451E+02  0.46163849159E+02  0.58927899102E+02  0.15500000000E+01 0. -1.
         -4    1    3    3    0  501 -0.12413397845E+02  0.34422396451E+02  0.50080390743E+03  0.50214136458E+03  0.15500000000E+01 0. -1.
<mgrwt>
<rscale>  2 0.12499997E+03</rscale>
<asrwt>0</asrwt>
<pdfrwt beam="1">  1       21 0.85233583E-01 0.12499997E+03</pdfrwt>
<pdfrwt beam="2">  1       21 0.10847318E-02 0.12499997E+03</pdfrwt>
<totfact> 0.38914612E+06</totfact>
</mgrwt>
</event>
<event>
 5    0  0.1471472E+000  0.1249970E+03  0.7546771E-02  0.1235074E+00
         21   -1    0    0  503  502  0.00000000000E+00  0.00000000000E+00  0.23697723766E+02  0.23697723766E+02  0.00000000000E+00 0. -1.
         21   -1    0    0  502  503 -0.00000000000E+00 -0.00000000000E+00 -0.16482857859E+03  0.16482857859E+03  0.00000000000E+00 0. -1.
         25    2    1    2    0    0  0.00000000000E+00  0.00000000000E+00 -0.14113085483E+03  0.18852630236E+03  0.12499699395E+03 0.  0.
          4    1    3    3  501    0 -0.60853118034E+02 -0.53946906491E+01 -0.90314532045E+02  0.10904733770E+03  0.15500000000E+01 0.  1.
         -4    1    3    3    0  501  0.60853118034E+02  0.53946906491E+01 -0.50816322781E+02  0.79478964655E+02  0.15500000000E+01 0.  1.
<mgrwt>
<rscale>  2 0.12499699E+03</rscale>
<asrwt>0</asrwt>
<pdfrwt beam="1">  1       21 0.36458036E-02 0.12499699E+03</pdfrwt>
<pdfrwt beam="2">  1       21 0.25358243E-01 0.12499699E+03</pdfrwt>
<totfact> 0.66191670E+06</totfact>
</mgrwt>
</event>
<event>
 5    0  0.1622080E+000  0.1250167E+03  0.7546771E-02  0.1235043E+00
         21   -1    0    0  503  502  0.00000000000E+00  0.00000000000E+00  0.33840254574E+02  0.33840254574E+02  0.00000000000E+00 0.  1.
         21   -1    0    0  502  503 -0.00000000000E+00 -0.00000000000E+00 -0.11546290957E+03  0.11546290957E+03  0.00000000000E+00 0.  1.
         25    2    1    2    0    0  0.00000000000E+00  0.00000000000E+00 -0.81622654995E+02  0.14930316414E+03  0.12501670694E+03 0.  0.
          4    1    3    3  501    0  0.50841310375E+02  0.34331944488E+02 -0.26611588725E+02  0.66888716593E+02  0.15500000000E+01 0.  1.
         -4    1    3    3    0  501 -0.50841310375E+02 -0.34331944488E+02 -0.55011066270E+02  0.82414447551E+02  0.15500000000E+01 0.  1.
<mgrwt>
<rscale>  2 0.12501671E+03</rscale>
<asrwt>0</asrwt>
<pdfrwt beam="1">  1       21 0.52061929E-02 0.12501671E+03</pdfrwt>
<pdfrwt beam="2">  1       21 0.17763525E-01 0.12501671E+03</pdfrwt>
<totfact> 0.70816722E+06</totfact>
</mgrwt>
</event>
<event>
 5    0  0.1317260E+000  0.1250000E+03  0.7546771E-02  0.1235069E+00
         21   -1    0    0  503  502  0.00000000000E+00  0.00000000000E+00  0.99695450996E+01  0.99695450996E+01  0.00000000000E+00 0. -1.
         21   -1    0    0  502  503 -0.00000000000E+00 -0.00000000000E+00 -0.39181832196E+03  0.39181832196E+03  0.00000000000E+00 0. -1.
         25    2    1    2    0    0  0.00000000000E+00  0.00000000000E+00 -0.38184877686E+03  0.40178786706E+03  0.12500000691E+03 0.  0.
          4    1    3    3  501    0  0.53200038249E+02  0.67789554128E+00 -0.29622135173E+03  0.30096543877E+03  0.15500000000E+01 0. -1.
         -4    1    3    3    0  501 -0.53200038249E+02 -0.67789554128E+00 -0.85627425128E+02  0.10082242829E+03  0.15500000000E+01 0. -1.
<mgrwt>
<rscale>  2 0.12500001E+03</rscale>
<asrwt>0</asrwt>
<pdfrwt beam="1">  1       21 0.15337760E-02 0.12500001E+03</pdfrwt>
<pdfrwt beam="2">  1       21 0.60279748E-01 0.12500001E+03</pdfrwt>
<totfact> 0.47922978E+06</totfact>
</mgrwt>
</event>
<event>
 5    0  0.1407234E+000  0.1250022E+03  0.7546771E-02  0.1235066E+00
         21   -1    0    0  503  502  0.00000000000E+00  0.00000000000E+00  0.12424683415E+02  0.12424683415E+02  0.00000000000E+00 0. -1.
         21   -1    0    0  502  503 -0.00000000000E+00 -0.00000000000E+00 -0.31440524944E+03  0.31440524944E+03  0.00000000000E+00 0. -1.
         25    2    1    2    0    0  0.00000000000E+00  0.00000000000E+00 -0.30198056603E+03  0.32682993286E+03  0.12500217099E+03 0.  0.
          4    1    3    3  501    0 -0.93881323093E+01  0.24538651448E+02 -0.29921034335E+03  0.30036563470E+03  0.15500000000E+01 0.  1.
         -4    1    3    3    0  501  0.93881323093E+01 -0.24538651448E+02 -0.27702226778E+01  0.26464298155E+02  0.15500000000E+01 0.  1.
<mgrwt>
<rscale>  2 0.12500217E+03</rscale>
<asrwt>0</asrwt>
<pdfrwt beam="1">  1       21 0.19114899E-02 0.12500217E+03</pdfrwt>
<pdfrwt beam="2">  1       21 0.48370034E-01 0.12500217E+03</pdfrwt>
<totfact> 0.53293605E+06</totfact>
</mgrwt>
</event>
<event>
 5    0  0.1513134E+000  0.1250028E+03  0.7546771E-02  0.1235065E+00
         21   -1    0    0  503  502  0.00000000000E+00  0.00000000000E+00  0.16780252824E+03  0.16780252824E+03  0.00000000000E+00 0. -1.
         21   -1    0    0  502  503 -0.00000000000E+00 -0.00000000000E+00 -0.23279890374E+02  0.23279890374E+02  0.00000000000E+00 0. -1.
         25    2    1    2    0    0  0.00000000000E+00  0.00000000000E+00  0.14452263786E+03  0.19108241861E+03  0.12500279136E+03 0.  0.
          4    1    3    3  501    0 -0.55188340656E+02  0.19932147839E+02  0.10508152880E+03  0.12036433715E+03  0.15500000000E+01 0. -1.
         -4    1    3    3    0  501  0.55188340656E+02 -0.19932147839E+02  0.39441109064E+02  0.70718081464E+02  0.15500000000E+01 0. -1.
<mgrwt>
<rscale>  2 0.12500279E+03</rscale>
<asrwt>0</asrwt>
<pdfrwt beam="1">  1       21 0.25815773E-01 0.12500279E+03</pdfrwt>
<pdfrwt beam="2">  1       21 0.35815217E-02 0.12500279E+03</pdfrwt>
<totfact> 0.65897704E+06</totfact>
</mgrwt>
</event>
<event>
 5    0  0.1222151E+000  0.1249983E+03  0.7546771E-02  0.1235072E+00
         21   -1    0    0  503  502  0.00000000000E+00  0.00000000000E+00  0.23895363893E+01  0.23895363893E+01  0.00000000000E+00 0. -1.
         21   -1    0    0  502  503 -0.00000000000E+00 -0.00000000000E+00 -0.16346866487E+04  0.16346866487E+04  0.00000000000E+00 0. -1.
         25    2    1    2    0    0  0.00000000000E+00  0.00000000000E+00 -0.16322971123E+04  0.16370761850E+04  0.12499829170E+03 0.  0.
          4    1    3    3  501    0 -0.84041325211E+01  0.26327916822E+02 -0.15500307041E+04  0.15502778380E+04  0.15500000000E+01 0.  1.
         -4    1    3    3    0  501  0.84041325211E+01 -0.26327916822E+02 -0.82266408122E+02  0.86798347063E+02  0.15500000000E+01 0.  1.
<mgrwt>
<rscale>  2 0.12499829E+03</rscale>
<asrwt>0</asrwt>
<pdfrwt beam="1">  1       21 0.36762071E-03 0.12499829E+03</pdfrwt>
<pdfrwt beam="2">  1       21 0.25149044E+00 0.12499829E+03</pdfrwt>
<totfact> 0.12077831E+06</totfact>
</mgrwt>
</event>
<event>
 5    0  0.1465281E+000  0.1249989E+03  0.7546771E-02  0.1235071E+00
         21   -1    0    0  503  502  0.00000000000E+00  0.00000000000E+00  0.24533802837E+03  0.24533802837E+03  0.00000000000E+00 0.  1.
         21   -1    0    0  502  503 -0.00000000000E+00 -0.00000000000E+00 -0.15921628513E+02  0.15921628513E+02  0.00000000000E+00 0.  1.
         25    2    1    2    0    0  0.00000000000E+00  0.00000000000E+00  0.22941639985E+03  0.26125965688E+03  0.12499889516E+03 0.  0.
          4    1    3    3  501    0  0.47806481143E+02 -0.37427929434E+02  0.83885919786E+02  0.10356427753E+03  0.15500000000E+01 0. -1.
         -4    1    3    3    0  501 -0.47806481143E+02  0.37427929434E+02  0.14553048007E+03  0.15769537935E+03  0.15500000000E+01 0. -1.
<mgrwt>
<rscale>  2 0.12499890E+03</rscale>
<asrwt>0</asrwt>
<pdfrwt beam="1">  1       21 0.37744309E-01 0.12499890E+03</pdfrwt>
<pdfrwt beam="2">  1       21 0.24494815E-02 0.12499890E+03</pdfrwt>
<totfact> 0.58835647E+06</totfact>
</mgrwt>
</event>
<event>
 5    0  0.1659772E+000  0.1249974E+03  0.7546771E-02  0.1235073E+00
         21   -1    0    0  503  502  0.00000000000E+00  0.00000000000E+00  0.31735773484E+03  0.31735773484E+03  0.00000000000E+00 0. -1.
         21   -1    0    0  502  503 -0.00000000000E+00 -0.00000000000E+00 -0.12308145166E+02  0.12308145166E+02  0.00000000000E+00 0. -1.
         25    2    1    2    0    0  0.00000000000E+00  0.00000000000E+00  0.30504958967E+03  0.32966588000E+03  0.12499736109E+03 0.  0.
          4    1    3    3  501    0 -0.38220787816E+02 -0.78967339884E-01  0.22171698060E+02  0.44213363953E+02  0.15500000000E+01 0.  1.
         -4    1    3    3    0  501  0.38220787816E+02  0.78967339884E-01  0.28287789161E+03  0.28545251605E+03  0.15500000000E+01 0.  1.
<mgrwt>
<rscale>  2 0.12499736E+03</rscale>
<asrwt>0</asrwt>
<pdfrwt beam="1">  1       21 0.48824261E-01 0.12499736E+03</pdfrwt>
<pdfrwt beam="2">  1       21 0.18935610E-02 0.12499736E+03</pdfrwt>
<totfact> 0.53079666E+06</totfact>
</mgrwt>
</event>
<event>
 5    0  0.1542153E+000  0.1250011E+03  0.7546771E-02  0.1235068E+00
         21   -1    0    0  503  502  0.00000000000E+00  0.00000000000E+00  0.24759561196E+02  0.24759561196E+02  0.00000000000E+00 0. -1.
         21   -1    0    0  502  503 -0.00000000000E+00 -0.00000000000E+00 -0.15777009585E+03  0.15777009585E+03  0.00000000000E+00 0. -1.
         25    2    1    2    0    0  0.00000000000E+00  0.00000000000E+00 -0.13301053465E+03  0.18252965704E+03  0.12500109348E+03 0.  0.
          4    1    3    3  501    0 -0.55241986938E+02 -0.23793732041E+02 -0.41806441574E+02  0.73266635396E+02  0.15500000000E+01 0. -1.
         -4    1    3    3    0  501  0.55241986938E+02  0.23793732041E+02 -0.91204093079E+02  0.10926302165E+03  0.15500000000E+01 0. -1.
<mgrwt>
<rscale>  2 0.12500109E+03</rscale>
<asrwt>0</asrwt>
<pdfrwt beam="1">  1       21 0.38091632E-02 0.12500109E+03</pdfrwt>
<pdfrwt beam="2">  1       21 0.24272323E-01 0.12500109E+03</pdfrwt>
<totfact> 0.66860667E+06</totfact>
</mgrwt>
</event>
<event>
 5    0  0.1629078E+000  0.1250023E+03  0.7546771E-02  0.1235066E+00
         21   -1    0    0  503  502  0.00000000000E+00  0.00000000000E+00  0.56541778570E+02  0.56541778570E+02  0.00000000000E+00 0. -1.
         21   -1    0    0  502  503 -0.00000000000E+00 -0.00000000000E+00 -0.69088611748E+02  0.69088611748E+02  0.00000000000E+00 0. -1.
         25    2    1    2    0    0  0.00000000000E+00  0.00000000000E+00 -0.12546833178E+02  0.12563039032E+03  0.12500228777E+03 0.  0.
          4    1    3    3  501    0 -0.15913124293E+02  0.58978512694E+02 -0.19465605729E+02  0.64132712330E+02  0.15500000000E+01 0.  1.
         -4    1    3    3    0  501  0.15913124293E+02 -0.58978512694E+02  0.69187725506E+01  0.61497677989E+02  0.15500000000E+01 0.  1.
<mgrwt>
<rscale>  2 0.12500229E+03</rscale>
<asrwt>0</asrwt>
<pdfrwt beam="1">  1       21 0.86987351E-02 0.12500229E+03</pdfrwt>
<pdfrwt beam="2">  1       21 0.10629017E-01 0.12500229E+03</pdfrwt>
<totfact> 0.73952898E+06</totfact>
</mgrwt>
</event>
<event>
 5    0  0.1302110E+000  0.1249754E+03  0.7546771E-02  0.1235108E+00
         21   -1    0    0  503  502  0.00000000000E+00  0.00000000000E+00  0.88629693304E+01  0.88629693304E+01  0.00000000000E+00 0.  1.
         21   -1    0    0  502  503 -0.00000000000E+00 -0.00000000000E+00 -0.44056448645E+03  0.44056448645E+03  0.00000000000E+00 0.  1.
         25    2    1    2    0    0  0.00000000000E+00  0.00000000000E+00 -0.43170151712E+03  0.44942745578E+03  0.12497535007E+03 0.  0.
          4    1    3    3  501    0  0.54128467668E+02 -0.10560703454E+02 -0.32136436195E+03  0.32606575273E+03  0.15500000000E+01 0. -1.
         -4    1    3    3    0  501 -0.54128467668E+02  0.10560703454E+02 -0.11033715517E+03  0.12336170306E+03  0.15500000000E+01 0. -1.
<mgrwt>
<rscale>  2 0.12497535E+03</rscale>
<asrwt>0</asrwt>
<pdfrwt beam="1">  1       21 0.13635342E-02 0.12497535E+03</pdfrwt>
<pdfrwt beam="2">  1       21 0.67779128E-01 0.12497535E+03</pdfrwt>
<totfact> 0.44954188E+06</totfact>
</mgrwt>
</event>
<event>
 5    0  0.1222151E+000  0.1249984E+03  0.7546771E-02  0.1235072E+00
         21   -1    0    0  503  502  0.00000000000E+00  0.00000000000E+00  0.46021564285E+01  0.46021564285E+01  0.00000000000E+00 0. -1.
         21   -1    0    0  502  503 -0.00000000000E+00 -0.00000000000E+00 -0.84876560325E+03  0.84876560325E+03  0.00000000000E+00 0. -1.
         25    2    1    2    0    0  0.00000000000E+00  0.00000000000E+00 -0.84416344682E+03  0.85336775968E+03  0.12499843323E+03 0.  0.
          4    1    3    3  501    0  0.38379085592E+02  0.43289866031E+02 -0.58317395307E+03  0.58603858982E+03  0.15500000000E+01 0. -1.
         -4    1    3    3    0  501 -0.38379085592E+02 -0.43289866031E+02 -0.26098949375E+03  0.26732916987E+03  0.15500000000E+01 0. -1.
<mgrwt>
<rscale>  2 0.12499843E+03</rscale>
<asrwt>0</asrwt>
<pdfrwt beam="1">  1       21 0.70802474E-03 0.12499843E+03</pdfrwt>
<pdfrwt beam="2">  1       21 0.13057920E+00 0.12499843E+03</pdfrwt>
<totfact> 0.27670211E+06</totfact>
</mgrwt>
</event>
<event>
 5    0  0.1222151E+000  0.1249955E+03  0.7546771E-02  0.1235076E+00
         21   -1    0    0  503  502  0.00000000000E+00  0.00000000000E+00  0.66895024966E+03  0.66895024966E+03  0.00000000000E+00 0.  1.
         21   -1    0    0  502  503 -0.00000000000E+00 -0.00000000000E+00 -0.58389527830E+01  0.58389527830E+01  0.00000000000E+00 0.  1.
         25    2    1    2    0    0  0.00000000000E+00  0.00000000000E+00  0.66311129688E+03  0.67478920244E+03  0.12499550267E+03 0.  0.
          4    1    3    3  501    0  0.42475491143E+02 -0.44766742289E+02  0.38426727702E+03  0.38919400207E+03  0.15500000000E+01 0.  1.
         -4    1    3    3    0  501 -0.42475491143E+02  0.44766742289E+02  0.27884401986E+03  0.28559520037E+03  0.15500000000E+01 0.  1.
<mgrwt>
<rscale>  2 0.12499550E+03</rscale>
<asrwt>0</asrwt>
<pdfrwt beam="1">  1       21 0.10291536E+00 0.12499550E+03</pdfrwt>
<pdfrwt beam="2">  1       21 0.89830096E-03 0.12499550E+03</pdfrwt>
<totfact> 0.33908743E+06</totfact>
</mgrwt>
</event>
<event>
 5    0  0.1222151E+000  0.1250007E+03  0.7546771E-02  0.1235068E+00
         21   -1    0    0  503  502  0.00000000000E+00  0.00000000000E+00  0.28565049395E+01  0.28565049395E+01  0.00000000000E+00 0. -1.
         21   -1    0    0  502  503 -0.00000000000E+00 -0.00000000000E+00 -0.13675088995E+04  0.13675088995E+04  0.00000000000E+00 0. -1.
         25    2    1    2    0    0  0.00000000000E+00  0.00000000000E+00 -0.13646523946E+04  0.13703654045E+04  0.12500073482E+03 0.  0.
          4    1    3    3  501    0  0.53590587505E+02  0.11344991689E+02 -0.35285015278E+03  0.35708023289E+03  0.15500000000E+01 0.  1.
         -4    1    3    3    0  501 -0.53590587505E+02 -0.11344991689E+02 -0.10118022418E+04  0.10132851716E+04  0.15500000000E+01 0.  1.
<mgrwt>
<rscale>  2 0.12500073E+03</rscale>
<asrwt>0</asrwt>
<pdfrwt beam="1">  1       21 0.43946306E-03 0.12500073E+03</pdfrwt>
<pdfrwt beam="2">  1       21 0.21038562E+00 0.12500073E+03</pdfrwt>
<totfact> 0.16033987E+06</totfact>
</mgrwt>
</event>
<event>
 5    0  0.1461771E+000  0.1250026E+03  0.7546771E-02  0.1235065E+00
         21   -1    0    0  503  502  0.00000000000E+00  0.00000000000E+00  0.14871513006E+02  0.14871513006E+02  0.00000000000E+00 0.  1.
         21   -1    0    0  502  503 -0.00000000000E+00 -0.00000000000E+00 -0.26267744566E+03  0.26267744566E+03  0.00000000000E+00 0.  1.
         25    2    1    2    0    0  0.00000000000E+00  0.00000000000E+00 -0.24780593265E+03  0.27754895866E+03  0.12500257676E+03 0.  0.
          4    1    3    3  501    0 -0.60415870993E+02  0.78990771107E+01 -0.15463175641E+03  0.16621027488E+03  0.15500000000E+01 0. -1.
         -4    1    3    3    0  501  0.60415870993E+02 -0.78990771107E+01 -0.93174176246E+02  0.11133868378E+03  0.15500000000E+01 0. -1.
<mgrwt>
<rscale>  2 0.12500258E+03</rscale>
<asrwt>0</asrwt>
<pdfrwt beam="1">  1       21 0.22879253E-02 0.12500258E+03</pdfrwt>
<pdfrwt beam="2">  1       21 0.40411911E-01 0.12500258E+03</pdfrwt>
<totfact> 0.57371405E+06</totfact>
</mgrwt>
</event>
<event>
 5    0  0.1494102E+000  0.1249969E+03  0.7546771E-02  0.1235074E+00
         21   -1    0    0  503  502  0.00000000000E+00  0.00000000000E+00  0.16458031444E+02  0.16458031444E+02  0.00000000000E+00 0.  1.
         21   -1    0    0  502  503 -0.00000000000E+00 -0.00000000000E+00 -0.23733440239E+03  0.23733440239E+03  0.00000000000E+00 0.  1.
         25    2    1    2    0    0  0.00000000000E+00  0.00000000000E+00 -0.22087637095E+03  0.25379243384E+03  0.12499691288E+03 0.  0.
          4    1    3    3  501    0  0.46266335174E+02  0.35302217473E+02 -0.15659703943E+03  0.16706841588E+03  0.15500000000E+01 0. -1.
         -4    1    3    3    0  501 -0.46266335174E+02 -0.35302217473E+02 -0.64279331521E+02  0.86724017952E+02  0.15500000000E+01 0. -1.
<mgrwt>
<rscale>  2 0.12499691E+03</rscale>
<asrwt>0</asrwt>
<pdfrwt beam="1">  1       21 0.25320050E-02 0.12499691E+03</pdfrwt>
<pdfrwt beam="2">  1       21 0.36512983E-01 0.12499691E+03</pdfrwt>
<totfact> 0.59527595E+06</totfact>
</mgrwt>
</event>
<event>
 5    0  0.1576788E+000  0.1249998E+03  0.7546771E-02  0.1235070E+00
         21   -1    0    0  503  502  0.00000000000E+00  0.00000000000E+00  0.98330843872E+02  0.98330843872E+02  0.00000000000E+00 0. -1.
         21   -1    0    0  502  503 -0.00000000000E+00 -0.00000000000E+00 -0.39725452769E+02  0.39725452769E+02  0.00000000000E+00 0. -1.
         25    2    1    2    0    0  0.00000000000E+00  0.00000000000E+00  0.58605391103E+02  0.13805629664E+03  0.12499979670E+03 0.  0.
          4    1    3    3  501    0  0.47640659268E+02  0.40424990341E+02  0.29468489943E+02  0.69098528632E+02  0.15500000000E+01 0. -1.
         -4    1    3    3    0  501 -0.47640659268E+02 -0.40424990341E+02  0.29136901160E+02  0.68957768009E+02  0.15500000000E+01 0. -1.
<mgrwt>
<rscale>  2 0.12499980E+03</rscale>
<asrwt>0</asrwt>
<pdfrwt beam="1">  1       21 0.15127822E-01 0.12499980E+03</pdfrwt>
<pdfrwt beam="2">  1       21 0.61116082E-02 0.12499980E+03</pdfrwt>
<totfact> 0.72294456E+06</totfact>
</mgrwt>
</event>
<event>
 5    0  0.1450605E+000  0.1250120E+03  0.7546771E-02  0.1235051E+00
         21   -1    0    0  503  502  0.00000000000E+00  0.00000000000E+00  0.16379119200E+02  0.16379119200E+02  0.00000000000E+00 0.  1.
         21   -1    0    0  502  503 -0.00000000000E+00 -0.00000000000E+00 -0.23853541388E+03  0.23853541388E+03  0.00000000000E+00 0.  1.
         25    2    1    2    0    0  0.00000000000E+00  0.00000000000E+00 -0.22215629468E+03  0.25491453308E+03  0.12501199906E+03 0.  0.
          4    1    3    3  501    0  0.73143785994E+01 -0.49224312997E+02 -0.34020315489E+02  0.60301886291E+02  0.15500000000E+01 0.  1.
         -4    1    3    3    0  501 -0.73143785994E+01  0.49224312997E+02 -0.18813597919E+03  0.19461264678E+03  0.15500000000E+01 0.  1.
<mgrwt>
<rscale>  2 0.12501200E+03</rscale>
<asrwt>0</asrwt>
<pdfrwt beam="1">  1       21 0.25198644E-02 0.12501200E+03</pdfrwt>
<pdfrwt beam="2">  1       21 0.36697758E-01 0.12501200E+03</pdfrwt>
<totfact> 0.59400590E+06</totfact>
</mgrwt>
</event>
<event>
 5    0  0.1602443E+000  0.1249982E+03  0.7546771E-02  0.1235072E+00
         21   -1    0    0  503  502  0.00000000000E+00  0.00000000000E+00  0.41769166567E+02  0.41769166567E+02  0.00000000000E+00 0.  1.
         21   -1    0    0  502  503 -0.00000000000E+00 -0.00000000000E+00 -0.93517306543E+02  0.93517306543E+02  0.00000000000E+00 0.  1.
         25    2    1    2    0    0  0.00000000000E+00  0.00000000000E+00 -0.51748139976E+02  0.13528647311E+03  0.12499823925E+03 0.  0.
          4    1    3    3  501    0 -0.35931359907E+02  0.48100315905E+02 -0.71581541624E+01  0.60484251553E+02  0.15500000000E+01 0. -1.
         -4    1    3    3    0  501  0.35931359907E+02 -0.48100315905E+02 -0.44589985813E+02  0.74802221556E+02  0.15500000000E+01 0. -1.
<mgrwt>
<rscale>  2 0.12499824E+03</rscale>
<asrwt>0</asrwt>
<pdfrwt beam="1">  1       21 0.64260257E-02 0.12499824E+03</pdfrwt>
<pdfrwt beam="2">  1       21 0.14387278E-01 0.12499824E+03</pdfrwt>
<totfact> 0.72661826E+06</totfact>
</mgrwt>
</event>
<event>
 5    0  0.1376803E+000  0.1250005E+03  0.7546771E-02  0.1235069E+00
         21   -1    0    0  503  502  0.00000000000E+00  0.00000000000E+00  0.12671167275E+03  0.12671167275E+03  0.00000000000E+00 0. -1.
         21   -1    0    0  502  503 -0.00000000000E+00 -0.00000000000E+00 -0.30828089387E+02  0.30828089387E+02  0.00000000000E+00 0. -1.
         25    2    1    2    0    0  0.00000000000E+00  0.00000000000E+00  0.95883583363E+02  0.15753976214E+03  0.12500046038E+03 0.  0.
          4    1    3    3  501    0 -0.20500908654E+02 -0.17813704050E+02  0.11885904821E+03  0.12193232201E+03  0.15500000000E+01 0. -1.
         -4    1    3    3    0  501  0.20500908654E+02  0.17813704050E+02 -0.22975464850E+02  0.35607440131E+02  0.15500000000E+01 0. -1.
<mgrwt>
<rscale>  2 0.12500046E+03</rscale>
<asrwt>0</asrwt>
<pdfrwt beam="1">  1       21 0.19494103E-01 0.12500046E+03</pdfrwt>
<pdfrwt beam="2">  1       21 0.47427831E-02 0.12500046E+03</pdfrwt>
<totfact> 0.69820549E+06</totfact>
</mgrwt>
</event>
<event>
 5    0  0.1566516E+000  0.1249985E+03  0.7546771E-02  0.1235072E+00
         21   -1    0    0  503  502  0.00000000000E+00  0.00000000000E+00  0.71688332055E+02  0.71688332055E+02  0.00000000000E+00 0.  1.
         21   -1    0    0  502  503 -0.00000000000E+00 -0.00000000000E+00 -0.54488001696E+02  0.54488001696E+02  0.00000000000E+00 0.  1.
         25    2    1    2    0    0  0.00000000000E+00  0.00000000000E+00  0.17200330359E+02  0.12617633375E+03  0.12499846333E+03 0.  0.
          4    1    3    3  501    0 -0.46782257304E+02  0.16867256455E+02 -0.29580420749E+02  0.57883397710E+02  0.15500000000E+01 0. -1.
         -4    1    3    3    0  501  0.46782257304E+02 -0.16867256455E+02  0.46780751107E+02  0.68292936040E+02  0.15500000000E+01 0. -1.
<mgrwt>
<rscale>  2 0.12499846E+03</rscale>
<asrwt>0</asrwt>
<pdfrwt beam="1">  1       21 0.11028974E-01 0.12499846E+03</pdfrwt>
<pdfrwt beam="2">  1       21 0.83827695E-02 0.12499846E+03</pdfrwt>
<totfact> 0.73884660E+06</totfact>
</mgrwt>
</event>
<event>
 5    0  0.1455816E+000  0.1249750E+03  0.7546771E-02  0.1235108E+00
         21   -1    0    0  503  502  0.00000000000E+00  0.00000000000E+00  0.34057806636E+03  0.34057806636E+03  0.00000000000E+00 0. -1.
         21   -1    0    0  502  503 -0.00000000000E+00 -0.00000000000E+00 -0.11464878069E+02  0.11464878069E+02  0.00000000000E+00 0. -1.
         25    2    1    2    0    0  0.00000000000E+00  0.00000000000E+00  0.32911318829E+03  0.35204294443E+03  0.12497497355E+03 0.  0.
          4    1    3    3  501    0 -0.36643566164E+02  0.49629243491E+02  0.19222412642E+03  0.20188692387E+03  0.15500000000E+01 0.  1.
         -4    1    3    3    0  501  0.36643566164E+02 -0.49629243491E+02  0.13688906187E+03  0.15015602056E+03  0.15500000000E+01 0.  1.
<mgrwt>
<rscale>  2 0.12497497E+03</rscale>
<asrwt>0</asrwt>
<pdfrwt beam="1">  1       21 0.52396618E-01 0.12497497E+03</pdfrwt>
<pdfrwt beam="2">  1       21 0.17638277E-02 0.12497497E+03</pdfrwt>
<totfact> 0.51420138E+06</totfact>
</mgrwt>
</event>
<event>
 5    0  0.1521252E+000  0.1250047E+03  0.7546771E-02  0.1235062E+00
         21   -1    0    0  503  502  0.00000000000E+00  0.00000000000E+00  0.16344102239E+03  0.16344102239E+03  0.00000000000E+00 0. -1.
         21   -1    0    0  502  503 -0.00000000000E+00 -0.00000000000E+00 -0.23901862368E+02  0.23901862368E+02  0.00000000000E+00 0. -1.
         25    2    1    2    0    0  0.00000000000E+00  0.00000000000E+00  0.13953916002E+03  0.18734288475E+03  0.12500471707E+03 0.  0.
          4    1    3    3  501    0 -0.41172190897E+02  0.35516941512E+02  0.23636807938E+02  0.59310232061E+02  0.15500000000E+01 0.  1.
         -4    1    3    3    0  501  0.41172190897E+02 -0.35516941512E+02  0.11590235208E+03  0.12803265269E+03  0.15500000000E+01 0.  1.
<mgrwt>
<rscale>  2 0.12500472E+03</rscale>
<asrwt>0</asrwt>
<pdfrwt beam="1">  1       21 0.25144772E-01 0.12500472E+03</pdfrwt>
<pdfrwt beam="2">  1       21 0.36772097E-02 0.12500472E+03</pdfrwt>
<totfact> 0.66311074E+06</totfact>
</mgrwt>
</event>
<event>
 5    0  0.1385648E+000  0.1249768E+03  0.7546771E-02  0.1235106E+00
         21   -1    0    0  503  502  0.00000000000E+00  0.00000000000E+00  0.11038087859E+03  0.11038087859E+03  0.00000000000E+00 0.  1.
         21   -1    0    0  502  503 -0.00000000000E+00 -0.00000000000E+00 -0.35375691322E+02  0.35375691322E+02  0.00000000000E+00 0.  1.
         25    2    1    2    0    0  0.00000000000E+00  0.00000000000E+00  0.75005187270E+02  0.14575656991E+03  0.12497679607E+03 0.  0.
          4    1    3    3  501    0  0.33791802443E+01  0.24973443600E+02 -0.29161754104E+02  0.38573334660E+02  0.15500000000E+01 0. -1.
         -4    1    3    3    0  501 -0.33791802443E+01 -0.24973443600E+02  0.10416694137E+03  0.10718323525E+03  0.15500000000E+01 0. -1.
<mgrwt>
<rscale>  2 0.12497680E+03</rscale>
<asrwt>0</asrwt>
<pdfrwt beam="1">  1       21 0.16981673E-01 0.12497680E+03</pdfrwt>
<pdfrwt beam="2">  1       21 0.54424141E-02 0.12497680E+03</pdfrwt>
<totfact> 0.71338562E+06</totfact>
</mgrwt>
</event>
<event>
 5    0  0.1478104E+000  0.1249900E+03  0.7546771E-02  0.1235085E+00
         21   -1    0    0  503  502  0.00000000000E+00  0.00000000000E+00  0.25537088380E+03  0.25537088380E+03  0.00000000000E+00 0.  1.
         21   -1    0    0  502  503 -0.00000000000E+00 -0.00000000000E+00 -0.15293926779E+02  0.15293926779E+02  0.00000000000E+00 0.  1.
         25    2    1    2    0    0  0.00000000000E+00  0.00000000000E+00  0.24007695702E+03  0.27066481058E+03  0.12498997717E+03 0.  0.
          4    1    3    3  501    0  0.54857838515E+02  0.29055587918E+02  0.10478574709E+03  0.12180338636E+03  0.15500000000E+01 0. -1.
         -4    1    3    3    0  501 -0.54857838515E+02 -0.29055587918E+02  0.13529120993E+03  0.14886142422E+03  0.15500000000E+01 0. -1.
<mgrwt>
<rscale>  2 0.12498998E+03</rscale>
<asrwt>0</asrwt>
<pdfrwt beam="1">  1       21 0.39287825E-01 0.12498998E+03</pdfrwt>
<pdfrwt beam="2">  1       21 0.23529120E-02 0.12498998E+03</pdfrwt>
<totfact> 0.57999991E+06</totfact>
</mgrwt>
</event>
<event>
 5    0  0.1508291E+000  0.1250039E+03  0.7546771E-02  0.1235063E+00
         21   -1    0    0  503  502  0.00000000000E+00  0.00000000000E+00  0.23889777500E+03  0.23889777500E+03  0.00000000000E+00 0. -1.
         21   -1    0    0  502  503 -0.00000000000E+00 -0.00000000000E+00 -0.16352166173E+02  0.16352166173E+02  0.00000000000E+00 0. -1.
         25    2    1    2    0    0  0.00000000000E+00  0.00000000000E+00  0.22254560883E+03  0.25524994117E+03  0.12500393778E+03 0.  0.
          4    1    3    3  501    0 -0.39885184667E+02  0.35754317373E+02  0.17696140127E+03  0.18489710438E+03  0.15500000000E+01 0. -1.
         -4    1    3    3    0  501  0.39885184667E+02 -0.35754317373E+02  0.45584207552E+02  0.70352836793E+02  0.15500000000E+01 0. -1.
<mgrwt>
<rscale>  2 0.12500394E+03</rscale>
<asrwt>0</asrwt>
<pdfrwt beam="1">  1       21 0.36753501E-01 0.12500394E+03</pdfrwt>
<pdfrwt beam="2">  1       21 0.25157180E-02 0.12500394E+03</pdfrwt>
<totfact> 0.59381515E+06</totfact>
</mgrwt>
</event>
<event>
 5    0  0.1509754E+000  0.1250035E+03  0.7546771E-02  0.1235064E+00
         21   -1    0    0  503  502  0.00000000000E+00  0.00000000000E+00  0.39176712213E+02  0.39176712213E+02  0.00000000000E+00 0. -1.
         21   -1    0    0  502  503 -0.00000000000E+00 -0.00000000000E+00 -0.99714083707E+02  0.99714083707E+02  0.00000000000E+00 0. -1.
         25    2    1    2    0    0  0.00000000000E+00  0.00000000000E+00 -0.60537371494E+02  0.13889079592E+03  0.12500351933E+03 0.  0.
          4    1    3    3  501    0  0.29475813907E+01  0.47040353633E+02 -0.75845047088E+02  0.89310451649E+02  0.15500000000E+01 0. -1.
         -4    1    3    3    0  501 -0.29475813907E+01 -0.47040353633E+02  0.15307675594E+02  0.49580344271E+02  0.15500000000E+01 0. -1.
<mgrwt>
<rscale>  2 0.12500352E+03</rscale>
<asrwt>0</asrwt>
<pdfrwt beam="1">  1       21 0.60271866E-02 0.12500352E+03</pdfrwt>
<pdfrwt beam="2">  1       21 0.15340628E-01 0.12500352E+03</pdfrwt>
<totfact> 0.72177973E+06</totfact>
</mgrwt>
</event>
<event>
 5    0  0.1406419E+000  0.1250001E+03  0.7546771E-02  0.1235069E+00
         21   -1    0    0  503  502  0.00000000000E+00  0.00000000000E+00  0.27272623193E+03  0.27272623193E+03  0.00000000000E+00 0. -1.
         21   -1    0    0  502  503 -0.00000000000E+00 -0.00000000000E+00 -0.14322988119E+02  0.14322988119E+02  0.00000000000E+00 0. -1.
         25    2    1    2    0    0  0.00000000000E+00  0.00000000000E+00  0.25840324381E+03  0.28704922005E+03  0.12500007327E+03 0.  0.
          4    1    3    3  501    0  0.15345280866E+02  0.30561238390E+02  0.24928307826E+03  0.25162257956E+03  0.15500000000E+01 0.  1.
         -4    1    3    3    0  501 -0.15345280866E+02 -0.30561238390E+02  0.91201655505E+01  0.35426640490E+02  0.15500000000E+01 0.  1.
<mgrwt>
<rscale>  2 0.12500007E+03</rscale>
<asrwt>0</asrwt>
<pdfrwt beam="1">  1       21 0.41957878E-01 0.12500007E+03</pdfrwt>
<pdfrwt beam="2">  1       21 0.22035368E-02 0.12500007E+03</pdfrwt>
<totfact> 0.56549803E+06</totfact>
</mgrwt>
</event>
<event>
 5    0  0.1550891E+000  0.1250002E+03  0.7546771E-02  0.1235069E+00
         21   -1    0    0  503  502  0.00000000000E+00  0.00000000000E+00  0.31187294038E+02  0.31187294038E+02  0.00000000000E+00 0. -1.
         21   -1    0    0  502  503 -0.00000000000E+00 -0.00000000000E+00 -0.12525182907E+03  0.12525182907E+03  0.00000000000E+00 0. -1.
         25    2    1    2    0    0  0.00000000000E+00  0.00000000000E+00 -0.94064535033E+02  0.15643912311E+03  0.12500024995E+03 0.  0.
          4    1    3    3  501    0  0.18416134575E+02  0.53447358310E+02 -0.80334888528E+02  0.98243935883E+02  0.15500000000E+01 0.  1.
         -4    1    3    3    0  501 -0.18416134575E+02 -0.53447358310E+02 -0.13729646505E+02  0.58195187225E+02  0.15500000000E+01 0.  1.
<mgrwt>
<rscale>  2 0.12500025E+03</rscale>
<asrwt>0</asrwt>
<pdfrwt beam="1">  1       21 0.47980451E-02 0.12500025E+03</pdfrwt>
<pdfrwt beam="2">  1       21 0.19269513E-01 0.12500025E+03</pdfrwt>
<totfact> 0.69956789E+06</totfact>
</mgrwt>
</event>
<event>
 5    0  0.1222151E+000  0.1249986E+03  0.7546771E-02  0.1235071E+00
         21   -1    0    0  503  502  0.00000000000E+00  0.00000000000E+00  0.41053429137E+01  0.41053429137E+01  0.00000000000E+00 0.  1.
         21   -1    0    0  502  503 -0.00000000000E+00 -0.00000000000E+00 -0.95148252217E+03  0.95148252217E+03  0.00000000000E+00 0.  1.
         25    2    1    2    0    0  0.00000000000E+00  0.00000000000E+00 -0.94737717926E+03  0.95558786509E+03  0.12499859247E+03 0.  0.
          4    1    3    3  501    0  0.59635692546E+02  0.77558664106E+01 -0.34413473409E+03  0.34935324100E+03  0.15500000000E+01 0.  1.
         -4    1    3    3    0  501 -0.59635692546E+02 -0.77558664106E+01 -0.60324244516E+03  0.60623462408E+03  0.15500000000E+01 0.  1.
<mgrwt>
<rscale>  2 0.12499859E+03</rscale>
<asrwt>0</asrwt>
<pdfrwt beam="1">  1       21 0.63159138E-03 0.12499859E+03</pdfrwt>
<pdfrwt beam="2">  1       21 0.14638189E+00 0.12499859E+03</pdfrwt>
<totfact> 0.24763259E+06</totfact>
</mgrwt>
</event>
<event>
 5    0  0.1237919E+000  0.1250014E+03  0.7546771E-02  0.1235067E+00
         21   -1    0    0  503  502  0.00000000000E+00  0.00000000000E+00  0.57592460169E+01  0.57592460169E+01  0.00000000000E+00 0.  1.
         21   -1    0    0  502  503 -0.00000000000E+00 -0.00000000000E+00 -0.67827277795E+03  0.67827277795E+03  0.00000000000E+00 0.  1.
         25    2    1    2    0    0  0.00000000000E+00  0.00000000000E+00 -0.67251353194E+03  0.68403202397E+03  0.12500143671E+03 0.  0.
          4    1    3    3  501    0  0.25432183598E+02 -0.45486855743E+02 -0.14763769385E+03  0.15657311759E+03  0.15500000000E+01 0.  1.
         -4    1    3    3    0  501 -0.25432183598E+02  0.45486855743E+02 -0.52487583809E+03  0.52745890638E+03  0.15500000000E+01 0.  1.
<mgrwt>
<rscale>  2 0.12500144E+03</rscale>
<asrwt>0</asrwt>
<pdfrwt beam="1">  1       21 0.88603768E-03 0.12500144E+03</pdfrwt>
<pdfrwt beam="2">  1       21 0.10434968E+00 0.12500144E+03</pdfrwt>
<totfact> 0.33533703E+06</totfact>
</mgrwt>
</event>
<event>
 5    0  0.1544667E+000  0.1250033E+03  0.7546771E-02  0.1235064E+00
         21   -1    0    0  503  502  0.00000000000E+00  0.00000000000E+00  0.72199661757E+02  0.72199661757E+02  0.00000000000E+00 0.  1.
         21   -1    0    0  502  503 -0.00000000000E+00 -0.00000000000E+00 -0.54106295106E+02  0.54106295106E+02  0.00000000000E+00 0.  1.
         25    2    1    2    0    0  0.00000000000E+00  0.00000000000E+00  0.18093366651E+02  0.12630595686E+03  0.12500329925E+03 0.  0.
          4    1    3    3  501    0  0.43160277369E+02  0.19223183569E+02 -0.32265986916E+02  0.57234925882E+02  0.15500000000E+01 0.  1.
         -4    1    3    3    0  501 -0.43160277369E+02 -0.19223183569E+02  0.50359353567E+02  0.69071030981E+02  0.15500000000E+01 0.  1.
<mgrwt>
<rscale>  2 0.12500330E+03</rscale>
<asrwt>0</asrwt>
<pdfrwt beam="1">  1       21 0.11107640E-01 0.12500330E+03</pdfrwt>
<pdfrwt beam="2">  1       21 0.83240454E-02 0.12500330E+03</pdfrwt>
<totfact> 0.73857743E+06</totfact>
</mgrwt>
</event>
<event>
 5    0  0.1292025E+000  0.1249970E+03  0.7546771E-02  0.1235074E+00
         21   -1    0    0  503  502  0.00000000000E+00  0.00000000000E+00  0.57043077366E+01  0.57043077366E+01  0.00000000000E+00 0.  1.
         21   -1    0    0  502  503 -0.00000000000E+00 -0.00000000000E+00 -0.68475615397E+03  0.68475615397E+03  0.00000000000E+00 0.  1.
         25    2    1    2    0    0  0.00000000000E+00  0.00000000000E+00 -0.67905184624E+03  0.69046046171E+03  0.12499695719E+03 0.  0.
          4    1    3    3  501    0 -0.25662431321E+02  0.26325572303E+02 -0.60474067576E+02  0.70789204598E+02  0.15500000000E+01 0. -1.
         -4    1    3    3    0  501  0.25662431321E+02 -0.26325572303E+02 -0.61857777866E+03  0.61967125711E+03  0.15500000000E+01 0. -1.
<mgrwt>
<rscale>  2 0.12499696E+03</rscale>
<asrwt>0</asrwt>
<pdfrwt beam="1">  1       21 0.87758566E-03 0.12499696E+03</pdfrwt>
<pdfrwt beam="2">  1       21 0.10534712E+00 0.12499696E+03</pdfrwt>
<totfact> 0.33283684E+06</totfact>
</mgrwt>
</event>
<event>
 5    0  0.1536003E+000  0.1250011E+03  0.7546771E-02  0.1235068E+00
         21   -1    0    0  503  502  0.00000000000E+00  0.00000000000E+00  0.26770182047E+02  0.26770182047E+02  0.00000000000E+00 0. -1.
         21   -1    0    0  502  503 -0.00000000000E+00 -0.00000000000E+00 -0.14592060268E+03  0.14592060268E+03  0.00000000000E+00 0. -1.
         25    2    1    2    0    0  0.00000000000E+00  0.00000000000E+00 -0.11915042063E+03  0.17269078473E+03  0.12500113756E+03 0.  0.
          4    1    3    3  501    0 -0.36816334660E+02 -0.28991096975E+02 -0.24801988918E+01  0.46951891210E+02  0.15500000000E+01 0.  1.
         -4    1    3    3    0  501  0.36816334660E+02  0.28991096975E+02 -0.11667022174E+03  0.12573889352E+03  0.15500000000E+01 0.  1.
<mgrwt>
<rscale>  2 0.12500114E+03</rscale>
<asrwt>0</asrwt>
<pdfrwt beam="1">  1       21 0.41184896E-02 0.12500114E+03</pdfrwt>
<pdfrwt beam="2">  1       21 0.22449323E-01 0.12500114E+03</pdfrwt>
<totfact> 0.67998118E+06</totfact>
</mgrwt>
</event>
<event>
 5    0  0.1527413E+000  0.1249993E+03  0.7546771E-02  0.1235070E+00
         21   -1    0    0  503  502  0.00000000000E+00  0.00000000000E+00  0.24706355812E+02  0.24706355812E+02  0.00000000000E+00 0.  1.
         21   -1    0    0  502  503 -0.00000000000E+00 -0.00000000000E+00 -0.15810529207E+03  0.15810529207E+03  0.00000000000E+00 0.  1.
         25    2    1    2    0    0  0.00000000000E+00  0.00000000000E+00 -0.13339893626E+03  0.18281164788E+03  0.12499928962E+03 0.  0.
          4    1    3    3  501    0  0.24468796038E+02  0.41656576679E+02 -0.12464500176E+03  0.13368908454E+03  0.15500000000E+01 0. -1.
         -4    1    3    3    0  501 -0.24468796038E+02 -0.41656576679E+02 -0.87539344943E+01  0.49122563342E+02  0.15500000000E+01 0. -1.
<mgrwt>
<rscale>  2 0.12499929E+03</rscale>
<asrwt>0</asrwt>
<pdfrwt beam="1">  1       21 0.38009779E-02 0.12499929E+03</pdfrwt>
<pdfrwt beam="2">  1       21 0.24323891E-01 0.12499929E+03</pdfrwt>
<totfact> 0.66831652E+06</totfact>
</mgrwt>
</event>
<event>
 5    0  0.1222151E+000  0.1250016E+03  0.7546771E-02  0.1235067E+00
         21   -1    0    0  503  502  0.00000000000E+00  0.00000000000E+00  0.25936637857E+01  0.25936637857E+01  0.00000000000E+00 0.  1.
         21   -1    0    0  502  503 -0.00000000000E+00 -0.00000000000E+00 -0.15061116602E+04  0.15061116602E+04  0.00000000000E+00 0.  1.
         25    2    1    2    0    0  0.00000000000E+00  0.00000000000E+00 -0.15035179964E+04  0.15087053240E+04  0.12500155632E+03 0.  0.
          4    1    3    3  501    0  0.33952624530E+02  0.19162418480E+02 -0.16245551115E+03  0.16707535605E+03  0.15500000000E+01 0. -1.
         -4    1    3    3    0  501 -0.33952624530E+02 -0.19162418480E+02 -0.13410624853E+04  0.13416299680E+04  0.15500000000E+01 0. -1.
<mgrwt>
<rscale>  2 0.12500156E+03</rscale>
<asrwt>0</asrwt>
<pdfrwt beam="1">  1       21 0.39902476E-03 0.12500156E+03</pdfrwt>
<pdfrwt beam="2">  1       21 0.23170974E+00 0.12500156E+03</pdfrwt>
<totfact> 0.13863794E+06</totfact>
</mgrwt>
</event>
<event>
 5    0  0.1381840E+000  0.1249939E+03  0.7546771E-02  0.1235079E+00
         21   -1    0    0  503  502  0.00000000000E+00  0.00000000000E+00  0.12779619723E+02  0.12779619723E+02  0.00000000000E+00 0. -1.
         21   -1    0    0  502  503 -0.00000000000E+00 -0.00000000000E+00 -0.30563277099E+03  0.30563277099E+03  0.00000000000E+00 0. -1.
         25    2    1    2    0    0  0.00000000000E+00  0.00000000000E+00 -0.29285315127E+03  0.31841239071E+03  0.12499392926E+03 0.  0.
          4    1    3    3  501    0 -0.33811944344E+02  0.16066326130E+02 -0.19002109927E+02  0.42010202300E+02  0.15500000000E+01 0. -1.
         -4    1    3    3    0  501  0.33811944344E+02 -0.16066326130E+02 -0.27385104134E+03  0.27640218841E+03  0.15500000000E+01 0. -1.
<mgrwt>
<rscale>  2 0.12499393E+03</rscale>
<asrwt>0</asrwt>
<pdfrwt beam="1">  1       21 0.19660954E-02 0.12499393E+03</pdfrwt>
<pdfrwt beam="2">  1       21 0.47020424E-01 0.12499393E+03</pdfrwt>
<totfact> 0.53967614E+06</totfact>
</mgrwt>
</event>
<event>
 5    0  0.1474596E+000  0.1249966E+03  0.7546771E-02  0.1235075E+00
         21   -1    0    0  503  502  0.00000000000E+00  0.00000000000E+00  0.16634834078E+03  0.16634834078E+03  0.00000000000E+00 0. -1.
         21   -1    0    0  502  503 -0.00000000000E+00 -0.00000000000E+00 -0.23481066336E+02  0.23481066336E+02  0.00000000000E+00 0. -1.
         25    2    1    2    0    0  0.00000000000E+00  0.00000000000E+00  0.14286727444E+03  0.18982940712E+03  0.12499658275E+03 0.  0.
          4    1    3    3  501    0  0.31653401815E+02 -0.48493972145E+02  0.10705076003E+03  0.12172046214E+03  0.15500000000E+01 0. -1.
         -4    1    3    3    0  501 -0.31653401815E+02  0.48493972145E+02  0.35816514417E+02  0.68108944977E+02  0.15500000000E+01 0. -1.
<mgrwt>
<rscale>  2 0.12499658E+03</rscale>
<asrwt>0</asrwt>
<pdfrwt beam="1">  1       21 0.25592052E-01 0.12499658E+03</pdfrwt>
<pdfrwt beam="2">  1       21 0.36124719E-02 0.12499658E+03</pdfrwt>
<totfact> 0.66047148E+06</totfact>
</mgrwt>
</event>
<event>
 5    0  0.1525213E+000  0.1249983E+03  0.7546771E-02  0.1235072E+00
         21   -1    0    0  503  502  0.00000000000E+00  0.00000000000E+00  0.26386029017E+02  0.26386029017E+02  0.00000000000E+00 0. -1.
         21   -1    0    0  502  503 -0.00000000000E+00 -0.00000000000E+00 -0.14803842761E+03  0.14803842761E+03  0.00000000000E+00 0. -1.
         25    2    1    2    0    0  0.00000000000E+00  0.00000000000E+00 -0.12165239859E+03  0.17442445662E+03  0.12499833993E+03 0.  0.
          4    1    3    3  501    0  0.54829361775E+02  0.15244293536E+02 -0.24839218254E+02  0.62113095733E+02  0.15500000000E+01 0. -1.
         -4    1    3    3    0  501 -0.54829361775E+02 -0.15244293536E+02 -0.96813180335E+02  0.11231136089E+03  0.15500000000E+01 0. -1.
<mgrwt>
<rscale>  2 0.12499834E+03</rscale>
<asrwt>0</asrwt>
<pdfrwt beam="1">  1       21 0.40593891E-02 0.12499834E+03</pdfrwt>
<pdfrwt beam="2">  1       21 0.22775142E-01 0.12499834E+03</pdfrwt>
<totfact> 0.67799830E+06</totfact>
</mgrwt>
</event>
<event>
 5    0  0.1465278E+000  0.1250005E+03  0.7546771E-02  0.1235069E+00
         21   -1    0    0  503  502  0.00000000000E+00  0.00000000000E+00  0.83826925519E+02  0.83826925519E+02  0.00000000000E+00 0. -1.
         21   -1    0    0  502  503 -0.00000000000E+00 -0.00000000000E+00 -0.46599343478E+02  0.46599343478E+02  0.00000000000E+00 0. -1.
         25    2    1    2    0    0  0.00000000000E+00  0.00000000000E+00  0.37227582040E+02  0.13042626900E+03  0.12500047512E+03 0.  0.
          4    1    3    3  501    0  0.27581979642E+02 -0.98862393493E+01 -0.38966481421E+02  0.48777992002E+02  0.15500000000E+01 0.  1.
         -4    1    3    3    0  501 -0.27581979642E+02  0.98862393493E+01  0.76194063461E+02  0.81648276994E+02  0.15500000000E+01 0.  1.
<mgrwt>
<rscale>  2 0.12500048E+03</rscale>
<asrwt>0</asrwt>
<pdfrwt beam="1">  1       21 0.12896450E-01 0.12500048E+03</pdfrwt>
<pdfrwt beam="2">  1       21 0.71691298E-02 0.12500048E+03</pdfrwt>
<totfact> 0.73307109E+06</totfact>
</mgrwt>
</event>
<event>
 5    0  0.1222151E+000  0.1250050E+03  0.7546771E-02  0.1235061E+00
         21   -1    0    0  503  502  0.00000000000E+00  0.00000000000E+00  0.44439805213E+01  0.44439805213E+01  0.00000000000E+00 0. -1.
         21   -1    0    0  502  503 -0.00000000000E+00 -0.00000000000E+00 -0.87906807769E+03  0.87906807769E+03  0.00000000000E+00 0. -1.
         25    2    1    2    0    0  0.00000000000E+00  0.00000000000E+00 -0.87462409717E+03  0.88351205821E+03  0.12500498253E+03 0.  0.
          4    1    3    3  501    0  0.38688394648E+02 -0.18483572054E+02 -0.11607815042E+03  0.12375368205E+03  0.15500000000E+01 0.  1.
         -4    1    3    3    0  501 -0.38688394648E+02  0.18483572054E+02 -0.75854594675E+03  0.75975837616E+03  0.15500000000E+01 0.  1.
<mgrwt>
<rscale>  2 0.12500498E+03</rscale>
<asrwt>0</asrwt>
<pdfrwt beam="1">  1       21 0.68368892E-03 0.12500498E+03</pdfrwt>
<pdfrwt beam="2">  1       21 0.13524132E+00 0.12500498E+03</pdfrwt>
<totfact> 0.26771174E+06</totfact>
</mgrwt>
</event>
<event>
 5    0  0.1352508E+000  0.1249956E+03  0.7546771E-02  0.1235076E+00
         21   -1    0    0  503  502  0.00000000000E+00  0.00000000000E+00  0.39907216660E+03  0.39907216660E+03  0.00000000000E+00 0. -1.
         21   -1    0    0  502  503 -0.00000000000E+00 -0.00000000000E+00 -0.97876352481E+01  0.97876352481E+01  0.00000000000E+00 0. -1.
         25    2    1    2    0    0  0.00000000000E+00  0.00000000000E+00  0.38928453135E+03  0.40885980185E+03  0.12499556479E+03 0.  0.
          4    1    3    3  501    0 -0.42586673809E+02  0.25874572246E+02  0.31792239927E+03  0.32180766420E+03  0.15500000000E+01 0.  1.
         -4    1    3    3    0  501  0.42586673809E+02 -0.25874572246E+02  0.71362132076E+02  0.87052137650E+02  0.15500000000E+01 0.  1.
<mgrwt>
<rscale>  2 0.12499556E+03</rscale>
<asrwt>0</asrwt>
<pdfrwt beam="1">  1       21 0.61395705E-01 0.12499556E+03</pdfrwt>
<pdfrwt beam="2">  1       21 0.15057904E-02 0.12499556E+03</pdfrwt>
<totfact> 0.47464454E+06</totfact>
</mgrwt>
</event>
<event>
 5    0  0.1518829E+000  0.1250009E+03  0.7546771E-02  0.1235068E+00
         21   -1    0    0  503  502  0.00000000000E+00  0.00000000000E+00  0.27916580030E+02  0.27916580030E+02  0.00000000000E+00 0. -1.
         21   -1    0    0  502  503 -0.00000000000E+00 -0.00000000000E+00 -0.13992793216E+03  0.13992793216E+03  0.00000000000E+00 0. -1.
         25    2    1    2    0    0  0.00000000000E+00  0.00000000000E+00 -0.11201135213E+03  0.16784451219E+03  0.12500094906E+03 0.  0.
          4    1    3    3  501    0 -0.22465996856E+02 -0.27767910906E+02  0.12830568507E+02  0.37984258306E+02  0.15500000000E+01 0.  1.
         -4    1    3    3    0  501  0.22465996856E+02  0.27767910906E+02 -0.12484192063E+03  0.12986025388E+03  0.15500000000E+01 0.  1.
<mgrwt>
<rscale>  2 0.12500095E+03</rscale>
<asrwt>0</asrwt>
<pdfrwt beam="1">  1       21 0.42948584E-02 0.12500095E+03</pdfrwt>
<pdfrwt beam="2">  1       21 0.21527375E-01 0.12500095E+03</pdfrwt>
<totfact> 0.68571805E+06</totfact>
</mgrwt>
</event>
<event>
 5    0  0.1476530E+000  0.1250026E+03  0.7546771E-02  0.1235065E+00
         21   -1    0    0  503  502  0.00000000000E+00  0.00000000000E+00  0.74120174244E+02  0.74120174244E+02  0.00000000000E+00 0.  1.
         21   -1    0    0  502  503 -0.00000000000E+00 -0.00000000000E+00 -0.52703734672E+02  0.52703734672E+02  0.00000000000E+00 0.  1.
         25    2    1    2    0    0  0.00000000000E+00  0.00000000000E+00  0.21416439572E+02  0.12682390892E+03  0.12500255993E+03 0.  0.
          4    1    3    3  501    0 -0.23582224563E+02 -0.27518311738E+02  0.62348050991E+02  0.72132244930E+02  0.15500000000E+01 0.  1.
         -4    1    3    3    0  501  0.23582224563E+02  0.27518311738E+02 -0.40931611419E+02  0.54691663987E+02  0.15500000000E+01 0.  1.
<mgrwt>
<rscale>  2 0.12500256E+03</rscale>
<asrwt>0</asrwt>
<pdfrwt beam="1">  1       21 0.11403104E-01 0.12500256E+03</pdfrwt>
<pdfrwt beam="2">  1       21 0.81082668E-02 0.12500256E+03</pdfrwt>
<totfact> 0.73788306E+06</totfact>
</mgrwt>
</event>
<event>
 5    0  0.1500851E+000  0.1250086E+03  0.7546771E-02  0.1235056E+00
         21   -1    0    0  503  502  0.00000000000E+00  0.00000000000E+00  0.25535312129E+02  0.25535312129E+02  0.00000000000E+00 0. -1.
         21   -1    0    0  502  503 -0.00000000000E+00 -0.00000000000E+00 -0.15299538021E+03  0.15299538021E+03  0.00000000000E+00 0. -1.
         25    2    1    2    0    0  0.00000000000E+00  0.00000000000E+00 -0.12746006808E+03  0.17853069234E+03  0.12500855632E+03 0.  0.
          4    1    3    3  501    0 -0.59859092228E+02  0.17645981680E+02 -0.68221484199E+02  0.92471968715E+02  0.15500000000E+01 0. -1.
         -4    1    3    3    0  501  0.59859092228E+02 -0.17645981680E+02 -0.59238583886E+02  0.86058723628E+02  0.15500000000E+01 0. -1.
<mgrwt>
<rscale>  2 0.12500856E+03</rscale>
<asrwt>0</asrwt>
<pdfrwt beam="1">  1       21 0.39285096E-02 0.12500856E+03</pdfrwt>
<pdfrwt beam="2">  1       21 0.23537751E-01 0.12500856E+03</pdfrwt>
<totfact> 0.67305882E+06</totfact>
</mgrwt>
</event>
<event>
 5    0  0.1470684E+000  0.1250122E+03  0.7546771E-02  0.1235050E+00
         21   -1    0    0  503  502  0.00000000000E+00  0.00000000000E+00  0.18874908010E+02  0.18874908010E+02  0.00000000000E+00 0.  1.
         21   -1    0    0  502  503 -0.00000000000E+00 -0.00000000000E+00 -0.20699492289E+03  0.20699492289E+03  0.00000000000E+00 0.  1.
         25    2    1    2    0    0  0.00000000000E+00  0.00000000000E+00 -0.18812001488E+03  0.22586983090E+03  0.12501216146E+03 0.  0.
          4    1    3    3  501    0 -0.46444683338E+02  0.24486705401E+02 -0.32844980814E+02  0.61950808037E+02  0.15500000000E+01 0. -1.
         -4    1    3    3    0  501  0.46444683338E+02 -0.24486705401E+02 -0.15527503406E+03  0.16391902286E+03  0.15500000000E+01 0. -1.
<mgrwt>
<rscale>  2 0.12501216E+03</rscale>
<asrwt>0</asrwt>
<pdfrwt beam="1">  1       21 0.29038321E-02 0.12501216E+03</pdfrwt>
<pdfrwt beam="2">  1       21 0.31845372E-01 0.12501216E+03</pdfrwt>
<totfact> 0.62208313E+06</totfact>
</mgrwt>
</event>
<event>
 5    0  0.1538667E+000  0.1249979E+03  0.7546771E-02  0.1235073E+00
         21   -1    0    0  503  502  0.00000000000E+00  0.00000000000E+00  0.21874011736E+02  0.21874011736E+02  0.00000000000E+00 0. -1.
         21   -1    0    0  502  503 -0.00000000000E+00 -0.00000000000E+00 -0.17857338353E+03  0.17857338353E+03  0.00000000000E+00 0. -1.
         25    2    1    2    0    0  0.00000000000E+00  0.00000000000E+00 -0.15669937179E+03  0.20044739526E+03  0.12499786057E+03 0.  0.
          4    1    3    3  501    0 -0.51525233160E+02  0.11680720194E+02 -0.13183483244E+03  0.14203560969E+03  0.15500000000E+01 0. -1.
         -4    1    3    3    0  501  0.51525233160E+02 -0.11680720194E+02 -0.24864539352E+02  0.58411785571E+02  0.15500000000E+01 0. -1.
<mgrwt>
<rscale>  2 0.12499786E+03</rscale>
<asrwt>0</asrwt>
<pdfrwt beam="1">  1       21 0.33652324E-02 0.12499786E+03</pdfrwt>
<pdfrwt beam="2">  1       21 0.27472829E-01 0.12499786E+03</pdfrwt>
<totfact> 0.64882319E+06</totfact>
</mgrwt>
</event>
<event>
 5    0  0.1373694E+000  0.1250035E+03  0.7546771E-02  0.1235064E+00
         21   -1    0    0  503  502  0.00000000000E+00  0.00000000000E+00  0.15608852067E+03  0.15608852067E+03  0.00000000000E+00 0.  1.
         21   -1    0    0  502  503 -0.00000000000E+00 -0.00000000000E+00 -0.25027264387E+02  0.25027264387E+02  0.00000000000E+00 0.  1.
         25    2    1    2    0    0  0.00000000000E+00  0.00000000000E+00  0.13106125628E+03  0.18111578506E+03  0.12500349874E+03 0.  0.
          4    1    3    3  501    0 -0.12543937586E+02  0.27489052256E+02  0.14477113840E+03  0.14789889580E+03  0.15500000000E+01 0. -1.
         -4    1    3    3    0  501  0.12543937586E+02 -0.27489052256E+02 -0.13709882121E+02  0.33216889257E+02  0.15500000000E+01 0. -1.
<mgrwt>
<rscale>  2 0.12500350E+03</rscale>
<asrwt>0</asrwt>
<pdfrwt beam="1">  1       21 0.24013618E-01 0.12500350E+03</pdfrwt>
<pdfrwt beam="2">  1       21 0.38503484E-02 0.12500350E+03</pdfrwt>
<totfact> 0.67017821E+06</totfact>
</mgrwt>
</event>
<event>
 5    0  0.1222151E+000  0.1249979E+03  0.7546771E-02  0.1235073E+00
         21   -1    0    0  503  502  0.00000000000E+00  0.00000000000E+00  0.95900780757E+03  0.95900780757E+03  0.00000000000E+00 0. -1.
         21   -1    0    0  502  503 -0.00000000000E+00 -0.00000000000E+00 -0.40730840015E+01  0.40730840015E+01  0.00000000000E+00 0. -1.
         25    2    1    2    0    0  0.00000000000E+00  0.00000000000E+00  0.95493472357E+03  0.96308089157E+03  0.12499790972E+03 0.  0.
          4    1    3    3  501    0  0.21033366131E+02  0.40042634582E+02  0.80956928557E+03  0.81083330329E+03  0.15500000000E+01 0.  1.
         -4    1    3    3    0  501 -0.21033366131E+02 -0.40042634582E+02  0.14536543800E+03  0.15224758829E+03  0.15500000000E+01 0.  1.
<mgrwt>
<rscale>  2 0.12499791E+03</rscale>
<asrwt>0</asrwt>
<pdfrwt beam="1">  1       21 0.14753948E+00 0.12499791E+03</pdfrwt>
<pdfrwt beam="2">  1       21 0.62662907E-03 0.12499791E+03</pdfrwt>
<totfact> 0.24565722E+06</totfact>
</mgrwt>
</event>
<event>
 5    0  0.1367124E+000  0.1249865E+03  0.7546771E-02  0.1235090E+00
         21   -1    0    0  503  502  0.00000000000E+00  0.00000000000E+00  0.37461055914E+03  0.37461055914E+03  0.00000000000E+00 0. -1.
         21   -1    0    0  502  503 -0.00000000000E+00 -0.00000000000E+00 -0.10425249821E+02  0.10425249821E+02  0.00000000000E+00 0. -1.
         25    2    1    2    0    0  0.00000000000E+00  0.00000000000E+00  0.36418530932E+03  0.38503580896E+03  0.12498653791E+03 0.  0.
          4    1    3    3  501    0 -0.19152261306E+00  0.43040076865E+02  0.32159131023E+03  0.32446241418E+03  0.15500000000E+01 0. -1.
         -4    1    3    3    0  501  0.19152261306E+00 -0.43040076865E+02  0.42593999087E+02  0.60573394784E+02  0.15500000000E+01 0. -1.
<mgrwt>
<rscale>  2 0.12498654E+03</rscale>
<asrwt>0</asrwt>
<pdfrwt beam="1">  1       21 0.57632383E-01 0.12498654E+03</pdfrwt>
<pdfrwt beam="2">  1       21 0.16038849E-02 0.12498654E+03</pdfrwt>
<totfact> 0.49066531E+06</totfact>
</mgrwt>
</event>
<event>
 5    0  0.1263053E+000  0.1249965E+03  0.7546771E-02  0.1235075E+00
         21   -1    0    0  503  502  0.00000000000E+00  0.00000000000E+00  0.71820624269E+01  0.71820624269E+01  0.00000000000E+00 0. -1.
         21   -1    0    0  502  503 -0.00000000000E+00 -0.00000000000E+00 -0.54385951332E+03  0.54385951332E+03  0.00000000000E+00 0. -1.
         25    2    1    2    0    0  0.00000000000E+00  0.00000000000E+00 -0.53667745089E+03  0.55104157575E+03  0.12499652757E+03 0.  0.
          4    1    3    3  501    0 -0.28385936646E+02  0.44974823021E+02 -0.12378882663E+03  0.13473890383E+03  0.15500000000E+01 0. -1.
         -4    1    3    3    0  501  0.28385936646E+02 -0.44974823021E+02 -0.41288862426E+03  0.41630267192E+03  0.15500000000E+01 0. -1.
<mgrwt>
<rscale>  2 0.12499653E+03</rscale>
<asrwt>0</asrwt>
<pdfrwt beam="1">  1       21 0.11049328E-02 0.12499653E+03</pdfrwt>
<pdfrwt beam="2">  1       21 0.83670687E-01 0.12499653E+03</pdfrwt>
<totfact> 0.39408063E+06</totfact>
</mgrwt>
</event>
<event>
 5    0  0.1484051E+000  0.1250004E+03  0.7546771E-02  0.1235069E+00
         21   -1    0    0  503  502  0.00000000000E+00  0.00000000000E+00  0.35151768230E+02  0.35151768230E+02  0.00000000000E+00 0. -1.
         21   -1    0    0  502  503 -0.00000000000E+00 -0.00000000000E+00 -0.11112590664E+03  0.11112590664E+03  0.00000000000E+00 0. -1.
         25    2    1    2    0    0  0.00000000000E+00  0.00000000000E+00 -0.75974138412E+02  0.14627767487E+03  0.12500035383E+03 0.  0.
          4    1    3    3  501    0 -0.25018993466E+02  0.56595332246E+02 -0.48113881803E+02  0.78398531799E+02  0.15500000000E+01 0. -1.
         -4    1    3    3    0  501  0.25018993466E+02 -0.56595332246E+02 -0.27860256609E+02  0.67879143074E+02  0.15500000000E+01 0. -1.
<mgrwt>
<rscale>  2 0.12500035E+03</rscale>
<asrwt>0</asrwt>
<pdfrwt beam="1">  1       21 0.54079643E-02 0.12500035E+03</pdfrwt>
<pdfrwt beam="2">  1       21 0.17096293E-01 0.12500035E+03</pdfrwt>
<totfact> 0.71229345E+06</totfact>
</mgrwt>
</event>
<event>
 5    0  0.1222151E+000  0.1250014E+03  0.7546771E-02  0.1235067E+00
         21   -1    0    0  503  502  0.00000000000E+00  0.00000000000E+00  0.91601213186E+03  0.91601213186E+03  0.00000000000E+00 0.  1.
         21   -1    0    0  502  503 -0.00000000000E+00 -0.00000000000E+00 -0.42645062118E+01  0.42645062118E+01  0.00000000000E+00 0.  1.
         25    2    1    2    0    0  0.00000000000E+00  0.00000000000E+00  0.91174762565E+03  0.92027663807E+03  0.12500143081E+03 0.  0.
          4    1    3    3  501    0 -0.57618340556E+02 -0.19360891557E+02  0.34938484090E+03  0.35463627400E+03  0.15500000000E+01 0.  1.
         -4    1    3    3    0  501  0.57618340556E+02  0.19360891557E+02  0.56236278475E+03  0.56564036407E+03  0.15500000000E+01 0.  1.
<mgrwt>
<rscale>  2 0.12500143E+03</rscale>
<asrwt>0</asrwt>
<pdfrwt beam="1">  1       21 0.14092479E+00 0.12500143E+03</pdfrwt>
<pdfrwt beam="2">  1       21 0.65607861E-03 0.12500143E+03</pdfrwt>
<totfact> 0.25723542E+06</totfact>
</mgrwt>
</event>
<event>
 5    0  0.1598848E+000  0.1250204E+03  0.7546771E-02  0.1235037E+00
         21   -1    0    0  503  502  0.00000000000E+00  0.00000000000E+00  0.75554485231E+02  0.75554485231E+02  0.00000000000E+00 0. -1.
         21   -1    0    0  502  503 -0.00000000000E+00 -0.00000000000E+00 -0.51717974315E+02  0.51717974315E+02  0.00000000000E+00 0. -1.
         25    2    1    2    0    0  0.00000000000E+00  0.00000000000E+00  0.23836510915E+02  0.12727245955E+03  0.12502039716E+03 0.  0.
          4    1    3    3  501    0  0.59958112473E+02 -0.17581998666E+02  0.12946649823E+02  0.63828834942E+02  0.15500000000E+01 0.  1.
         -4    1    3    3    0  501 -0.59958112473E+02  0.17581998666E+02  0.10889861092E+02  0.63443624605E+02  0.15500000000E+01 0.  1.
<mgrwt>
<rscale>  2 0.12502040E+03</rscale>
<asrwt>0</asrwt>
<pdfrwt beam="1">  1       21 0.11623767E-01 0.12502040E+03</pdfrwt>
<pdfrwt beam="2">  1       21 0.79566114E-02 0.12502040E+03</pdfrwt>
<totfact> 0.73693713E+06</totfact>
</mgrwt>
</event>
<event>
 5    0  0.1222151E+000  0.1250008E+03  0.7546771E-02  0.1235068E+00
         21   -1    0    0  503  502  0.00000000000E+00  0.00000000000E+00  0.26236485073E+01  0.26236485073E+01  0.00000000000E+00 0.  1.
         21   -1    0    0  502  503 -0.00000000000E+00 -0.00000000000E+00 -0.14888805160E+04  0.14888805160E+04  0.00000000000E+00 0.  1.
         25    2    1    2    0    0  0.00000000000E+00  0.00000000000E+00 -0.14862568675E+04  0.14915041645E+04  0.12500078629E+03 0.  0.
          4    1    3    3  501    0 -0.41153632731E+02 -0.41264657567E+02 -0.10119295789E+04  0.10136075516E+04  0.15500000000E+01 0.  1.
         -4    1    3    3    0  501  0.41153632731E+02  0.41264657567E+02 -0.47432728855E+03  0.47789661290E+03  0.15500000000E+01 0.  1.
<mgrwt>
<rscale>  2 0.12500079E+03</rscale>
<asrwt>0</asrwt>
<pdfrwt beam="1">  1       21 0.40363881E-03 0.12500079E+03</pdfrwt>
<pdfrwt beam="2">  1       21 0.22905821E+00 0.12500079E+03</pdfrwt>
<totfact> 0.14119444E+06</totfact>
</mgrwt>
</event>
<event>
 4    0  0.1925263E+000  0.1248115E+03  0.7546771E-02  0.1235364E+00
         21   -1    0    0  503  502  0.00000000000E+00  0.00000000000E+00  0.73146844952E+02  0.73146844952E+02  0.00000000000E+00 0. -1.
         21   -1    0    0  502  503 -0.00000000000E+00 -0.00000000000E+00 -0.53241906221E+02  0.53241906221E+02  0.00000000000E+00 0. -1.
          4    1    1    2  501    0  0.43736795817E+02 -0.44484835884E+02  0.94291922871E+01  0.63111964786E+02  0.15500000000E+01 0.  1.
         -4    1    1    2    0  501 -0.43736795817E+02  0.44484835884E+02  0.10475746444E+02  0.63276786387E+02  0.15500000000E+01 0.  1.
<mgrwt>
<rscale>  2 0.12481150E+03</rscale>
<asrwt>0</asrwt>
<pdfrwt beam="1">  1       21 0.11253361E-01 0.12481150E+03</pdfrwt>
<pdfrwt beam="2">  1       21 0.81910625E-02 0.12481150E+03</pdfrwt>
<totfact> 0.74208993E+06</totfact>
</mgrwt>
</event>
<event>
 5    0  0.1537472E+000  0.1249969E+03  0.7546771E-02  0.1235074E+00
         21   -1    0    0  503  502  0.00000000000E+00  0.00000000000E+00  0.14737593859E+03  0.14737593859E+03  0.00000000000E+00 0.  1.
         21   -1    0    0  502  503 -0.00000000000E+00 -0.00000000000E+00 -0.26504038886E+02  0.26504038886E+02  0.00000000000E+00 0.  1.
         25    2    1    2    0    0  0.00000000000E+00  0.00000000000E+00  0.12087189970E+03  0.17387997748E+03  0.12499692168E+03 0.  0.
          4    1    3    3  501    0  0.46797390880E+02  0.31689504246E+02  0.97487505848E+02  0.11269621453E+03  0.15500000000E+01 0.  1.
         -4    1    3    3    0  501 -0.46797390880E+02 -0.31689504246E+02  0.23384393855E+02  0.61183762948E+02  0.15500000000E+01 0.  1.
<mgrwt>
<rscale>  2 0.12499692E+03</rscale>
<asrwt>0</asrwt>
<pdfrwt beam="1">  1       21 0.22673221E-01 0.12499692E+03</pdfrwt>
<pdfrwt beam="2">  1       21 0.40775445E-02 0.12499692E+03</pdfrwt>
<totfact> 0.67865938E+06</totfact>
</mgrwt>
</event>
<event>
 5    0  0.1452216E+000  0.1250015E+03  0.7546771E-02  0.1235067E+00
         21   -1    0    0  503  502  0.00000000000E+00  0.00000000000E+00  0.11428411107E+02  0.11428411107E+02  0.00000000000E+00 0. -1.
         21   -1    0    0  502  503 -0.00000000000E+00 -0.00000000000E+00 -0.34181006182E+03  0.34181006182E+03  0.00000000000E+00 0. -1.
         25    2    1    2    0    0  0.00000000000E+00  0.00000000000E+00 -0.33038165072E+03  0.35323847293E+03  0.12500153450E+03 0.  0.
          4    1    3    3  501    0 -0.38682117606E+01  0.51470409696E+02 -0.26469114805E+03  0.26968124238E+03  0.15500000000E+01 0.  1.
         -4    1    3    3    0  501  0.38682117606E+01 -0.51470409696E+02 -0.65690502671E+02  0.83557230552E+02  0.15500000000E+01 0.  1.
<mgrwt>
<rscale>  2 0.12500153E+03</rscale>
<asrwt>0</asrwt>
<pdfrwt beam="1">  1       21 0.17582172E-02 0.12500153E+03</pdfrwt>
<pdfrwt beam="2">  1       21 0.52586159E-01 0.12500153E+03</pdfrwt>
<totfact> 0.51298178E+06</totfact>
</mgrwt>
</event>
<event>
 5    0  0.1590981E+000  0.1250033E+03  0.7546771E-02  0.1235064E+00
         21   -1    0    0  503  502  0.00000000000E+00  0.00000000000E+00  0.41857903080E+02  0.41857903080E+02  0.00000000000E+00 0. -1.
         21   -1    0    0  502  503 -0.00000000000E+00 -0.00000000000E+00 -0.93326621910E+02  0.93326621910E+02  0.00000000000E+00 0. -1.
         25    2    1    2    0    0  0.00000000000E+00  0.00000000000E+00 -0.51468718830E+02  0.13518452499E+03  0.12500330707E+03 0.  0.
          4    1    3    3  501    0 -0.40601594564E+02  0.45444931464E+02 -0.10814971013E+02  0.61912013171E+02  0.15500000000E+01 0. -1.
         -4    1    3    3    0  501  0.40601594564E+02 -0.45444931464E+02 -0.40653747817E+02  0.73272511820E+02  0.15500000000E+01 0. -1.
<mgrwt>
<rscale>  2 0.12500331E+03</rscale>
<asrwt>0</asrwt>
<pdfrwt beam="1">  1       21 0.64396775E-02 0.12500331E+03</pdfrwt>
<pdfrwt beam="2">  1       21 0.14357942E-01 0.12500331E+03</pdfrwt>
<totfact> 0.72665920E+06</totfact>
</mgrwt>
</event>
<event>
 5    0  0.1222151E+000  0.1250024E+03  0.7546771E-02  0.1235066E+00
         21   -1    0    0  503  502  0.00000000000E+00  0.00000000000E+00  0.13539013047E+03  0.13539013047E+03  0.00000000000E+00 0. -1.
         21   -1    0    0  502  503 -0.00000000000E+00 -0.00000000000E+00 -0.28852917851E+02  0.28852917851E+02  0.00000000000E+00 0. -1.
         25    2    1    2    0    0  0.00000000000E+00  0.00000000000E+00  0.10653721262E+03  0.16424304832E+03  0.12500240497E+03 0.  0.
          4    1    3    3  501    0  0.12754475597E+02  0.20463884424E+02  0.12900496657E+03  0.13124835661E+03  0.15500000000E+01 0. -1.
         -4    1    3    3    0  501 -0.12754475597E+02 -0.20463884424E+02 -0.22467753950E+02  0.32994691710E+02  0.15500000000E+01 0. -1.
<mgrwt>
<rscale>  2 0.12500240E+03</rscale>
<asrwt>0</asrwt>
<pdfrwt beam="1">  1       21 0.20829251E-01 0.12500240E+03</pdfrwt>
<pdfrwt beam="2">  1       21 0.44389105E-02 0.12500240E+03</pdfrwt>
<totfact> 0.69000505E+06</totfact>
</mgrwt>
</event>
<event>
 5    0  0.1311532E+000  0.1249903E+03  0.7546771E-02  0.1235084E+00
         21   -1    0    0  503  502  0.00000000000E+00  0.00000000000E+00  0.74309172922E+01  0.74309172922E+01  0.00000000000E+00 0. -1.
         21   -1    0    0  502  503 -0.00000000000E+00 -0.00000000000E+00 -0.52559415095E+03  0.52559415095E+03  0.00000000000E+00 0. -1.
         25    2    1    2    0    0  0.00000000000E+00  0.00000000000E+00 -0.51816323366E+03  0.53302506825E+03  0.12499034627E+03 0.  0.
          4    1    3    3  501    0  0.33278192397E+02  0.10744649697E+02 -0.47986562439E+03  0.48114062971E+03  0.15500000000E+01 0. -1.
         -4    1    3    3    0  501 -0.33278192397E+02 -0.10744649697E+02 -0.38297609273E+02  0.51884438538E+02  0.15500000000E+01 0. -1.
<mgrwt>
<rscale>  2 0.12499035E+03</rscale>
<asrwt>0</asrwt>
<pdfrwt beam="1">  1       21 0.11432177E-02 0.12499035E+03</pdfrwt>
<pdfrwt beam="2">  1       21 0.80860664E-01 0.12499035E+03</pdfrwt>
<totfact> 0.40317546E+06</totfact>
</mgrwt>
</event>
<event>
 5    0  0.1541395E+000  0.1250084E+03  0.7546771E-02  0.1235056E+00
         21   -1    0    0  503  502  0.00000000000E+00  0.00000000000E+00  0.35656708924E+02  0.35656708924E+02  0.00000000000E+00 0. -1.
         21   -1    0    0  502  503 -0.00000000000E+00 -0.00000000000E+00 -0.10956641770E+03  0.10956641770E+03  0.00000000000E+00 0. -1.
         25    2    1    2    0    0  0.00000000000E+00  0.00000000000E+00 -0.73909708775E+02  0.14522312662E+03  0.12500844553E+03 0.  0.
          4    1    3    3  501    0  0.36067149054E+02  0.40085929459E+02 -0.27997296956E+00  0.53946286864E+02  0.15500000000E+01 0.  1.
         -4    1    3    3    0  501 -0.36067149054E+02 -0.40085929459E+02 -0.73629735806E+02  0.91276839759E+02  0.15500000000E+01 0.  1.
<mgrwt>
<rscale>  2 0.12500845E+03</rscale>
<asrwt>0</asrwt>
<pdfrwt beam="1">  1       21 0.54856476E-02 0.12500845E+03</pdfrwt>
<pdfrwt beam="2">  1       21 0.16856372E-01 0.12500845E+03</pdfrwt>
<totfact> 0.71349210E+06</totfact>
</mgrwt>
</event>
<event>
 5    0  0.1403688E+000  0.1250057E+03  0.7546771E-02  0.1235060E+00
         21   -1    0    0  503  502  0.00000000000E+00  0.00000000000E+00  0.67713718795E+02  0.67713718795E+02  0.00000000000E+00 0.  1.
         21   -1    0    0  502  503 -0.00000000000E+00 -0.00000000000E+00 -0.57693012976E+02  0.57693012976E+02  0.00000000000E+00 0.  1.
         25    2    1    2    0    0  0.00000000000E+00  0.00000000000E+00  0.10020705819E+02  0.12540673177E+03  0.12500573518E+03 0.  0.
          4    1    3    3  501    0  0.31855267569E+02  0.34897659362E+01 -0.48801900185E+02  0.58403463081E+02  0.15500000000E+01 0. -1.
         -4    1    3    3    0  501 -0.31855267569E+02 -0.34897659362E+01  0.58822606003E+02  0.67003268690E+02  0.15500000000E+01 0. -1.
<mgrwt>
<rscale>  2 0.12500574E+03</rscale>
<asrwt>0</asrwt>
<pdfrwt beam="1">  1       21 0.10417495E-01 0.12500574E+03</pdfrwt>
<pdfrwt beam="2">  1       21 0.88758481E-02 0.12500574E+03</pdfrwt>
<totfact> 0.73977654E+06</totfact>
</mgrwt>
</event>
<event>
 5    0  0.1556810E+000  0.1249979E+03  0.7546771E-02  0.1235073E+00
         21   -1    0    0  503  502  0.00000000000E+00  0.00000000000E+00  0.97352593797E+02  0.97352593797E+02  0.00000000000E+00 0.  1.
         21   -1    0    0  502  503 -0.00000000000E+00 -0.00000000000E+00 -0.40123418365E+02  0.40123418365E+02  0.00000000000E+00 0.  1.
         25    2    1    2    0    0  0.00000000000E+00  0.00000000000E+00  0.57229175433E+02  0.13747601216E+03  0.12499790158E+03 0.  0.
          4    1    3    3  501    0 -0.44593434032E+02 -0.39297197606E+02  0.49795095802E+02  0.77555129839E+02  0.15500000000E+01 0. -1.
         -4    1    3    3    0  501  0.44593434032E+02  0.39297197606E+02  0.74340796310E+01  0.59920882323E+02  0.15500000000E+01 0. -1.
<mgrwt>
<rscale>  2 0.12499790E+03</rscale>
<asrwt>0</asrwt>
<pdfrwt beam="1">  1       21 0.14977322E-01 0.12499790E+03</pdfrwt>
<pdfrwt beam="2">  1       21 0.61728336E-02 0.12499790E+03</pdfrwt>
<totfact> 0.72374134E+06</totfact>
</mgrwt>
</event>
<event>
 5    0  0.1222151E+000  0.1249950E+03  0.7546771E-02  0.1235077E+00
         21   -1    0    0  503  502  0.00000000000E+00  0.00000000000E+00  0.49867723899E+01  0.49867723899E+01  0.00000000000E+00 0.  1.
         21   -1    0    0  502  503 -0.00000000000E+00 -0.00000000000E+00 -0.78325917183E+03  0.78325917183E+03  0.00000000000E+00 0.  1.
         25    2    1    2    0    0  0.00000000000E+00  0.00000000000E+00 -0.77827239944E+03  0.78824594422E+03  0.12499496329E+03 0.  0.
          4    1    3    3  501    0  0.13555204713E+02  0.56309581682E+02 -0.53689840797E+03  0.54001556972E+03  0.15500000000E+01 0. -1.
         -4    1    3    3    0  501 -0.13555204713E+02 -0.56309581682E+02 -0.24137399147E+03  0.24823037450E+03  0.15500000000E+01 0. -1.
<mgrwt>
<rscale>  2 0.12499496E+03</rscale>
<asrwt>0</asrwt>
<pdfrwt beam="1">  1       21 0.76719639E-03 0.12499496E+03</pdfrwt>
<pdfrwt beam="2">  1       21 0.12050131E+00 0.12499496E+03</pdfrwt>
<totfact> 0.29759711E+06</totfact>
</mgrwt>
</event>
<event>
 5    0  0.1492626E+000  0.1250030E+03  0.7546771E-02  0.1235065E+00
         21   -1    0    0  503  502  0.00000000000E+00  0.00000000000E+00  0.20620782146E+03  0.20620782146E+03  0.00000000000E+00 0. -1.
         21   -1    0    0  502  503 -0.00000000000E+00 -0.00000000000E+00 -0.18944169146E+02  0.18944169146E+02  0.00000000000E+00 0. -1.
         25    2    1    2    0    0  0.00000000000E+00  0.00000000000E+00  0.18726365231E+03  0.22515199060E+03  0.12500297355E+03 0.  0.
          4    1    3    3  501    0  0.17632813298E+02  0.31870827022E+02  0.21902650632E+01  0.36522123171E+02  0.15500000000E+01 0. -1.
         -4    1    3    3    0  501 -0.17632813298E+02 -0.31870827022E+02  0.18507338725E+03  0.18862986743E+03  0.15500000000E+01 0. -1.
<mgrwt>
<rscale>  2 0.12500297E+03</rscale>
<asrwt>0</asrwt>
<pdfrwt beam="1">  1       21 0.31724279E-01 0.12500297E+03</pdfrwt>
<pdfrwt beam="2">  1       21 0.29144877E-02 0.12500297E+03</pdfrwt>
<totfact> 0.62295096E+06</totfact>
</mgrwt>
</event>
<event>
 5    0  0.1260256E+000  0.1249935E+03  0.7546771E-02  0.1235080E+00
         21   -1    0    0  503  502  0.00000000000E+00  0.00000000000E+00  0.59872079157E+03  0.59872079157E+03  0.00000000000E+00 0. -1.
         21   -1    0    0  502  503 -0.00000000000E+00 -0.00000000000E+00 -0.65236434666E+01  0.65236434666E+01  0.00000000000E+00 0. -1.
         25    2    1    2    0    0  0.00000000000E+00  0.00000000000E+00  0.59219714811E+03  0.60524443504E+03  0.12499345551E+03 0.  0.
          4    1    3    3  501    0  0.25639516716E+02  0.38220430362E+02  0.50069278407E+03  0.50280597911E+03  0.15500000000E+01 0. -1.
         -4    1    3    3    0  501 -0.25639516716E+02 -0.38220430362E+02  0.91504364039E+02  0.10243845593E+03  0.15500000000E+01 0. -1.
<mgrwt>
<rscale>  2 0.12499346E+03</rscale>
<asrwt>0</asrwt>
<pdfrwt beam="1">  1       21 0.92110848E-01 0.12499346E+03</pdfrwt>
<pdfrwt beam="2">  1       21 0.10036379E-02 0.12499346E+03</pdfrwt>
<totfact> 0.36862531E+06</totfact>
</mgrwt>
</event>
<event>
 5    0  0.1222151E+000  0.1249969E+03  0.7546771E-02  0.1235074E+00
         21   -1    0    0  503  502  0.00000000000E+00  0.00000000000E+00  0.39845024614E+01  0.39845024614E+01  0.00000000000E+00 0.  1.
         21   -1    0    0  502  503 -0.00000000000E+00 -0.00000000000E+00 -0.98031292990E+03  0.98031292990E+03  0.00000000000E+00 0.  1.
         25    2    1    2    0    0  0.00000000000E+00  0.00000000000E+00 -0.97632842744E+03  0.98429743236E+03  0.12499694848E+03 0.  0.
          4    1    3    3  501    0  0.48634703952E+02 -0.34281483543E+02 -0.33811234609E+03  0.34331168873E+03  0.15500000000E+01 0.  1.
         -4    1    3    3    0  501 -0.48634703952E+02  0.34281483543E+02 -0.63821608135E+03  0.64098574363E+03  0.15500000000E+01 0.  1.
<mgrwt>
<rscale>  2 0.12499695E+03</rscale>
<asrwt>0</asrwt>
<pdfrwt beam="1">  1       21 0.61300041E-03 0.12499695E+03</pdfrwt>
<pdfrwt beam="2">  1       21 0.15081737E+00 0.12499695E+03</pdfrwt>
<totfact> 0.24016877E+06</totfact>
</mgrwt>
</event>
<event>
 5    0  0.1291011E+000  0.1250004E+03  0.7546771E-02  0.1235069E+00
         21   -1    0    0  503  502  0.00000000000E+00  0.00000000000E+00  0.48370250685E+03  0.48370250685E+03  0.00000000000E+00 0. -1.
         21   -1    0    0  502  503 -0.00000000000E+00 -0.00000000000E+00 -0.80757854344E+01  0.80757854344E+01  0.00000000000E+00 0. -1.
         25    2    1    2    0    0  0.00000000000E+00  0.00000000000E+00  0.47562672142E+03  0.49177829229E+03  0.12500044255E+03 0.  0.
          4    1    3    3  501    0  0.74898007137E+01  0.45315281462E+02  0.40446352002E+03  0.40706598160E+03  0.15500000000E+01 0. -1.
         -4    1    3    3    0  501 -0.74898007137E+01 -0.45315281462E+02  0.71163201398E+02  0.84712310687E+02  0.15500000000E+01 0. -1.
<mgrwt>
<rscale>  2 0.12500044E+03</rscale>
<asrwt>0</asrwt>
<pdfrwt beam="1">  1       21 0.74415747E-01 0.12500044E+03</pdfrwt>
<pdfrwt beam="2">  1       21 0.12424289E-02 0.12500044E+03</pdfrwt>
<totfact> 0.42493030E+06</totfact>
</mgrwt>
</event>
<event>
 5    0  0.1433839E+000  0.1250087E+03  0.7546771E-02  0.1235056E+00
         21   -1    0    0  503  502  0.00000000000E+00  0.00000000000E+00  0.18528987220E+02  0.18528987220E+02  0.00000000000E+00 0. -1.
         21   -1    0    0  502  503 -0.00000000000E+00 -0.00000000000E+00 -0.21084772423E+03  0.21084772423E+03  0.00000000000E+00 0. -1.
         25    2    1    2    0    0  0.00000000000E+00  0.00000000000E+00 -0.19231873701E+03  0.22937671145E+03  0.12500871630E+03 0.  0.
          4    1    3    3  501    0  0.42917590394E+02 -0.40426490349E+02 -0.13412738903E+03  0.14652228389E+03  0.15500000000E+01 0. -1.
         -4    1    3    3    0  501 -0.42917590394E+02  0.40426490349E+02 -0.58191347980E+02  0.82854427564E+02  0.15500000000E+01 0. -1.
<mgrwt>
<rscale>  2 0.12500872E+03</rscale>
<asrwt>0</asrwt>
<pdfrwt beam="1">  1       21 0.28506132E-02 0.12500872E+03</pdfrwt>
<pdfrwt beam="2">  1       21 0.32438114E-01 0.12500872E+03</pdfrwt>
<totfact> 0.61862447E+06</totfact>
</mgrwt>
</event>
<event>
 4    0  0.1503869E+000  0.1251023E+03  0.7546771E-02  0.1234909E+00
         21   -1    0    0  503  502  0.00000000000E+00  0.00000000000E+00  0.20828481723E+02  0.20828481723E+02  0.00000000000E+00 0.  1.
         21   -1    0    0  502  503 -0.00000000000E+00 -0.00000000000E+00 -0.18785084259E+03  0.18785084259E+03  0.00000000000E+00 0.  1.
          4    1    1    2  501    0  0.55163571081E+02 -0.29127814281E+02 -0.90743025300E+02  0.11012787240E+03  0.15500000000E+01 0. -1.
         -4    1    1    2    0  501 -0.55163571081E+02  0.29127814281E+02 -0.76279335567E+02  0.98551451911E+02  0.15500000000E+01 0. -1.
<mgrwt>
<rscale>  2 0.12510232E+03</rscale>
<asrwt>0</asrwt>
<pdfrwt beam="1">  1       21 0.32043817E-02 0.12510232E+03</pdfrwt>
<pdfrwt beam="2">  1       21 0.28900130E-01 0.12510232E+03</pdfrwt>
<totfact> 0.63833366E+06</totfact>
</mgrwt>
</event>
<event>
 5    0  0.1349212E+000  0.1249967E+03  0.7546771E-02  0.1235074E+00
         21   -1    0    0  503  502  0.00000000000E+00  0.00000000000E+00  0.45997554832E+03  0.45997554832E+03  0.00000000000E+00 0. -1.
         21   -1    0    0  502  503 -0.00000000000E+00 -0.00000000000E+00 -0.84918561449E+01  0.84918561449E+01  0.00000000000E+00 0. -1.
         25    2    1    2    0    0  0.00000000000E+00  0.00000000000E+00  0.45148369217E+03  0.46846740446E+03  0.12499673894E+03 0.  0.
          4    1    3    3  501    0 -0.54029312128E+02 -0.17352507633E+02  0.12776851224E+03  0.13981227167E+03  0.15500000000E+01 0.  1.
         -4    1    3    3    0  501  0.54029312128E+02  0.17352507633E+02  0.32371517994E+03  0.32865513279E+03  0.15500000000E+01 0.  1.
<mgrwt>
<rscale>  2 0.12499674E+03</rscale>
<asrwt>0</asrwt>
<pdfrwt beam="1">  1       21 0.70765450E-01 0.12499674E+03</pdfrwt>
<pdfrwt beam="2">  1       21 0.13064398E-02 0.12499674E+03</pdfrwt>
<totfact> 0.43811020E+06</totfact>
</mgrwt>
</event>
<event>
 5    0  0.1456477E+000  0.1250084E+03  0.7546771E-02  0.1235056E+00
         21   -1    0    0  503  502  0.00000000000E+00  0.00000000000E+00  0.12198438749E+02  0.12198438749E+02  0.00000000000E+00 0. -1.
         21   -1    0    0  502  503 -0.00000000000E+00 -0.00000000000E+00 -0.32026832250E+03  0.32026832250E+03  0.00000000000E+00 0. -1.
         25    2    1    2    0    0  0.00000000000E+00  0.00000000000E+00 -0.30806988375E+03  0.33246676125E+03  0.12500837596E+03 0.  0.
          4    1    3    3  501    0  0.54748942123E+02  0.20260523795E+02 -0.94777820993E+02  0.11132463043E+03  0.15500000000E+01 0.  1.
         -4    1    3    3    0  501 -0.54748942123E+02 -0.20260523795E+02 -0.21329206276E+03  0.22114213082E+03  0.15500000000E+01 0.  1.
<mgrwt>
<rscale>  2 0.12500838E+03</rscale>
<asrwt>0</asrwt>
<pdfrwt beam="1">  1       21 0.18766828E-02 0.12500838E+03</pdfrwt>
<pdfrwt beam="2">  1       21 0.49272051E-01 0.12500838E+03</pdfrwt>
<totfact> 0.52848869E+06</totfact>
</mgrwt>
</event>
<event>
 5    0  0.1560327E+000  0.1250051E+03  0.7546771E-02  0.1235061E+00
         21   -1    0    0  503  502  0.00000000000E+00  0.00000000000E+00  0.33286959451E+02  0.33286959451E+02  0.00000000000E+00 0. -1.
         21   -1    0    0  502  503 -0.00000000000E+00 -0.00000000000E+00 -0.11736037743E+03  0.11736037743E+03  0.00000000000E+00 0. -1.
         25    2    1    2    0    0  0.00000000000E+00  0.00000000000E+00 -0.84073417982E+02  0.15064733688E+03  0.12500512189E+03 0.  0.
          4    1    3    3  501    0 -0.62391992639E+02  0.32641190860E+01 -0.40991363820E+02  0.74740281152E+02  0.15500000000E+01 0.  1.
         -4    1    3    3    0  501  0.62391992639E+02 -0.32641190860E+01 -0.43082054162E+02  0.75907055731E+02  0.15500000000E+01 0.  1.
<mgrwt>
<rscale>  2 0.12500512E+03</rscale>
<asrwt>0</asrwt>
<pdfrwt beam="1">  1       21 0.51210708E-02 0.12500512E+03</pdfrwt>
<pdfrwt beam="2">  1       21 0.18055442E-01 0.12500512E+03</pdfrwt>
<totfact> 0.70668765E+06</totfact>
</mgrwt>
</event>
<event>
 5    0  0.1449558E+000  0.1249993E+03  0.7546771E-02  0.1235070E+00
         21   -1    0    0  503  502  0.00000000000E+00  0.00000000000E+00  0.26488466775E+02  0.26488466775E+02  0.00000000000E+00 0. -1.
         21   -1    0    0  502  503 -0.00000000000E+00 -0.00000000000E+00 -0.14746807390E+03  0.14746807390E+03  0.00000000000E+00 0. -1.
         25    2    1    2    0    0  0.00000000000E+00  0.00000000000E+00 -0.12097960712E+03  0.17395654067E+03  0.12499925081E+03 0.  0.
          4    1    3    3  501    0  0.33456642300E+02 -0.71924649511E+01  0.12259877855E+02  0.36383864158E+02  0.15500000000E+01 0. -1.
         -4    1    3    3    0  501 -0.33456642300E+02  0.71924649511E+01 -0.13323948498E+03  0.13757267652E+03  0.15500000000E+01 0. -1.
<mgrwt>
<rscale>  2 0.12499925E+03</rscale>
<asrwt>0</asrwt>
<pdfrwt beam="1">  1       21 0.40751487E-02 0.12499925E+03</pdfrwt>
<pdfrwt beam="2">  1       21 0.22687396E-01 0.12499925E+03</pdfrwt>
<totfact> 0.67852967E+06</totfact>
</mgrwt>
</event>
<event>
 5    0  0.1381290E+000  0.1249985E+03  0.7546771E-02  0.1235072E+00
         21   -1    0    0  503  502  0.00000000000E+00  0.00000000000E+00  0.28313444513E+03  0.28313444513E+03  0.00000000000E+00 0. -1.
         21   -1    0    0  502  503 -0.00000000000E+00 -0.00000000000E+00 -0.13796111800E+02  0.13796111800E+02  0.00000000000E+00 0. -1.
         25    2    1    2    0    0  0.00000000000E+00  0.00000000000E+00  0.26933833333E+03  0.29693055693E+03  0.12499847134E+03 0.  0.
          4    1    3    3  501    0  0.45538789366E+02 -0.86049565556E+00  0.33071351462E+02  0.56308423679E+02  0.15500000000E+01 0. -1.
         -4    1    3    3    0  501 -0.45538789366E+02  0.86049565556E+00  0.23626698186E+03  0.24062213325E+03  0.15500000000E+01 0. -1.
<mgrwt>
<rscale>  2 0.12499847E+03</rscale>
<asrwt>0</asrwt>
<pdfrwt beam="1">  1       21 0.43559141E-01 0.12499847E+03</pdfrwt>
<pdfrwt beam="2">  1       21 0.21224790E-02 0.12499847E+03</pdfrwt>
<totfact> 0.55714367E+06</totfact>
</mgrwt>
</event>
<event>
 5    0  0.1524051E+000  0.1249766E+03  0.7546771E-02  0.1235106E+00
         21   -1    0    0  503  502  0.00000000000E+00  0.00000000000E+00  0.36158790432E+02  0.36158790432E+02  0.00000000000E+00 0. -1.
         21   -1    0    0  502  503 -0.00000000000E+00 -0.00000000000E+00 -0.10798999926E+03  0.10798999926E+03  0.00000000000E+00 0. -1.
         25    2    1    2    0    0  0.00000000000E+00  0.00000000000E+00 -0.71831208826E+02  0.14414878969E+03  0.12497660184E+03 0.  0.
          4    1    3    3  501    0 -0.17240848035E+02 -0.50709740574E+02 -0.72998298148E+02  0.90553181405E+02  0.15500000000E+01 0. -1.
         -4    1    3    3    0  501  0.17240848035E+02  0.50709740574E+02  0.11670893215E+01  0.53595608286E+02  0.15500000000E+01 0. -1.
<mgrwt>
<rscale>  2 0.12497660E+03</rscale>
<asrwt>0</asrwt>
<pdfrwt beam="1">  1       21 0.55628908E-02 0.12497660E+03</pdfrwt>
<pdfrwt beam="2">  1       21 0.16613846E-01 0.12497660E+03</pdfrwt>
<totfact> 0.71544837E+06</totfact>
</mgrwt>
</event>
<event>
 5    0  0.1222151E+000  0.1250033E+03  0.7546771E-02  0.1235064E+00
         21   -1    0    0  503  502  0.00000000000E+00  0.00000000000E+00  0.11234175016E+04  0.11234175016E+04  0.00000000000E+00 0. -1.
         21   -1    0    0  502  503 -0.00000000000E+00 -0.00000000000E+00 -0.34772981996E+01  0.34772981996E+01  0.00000000000E+00 0. -1.
         25    2    1    2    0    0  0.00000000000E+00  0.00000000000E+00  0.11199402034E+04  0.11268947998E+04  0.12500332245E+03 0.  0.
          4    1    3    3  501    0  0.62462939473E+02  0.13664732505E+01  0.56677083342E+03  0.57020616111E+03  0.15500000000E+01 0.  1.
         -4    1    3    3    0  501 -0.62462939473E+02 -0.13664732505E+01  0.55316936994E+03  0.55668863864E+03  0.15500000000E+01 0.  1.
<mgrwt>
<rscale>  2 0.12500332E+03</rscale>
<asrwt>0</asrwt>
<pdfrwt beam="1">  1       21 0.17283317E+00 0.12500332E+03</pdfrwt>
<pdfrwt beam="2">  1       21 0.53496985E-03 0.12500332E+03</pdfrwt>
<totfact> 0.20661325E+06</totfact>
</mgrwt>
</event>
<event>
 5    0  0.1490604E+000  0.1250040E+03  0.7546771E-02  0.1235063E+00
         21   -1    0    0  503  502  0.00000000000E+00  0.00000000000E+00  0.17466969055E+02  0.17466969055E+02  0.00000000000E+00 0.  1.
         21   -1    0    0  502  503 -0.00000000000E+00 -0.00000000000E+00 -0.22365055750E+03  0.22365055750E+03  0.00000000000E+00 0.  1.
         25    2    1    2    0    0  0.00000000000E+00  0.00000000000E+00 -0.20618358844E+03  0.24111752655E+03  0.12500395781E+03 0.  0.
          4    1    3    3  501    0 -0.36750731024E+02  0.39170102840E+02 -0.41513051081E+02  0.67901760635E+02  0.15500000000E+01 0.  1.
         -4    1    3    3    0  501  0.36750731024E+02 -0.39170102840E+02 -0.16467053736E+03  0.17321576592E+03  0.15500000000E+01 0.  1.
<mgrwt>
<rscale>  2 0.12500396E+03</rscale>
<asrwt>0</asrwt>
<pdfrwt beam="1">  1       21 0.26872262E-02 0.12500396E+03</pdfrwt>
<pdfrwt beam="2">  1       21 0.34407776E-01 0.12500396E+03</pdfrwt>
<totfact> 0.60718629E+06</totfact>
</mgrwt>
</event>
<event>
 5    0  0.1495485E+000  0.1249993E+03  0.7546771E-02  0.1235070E+00
         21   -1    0    0  503  502  0.00000000000E+00  0.00000000000E+00  0.35082405081E+02  0.35082405081E+02  0.00000000000E+00 0. -1.
         21   -1    0    0  502  503 -0.00000000000E+00 -0.00000000000E+00 -0.11134373623E+03  0.11134373623E+03  0.00000000000E+00 0. -1.
         25    2    1    2    0    0  0.00000000000E+00  0.00000000000E+00 -0.76261331151E+02  0.14642614131E+03  0.12499929692E+03 0.  0.
          4    1    3    3  501    0  0.15497799484E+02 -0.23961153911E+02 -0.10324162339E+03  0.10712401218E+03  0.15500000000E+01 0.  1.
         -4    1    3    3    0  501 -0.15497799484E+02  0.23961153911E+02  0.26980292235E+02  0.39302129136E+02  0.15500000000E+01 0.  1.
<mgrwt>
<rscale>  2 0.12499930E+03</rscale>
<asrwt>0</asrwt>
<pdfrwt beam="1">  1       21 0.53972931E-02 0.12499930E+03</pdfrwt>
<pdfrwt beam="2">  1       21 0.17129805E-01 0.12499930E+03</pdfrwt>
<totfact> 0.71212360E+06</totfact>
</mgrwt>
</event>
<event>
 5    0  0.1494659E+000  0.1249966E+03  0.7546771E-02  0.1235075E+00
         21   -1    0    0  503  502  0.00000000000E+00  0.00000000000E+00  0.14584294487E+03  0.14584294487E+03  0.00000000000E+00 0. -1.
         21   -1    0    0  502  503 -0.00000000000E+00 -0.00000000000E+00 -0.26782475189E+02  0.26782475189E+02  0.00000000000E+00 0. -1.
         25    2    1    2    0    0  0.00000000000E+00  0.00000000000E+00  0.11906046968E+03  0.17262542006E+03  0.12499656079E+03 0.  0.
          4    1    3    3  501    0 -0.49517157727E+02  0.12251129539E+02  0.10935489725E+03  0.12067698678E+03  0.15500000000E+01 0.  1.
         -4    1    3    3    0  501  0.49517157727E+02 -0.12251129539E+02  0.97055724273E+01  0.51948433282E+02  0.15500000000E+01 0.  1.
<mgrwt>
<rscale>  2 0.12499656E+03</rscale>
<asrwt>0</asrwt>
<pdfrwt beam="1">  1       21 0.22437376E-01 0.12499656E+03</pdfrwt>
<pdfrwt beam="2">  1       21 0.41203809E-02 0.12499656E+03</pdfrwt>
<totfact> 0.68013699E+06</totfact>
</mgrwt>
</event>
<event>
 5    0  0.1508362E+000  0.1249971E+03  0.7546771E-02  0.1235074E+00
         21   -1    0    0  503  502  0.00000000000E+00  0.00000000000E+00  0.45984839389E+02  0.45984839389E+02  0.00000000000E+00 0.  1.
         21   -1    0    0  502  503 -0.00000000000E+00 -0.00000000000E+00 -0.84942560882E+02  0.84942560882E+02  0.00000000000E+00 0.  1.
         25    2    1    2    0    0  0.00000000000E+00  0.00000000000E+00 -0.38957721493E+02  0.13092740027E+03  0.12499712028E+03 0.  0.
          4    1    3    3  501    0  0.30421617242E+02 -0.40180217440E+02  0.19202057936E+02  0.53954111967E+02  0.15500000000E+01 0. -1.
         -4    1    3    3    0  501 -0.30421617242E+02  0.40180217440E+02 -0.58159779429E+02  0.76973288304E+02  0.15500000000E+01 0. -1.
<mgrwt>
<rscale>  2 0.12499712E+03</rscale>
<asrwt>0</asrwt>
<pdfrwt beam="1">  1       21 0.70745907E-02 0.12499712E+03</pdfrwt>
<pdfrwt beam="2">  1       21 0.13068086E-01 0.12499712E+03</pdfrwt>
<totfact> 0.73245837E+06</totfact>
</mgrwt>
</event>
<event>
 5    0  0.1468893E+000  0.1250062E+03  0.7546771E-02  0.1235060E+00
         21   -1    0    0  503  502  0.00000000000E+00  0.00000000000E+00  0.15533278620E+03  0.15533278620E+03  0.00000000000E+00 0.  1.
         21   -1    0    0  502  503 -0.00000000000E+00 -0.00000000000E+00 -0.25150119658E+02  0.25150119658E+02  0.00000000000E+00 0.  1.
         25    2    1    2    0    0  0.00000000000E+00  0.00000000000E+00  0.13018266654E+03  0.18048290585E+03  0.12500621040E+03 0.  0.
          4    1    3    3  501    0 -0.40512629808E+02  0.46641730447E+02  0.51585015408E+02  0.80499319921E+02  0.15500000000E+01 0. -1.
         -4    1    3    3    0  501  0.40512629808E+02 -0.46641730447E+02  0.78597651130E+02  0.99983585934E+02  0.15500000000E+01 0. -1.
<mgrwt>
<rscale>  2 0.12500621E+03</rscale>
<asrwt>0</asrwt>
<pdfrwt beam="1">  1       21 0.23897351E-01 0.12500621E+03</pdfrwt>
<pdfrwt beam="2">  1       21 0.38692493E-02 0.12500621E+03</pdfrwt>
<totfact> 0.67085615E+06</totfact>
</mgrwt>
</event>
<event>
 5    0  0.1593954E+000  0.1249902E+03  0.7546771E-02  0.1235085E+00
         21   -1    0    0  503  502  0.00000000000E+00  0.00000000000E+00  0.10648015304E+03  0.10648015304E+03  0.00000000000E+00 0.  1.
         21   -1    0    0  502  503 -0.00000000000E+00 -0.00000000000E+00 -0.36679501813E+02  0.36679501813E+02  0.00000000000E+00 0.  1.
         25    2    1    2    0    0  0.00000000000E+00  0.00000000000E+00  0.69800651230E+02  0.14315965486E+03  0.12499022308E+03 0.  0.
          4    1    3    3  501    0 -0.13820669767E+02  0.56079827817E+02  0.62180224008E+02  0.84880744333E+02  0.15500000000E+01 0. -1.
         -4    1    3    3    0  501  0.13820669767E+02 -0.56079827817E+02  0.76204272224E+01  0.58278910524E+02  0.15500000000E+01 0. -1.
<mgrwt>
<rscale>  2 0.12499022E+03</rscale>
<asrwt>0</asrwt>
<pdfrwt beam="1">  1       21 0.16381562E-01 0.12499022E+03</pdfrwt>
<pdfrwt beam="2">  1       21 0.56430003E-02 0.12499022E+03</pdfrwt>
<totfact> 0.71647299E+06</totfact>
</mgrwt>
</event>
<event>
 4    0  0.1674585E+000  0.1247096E+03  0.7546771E-02  0.1235524E+00
         21   -1    0    0  503  502  0.00000000000E+00  0.00000000000E+00  0.33901200240E+03  0.33901200240E+03  0.00000000000E+00 0. -1.
         21   -1    0    0  502  503 -0.00000000000E+00 -0.00000000000E+00 -0.11468982203E+02  0.11468982203E+02  0.00000000000E+00 0. -1.
          4    1    1    2  501    0  0.42459835438E+02 -0.13074697454E+02  0.40885901371E+02  0.60397390423E+02  0.15500000000E+01 0.  1.
         -4    1    1    2    0  501 -0.42459835438E+02  0.13074697454E+02  0.28665711883E+03  0.29008359418E+03  0.15500000000E+01 0.  1.
<mgrwt>
<rscale>  2 0.12470962E+03</rscale>
<asrwt>0</asrwt>
<pdfrwt beam="1">  1       21 0.52155685E-01 0.12470962E+03</pdfrwt>
<pdfrwt beam="2">  1       21 0.17644591E-02 0.12470962E+03</pdfrwt>
<totfact> 0.51879319E+06</totfact>
</mgrwt>
</event>
<event>
 5    0  0.1483913E+000  0.1249845E+03  0.7546771E-02  0.1235094E+00
         21   -1    0    0  503  502  0.00000000000E+00  0.00000000000E+00  0.11043237798E+03  0.11043237798E+03  0.00000000000E+00 0.  1.
         21   -1    0    0  502  503 -0.00000000000E+00 -0.00000000000E+00 -0.35363536054E+02  0.35363536054E+02  0.00000000000E+00 0.  1.
         25    2    1    2    0    0  0.00000000000E+00  0.00000000000E+00  0.75068841925E+02  0.14579591403E+03  0.12498446912E+03 0.  0.
          4    1    3    3  501    0  0.35130251844E+02  0.97466090731E+01  0.96714036136E+02  0.10336894248E+03  0.15500000000E+01 0. -1.
         -4    1    3    3    0  501 -0.35130251844E+02 -0.97466090731E+01 -0.21645194211E+02  0.42426971557E+02  0.15500000000E+01 0. -1.
<mgrwt>
<rscale>  2 0.12498447E+03</rscale>
<asrwt>0</asrwt>
<pdfrwt beam="1">  1       21 0.16989596E-01 0.12498447E+03</pdfrwt>
<pdfrwt beam="2">  1       21 0.54405441E-02 0.12498447E+03</pdfrwt>
<totfact> 0.71319599E+06</totfact>
</mgrwt>
</event>
<event>
 5    0  0.1283647E+000  0.1250012E+03  0.7546771E-02  0.1235067E+00
         21   -1    0    0  503  502  0.00000000000E+00  0.00000000000E+00  0.57186645830E+03  0.57186645830E+03  0.00000000000E+00 0.  1.
         21   -1    0    0  502  503 -0.00000000000E+00 -0.00000000000E+00 -0.68308394032E+01  0.68308394032E+01  0.00000000000E+00 0.  1.
         25    2    1    2    0    0  0.00000000000E+00  0.00000000000E+00  0.56503561890E+03  0.57869729771E+03  0.12500124698E+03 0.  0.
          4    1    3    3  501    0  0.13297584451E+02 -0.46958589817E+02  0.46312834633E+03  0.46569539678E+03  0.15500000000E+01 0.  1.
         -4    1    3    3    0  501 -0.13297584451E+02  0.46958589817E+02  0.10190727257E+03  0.11300190092E+03  0.15500000000E+01 0.  1.
<mgrwt>
<rscale>  2 0.12500125E+03</rscale>
<asrwt>0</asrwt>
<pdfrwt beam="1">  1       21 0.87979417E-01 0.12500125E+03</pdfrwt>
<pdfrwt beam="2">  1       21 0.10508988E-02 0.12500125E+03</pdfrwt>
<totfact> 0.38072918E+06</totfact>
</mgrwt>
</event>
<event>
 5    0  0.1533535E+000  0.1249685E+03  0.7546771E-02  0.1235119E+00
         21   -1    0    0  503  502  0.00000000000E+00  0.00000000000E+00  0.21122348127E+03  0.21122348127E+03  0.00000000000E+00 0. -1.
         21   -1    0    0  502  503 -0.00000000000E+00 -0.00000000000E+00 -0.18484122608E+02  0.18484122608E+02  0.00000000000E+00 0. -1.
         25    2    1    2    0    0  0.00000000000E+00  0.00000000000E+00  0.19273935866E+03  0.22970760388E+03  0.12496848763E+03 0.  0.
          4    1    3    3  501    0 -0.52237432181E+02  0.19275679325E+02  0.44328454925E+02  0.71187889071E+02  0.15500000000E+01 0.  1.
         -4    1    3    3    0  501  0.52237432181E+02 -0.19275679325E+02  0.14841090374E+03  0.15851971481E+03  0.15500000000E+01 0.  1.
<mgrwt>
<rscale>  2 0.12496849E+03</rscale>
<asrwt>0</asrwt>
<pdfrwt beam="1">  1       21 0.32495919E-01 0.12496849E+03</pdfrwt>
<pdfrwt beam="2">  1       21 0.28437113E-02 0.12496849E+03</pdfrwt>
<totfact> 0.61892314E+06</totfact>
</mgrwt>
</event>
<event>
 5    0  0.1539487E+000  0.1249529E+03  0.7546771E-02  0.1235143E+00
         21   -1    0    0  503  502  0.00000000000E+00  0.00000000000E+00  0.24998432904E+02  0.24998432904E+02  0.00000000000E+00 0.  1.
         21   -1    0    0  502  503 -0.00000000000E+00 -0.00000000000E+00 -0.15614201994E+03  0.15614201994E+03  0.00000000000E+00 0.  1.
         25    2    1    2    0    0  0.00000000000E+00  0.00000000000E+00 -0.13114358704E+03  0.18114045285E+03  0.12495288407E+03 0.  0.
          4    1    3    3  501    0  0.51726918096E+02 -0.34971132615E+02 -0.67745881512E+02  0.92144240916E+02  0.15500000000E+01 0.  1.
         -4    1    3    3    0  501 -0.51726918096E+02  0.34971132615E+02 -0.63397705528E+02  0.88996211932E+02  0.15500000000E+01 0.  1.
<mgrwt>
<rscale>  2 0.12495288E+03</rscale>
<asrwt>0</asrwt>
<pdfrwt beam="1">  1       21 0.38459126E-02 0.12495288E+03</pdfrwt>
<pdfrwt beam="2">  1       21 0.24021850E-01 0.12495288E+03</pdfrwt>
<totfact> 0.67101093E+06</totfact>
</mgrwt>
</event>
<event>
 5    0  0.1352930E+000  0.1250067E+03  0.7546771E-02  0.1235059E+00
         21   -1    0    0  503  502  0.00000000000E+00  0.00000000000E+00  0.95050991888E+01  0.95050991888E+01  0.00000000000E+00 0. -1.
         21   -1    0    0  502  503 -0.00000000000E+00 -0.00000000000E+00 -0.41100751068E+03  0.41100751068E+03  0.00000000000E+00 0. -1.
         25    2    1    2    0    0  0.00000000000E+00  0.00000000000E+00 -0.40150241149E+03  0.42051260987E+03  0.12500667432E+03 0.  0.
          4    1    3    3  501    0  0.50260206270E+02 -0.11654833199E+02 -0.31931886974E+03  0.32346385663E+03  0.15500000000E+01 0.  1.
         -4    1    3    3    0  501 -0.50260206270E+02  0.11654833199E+02 -0.82183541750E+02  0.97048753241E+02  0.15500000000E+01 0.  1.
<mgrwt>
<rscale>  2 0.12500667E+03</rscale>
<asrwt>0</asrwt>
<pdfrwt beam="1">  1       21 0.14623230E-02 0.12500667E+03</pdfrwt>
<pdfrwt beam="2">  1       21 0.63231922E-01 0.12500667E+03</pdfrwt>
<totfact> 0.46702098E+06</totfact>
</mgrwt>
</event>
<event>
 5    0  0.1579377E+000  0.1250015E+03  0.7546771E-02  0.1235067E+00
         21   -1    0    0  503  502  0.00000000000E+00  0.00000000000E+00  0.41836997502E+02  0.41836997502E+02  0.00000000000E+00 0.  1.
         21   -1    0    0  502  503 -0.00000000000E+00 -0.00000000000E+00 -0.93370497749E+02  0.93370497749E+02  0.00000000000E+00 0.  1.
         25    2    1    2    0    0  0.00000000000E+00  0.00000000000E+00 -0.51533500247E+02  0.13520749525E+03  0.12500146049E+03 0.  0.
          4    1    3    3  501    0 -0.40959995421E+02  0.33620651291E+02 -0.61573514054E+02  0.81251274151E+02  0.15500000000E+01 0. -1.
         -4    1    3    3    0  501  0.40959995421E+02 -0.33620651291E+02  0.10040013807E+02  0.53956221100E+02  0.15500000000E+01 0. -1.
<mgrwt>
<rscale>  2 0.12500146E+03</rscale>
<asrwt>0</asrwt>
<pdfrwt beam="1">  1       21 0.64364612E-02 0.12500146E+03</pdfrwt>
<pdfrwt beam="2">  1       21 0.14364692E-01 0.12500146E+03</pdfrwt>
<totfact> 0.72666303E+06</totfact>
</mgrwt>
</event>
<event>
 5    0  0.1319443E+000  0.1249998E+03  0.7546771E-02  0.1235070E+00
         21   -1    0    0  503  502  0.00000000000E+00  0.00000000000E+00  0.64468914284E+03  0.64468914284E+03  0.00000000000E+00 0. -1.
         21   -1    0    0  502  503 -0.00000000000E+00 -0.00000000000E+00 -0.60591006141E+01  0.60591006141E+01  0.00000000000E+00 0. -1.
         25    2    1    2    0    0  0.00000000000E+00  0.00000000000E+00  0.63863004222E+03  0.65074824345E+03  0.12499978210E+03 0.  0.
          4    1    3    3  501    0 -0.58373894862E+02 -0.16343641700E+02  0.39813173220E+03  0.40272311197E+03  0.15500000000E+01 0.  1.
         -4    1    3    3    0  501  0.58373894862E+02  0.16343641700E+02  0.24049831002E+03  0.24802513148E+03  0.15500000000E+01 0.  1.
<mgrwt>
<rscale>  2 0.12499978E+03</rscale>
<asrwt>0</asrwt>
<pdfrwt beam="1">  1       21 0.99182891E-01 0.12499978E+03</pdfrwt>
<pdfrwt beam="2">  1       21 0.93216983E-03 0.12499978E+03</pdfrwt>
<totfact> 0.34893636E+06</totfact>
</mgrwt>
</event>
<event>
 5    0  0.1334168E+000  0.1250117E+03  0.7546771E-02  0.1235051E+00
         21   -1    0    0  503  502  0.00000000000E+00  0.00000000000E+00  0.50137581380E+03  0.50137581380E+03  0.00000000000E+00 0. -1.
         21   -1    0    0  502  503 -0.00000000000E+00 -0.00000000000E+00 -0.77925206990E+01  0.77925206990E+01  0.00000000000E+00 0. -1.
         25    2    1    2    0    0  0.00000000000E+00  0.00000000000E+00  0.49358329311E+03  0.50916833450E+03  0.12501170197E+03 0.  0.
          4    1    3    3  501    0  0.32004398608E+02  0.40239131156E+02  0.39143122655E+03  0.39479650053E+03  0.15500000000E+01 0.  1.
         -4    1    3    3    0  501 -0.32004398608E+02 -0.40239131156E+02  0.10215206655E+03  0.11437183398E+03  0.15500000000E+01 0.  1.
<mgrwt>
<rscale>  2 0.12501170E+03</rscale>
<asrwt>0</asrwt>
<pdfrwt beam="1">  1       21 0.77134715E-01 0.12501170E+03</pdfrwt>
<pdfrwt beam="2">  1       21 0.11988497E-02 0.12501170E+03</pdfrwt>
<totfact> 0.41539083E+06</totfact>
</mgrwt>
</event>
<event>
 5    0  0.1400819E+000  0.1250026E+03  0.7546771E-02  0.1235065E+00
         21   -1    0    0  503  502  0.00000000000E+00  0.00000000000E+00  0.90131312317E+01  0.90131312317E+01  0.00000000000E+00 0. -1.
         21   -1    0    0  502  503 -0.00000000000E+00 -0.00000000000E+00 -0.43341377315E+03  0.43341377315E+03  0.00000000000E+00 0. -1.
         25    2    1    2    0    0  0.00000000000E+00  0.00000000000E+00 -0.42440064192E+03  0.44242690439E+03  0.12500264341E+03 0.  0.
          4    1    3    3  501    0  0.21414369453E+02  0.58056389460E+02 -0.18157057829E+03  0.19183168919E+03  0.15500000000E+01 0.  1.
         -4    1    3    3    0  501 -0.21414369453E+02 -0.58056389460E+02 -0.24283006363E+03  0.25059521520E+03  0.15500000000E+01 0.  1.
<mgrwt>
<rscale>  2 0.12500264E+03</rscale>
<asrwt>0</asrwt>
<pdfrwt beam="1">  1       21 0.13866357E-02 0.12500264E+03</pdfrwt>
<pdfrwt beam="2">  1       21 0.66679034E-01 0.12500264E+03</pdfrwt>
<totfact> 0.45345909E+06</totfact>
</mgrwt>
</event>
<event>
 5    0  0.1471969E+000  0.1250531E+03  0.7546771E-02  0.1234986E+00
         21   -1    0    0  503  502  0.00000000000E+00  0.00000000000E+00  0.27671751303E+02  0.27671751303E+02  0.00000000000E+00 0.  1.
         21   -1    0    0  502  503 -0.00000000000E+00 -0.00000000000E+00 -0.14128366195E+03  0.14128366195E+03  0.00000000000E+00 0.  1.
         25    2    1    2    0    0  0.00000000000E+00  0.00000000000E+00 -0.11361191065E+03  0.16895541326E+03  0.12505305045E+03 0.  0.
          4    1    3    3  501    0  0.39844186330E+02 -0.46624154109E+02 -0.73119414001E+02  0.95447483647E+02  0.15500000000E+01 0. -1.
         -4    1    3    3    0  501 -0.39844186330E+02  0.46624154109E+02 -0.40492496649E+02  0.73507929610E+02  0.15500000000E+01 0. -1.
<mgrwt>
<rscale>  2 0.12505305E+03</rscale>
<asrwt>0</asrwt>
<pdfrwt beam="1">  1       21 0.42571925E-02 0.12505305E+03</pdfrwt>
<pdfrwt beam="2">  1       21 0.21735948E-01 0.12505305E+03</pdfrwt>
<totfact> 0.68349311E+06</totfact>
</mgrwt>
</event>
<event>
 5    0  0.1589073E+000  0.1249986E+03  0.7546771E-02  0.1235071E+00
         21   -1    0    0  503  502  0.00000000000E+00  0.00000000000E+00  0.11425560524E+03  0.11425560524E+03  0.00000000000E+00 0.  1.
         21   -1    0    0  502  503 -0.00000000000E+00 -0.00000000000E+00 -0.34187934407E+02  0.34187934407E+02  0.00000000000E+00 0.  1.
         25    2    1    2    0    0  0.00000000000E+00  0.00000000000E+00  0.80067670834E+02  0.14844353965E+03  0.12499861019E+03 0.  0.
          4    1    3    3  501    0  0.52138659389E+02  0.24968718173E+02  0.68183902213E+02  0.89405389720E+02  0.15500000000E+01 0. -1.
         -4    1    3    3    0  501 -0.52138659389E+02 -0.24968718173E+02  0.11883768621E+02  0.59038149927E+02  0.15500000000E+01 0. -1.
<mgrwt>
<rscale>  2 0.12499861E+03</rscale>
<asrwt>0</asrwt>
<pdfrwt beam="1">  1       21 0.17577785E-01 0.12499861E+03</pdfrwt>
<pdfrwt beam="2">  1       21 0.52596823E-02 0.12499861E+03</pdfrwt>
<totfact> 0.70957783E+06</totfact>
</mgrwt>
</event>
<event>
 5    0  0.1454845E+000  0.1249931E+03  0.7546771E-02  0.1235080E+00
         21   -1    0    0  503  502  0.00000000000E+00  0.00000000000E+00  0.12319444698E+03  0.12319444698E+03  0.00000000000E+00 0.  1.
         21   -1    0    0  502  503 -0.00000000000E+00 -0.00000000000E+00 -0.31704527272E+02  0.31704527272E+02  0.00000000000E+00 0.  1.
         25    2    1    2    0    0  0.00000000000E+00  0.00000000000E+00  0.91489919704E+02  0.15489897425E+03  0.12499314707E+03 0.  0.
          4    1    3    3  501    0 -0.56617484958E+01 -0.31220375823E+02 -0.20952684550E+02  0.38055022697E+02  0.15500000000E+01 0. -1.
         -4    1    3    3    0  501  0.56617484958E+01  0.31220375823E+02  0.11244260425E+03  0.11684395155E+03  0.15500000000E+01 0. -1.
<mgrwt>
<rscale>  2 0.12499315E+03</rscale>
<asrwt>0</asrwt>
<pdfrwt beam="1">  1       21 0.18952992E-01 0.12499315E+03</pdfrwt>
<pdfrwt beam="2">  1       21 0.48776196E-02 0.12499315E+03</pdfrwt>
<totfact> 0.70160447E+06</totfact>
</mgrwt>
</event>
<event>
 5    0  0.1525326E+000  0.1250333E+03  0.7546771E-02  0.1235017E+00
         21   -1    0    0  503  502  0.00000000000E+00  0.00000000000E+00  0.48380480680E+02  0.48380480680E+02  0.00000000000E+00 0.  1.
         21   -1    0    0  502  503 -0.00000000000E+00 -0.00000000000E+00 -0.80783262702E+02  0.80783262702E+02  0.00000000000E+00 0.  1.
         25    2    1    2    0    0  0.00000000000E+00  0.00000000000E+00 -0.32402782022E+02  0.12916374338E+03  0.12503332484E+03 0.  0.
          4    1    3    3  501    0  0.39718192851E+02 -0.35860288018E+02  0.17151957039E+02  0.56214653164E+02  0.15500000000E+01 0. -1.
         -4    1    3    3    0  501 -0.39718192851E+02  0.35860288018E+02 -0.49554739061E+02  0.72949090217E+02  0.15500000000E+01 0. -1.
<mgrwt>
<rscale>  2 0.12503332E+03</rscale>
<asrwt>0</asrwt>
<pdfrwt beam="1">  1       21 0.74431510E-02 0.12503332E+03</pdfrwt>
<pdfrwt beam="2">  1       21 0.12428194E-01 0.12503332E+03</pdfrwt>
<totfact> 0.73414418E+06</totfact>
</mgrwt>
</event>
<event>
 5    0  0.1430765E+000  0.1249985E+03  0.7546771E-02  0.1235072E+00
         21   -1    0    0  503  502  0.00000000000E+00  0.00000000000E+00  0.24710311342E+03  0.24710311342E+03  0.00000000000E+00 0. -1.
         21   -1    0    0  502  503 -0.00000000000E+00 -0.00000000000E+00 -0.15807808141E+02  0.15807808141E+02  0.00000000000E+00 0. -1.
         25    2    1    2    0    0  0.00000000000E+00  0.00000000000E+00  0.23129530528E+03  0.26291092157E+03  0.12499853772E+03 0.  0.
          4    1    3    3  501    0  0.37535136595E+02 -0.43660524067E+02  0.64617807318E+02  0.86562066539E+02  0.15500000000E+01 0. -1.
         -4    1    3    3    0  501 -0.37535136595E+02  0.43660524067E+02  0.16667749797E+03  0.17634885503E+03  0.15500000000E+01 0. -1.
<mgrwt>
<rscale>  2 0.12499854E+03</rscale>
<asrwt>0</asrwt>
<pdfrwt beam="1">  1       21 0.38015861E-01 0.12499854E+03</pdfrwt>
<pdfrwt beam="2">  1       21 0.24319707E-02 0.12499854E+03</pdfrwt>
<totfact> 0.58685655E+06</totfact>
</mgrwt>
</event>
<event>
 5    0  0.1485268E+000  0.1249983E+03  0.7546771E-02  0.1235072E+00
         21   -1    0    0  503  502  0.00000000000E+00  0.00000000000E+00  0.27085289573E+02  0.27085289573E+02  0.00000000000E+00 0.  1.
         21   -1    0    0  502  503 -0.00000000000E+00 -0.00000000000E+00 -0.14421647618E+03  0.14421647618E+03  0.00000000000E+00 0.  1.
         25    2    1    2    0    0  0.00000000000E+00  0.00000000000E+00 -0.11713118661E+03  0.17130176576E+03  0.12499832029E+03 0.  0.
          4    1    3    3  501    0  0.16048753300E+02  0.21496069691E+02  0.18764929340E+02  0.32774510947E+02  0.15500000000E+01 0. -1.
         -4    1    3    3    0  501 -0.16048753300E+02 -0.21496069691E+02 -0.13589611595E+03  0.13852725481E+03  0.15500000000E+01 0. -1.
<mgrwt>
<rscale>  2 0.12499832E+03</rscale>
<asrwt>0</asrwt>
<pdfrwt beam="1">  1       21 0.41669675E-02 0.12499832E+03</pdfrwt>
<pdfrwt beam="2">  1       21 0.22187151E-01 0.12499832E+03</pdfrwt>
<totfact> 0.68166559E+06</totfact>
</mgrwt>
</event>
<event>
 5    0  0.1361251E+000  0.1250057E+03  0.7546771E-02  0.1235060E+00
         21   -1    0    0  503  502  0.00000000000E+00  0.00000000000E+00  0.47834975852E+03  0.47834975852E+03  0.00000000000E+00 0.  1.
         21   -1    0    0  502  503 -0.00000000000E+00 -0.00000000000E+00 -0.81668457072E+01  0.81668457072E+01  0.00000000000E+00 0.  1.
         25    2    1    2    0    0  0.00000000000E+00  0.00000000000E+00  0.47018291281E+03  0.48651660423E+03  0.12500573862E+03 0.  0.
          4    1    3    3  501    0 -0.14388986531E+02  0.60804207203E+02  0.23551108381E+03  0.24366384148E+03  0.15500000000E+01 0.  1.
         -4    1    3    3    0  501  0.14388986531E+02 -0.60804207203E+02  0.23467182900E+03  0.24285276275E+03  0.15500000000E+01 0.  1.
<mgrwt>
<rscale>  2 0.12500574E+03</rscale>
<asrwt>0</asrwt>
<pdfrwt beam="1">  1       21 0.73592249E-01 0.12500574E+03</pdfrwt>
<pdfrwt beam="2">  1       21 0.12564382E-02 0.12500574E+03</pdfrwt>
<totfact> 0.42778766E+06</totfact>
</mgrwt>
</event>
<event>
 5    0  0.1222151E+000  0.1250021E+03  0.7546771E-02  0.1235066E+00
         21   -1    0    0  503  502  0.00000000000E+00  0.00000000000E+00  0.21246458101E+01  0.21246458101E+01  0.00000000000E+00 0. -1.
         21   -1    0    0  502  503 -0.00000000000E+00 -0.00000000000E+00 -0.18386032922E+04  0.18386032922E+04  0.00000000000E+00 0. -1.
         25    2    1    2    0    0  0.00000000000E+00  0.00000000000E+00 -0.18364786464E+04  0.18407279381E+04  0.12500209248E+03 0.  0.
          4    1    3    3  501    0 -0.15312923201E+02 -0.33820788511E+02 -0.17819345155E+03  0.18202648166E+03  0.15500000000E+01 0.  1.
         -4    1    3    3    0  501  0.15312923201E+02  0.33820788511E+02 -0.16582851949E+04  0.16587014564E+04  0.15500000000E+01 0.  1.
<mgrwt>
<rscale>  2 0.12500209E+03</rscale>
<asrwt>0</asrwt>
<pdfrwt beam="1">  1       21 0.32686941E-03 0.12500209E+03</pdfrwt>
<pdfrwt beam="2">  1       21 0.28286133E+00 0.12500209E+03</pdfrwt>
<totfact> 0.96087040E+05</totfact>
</mgrwt>
</event>
<event>
 5    0  0.1441139E+000  0.1249992E+03  0.7546771E-02  0.1235071E+00
         21   -1    0    0  503  502  0.00000000000E+00  0.00000000000E+00  0.25433028937E+02  0.25433028937E+02  0.00000000000E+00 0.  1.
         21   -1    0    0  502  503 -0.00000000000E+00 -0.00000000000E+00 -0.15358761232E+03  0.15358761232E+03  0.00000000000E+00 0.  1.
         25    2    1    2    0    0  0.00000000000E+00  0.00000000000E+00 -0.12815458338E+03  0.17902064125E+03  0.12499917101E+03 0.  0.
          4    1    3    3  501    0  0.30750122481E+02  0.31151375989E+02 -0.22386291400E+00  0.43799895812E+02  0.15500000000E+01 0. -1.
         -4    1    3    3    0  501 -0.30750122481E+02 -0.31151375989E+02 -0.12793072047E+03  0.13522074544E+03  0.15500000000E+01 0. -1.
<mgrwt>
<rscale>  2 0.12499917E+03</rscale>
<asrwt>0</asrwt>
<pdfrwt beam="1">  1       21 0.39127736E-02 0.12499917E+03</pdfrwt>
<pdfrwt beam="2">  1       21 0.23628864E-01 0.12499917E+03</pdfrwt>
<totfact> 0.67265477E+06</totfact>
</mgrwt>
</event>
<event>
 5    0  0.1538466E+000  0.1249991E+03  0.7546771E-02  0.1235071E+00
         21   -1    0    0  503  502  0.00000000000E+00  0.00000000000E+00  0.70983111313E+02  0.70983111313E+02  0.00000000000E+00 0. -1.
         21   -1    0    0  502  503 -0.00000000000E+00 -0.00000000000E+00 -0.55029910551E+02  0.55029910551E+02  0.00000000000E+00 0. -1.
         25    2    1    2    0    0  0.00000000000E+00  0.00000000000E+00  0.15953200762E+02  0.12601302186E+03  0.12499910826E+03 0.  0.
          4    1    3    3  501    0  0.55079335034E+02 -0.13161616498E+02  0.34588267219E+02  0.66375537858E+02  0.15500000000E+01 0.  1.
         -4    1    3    3    0  501 -0.55079335034E+02  0.13161616498E+02 -0.18635066457E+02  0.59637484006E+02  0.15500000000E+01 0.  1.
<mgrwt>
<rscale>  2 0.12499911E+03</rscale>
<asrwt>0</asrwt>
<pdfrwt beam="1">  1       21 0.10920479E-01 0.12499911E+03</pdfrwt>
<pdfrwt beam="2">  1       21 0.84661401E-02 0.12499911E+03</pdfrwt>
<totfact> 0.73905924E+06</totfact>
</mgrwt>
</event>
<event>
 5    0  0.1222151E+000  0.1249993E+03  0.7546771E-02  0.1235070E+00
         21   -1    0    0  503  502  0.00000000000E+00  0.00000000000E+00  0.10191291998E+04  0.10191291998E+04  0.00000000000E+00 0.  1.
         21   -1    0    0  502  503 -0.00000000000E+00 -0.00000000000E+00 -0.38328891975E+01  0.38328891975E+01  0.00000000000E+00 0.  1.
         25    2    1    2    0    0  0.00000000000E+00  0.00000000000E+00  0.10152963106E+04  0.10229620890E+04  0.12499934881E+03 0.  0.
          4    1    3    3  501    0 -0.30097927124E+02  0.49976182995E+02  0.32459879347E+03  0.32980340100E+03  0.15500000000E+01 0. -1.
         -4    1    3    3    0  501  0.30097927124E+02 -0.49976182995E+02  0.69069751710E+03  0.69315868797E+03  0.15500000000E+01 0. -1.
<mgrwt>
<rscale>  2 0.12499935E+03</rscale>
<asrwt>0</asrwt>
<pdfrwt beam="1">  1       21 0.15678889E+00 0.12499935E+03</pdfrwt>
<pdfrwt beam="2">  1       21 0.58967607E-03 0.12499935E+03</pdfrwt>
<totfact> 0.23051086E+06</totfact>
</mgrwt>
</event>
<event>
 5    0  0.1222151E+000  0.1249982E+03  0.7546771E-02  0.1235072E+00
         21   -1    0    0  503  502  0.00000000000E+00  0.00000000000E+00  0.12082391725E+04  0.12082391725E+04  0.00000000000E+00 0.  1.
         21   -1    0    0  502  503 -0.00000000000E+00 -0.00000000000E+00 -0.32329164386E+01  0.32329164386E+01  0.00000000000E+00 0.  1.
         25    2    1    2    0    0  0.00000000000E+00  0.00000000000E+00  0.12050062560E+04  0.12114720889E+04  0.12499818050E+03 0.  0.
          4    1    3    3  501    0  0.16710277971E+02 -0.60121133042E+02  0.57193168783E+03  0.57532776925E+03  0.15500000000E+01 0.  1.
         -4    1    3    3    0  501 -0.16710277971E+02  0.60121133042E+02  0.63307456820E+03  0.63614431965E+03  0.15500000000E+01 0.  1.
<mgrwt>
<rscale>  2 0.12499818E+03</rscale>
<asrwt>0</asrwt>
<pdfrwt beam="1">  1       21 0.18588259E+00 0.12499818E+03</pdfrwt>
<pdfrwt beam="2">  1       21 0.49737273E-03 0.12499818E+03</pdfrwt>
<totfact> 0.18917139E+06</totfact>
</mgrwt>
</event>
<event>
 5    0  0.1629206E+000  0.1249984E+03  0.7546771E-02  0.1235072E+00
         21   -1    0    0  503  502  0.00000000000E+00  0.00000000000E+00  0.29069304025E+02  0.29069304025E+02  0.00000000000E+00 0. -1.
         21   -1    0    0  502  503 -0.00000000000E+00 -0.00000000000E+00 -0.13437373655E+03  0.13437373655E+03  0.00000000000E+00 0. -1.
         25    2    1    2    0    0  0.00000000000E+00  0.00000000000E+00 -0.10530443253E+03  0.16344304058E+03  0.12499841600E+03 0.  0.
          4    1    3    3  501    0 -0.42515086031E+02 -0.25729106336E+02 -0.10217113811E+03  0.11362598038E+03  0.15500000000E+01 0.  1.
         -4    1    3    3    0  501  0.42515086031E+02  0.25729106336E+02 -0.31332944137E+01  0.49817060200E+02  0.15500000000E+01 0.  1.
<mgrwt>
<rscale>  2 0.12499842E+03</rscale>
<asrwt>0</asrwt>
<pdfrwt beam="1">  1       21 0.44722005E-02 0.12499842E+03</pdfrwt>
<pdfrwt beam="2">  1       21 0.20672883E-01 0.12499842E+03</pdfrwt>
<totfact> 0.69104003E+06</totfact>
</mgrwt>
</event>
<event>
 5    0  0.1444805E+000  0.1250025E+03  0.7546771E-02  0.1235065E+00
         21   -1    0    0  503  502  0.00000000000E+00  0.00000000000E+00  0.13780156413E+02  0.13780156413E+02  0.00000000000E+00 0. -1.
         21   -1    0    0  502  503 -0.00000000000E+00 -0.00000000000E+00 -0.28348041037E+03  0.28348041037E+03  0.00000000000E+00 0. -1.
         25    2    1    2    0    0  0.00000000000E+00  0.00000000000E+00 -0.26970025396E+03  0.29726056679E+03  0.12500247029E+03 0.  0.
          4    1    3    3  501    0 -0.20487481934E+02 -0.58815239689E+02 -0.12295219911E+03  0.13783546387E+03  0.15500000000E+01 0. -1.
         -4    1    3    3    0  501  0.20487481934E+02  0.58815239689E+02 -0.14674805486E+03  0.15942510292E+03  0.15500000000E+01 0. -1.
<mgrwt>
<rscale>  2 0.12500247E+03</rscale>
<asrwt>0</asrwt>
<pdfrwt beam="1">  1       21 0.21200243E-02 0.12500247E+03</pdfrwt>
<pdfrwt beam="2">  1       21 0.43612366E-01 0.12500247E+03</pdfrwt>
<totfact> 0.55681148E+06</totfact>
</mgrwt>
</event>
<event>
 5    0  0.1483282E+000  0.1249976E+03  0.7546771E-02  0.1235073E+00
         21   -1    0    0  503  502  0.00000000000E+00  0.00000000000E+00  0.16042112874E+02  0.16042112874E+02  0.00000000000E+00 0. -1.
         21   -1    0    0  502  503 -0.00000000000E+00 -0.00000000000E+00 -0.24349035299E+03  0.24349035299E+03  0.00000000000E+00 0. -1.
         25    2    1    2    0    0  0.00000000000E+00  0.00000000000E+00 -0.22744824011E+03  0.25953246586E+03  0.12499759560E+03 0.  0.
          4    1    3    3  501    0  0.44211660794E+02 -0.19705169602E+02 -0.19575063880E+03  0.20165237353E+03  0.15500000000E+01 0. -1.
         -4    1    3    3    0  501 -0.44211660794E+02  0.19705169602E+02 -0.31697601308E+02  0.57880092328E+02  0.15500000000E+01 0. -1.
<mgrwt>
<rscale>  2 0.12499760E+03</rscale>
<asrwt>0</asrwt>
<pdfrwt beam="1">  1       21 0.24680176E-02 0.12499760E+03</pdfrwt>
<pdfrwt beam="2">  1       21 0.37460050E-01 0.12499760E+03</pdfrwt>
<totfact> 0.58995725E+06</totfact>
</mgrwt>
</event>
<event>
 4    0  0.1548881E+000  0.1251268E+03  0.7546771E-02  0.1234871E+00
         21   -1    0    0  503  502  0.00000000000E+00  0.00000000000E+00  0.94240589998E+02  0.94240589998E+02  0.00000000000E+00 0.  1.
         21   -1    0    0  502  503 -0.00000000000E+00 -0.00000000000E+00 -0.41533903364E+02  0.41533903364E+02  0.00000000000E+00 0.  1.
          4    1    1    2  501    0  0.36679645536E+02  0.50263718994E+02  0.19495815450E+02  0.65225203440E+02  0.15500000000E+01 0. -1.
         -4    1    1    2    0  501 -0.36679645536E+02 -0.50263718994E+02  0.33210871184E+02  0.70549289922E+02  0.15500000000E+01 0. -1.
<mgrwt>
<rscale>  2 0.12512681E+03</rscale>
<asrwt>0</asrwt>
<pdfrwt beam="1">  1       21 0.14498552E-01 0.12512681E+03</pdfrwt>
<pdfrwt beam="2">  1       21 0.63898313E-02 0.12512681E+03</pdfrwt>
<totfact> 0.72359794E+06</totfact>
</mgrwt>
</event>
<event>
 5    0  0.1607006E+000  0.1249942E+03  0.7546771E-02  0.1235078E+00
         21   -1    0    0  503  502  0.00000000000E+00  0.00000000000E+00  0.11504142852E+03  0.11504142852E+03  0.00000000000E+00 0. -1.
         21   -1    0    0  502  503 -0.00000000000E+00 -0.00000000000E+00 -0.33951981440E+02  0.33951981440E+02  0.00000000000E+00 0. -1.
         25    2    1    2    0    0  0.00000000000E+00  0.00000000000E+00  0.81089447082E+02  0.14899340996E+03  0.12499415100E+03 0.  0.
          4    1    3    3  501    0 -0.60850143245E+02  0.50085386810E+01  0.24746452978E+02  0.65898519161E+02  0.15500000000E+01 0.  1.
         -4    1    3    3    0  501  0.60850143245E+02 -0.50085386810E+01  0.56342994103E+02  0.83094890801E+02  0.15500000000E+01 0.  1.
<mgrwt>
<rscale>  2 0.12499415E+03</rscale>
<asrwt>0</asrwt>
<pdfrwt beam="1">  1       21 0.17698681E-01 0.12499415E+03</pdfrwt>
<pdfrwt beam="2">  1       21 0.52233818E-02 0.12499415E+03</pdfrwt>
<totfact> 0.70896433E+06</totfact>
</mgrwt>
</event>
<event>
 5    0  0.1570553E+000  0.1249987E+03  0.7546771E-02  0.1235071E+00
         21   -1    0    0  503  502  0.00000000000E+00  0.00000000000E+00  0.54495622702E+02  0.54495622702E+02  0.00000000000E+00 0.  1.
         21   -1    0    0  502  503 -0.00000000000E+00 -0.00000000000E+00 -0.71678606104E+02  0.71678606104E+02  0.00000000000E+00 0.  1.
         25    2    1    2    0    0  0.00000000000E+00  0.00000000000E+00 -0.17182983402E+02  0.12617422881E+03  0.12499872438E+03 0.  0.
          4    1    3    3  501    0  0.46682815337E+02  0.37286139487E+02  0.98622911987E+01  0.60573993869E+02  0.15500000000E+01 0.  1.
         -4    1    3    3    0  501 -0.46682815337E+02 -0.37286139487E+02 -0.27045274600E+02  0.65600234937E+02  0.15500000000E+01 0.  1.
<mgrwt>
<rscale>  2 0.12499872E+03</rscale>
<asrwt>0</asrwt>
<pdfrwt beam="1">  1       21 0.83839419E-02 0.12499872E+03</pdfrwt>
<pdfrwt beam="2">  1       21 0.11027478E-01 0.12499872E+03</pdfrwt>
<totfact> 0.73884457E+06</totfact>
</mgrwt>
</event>
<event>
 5    0  0.1470348E+000  0.1250063E+03  0.7546771E-02  0.1235059E+00
         21   -1    0    0  503  502  0.00000000000E+00  0.00000000000E+00  0.23800621727E+02  0.23800621727E+02  0.00000000000E+00 0.  1.
         21   -1    0    0  502  503 -0.00000000000E+00 -0.00000000000E+00 -0.16414033135E+03  0.16414033135E+03  0.00000000000E+00 0.  1.
         25    2    1    2    0    0  0.00000000000E+00  0.00000000000E+00 -0.14033970963E+03  0.18794095308E+03  0.12500627083E+03 0.  0.
          4    1    3    3  501    0 -0.24709800790E+02  0.56767752115E+02 -0.57493737479E+02  0.84504936451E+02  0.15500000000E+01 0.  1.
         -4    1    3    3    0  501  0.24709800790E+02 -0.56767752115E+02 -0.82845972148E+02  0.10343601663E+03  0.15500000000E+01 0.  1.
<mgrwt>
<rscale>  2 0.12500627E+03</rscale>
<asrwt>0</asrwt>
<pdfrwt beam="1">  1       21 0.36616341E-02 0.12500627E+03</pdfrwt>
<pdfrwt beam="2">  1       21 0.25252359E-01 0.12500627E+03</pdfrwt>
<totfact> 0.66241513E+06</totfact>
</mgrwt>
</event>
<event>
 5    0  0.1362140E+000  0.1249999E+03  0.7546771E-02  0.1235070E+00
         21   -1    0    0  503  502  0.00000000000E+00  0.00000000000E+00  0.61757026212E+03  0.61757026212E+03  0.00000000000E+00 0.  1.
         21   -1    0    0  502  503 -0.00000000000E+00 -0.00000000000E+00 -0.63251768098E+01  0.63251768098E+01  0.00000000000E+00 0.  1.
         25    2    1    2    0    0  0.00000000000E+00  0.00000000000E+00  0.61124508531E+03  0.62389543893E+03  0.12499985761E+03 0.  0.
          4    1    3    3  501    0 -0.96648558001E+01 -0.59465621001E+02  0.38828165145E+03  0.39293079909E+03  0.15500000000E+01 0.  1.
         -4    1    3    3    0  501  0.96648558001E+01  0.59465621001E+02  0.22296343386E+03  0.23096463984E+03  0.15500000000E+01 0.  1.
<mgrwt>
<rscale>  2 0.12499986E+03</rscale>
<asrwt>0</asrwt>
<pdfrwt beam="1">  1       21 0.95010762E-01 0.12499986E+03</pdfrwt>
<pdfrwt beam="2">  1       21 0.97310461E-03 0.12499986E+03</pdfrwt>
<totfact> 0.36033952E+06</totfact>
</mgrwt>
</event>
<event>
 5    0  0.1431720E+000  0.1250132E+03  0.7546771E-02  0.1235049E+00
         21   -1    0    0  503  502  0.00000000000E+00  0.00000000000E+00  0.30873961049E+03  0.30873961049E+03  0.00000000000E+00 0.  1.
         21   -1    0    0  502  503 -0.00000000000E+00 -0.00000000000E+00 -0.12654919098E+02  0.12654919098E+02  0.00000000000E+00 0.  1.
         25    2    1    2    0    0  0.00000000000E+00  0.00000000000E+00  0.29608469139E+03  0.32139452959E+03  0.12501319599E+03 0.  0.
          4    1    3    3  501    0 -0.33939264364E+02  0.48474144597E+02  0.19965607996E+03  0.20824641444E+03  0.15500000000E+01 0. -1.
         -4    1    3    3    0  501  0.33939264364E+02 -0.48474144597E+02  0.96428611427E+02  0.11314811515E+03  0.15500000000E+01 0. -1.
<mgrwt>
<rscale>  2 0.12501320E+03</rscale>
<asrwt>0</asrwt>
<pdfrwt beam="1">  1       21 0.47498396E-01 0.12501320E+03</pdfrwt>
<pdfrwt beam="2">  1       21 0.19469109E-02 0.12501320E+03</pdfrwt>
<totfact> 0.53705239E+06</totfact>
</mgrwt>
</event>
<event>
 5    0  0.1375854E+000  0.1250007E+03  0.7546771E-02  0.1235068E+00
         21   -1    0    0  503  502  0.00000000000E+00  0.00000000000E+00  0.66634853948E+02  0.66634853948E+02  0.00000000000E+00 0. -1.
         21   -1    0    0  502  503 -0.00000000000E+00 -0.00000000000E+00 -0.58622382500E+02  0.58622382500E+02  0.00000000000E+00 0. -1.
         25    2    1    2    0    0  0.00000000000E+00  0.00000000000E+00  0.80124714483E+01  0.12525723645E+03  0.12500070233E+03 0.  0.
          4    1    3    3  501    0 -0.41388686826E+02 -0.30933871639E+01 -0.42793992192E+02  0.59634895062E+02  0.15500000000E+01 0.  1.
         -4    1    3    3    0  501  0.41388686826E+02  0.30933871639E+01  0.50806463640E+02  0.65622341386E+02  0.15500000000E+01 0.  1.
<mgrwt>
<rscale>  2 0.12500070E+03</rscale>
<asrwt>0</asrwt>
<pdfrwt beam="1">  1       21 0.10251516E-01 0.12500070E+03</pdfrwt>
<pdfrwt beam="2">  1       21 0.90188281E-02 0.12500070E+03</pdfrwt>
<totfact> 0.74007516E+06</totfact>
</mgrwt>
</event>
<event>
 5    0  0.1420238E+000  0.1250017E+03  0.7546771E-02  0.1235067E+00
         21   -1    0    0  503  502  0.00000000000E+00  0.00000000000E+00  0.99160511140E+02  0.99160511140E+02  0.00000000000E+00 0.  1.
         21   -1    0    0  502  503 -0.00000000000E+00 -0.00000000000E+00 -0.39394267576E+02  0.39394267576E+02  0.00000000000E+00 0.  1.
         25    2    1    2    0    0  0.00000000000E+00  0.00000000000E+00  0.59766243564E+02  0.13855477872E+03  0.12500169133E+03 0.  0.
          4    1    3    3  501    0 -0.19659287212E+02 -0.24366070031E+02 -0.30051324826E+02  0.43424389071E+02  0.15500000000E+01 0.  1.
         -4    1    3    3    0  501  0.19659287212E+02  0.24366070031E+02  0.89817568390E+02  0.95130389645E+02  0.15500000000E+01 0.  1.
<mgrwt>
<rscale>  2 0.12500169E+03</rscale>
<asrwt>0</asrwt>
<pdfrwt beam="1">  1       21 0.15255463E-01 0.12500169E+03</pdfrwt>
<pdfrwt beam="2">  1       21 0.60606566E-02 0.12500169E+03</pdfrwt>
<totfact> 0.72225432E+06</totfact>
</mgrwt>
</event>
<event>
 5    0  0.1222151E+000  0.1249975E+03  0.7546771E-02  0.1235073E+00
         21   -1    0    0  503  502  0.00000000000E+00  0.00000000000E+00  0.47705921904E+01  0.47705921904E+01  0.00000000000E+00 0. -1.
         21   -1    0    0  502  503 -0.00000000000E+00 -0.00000000000E+00 -0.81878578457E+03  0.81878578457E+03  0.00000000000E+00 0. -1.
         25    2    1    2    0    0  0.00000000000E+00  0.00000000000E+00 -0.81401519238E+03  0.82355637676E+03  0.12499748909E+03 0.  0.
          4    1    3    3  501    0  0.58486057443E+02 -0.18705074479E+02 -0.48304562669E+03  0.48693529210E+03  0.15500000000E+01 0. -1.
         -4    1    3    3    0  501 -0.58486057443E+02  0.18705074479E+02 -0.33096956569E+03  0.33662108466E+03  0.15500000000E+01 0. -1.
<mgrwt>
<rscale>  2 0.12499749E+03</rscale>
<asrwt>0</asrwt>
<pdfrwt beam="1">  1       21 0.73393689E-03 0.12499749E+03</pdfrwt>
<pdfrwt beam="2">  1       21 0.12596711E+00 0.12499749E+03</pdfrwt>
<totfact> 0.28598835E+06</totfact>
</mgrwt>
</event>
<event>
 5    0  0.1493495E+000  0.1250006E+03  0.7546771E-02  0.1235068E+00
         21   -1    0    0  503  502  0.00000000000E+00  0.00000000000E+00  0.19258176603E+03  0.19258176603E+03  0.00000000000E+00 0.  1.
         21   -1    0    0  502  503 -0.00000000000E+00 -0.00000000000E+00 -0.20283793743E+02  0.20283793743E+02  0.00000000000E+00 0.  1.
         25    2    1    2    0    0  0.00000000000E+00  0.00000000000E+00  0.17229797229E+03  0.21286555977E+03  0.12500062113E+03 0.  0.
          4    1    3    3  501    0  0.16141094515E+02  0.56316471612E+02  0.12313820418E+03  0.13637265025E+03  0.15500000000E+01 0. -1.
         -4    1    3    3    0  501 -0.16141094515E+02 -0.56316471612E+02  0.49159768103E+02  0.76492909521E+02  0.15500000000E+01 0. -1.
<mgrwt>
<rscale>  2 0.12500062E+03</rscale>
<asrwt>0</asrwt>
<pdfrwt beam="1">  1       21 0.29627963E-01 0.12500062E+03</pdfrwt>
<pdfrwt beam="2">  1       21 0.31205838E-02 0.12500062E+03</pdfrwt>
<totfact> 0.63558304E+06</totfact>
</mgrwt>
</event>
<event>
 5    0  0.1614579E+000  0.1249951E+03  0.7546771E-02  0.1235077E+00
         21   -1    0    0  503  502  0.00000000000E+00  0.00000000000E+00  0.87056360055E+02  0.87056360055E+02  0.00000000000E+00 0. -1.
         21   -1    0    0  502  503 -0.00000000000E+00 -0.00000000000E+00 -0.44866821578E+02  0.44866821578E+02  0.00000000000E+00 0. -1.
         25    2    1    2    0    0  0.00000000000E+00  0.00000000000E+00  0.42189538476E+02  0.13192318163E+03  0.12499507468E+03 0.  0.
          4    1    3    3  501    0  0.25515105850E+02  0.57004184799E+02  0.19253975354E+02  0.65372897886E+02  0.15500000000E+01 0.  1.
         -4    1    3    3    0  501 -0.25515105850E+02 -0.57004184799E+02  0.22935563122E+02  0.66550283747E+02  0.15500000000E+01 0.  1.
<mgrwt>
<rscale>  2 0.12499507E+03</rscale>
<asrwt>0</asrwt>
<pdfrwt beam="1">  1       21 0.13393286E-01 0.12499507E+03</pdfrwt>
<pdfrwt beam="2">  1       21 0.69025880E-02 0.12499507E+03</pdfrwt>
<totfact> 0.73115721E+06</totfact>
</mgrwt>
</event>
<event>
 5    0  0.1415503E+000  0.1250025E+03  0.7546771E-02  0.1235065E+00
         21   -1    0    0  503  502  0.00000000000E+00  0.00000000000E+00  0.16159250087E+02  0.16159250087E+02  0.00000000000E+00 0. -1.
         21   -1    0    0  502  503 -0.00000000000E+00 -0.00000000000E+00 -0.24174410679E+03  0.24174410679E+03  0.00000000000E+00 0. -1.
         25    2    1    2    0    0  0.00000000000E+00  0.00000000000E+00 -0.22558485670E+03  0.25790335688E+03  0.12500245564E+03 0.  0.
          4    1    3    3  501    0 -0.52704975743E+01 -0.21035585899E+02  0.81061877063E+01  0.23203163533E+02  0.15500000000E+01 0.  1.
         -4    1    3    3    0  501  0.52704975743E+01  0.21035585899E+02 -0.23369104441E+03  0.23470019335E+03  0.15500000000E+01 0.  1.
<mgrwt>
<rscale>  2 0.12500246E+03</rscale>
<asrwt>0</asrwt>
<pdfrwt beam="1">  1       21 0.24860386E-02 0.12500246E+03</pdfrwt>
<pdfrwt beam="2">  1       21 0.37191399E-01 0.12500246E+03</pdfrwt>
<totfact> 0.59138319E+06</totfact>
</mgrwt>
</event>
<event>
 5    0  0.1495610E+000  0.1250030E+03  0.7546771E-02  0.1235065E+00
         21   -1    0    0  503  502  0.00000000000E+00  0.00000000000E+00  0.20167140057E+02  0.20167140057E+02  0.00000000000E+00 0. -1.
         21   -1    0    0  502  503 -0.00000000000E+00 -0.00000000000E+00 -0.19370315316E+03  0.19370315316E+03  0.00000000000E+00 0. -1.
         25    2    1    2    0    0  0.00000000000E+00  0.00000000000E+00 -0.17353601310E+03  0.21387029321E+03  0.12500301787E+03 0.  0.
          4    1    3    3  501    0 -0.66330371048E+01  0.36278679223E+02 -0.47419046936E+00  0.36915675586E+02  0.15500000000E+01 0. -1.
         -4    1    3    3    0  501  0.66330371048E+01 -0.36278679223E+02 -0.17306182263E+03  0.17695461763E+03  0.15500000000E+01 0. -1.
<mgrwt>
<rscale>  2 0.12500302E+03</rscale>
<asrwt>0</asrwt>
<pdfrwt beam="1">  1       21 0.31026371E-02 0.12500302E+03</pdfrwt>
<pdfrwt beam="2">  1       21 0.29800484E-01 0.12500302E+03</pdfrwt>
<totfact> 0.63449782E+06</totfact>
</mgrwt>
</event>
<event>
 5    0  0.1443739E+000  0.1249965E+03  0.7546771E-02  0.1235075E+00
         21   -1    0    0  503  502  0.00000000000E+00  0.00000000000E+00  0.19462115894E+02  0.19462115894E+02  0.00000000000E+00 0.  1.
         21   -1    0    0  502  503 -0.00000000000E+00 -0.00000000000E+00 -0.20069928610E+03  0.20069928610E+03  0.00000000000E+00 0.  1.
         25    2    1    2    0    0  0.00000000000E+00  0.00000000000E+00 -0.18123717020E+03  0.22016140199E+03  0.12499652421E+03 0.  0.
          4    1    3    3  501    0 -0.32160544644E+02 -0.43775396089E+02 -0.36243519147E+02  0.65319071600E+02  0.15500000000E+01 0.  1.
         -4    1    3    3    0  501  0.32160544644E+02  0.43775396089E+02 -0.14499365105E+03  0.15484233039E+03  0.15500000000E+01 0.  1.
<mgrwt>
<rscale>  2 0.12499652E+03</rscale>
<asrwt>0</asrwt>
<pdfrwt beam="1">  1       21 0.29941718E-02 0.12499652E+03</pdfrwt>
<pdfrwt beam="2">  1       21 0.30876812E-01 0.12499652E+03</pdfrwt>
<totfact> 0.62811560E+06</totfact>
</mgrwt>
</event>
<event>
 5    0  0.1429674E+000  0.1249901E+03  0.7546771E-02  0.1235085E+00
         21   -1    0    0  503  502  0.00000000000E+00  0.00000000000E+00  0.15810888149E+02  0.15810888149E+02  0.00000000000E+00 0. -1.
         21   -1    0    0  502  503 -0.00000000000E+00 -0.00000000000E+00 -0.24702158451E+03  0.24702158451E+03  0.00000000000E+00 0. -1.
         25    2    1    2    0    0  0.00000000000E+00  0.00000000000E+00 -0.23121069636E+03  0.26283247266E+03  0.12499008989E+03 0.  0.
          4    1    3    3  501    0 -0.32013436809E+02  0.34266920424E+02 -0.28797925540E+02  0.55052747316E+02  0.15500000000E+01 0. -1.
         -4    1    3    3    0  501  0.32013436809E+02 -0.34266920424E+02 -0.20241277082E+03  0.20777972534E+03  0.15500000000E+01 0. -1.
<mgrwt>
<rscale>  2 0.12499009E+03</rscale>
<asrwt>0</asrwt>
<pdfrwt beam="1">  1       21 0.24324444E-02 0.12499009E+03</pdfrwt>
<pdfrwt beam="2">  1       21 0.38003320E-01 0.12499009E+03</pdfrwt>
<totfact> 0.58705280E+06</totfact>
</mgrwt>
</event>
<event>
 5    0  0.1578744E+000  0.1249960E+03  0.7546771E-02  0.1235076E+00
         21   -1    0    0  503  502  0.00000000000E+00  0.00000000000E+00  0.76186326350E+02  0.76186326350E+02  0.00000000000E+00 0.  1.
         21   -1    0    0  502  503 -0.00000000000E+00 -0.00000000000E+00 -0.51269033813E+02  0.51269033813E+02  0.00000000000E+00 0.  1.
         25    2    1    2    0    0  0.00000000000E+00  0.00000000000E+00  0.24917292536E+02  0.12745536016E+03  0.12499598940E+03 0.  0.
          4    1    3    3  501    0 -0.52214019875E+02  0.32488764826E+02  0.12064380204E+01  0.61527893707E+02  0.15500000000E+01 0. -1.
         -4    1    3    3    0  501  0.52214019875E+02 -0.32488764826E+02  0.23710854516E+02  0.65927466455E+02  0.15500000000E+01 0. -1.
<mgrwt>
<rscale>  2 0.12499599E+03</rscale>
<asrwt>0</asrwt>
<pdfrwt beam="1">  1       21 0.11720973E-01 0.12499599E+03</pdfrwt>
<pdfrwt beam="2">  1       21 0.78875437E-02 0.12499599E+03</pdfrwt>
<totfact> 0.73714817E+06</totfact>
</mgrwt>
</event>
<event>
 5    0  0.1646302E+000  0.1250024E+03  0.7546771E-02  0.1235066E+00
         21   -1    0    0  503  502  0.00000000000E+00  0.00000000000E+00  0.48438704825E+02  0.48438704825E+02  0.00000000000E+00 0.  1.
         21   -1    0    0  502  503 -0.00000000000E+00 -0.00000000000E+00 -0.80646269728E+02  0.80646269728E+02  0.00000000000E+00 0.  1.
         25    2    1    2    0    0  0.00000000000E+00  0.00000000000E+00 -0.32207564904E+02  0.12908497455E+03  0.12500241365E+03 0.  0.
          4    1    3    3  501    0  0.26107636880E+01  0.62344847874E+02 -0.19418316743E+02  0.65369485761E+02  0.15500000000E+01 0. -1.
         -4    1    3    3    0  501 -0.26107636880E+01 -0.62344847874E+02 -0.12789248161E+02  0.63715488792E+02  0.15500000000E+01 0. -1.
<mgrwt>
<rscale>  2 0.12500241E+03</rscale>
<asrwt>0</asrwt>
<pdfrwt beam="1">  1       21 0.74521085E-02 0.12500241E+03</pdfrwt>
<pdfrwt beam="2">  1       21 0.12407118E-01 0.12500241E+03</pdfrwt>
<totfact> 0.73482943E+06</totfact>
</mgrwt>
</event>
<event>
 5    0  0.1271436E+000  0.1249975E+03  0.7546771E-02  0.1235073E+00
         21   -1    0    0  503  502  0.00000000000E+00  0.00000000000E+00  0.51650476685E+01  0.51650476685E+01  0.00000000000E+00 0.  1.
         21   -1    0    0  502  503 -0.00000000000E+00 -0.00000000000E+00 -0.75625552098E+03  0.75625552098E+03  0.00000000000E+00 0.  1.
         25    2    1    2    0    0  0.00000000000E+00  0.00000000000E+00 -0.75109047332E+03  0.76142056865E+03  0.12499753302E+03 0.  0.
          4    1    3    3  501    0  0.60601444631E+02  0.14462270472E+02 -0.34697301916E+03  0.35252570244E+03  0.15500000000E+01 0.  1.
         -4    1    3    3    0  501 -0.60601444631E+02 -0.14462270472E+02 -0.40411745416E+03  0.40889486621E+03  0.15500000000E+01 0.  1.
<mgrwt>
<rscale>  2 0.12499753E+03</rscale>
<asrwt>0</asrwt>
<pdfrwt beam="1">  1       21 0.79462264E-03 0.12499753E+03</pdfrwt>
<pdfrwt beam="2">  1       21 0.11634701E+00 0.12499753E+03</pdfrwt>
<totfact> 0.30673069E+06</totfact>
</mgrwt>
</event>
<event>
 5    0  0.1222151E+000  0.1250227E+03  0.7546771E-02  0.1235034E+00
         21   -1    0    0  503  502  0.00000000000E+00  0.00000000000E+00  0.14600714557E+04  0.14600714557E+04  0.00000000000E+00 0.  1.
         21   -1    0    0  502  503 -0.00000000000E+00 -0.00000000000E+00 -0.26763559656E+01  0.26763559656E+01  0.00000000000E+00 0.  1.
         25    2    1    2    0    0  0.00000000000E+00  0.00000000000E+00  0.14573950997E+04  0.14627478117E+04  0.12502273314E+03 0.  0.
          4    1    3    3  501    0  0.59290760825E+02  0.19227841644E+02  0.78123528746E+03  0.78371938925E+03  0.15500000000E+01 0.  1.
         -4    1    3    3    0  501 -0.59290760825E+02 -0.19227841644E+02  0.67615981227E+03  0.67902842241E+03  0.15500000000E+01 0.  1.
<mgrwt>
<rscale>  2 0.12502273E+03</rscale>
<asrwt>0</asrwt>
<pdfrwt beam="1">  1       21 0.22462574E+00 0.12502273E+03</pdfrwt>
<pdfrwt beam="2">  1       21 0.41174824E-03 0.12502273E+03</pdfrwt>
<totfact> 0.14546122E+06</totfact>
</mgrwt>
</event>
<event>
 5    0  0.1222151E+000  0.1249918E+03  0.7546771E-02  0.1235082E+00
         21   -1    0    0  503  502  0.00000000000E+00  0.00000000000E+00  0.11982527839E+04  0.11982527839E+04  0.00000000000E+00 0.  1.
         21   -1    0    0  502  503 -0.00000000000E+00 -0.00000000000E+00 -0.32595287319E+01  0.32595287319E+01  0.00000000000E+00 0.  1.
         25    2    1    2    0    0  0.00000000000E+00  0.00000000000E+00  0.11949932551E+04  0.12015123126E+04  0.12499182977E+03 0.  0.
          4    1    3    3  501    0 -0.57431603375E+01  0.57611945829E+02  0.82318426854E+03  0.82521928156E+03  0.15500000000E+01 0. -1.
         -4    1    3    3    0  501  0.57431603375E+01 -0.57611945829E+02  0.37180898661E+03  0.37629303105E+03  0.15500000000E+01 0. -1.
<mgrwt>
<rscale>  2 0.12499183E+03</rscale>
<asrwt>0</asrwt>
<pdfrwt beam="1">  1       21 0.18434623E+00 0.12499183E+03</pdfrwt>
<pdfrwt beam="2">  1       21 0.50146691E-03 0.12499183E+03</pdfrwt>
<totfact> 0.19117167E+06</totfact>
</mgrwt>
</event>
<event>
 5    0  0.1421919E+000  0.1249947E+03  0.7546771E-02  0.1235078E+00
         21   -1    0    0  503  502  0.00000000000E+00  0.00000000000E+00  0.15430679098E+02  0.15430679098E+02  0.00000000000E+00 0. -1.
         21   -1    0    0  502  503 -0.00000000000E+00 -0.00000000000E+00 -0.25312683895E+03  0.25312683895E+03  0.00000000000E+00 0. -1.
         25    2    1    2    0    0  0.00000000000E+00  0.00000000000E+00 -0.23769615985E+03  0.26855751804E+03  0.12499470425E+03 0.  0.
          4    1    3    3  501    0 -0.61343219584E+02 -0.63609882854E+01 -0.14034044032E+03  0.15330131914E+03  0.15500000000E+01 0.  1.
         -4    1    3    3    0  501  0.61343219584E+02  0.63609882854E+01 -0.97355719531E+02  0.11525619891E+03  0.15500000000E+01 0.  1.
<mgrwt>
<rscale>  2 0.12499470E+03</rscale>
<asrwt>0</asrwt>
<pdfrwt beam="1">  1       21 0.23739504E-02 0.12499470E+03</pdfrwt>
<pdfrwt beam="2">  1       21 0.38942594E-01 0.12499470E+03</pdfrwt>
<totfact> 0.58181452E+06</totfact>
</mgrwt>
</event>
<event>
 5    0  0.1222151E+000  0.1249959E+03  0.7546771E-02  0.1235076E+00
         21   -1    0    0  503  502  0.00000000000E+00  0.00000000000E+00  0.26612660127E+01  0.26612660127E+01  0.00000000000E+00 0. -1.
         21   -1    0    0  502  503 -0.00000000000E+00 -0.00000000000E+00 -0.14677198500E+04  0.14677198500E+04  0.00000000000E+00 0. -1.
         25    2    1    2    0    0  0.00000000000E+00  0.00000000000E+00 -0.14650585840E+04  0.14703811160E+04  0.12499588718E+03 0.  0.
          4    1    3    3  501    0 -0.62115303927E+01  0.59194737980E+02 -0.95603158472E+03  0.95788381007E+03  0.15500000000E+01 0. -1.
         -4    1    3    3    0  501  0.62115303927E+01 -0.59194737980E+02 -0.50902699930E+03  0.51249730597E+03  0.15500000000E+01 0. -1.
<mgrwt>
<rscale>  2 0.12499589E+03</rscale>
<asrwt>0</asrwt>
<pdfrwt beam="1">  1       21 0.40942426E-03 0.12499589E+03</pdfrwt>
<pdfrwt beam="2">  1       21 0.22580376E+00 0.12499589E+03</pdfrwt>
<totfact> 0.14439233E+06</totfact>
</mgrwt>
</event>
<event>
 5    0  0.1222151E+000  0.1250037E+03  0.7546771E-02  0.1235063E+00
         21   -1    0    0  503  502  0.00000000000E+00  0.00000000000E+00  0.36448979003E+01  0.36448979003E+01  0.00000000000E+00 0. -1.
         21   -1    0    0  502  503 -0.00000000000E+00 -0.00000000000E+00 -0.10717678247E+04  0.10717678247E+04  0.00000000000E+00 0. -1.
         25    2    1    2    0    0  0.00000000000E+00  0.00000000000E+00 -0.10681229268E+04  0.10754127226E+04  0.12500374864E+03 0.  0.
          4    1    3    3  501    0 -0.48151535730E+02  0.32703724899E+02 -0.72948084390E+03  0.73180107142E+03  0.15500000000E+01 0. -1.
         -4    1    3    3    0  501  0.48151535730E+02 -0.32703724899E+02 -0.33864208287E+03  0.34361165115E+03  0.15500000000E+01 0. -1.
<mgrwt>
<rscale>  2 0.12500375E+03</rscale>
<asrwt>0</asrwt>
<pdfrwt beam="1">  1       21 0.56075288E-03 0.12500375E+03</pdfrwt>
<pdfrwt beam="2">  1       21 0.16488755E+00 0.12500375E+03</pdfrwt>
<totfact> 0.21804625E+06</totfact>
</mgrwt>
</event>
<event>
 5    0  0.1473605E+000  0.1250043E+03  0.7546771E-02  0.1235063E+00
         21   -1    0    0  503  502  0.00000000000E+00  0.00000000000E+00  0.26052433891E+03  0.26052433891E+03  0.00000000000E+00 0.  1.
         21   -1    0    0  502  503 -0.00000000000E+00 -0.00000000000E+00 -0.14994825500E+02  0.14994825500E+02  0.00000000000E+00 0.  1.
         25    2    1    2    0    0  0.00000000000E+00  0.00000000000E+00  0.24552951341E+03  0.27551916441E+03  0.12500427193E+03 0.  0.
          4    1    3    3  501    0  0.52144775612E+02  0.30784989743E+02  0.15671909738E+03  0.16801806808E+03  0.15500000000E+01 0. -1.
         -4    1    3    3    0  501 -0.52144775612E+02 -0.30784989743E+02  0.88810416027E+02  0.10750109633E+03  0.15500000000E+01 0. -1.
<mgrwt>
<rscale>  2 0.12500427E+03</rscale>
<asrwt>0</asrwt>
<pdfrwt beam="1">  1       21 0.40080664E-01 0.12500427E+03</pdfrwt>
<pdfrwt beam="2">  1       21 0.23068964E-02 0.12500427E+03</pdfrwt>
<totfact> 0.57547846E+06</totfact>
</mgrwt>
</event>
<event>
 5    0  0.1222151E+000  0.1250059E+03  0.7546771E-02  0.1235060E+00
         21   -1    0    0  503  502  0.00000000000E+00  0.00000000000E+00  0.70072468275E+03  0.70072468275E+03  0.00000000000E+00 0.  1.
         21   -1    0    0  502  503 -0.00000000000E+00 -0.00000000000E+00 -0.55751078743E+01  0.55751078743E+01  0.00000000000E+00 0.  1.
         25    2    1    2    0    0  0.00000000000E+00  0.00000000000E+00  0.69514957487E+03  0.70629979062E+03  0.12500585101E+03 0.  0.
          4    1    3    3  501    0 -0.28063717328E+02  0.47577094359E+02  0.51259942786E+03  0.51556932422E+03  0.15500000000E+01 0.  1.
         -4    1    3    3    0  501  0.28063717328E+02 -0.47577094359E+02  0.18255014701E+03  0.19073046640E+03  0.15500000000E+01 0.  1.
<mgrwt>
<rscale>  2 0.12500585E+03</rscale>
<asrwt>0</asrwt>
<pdfrwt beam="1">  1       21 0.10780373E+00 0.12500585E+03</pdfrwt>
<pdfrwt beam="2">  1       21 0.85770946E-03 0.12500585E+03</pdfrwt>
<totfact> 0.32663952E+06</totfact>
</mgrwt>
</event>
<event>
 5    0  0.1524628E+000  0.1249944E+03  0.7546771E-02  0.1235078E+00
         21   -1    0    0  503  502  0.00000000000E+00  0.00000000000E+00  0.20045065632E+03  0.20045065632E+03  0.00000000000E+00 0. -1.
         21   -1    0    0  502  503 -0.00000000000E+00 -0.00000000000E+00 -0.19485582475E+02  0.19485582475E+02  0.00000000000E+00 0. -1.
         25    2    1    2    0    0  0.00000000000E+00  0.00000000000E+00  0.18096507384E+03  0.21993623879E+03  0.12499436461E+03 0.  0.
          4    1    3    3  501    0  0.45801096911E+02  0.38932367274E+02  0.12044824363E+03  0.13462411223E+03  0.15500000000E+01 0. -1.
         -4    1    3    3    0  501 -0.45801096911E+02 -0.38932367274E+02  0.60516830210E+02  0.85312126562E+02  0.15500000000E+01 0. -1.
<mgrwt>
<rscale>  2 0.12499436E+03</rscale>
<asrwt>0</asrwt>
<pdfrwt beam="1">  1       21 0.30838561E-01 0.12499436E+03</pdfrwt>
<pdfrwt beam="2">  1       21 0.29977821E-02 0.12499436E+03</pdfrwt>
<totfact> 0.62838003E+06</totfact>
</mgrwt>
</event>
<event>
 5    0  0.1304323E+000  0.1249441E+03  0.7546771E-02  0.1235157E+00
         21   -1    0    0  503  502  0.00000000000E+00  0.00000000000E+00  0.14322855634E+03  0.14322855634E+03  0.00000000000E+00 0.  1.
         21   -1    0    0  502  503 -0.00000000000E+00 -0.00000000000E+00 -0.27248443198E+02  0.27248443198E+02  0.00000000000E+00 0.  1.
         25    2    1    2    0    0  0.00000000000E+00  0.00000000000E+00  0.11598011315E+03  0.17047699954E+03  0.12494407040E+03 0.  0.
          4    1    3    3  501    0 -0.50042681772E+02  0.14740706131E+01  0.70490551393E+01  0.50581958854E+02  0.15500000000E+01 0. -1.
         -4    1    3    3    0  501  0.50042681772E+02 -0.14740706131E+01  0.10893105801E+03  0.11989504069E+03  0.15500000000E+01 0. -1.
<mgrwt>
<rscale>  2 0.12494407E+03</rscale>
<asrwt>0</asrwt>
<pdfrwt beam="1">  1       21 0.22035162E-01 0.12494407E+03</pdfrwt>
<pdfrwt beam="2">  1       21 0.41920683E-02 0.12494407E+03</pdfrwt>
<totfact> 0.68358142E+06</totfact>
</mgrwt>
</event>
<event>
 5    0  0.1528851E+000  0.1250030E+03  0.7546771E-02  0.1235065E+00
         21   -1    0    0  503  502  0.00000000000E+00  0.00000000000E+00  0.92528830468E+02  0.92528830468E+02  0.00000000000E+00 0. -1.
         21   -1    0    0  502  503 -0.00000000000E+00 -0.00000000000E+00 -0.42218619668E+02  0.42218619668E+02  0.00000000000E+00 0. -1.
         25    2    1    2    0    0  0.00000000000E+00  0.00000000000E+00  0.50310210800E+02  0.13474745014E+03  0.12500303199E+03 0.  0.
          4    1    3    3  501    0  0.15430760674E+02  0.28317739386E+02  0.82843587661E+02  0.88912683322E+02  0.15500000000E+01 0.  1.
         -4    1    3    3    0  501 -0.15430760674E+02 -0.28317739386E+02 -0.32533376861E+02  0.45834766814E+02  0.15500000000E+01 0.  1.
<mgrwt>
<rscale>  2 0.12500303E+03</rscale>
<asrwt>0</asrwt>
<pdfrwt beam="1">  1       21 0.14235205E-01 0.12500303E+03</pdfrwt>
<pdfrwt beam="2">  1       21 0.64951723E-02 0.12500303E+03</pdfrwt>
<totfact> 0.72724304E+06</totfact>
</mgrwt>
</event>
<event>
 5    0  0.1322528E+000  0.1250076E+03  0.7546771E-02  0.1235057E+00
         21   -1    0    0  503  502  0.00000000000E+00  0.00000000000E+00  0.12287157761E+02  0.12287157761E+02  0.00000000000E+00 0. -1.
         21   -1    0    0  502  503 -0.00000000000E+00 -0.00000000000E+00 -0.31795204966E+03  0.31795204966E+03  0.00000000000E+00 0. -1.
         25    2    1    2    0    0  0.00000000000E+00  0.00000000000E+00 -0.30566489190E+03  0.33023920742E+03  0.12500763168E+03 0.  0.
          4    1    3    3  501    0  0.37295879860E+02 -0.31035249167E+01 -0.28501803648E+03  0.28746877768E+03  0.15500000000E+01 0. -1.
         -4    1    3    3    0  501 -0.37295879860E+02  0.31035249167E+01 -0.20646855416E+02  0.42770429738E+02  0.15500000000E+01 0. -1.
<mgrwt>
<rscale>  2 0.12500763E+03</rscale>
<asrwt>0</asrwt>
<pdfrwt beam="1">  1       21 0.18903320E-02 0.12500763E+03</pdfrwt>
<pdfrwt beam="2">  1       21 0.48915698E-01 0.12500763E+03</pdfrwt>
<totfact> 0.53021637E+06</totfact>
</mgrwt>
</event>
<event>
 5    0  0.1559815E+000  0.1249976E+03  0.7546771E-02  0.1235073E+00
         21   -1    0    0  503  502  0.00000000000E+00  0.00000000000E+00  0.27058005094E+03  0.27058005094E+03  0.00000000000E+00 0. -1.
         21   -1    0    0  502  503 -0.00000000000E+00 -0.00000000000E+00 -0.14436032970E+02  0.14436032970E+02  0.00000000000E+00 0. -1.
         25    2    1    2    0    0  0.00000000000E+00  0.00000000000E+00  0.25614401797E+03  0.28501608391E+03  0.12499764056E+03 0.  0.
          4    1    3    3  501    0 -0.60132487010E+02  0.74452445737E+01  0.16282891519E+03  0.17374408128E+03  0.15500000000E+01 0.  1.
         -4    1    3    3    0  501  0.60132487010E+02 -0.74452445737E+01  0.93315102785E+02  0.11127200263E+03  0.15500000000E+01 0.  1.
<mgrwt>
<rscale>  2 0.12499764E+03</rscale>
<asrwt>0</asrwt>
<pdfrwt beam="1">  1       21 0.41627696E-01 0.12499764E+03</pdfrwt>
<pdfrwt beam="2">  1       21 0.22209284E-02 0.12499764E+03</pdfrwt>
<totfact> 0.56728215E+06</totfact>
</mgrwt>
</event>
<event>
 5    0  0.1300253E+000  0.1250011E+03  0.7546771E-02  0.1235068E+00
         21   -1    0    0  503  502  0.00000000000E+00  0.00000000000E+00  0.52349028506E+03  0.52349028506E+03  0.00000000000E+00 0.  1.
         21   -1    0    0  502  503 -0.00000000000E+00 -0.00000000000E+00 -0.74620660107E+01  0.74620660107E+01  0.00000000000E+00 0.  1.
         25    2    1    2    0    0  0.00000000000E+00  0.00000000000E+00  0.51602821905E+03  0.53095235108E+03  0.12500110500E+03 0.  0.
          4    1    3    3  501    0 -0.23807301491E+02  0.14212267299E+02  0.20182160751E+02  0.34329262425E+02  0.15500000000E+01 0. -1.
         -4    1    3    3    0  501  0.23807301491E+02 -0.14212267299E+02  0.49584605830E+03  0.49662308865E+03  0.15500000000E+01 0. -1.
<mgrwt>
<rscale>  2 0.12500111E+03</rscale>
<asrwt>0</asrwt>
<pdfrwt beam="1">  1       21 0.80536938E-01 0.12500111E+03</pdfrwt>
<pdfrwt beam="2">  1       21 0.11480106E-02 0.12500111E+03</pdfrwt>
<totfact> 0.40412610E+06</totfact>
</mgrwt>
</event>
<event>
 4    0  0.1974742E+000  0.1245541E+03  0.7546771E-02  0.1235768E+00
         21   -1    0    0  503  502  0.00000000000E+00  0.00000000000E+00  0.11226373633E+03  0.11226373633E+03  0.00000000000E+00 0. -1.
         21   -1    0    0  502  503 -0.00000000000E+00 -0.00000000000E+00 -0.34547513465E+02  0.34547513465E+02  0.00000000000E+00 0. -1.
          4    1    1    2  501    0  0.22516233121E+02  0.57293520483E+02  0.49820741806E+02  0.79208819315E+02  0.15500000000E+01 0. -1.
         -4    1    1    2    0  501 -0.22516233121E+02 -0.57293520483E+02  0.27895481059E+02  0.67602430480E+02  0.15500000000E+01 0. -1.
<mgrwt>
<rscale>  2 0.12455413E+03</rscale>
<asrwt>0</asrwt>
<pdfrwt beam="1">  1       21 0.17271344E-01 0.12455413E+03</pdfrwt>
<pdfrwt beam="2">  1       21 0.53150021E-02 0.12455413E+03</pdfrwt>
<totfact> 0.71975928E+06</totfact>
</mgrwt>
</event>
<event>
 5    0  0.1222151E+000  0.1250046E+03  0.7546771E-02  0.1235062E+00
         21   -1    0    0  503  502  0.00000000000E+00  0.00000000000E+00  0.73563705838E+01  0.73563705838E+01  0.00000000000E+00 0.  1.
         21   -1    0    0  502  503 -0.00000000000E+00 -0.00000000000E+00 -0.53104113640E+03  0.53104113640E+03  0.00000000000E+00 0.  1.
         25    2    1    2    0    0  0.00000000000E+00  0.00000000000E+00 -0.52368476582E+03  0.53839750699E+03  0.12500456623E+03 0.  0.
          4    1    3    3  501    0  0.40788243339E+01  0.21267916982E+02 -0.51427844306E+03  0.51473651570E+03  0.15500000000E+01 0.  1.
         -4    1    3    3    0  501 -0.40788243339E+01 -0.21267916982E+02 -0.94063227583E+01  0.23660991284E+02  0.15500000000E+01 0.  1.
<mgrwt>
<rscale>  2 0.12500457E+03</rscale>
<asrwt>0</asrwt>
<pdfrwt beam="1">  1       21 0.11317493E-02 0.12500457E+03</pdfrwt>
<pdfrwt beam="2">  1       21 0.81698640E-01 0.12500457E+03</pdfrwt>
<totfact> 0.40030870E+06</totfact>
</mgrwt>
</event>
<event>
 5    0  0.1500822E+000  0.1249932E+03  0.7546771E-02  0.1235080E+00
         21   -1    0    0  503  502  0.00000000000E+00  0.00000000000E+00  0.30247917577E+02  0.30247917577E+02  0.00000000000E+00 0. -1.
         21   -1    0    0  502  503 -0.00000000000E+00 -0.00000000000E+00 -0.12912706562E+03  0.12912706562E+03  0.00000000000E+00 0. -1.
         25    2    1    2    0    0  0.00000000000E+00  0.00000000000E+00 -0.98879148040E+02  0.15937498319E+03  0.12499319722E+03 0.  0.
          4    1    3    3  501    0 -0.49731757373E+02  0.37319995709E+02 -0.57236553887E+02  0.84524880195E+02  0.15500000000E+01 0. -1.
         -4    1    3    3    0  501  0.49731757373E+02 -0.37319995709E+02 -0.41642594154E+02  0.74850102999E+02  0.15500000000E+01 0. -1.
<mgrwt>
<rscale>  2 0.12499320E+03</rscale>
<asrwt>0</asrwt>
<pdfrwt beam="1">  1       21 0.46535259E-02 0.12499320E+03</pdfrwt>
<pdfrwt beam="2">  1       21 0.19865702E-01 0.12499320E+03</pdfrwt>
<totfact> 0.69607986E+06</totfact>
</mgrwt>
</event>
<event>
 5    0  0.1523450E+000  0.1249940E+03  0.7546771E-02  0.1235079E+00
         21   -1    0    0  503  502  0.00000000000E+00  0.00000000000E+00  0.25447985541E+02  0.25447985541E+02  0.00000000000E+00 0. -1.
         21   -1    0    0  502  503 -0.00000000000E+00 -0.00000000000E+00 -0.15348452427E+03  0.15348452427E+03  0.00000000000E+00 0. -1.
         25    2    1    2    0    0  0.00000000000E+00  0.00000000000E+00 -0.12803653873E+03  0.17893250981E+03  0.12499395112E+03 0.  0.
          4    1    3    3  501    0 -0.34900009587E+02 -0.42543262272E+02 -0.10637629207E+03  0.11977586505E+03  0.15500000000E+01 0.  1.
         -4    1    3    3    0  501  0.34900009587E+02  0.42543262272E+02 -0.21660246657E+02  0.59156644759E+02  0.15500000000E+01 0.  1.
<mgrwt>
<rscale>  2 0.12499395E+03</rscale>
<asrwt>0</asrwt>
<pdfrwt beam="1">  1       21 0.39150748E-02 0.12499395E+03</pdfrwt>
<pdfrwt beam="2">  1       21 0.23613003E-01 0.12499395E+03</pdfrwt>
<totfact> 0.67284530E+06</totfact>
</mgrwt>
</event>
<event>
 5    0  0.1489223E+000  0.1250007E+03  0.7546771E-02  0.1235068E+00
         21   -1    0    0  503  502  0.00000000000E+00  0.00000000000E+00  0.14386856456E+03  0.14386856456E+03  0.00000000000E+00 0.  1.
         21   -1    0    0  502  503 -0.00000000000E+00 -0.00000000000E+00 -0.27151812467E+02  0.27151812467E+02  0.00000000000E+00 0.  1.
         25    2    1    2    0    0  0.00000000000E+00  0.00000000000E+00  0.11671675209E+03  0.17102037702E+03  0.12500067655E+03 0.  0.
          4    1    3    3  501    0 -0.57498740716E+02 -0.16611080871E+02  0.33813168940E+02  0.68758752792E+02  0.15500000000E+01 0.  1.
         -4    1    3    3    0  501  0.57498740716E+02  0.16611080871E+02  0.82903583150E+02  0.10226162423E+03  0.15500000000E+01 0.  1.
<mgrwt>
<rscale>  2 0.12500068E+03</rscale>
<asrwt>0</asrwt>
<pdfrwt beam="1">  1       21 0.22133625E-01 0.12500068E+03</pdfrwt>
<pdfrwt beam="2">  1       21 0.41772020E-02 0.12500068E+03</pdfrwt>
<totfact> 0.68195710E+06</totfact>
</mgrwt>
</event>
<event>
 5    0  0.1316085E+000  0.1249979E+03  0.7546771E-02  0.1235073E+00
         21   -1    0    0  503  502  0.00000000000E+00  0.00000000000E+00  0.59300000875E+01  0.59300000875E+01  0.00000000000E+00 0. -1.
         21   -1    0    0  502  503 -0.00000000000E+00 -0.00000000000E+00 -0.65870469627E+03  0.65870469627E+03  0.00000000000E+00 0. -1.
         25    2    1    2    0    0  0.00000000000E+00  0.00000000000E+00 -0.65277469618E+03  0.66463469636E+03  0.12499790249E+03 0.  0.
          4    1    3    3  501    0  0.47106711389E+02 -0.40795107742E+02 -0.30235202917E+03  0.30871092484E+03  0.15500000000E+01 0.  1.
         -4    1    3    3    0  501 -0.47106711389E+02  0.40795107742E+02 -0.35042266701E+03  0.35592377152E+03  0.15500000000E+01 0.  1.
<mgrwt>
<rscale>  2 0.12499790E+03</rscale>
<asrwt>0</asrwt>
<pdfrwt beam="1">  1       21 0.91230757E-03 0.12499790E+03</pdfrwt>
<pdfrwt beam="2">  1       21 0.10133920E+00 0.12499790E+03</pdfrwt>
<totfact> 0.34320398E+06</totfact>
</mgrwt>
</event>
<event>
 5    0  0.1222151E+000  0.1250015E+03  0.7546771E-02  0.1235067E+00
         21   -1    0    0  503  502  0.00000000000E+00  0.00000000000E+00  0.15300593813E+04  0.15300593813E+04  0.00000000000E+00 0.  1.
         21   -1    0    0  502  503 -0.00000000000E+00 -0.00000000000E+00 -0.25530665775E+01  0.25530665775E+01  0.00000000000E+00 0.  1.
         25    2    1    2    0    0  0.00000000000E+00  0.00000000000E+00  0.15275063148E+04  0.15326124479E+04  0.12500149548E+03 0.  0.
          4    1    3    3  501    0 -0.52448995759E+02 -0.31904690875E+02  0.62122512860E+03  0.62425304914E+03  0.15500000000E+01 0. -1.
         -4    1    3    3    0  501  0.52448995759E+02  0.31904690875E+02  0.90628118616E+03  0.90835939878E+03  0.15500000000E+01 0. -1.
<mgrwt>
<rscale>  2 0.12500150E+03</rscale>
<asrwt>0</asrwt>
<pdfrwt beam="1">  1       21 0.23539302E+00 0.12500150E+03</pdfrwt>
<pdfrwt beam="2">  1       21 0.39278070E-03 0.12500150E+03</pdfrwt>
<totfact> 0.13515624E+06</totfact>
</mgrwt>
</event>
<event>
 5    0  0.1333839E+000  0.1249992E+03  0.7546771E-02  0.1235071E+00
         21   -1    0    0  503  502  0.00000000000E+00  0.00000000000E+00  0.55058478828E+03  0.55058478828E+03  0.00000000000E+00 0. -1.
         21   -1    0    0  502  503 -0.00000000000E+00 -0.00000000000E+00 -0.70946363643E+01  0.70946363643E+01  0.00000000000E+00 0. -1.
         25    2    1    2    0    0  0.00000000000E+00  0.00000000000E+00  0.54349015192E+03  0.55767942465E+03  0.12499918177E+03 0.  0.
          4    1    3    3  501    0  0.87922829337E+01  0.58415233443E+02  0.18095096933E+03  0.19035571843E+03  0.15500000000E+01 0.  1.
         -4    1    3    3    0  501 -0.87922829337E+01 -0.58415233443E+02  0.36253918259E+03  0.36732370622E+03  0.15500000000E+01 0.  1.
<mgrwt>
<rscale>  2 0.12499918E+03</rscale>
<asrwt>0</asrwt>
<pdfrwt beam="1">  1       21 0.84705319E-01 0.12499918E+03</pdfrwt>
<pdfrwt beam="2">  1       21 0.10914829E-02 0.12499918E+03</pdfrwt>
<totfact> 0.39080057E+06</totfact>
</mgrwt>
</event>
<event>
 5    0  0.1222151E+000  0.1249966E+03  0.7546771E-02  0.1235075E+00
         21   -1    0    0  503  502  0.00000000000E+00  0.00000000000E+00  0.86058653357E+03  0.86058653357E+03  0.00000000000E+00 0. -1.
         21   -1    0    0  502  503 -0.00000000000E+00 -0.00000000000E+00 -0.45388111848E+01  0.45388111848E+01  0.00000000000E+00 0. -1.
         25    2    1    2    0    0  0.00000000000E+00  0.00000000000E+00  0.85604772239E+03  0.86512534476E+03  0.12499663650E+03 0.  0.
          4    1    3    3  501    0 -0.56173801543E+02  0.18858972049E+02  0.56514036722E+03  0.56824043676E+03  0.15500000000E+01 0.  1.
         -4    1    3    3    0  501  0.56173801543E+02 -0.18858972049E+02  0.29090735517E+03  0.29688490800E+03  0.15500000000E+01 0.  1.
<mgrwt>
<rscale>  2 0.12499664E+03</rscale>
<asrwt>0</asrwt>
<pdfrwt beam="1">  1       21 0.13239780E+00 0.12499664E+03</pdfrwt>
<pdfrwt beam="2">  1       21 0.69827933E-03 0.12499664E+03</pdfrwt>
<totfact> 0.27317465E+06</totfact>
</mgrwt>
</event>
<event>
 5    0  0.1576070E+000  0.1249997E+03  0.7546771E-02  0.1235070E+00
         21   -1    0    0  503  502  0.00000000000E+00  0.00000000000E+00  0.13452806246E+03  0.13452806246E+03  0.00000000000E+00 0. -1.
         21   -1    0    0  502  503 -0.00000000000E+00 -0.00000000000E+00 -0.29036567544E+02  0.29036567544E+02  0.00000000000E+00 0. -1.
         25    2    1    2    0    0  0.00000000000E+00  0.00000000000E+00  0.10549149492E+03  0.16356463000E+03  0.12499973075E+03 0.  0.
          4    1    3    3  501    0 -0.28581052645E+02  0.54441203706E+02  0.38227105430E+02  0.72418473616E+02  0.15500000000E+01 0. -1.
         -4    1    3    3    0  501  0.28581052645E+02 -0.54441203706E+02  0.67264389485E+02  0.91146156387E+02  0.15500000000E+01 0. -1.
<mgrwt>
<rscale>  2 0.12499973E+03</rscale>
<asrwt>0</asrwt>
<pdfrwt beam="1">  1       21 0.20696625E-01 0.12499973E+03</pdfrwt>
<pdfrwt beam="2">  1       21 0.44671643E-02 0.12499973E+03</pdfrwt>
<totfact> 0.69087012E+06</totfact>
</mgrwt>
</event>
<event>
 5    0  0.1461239E+000  0.1250035E+03  0.7546771E-02  0.1235064E+00
         21   -1    0    0  503  502  0.00000000000E+00  0.00000000000E+00  0.25619019850E+03  0.25619019850E+03  0.00000000000E+00 0.  1.
         21   -1    0    0  502  503 -0.00000000000E+00 -0.00000000000E+00 -0.15248308907E+02  0.15248308907E+02  0.00000000000E+00 0.  1.
         25    2    1    2    0    0  0.00000000000E+00  0.00000000000E+00  0.24094188959E+03  0.27143850741E+03  0.12500347652E+03 0.  0.
          4    1    3    3  501    0 -0.51707490201E+02  0.76227121130E+01  0.46123211686E+02  0.69724625772E+02  0.15500000000E+01 0.  1.
         -4    1    3    3    0  501  0.51707490201E+02 -0.76227121130E+01  0.19481867791E+03  0.20171388164E+03  0.15500000000E+01 0.  1.
<mgrwt>
<rscale>  2 0.12500348E+03</rscale>
<asrwt>0</asrwt>
<pdfrwt beam="1">  1       21 0.39413874E-01 0.12500348E+03</pdfrwt>
<pdfrwt beam="2">  1       21 0.23458939E-02 0.12500348E+03</pdfrwt>
<totfact> 0.57911399E+06</totfact>
</mgrwt>
</event>
<event>
 5    0  0.1279264E+000  0.1249996E+03  0.7546771E-02  0.1235070E+00
         21   -1    0    0  503  502  0.00000000000E+00  0.00000000000E+00  0.55219941543E+01  0.55219941543E+01  0.00000000000E+00 0.  1.
         21   -1    0    0  502  503 -0.00000000000E+00 -0.00000000000E+00 -0.70739343282E+03  0.70739343282E+03  0.00000000000E+00 0.  1.
         25    2    1    2    0    0  0.00000000000E+00  0.00000000000E+00 -0.70187143866E+03  0.71291542697E+03  0.12499955841E+03 0.  0.
          4    1    3    3  501    0 -0.18324367550E+02  0.59668649153E+02 -0.36675133159E+03  0.37202832132E+03  0.15500000000E+01 0.  1.
         -4    1    3    3    0  501  0.18324367550E+02 -0.59668649153E+02 -0.33512010707E+03  0.34088710565E+03  0.15500000000E+01 0.  1.
<mgrwt>
<rscale>  2 0.12499956E+03</rscale>
<asrwt>0</asrwt>
<pdfrwt beam="1">  1       21 0.84953790E-03 0.12499956E+03</pdfrwt>
<pdfrwt beam="2">  1       21 0.10882972E+00 0.12499956E+03</pdfrwt>
<totfact> 0.32418485E+06</totfact>
</mgrwt>
</event>
<event>
 5    0  0.1267282E+000  0.1249933E+03  0.7546771E-02  0.1235080E+00
         21   -1    0    0  503  502  0.00000000000E+00  0.00000000000E+00  0.67758528285E+01  0.67758528285E+01  0.00000000000E+00 0. -1.
         21   -1    0    0  502  503 -0.00000000000E+00 -0.00000000000E+00 -0.57643382786E+03  0.57643382786E+03  0.00000000000E+00 0. -1.
         25    2    1    2    0    0  0.00000000000E+00  0.00000000000E+00 -0.56965797503E+03  0.58320968069E+03  0.12499329235E+03 0.  0.
          4    1    3    3  501    0  0.60760089721E+02  0.11011515377E+02 -0.32918876337E+03  0.33493385377E+03  0.15500000000E+01 0. -1.
         -4    1    3    3    0  501 -0.60760089721E+02 -0.11011515377E+02 -0.24046921166E+03  0.24827582692E+03  0.15500000000E+01 0. -1.
<mgrwt>
<rscale>  2 0.12499329E+03</rscale>
<asrwt>0</asrwt>
<pdfrwt beam="1">  1       21 0.10424388E-02 0.12499329E+03</pdfrwt>
<pdfrwt beam="2">  1       21 0.88682138E-01 0.12499329E+03</pdfrwt>
<totfact> 0.37869437E+06</totfact>
</mgrwt>
</event>
<event>
 5    0  0.1553522E+000  0.1250033E+03  0.7546771E-02  0.1235064E+00
         21   -1    0    0  503  502  0.00000000000E+00  0.00000000000E+00  0.15574756713E+03  0.15574756713E+03  0.00000000000E+00 0.  1.
         21   -1    0    0  502  503 -0.00000000000E+00 -0.00000000000E+00 -0.25081962323E+02  0.25081962323E+02  0.00000000000E+00 0.  1.
         25    2    1    2    0    0  0.00000000000E+00  0.00000000000E+00  0.13066560481E+03  0.18082952945E+03  0.12500327373E+03 0.  0.
          4    1    3    3  501    0  0.36390410451E+02  0.47857785907E+02  0.40722662364E+02  0.72631724300E+02  0.15500000000E+01 0. -1.
         -4    1    3    3    0  501 -0.36390410451E+02 -0.47857785907E+02  0.89942942444E+02  0.10819780515E+03  0.15500000000E+01 0. -1.
<mgrwt>
<rscale>  2 0.12500327E+03</rscale>
<asrwt>0</asrwt>
<pdfrwt beam="1">  1       21 0.23961163E-01 0.12500327E+03</pdfrwt>
<pdfrwt beam="2">  1       21 0.38587635E-02 0.12500327E+03</pdfrwt>
<totfact> 0.67050936E+06</totfact>
</mgrwt>
</event>
<event>
 5    0  0.1222151E+000  0.1250375E+03  0.7546771E-02  0.1235011E+00
         21   -1    0    0  503  502  0.00000000000E+00  0.00000000000E+00  0.44007269415E+01  0.44007269415E+01  0.00000000000E+00 0.  1.
         21   -1    0    0  502  503 -0.00000000000E+00 -0.00000000000E+00 -0.88817079042E+03  0.88817079042E+03  0.00000000000E+00 0.  1.
         25    2    1    2    0    0  0.00000000000E+00  0.00000000000E+00 -0.88377006348E+03  0.89257151736E+03  0.12503754838E+03 0.  0.
          4    1    3    3  501    0  0.51056912129E+02  0.31936940087E+02 -0.32256044867E+03  0.32813780941E+03  0.15500000000E+01 0.  1.
         -4    1    3    3    0  501 -0.51056912129E+02 -0.31936940087E+02 -0.56120961481E+03  0.56443370795E+03  0.15500000000E+01 0.  1.
<mgrwt>
<rscale>  2 0.12503755E+03</rscale>
<asrwt>0</asrwt>
<pdfrwt beam="1">  1       21 0.67703453E-03 0.12503755E+03</pdfrwt>
<pdfrwt beam="2">  1       21 0.13664174E+00 0.12503755E+03</pdfrwt>
<totfact> 0.26488918E+06</totfact>
</mgrwt>
</event>
<event>
 5    0  0.1594922E+000  0.1249946E+03  0.7546771E-02  0.1235078E+00
         21   -1    0    0  503  502  0.00000000000E+00  0.00000000000E+00  0.89610947033E+02  0.89610947033E+02  0.00000000000E+00 0.  1.
         21   -1    0    0  502  503 -0.00000000000E+00 -0.00000000000E+00 -0.43587423716E+02  0.43587423716E+02  0.00000000000E+00 0.  1.
         25    2    1    2    0    0  0.00000000000E+00  0.00000000000E+00  0.46023523317E+02  0.13319837075E+03  0.12499456497E+03 0.  0.
          4    1    3    3  501    0  0.32512248377E+02  0.41944670329E+02 -0.12123545982E+02  0.54459016982E+02  0.15500000000E+01 0.  1.
         -4    1    3    3    0  501 -0.32512248377E+02 -0.41944670329E+02  0.58147069298E+02  0.78739353766E+02  0.15500000000E+01 0.  1.
<mgrwt>
<rscale>  2 0.12499456E+03</rscale>
<asrwt>0</asrwt>
<pdfrwt beam="1">  1       21 0.13786299E-01 0.12499456E+03</pdfrwt>
<pdfrwt beam="2">  1       21 0.67057575E-02 0.12499456E+03</pdfrwt>
<totfact> 0.72946033E+06</totfact>
</mgrwt>
</event>
<event>
 5    0  0.1461796E+000  0.1250087E+03  0.7546771E-02  0.1235056E+00
         21   -1    0    0  503  502  0.00000000000E+00  0.00000000000E+00  0.11658559734E+03  0.11658559734E+03  0.00000000000E+00 0.  1.
         21   -1    0    0  502  503 -0.00000000000E+00 -0.00000000000E+00 -0.33510085497E+02  0.33510085497E+02  0.00000000000E+00 0.  1.
         25    2    1    2    0    0  0.00000000000E+00  0.00000000000E+00  0.83075511840E+02  0.15009568283E+03  0.12500869305E+03 0.  0.
          4    1    3    3  501    0  0.37009007678E+02  0.37573749668E+02  0.81772920567E+02  0.97317348666E+02  0.15500000000E+01 0. -1.
         -4    1    3    3    0  501 -0.37009007678E+02 -0.37573749668E+02  0.13025912730E+01  0.52778334167E+02  0.15500000000E+01 0. -1.
<mgrwt>
<rscale>  2 0.12500869E+03</rscale>
<asrwt>0</asrwt>
<pdfrwt beam="1">  1       21 0.17936246E-01 0.12500869E+03</pdfrwt>
<pdfrwt beam="2">  1       21 0.51553978E-02 0.12500869E+03</pdfrwt>
<totfact> 0.70731531E+06</totfact>
</mgrwt>
</event>
<event>
 5    0  0.1464452E+000  0.1249989E+03  0.7546771E-02  0.1235071E+00
         21   -1    0    0  503  502  0.00000000000E+00  0.00000000000E+00  0.29333920170E+03  0.29333920170E+03  0.00000000000E+00 0.  1.
         21   -1    0    0  502  503 -0.00000000000E+00 -0.00000000000E+00 -0.13316263190E+02  0.13316263190E+02  0.00000000000E+00 0.  1.
         25    2    1    2    0    0  0.00000000000E+00  0.00000000000E+00  0.28002293851E+03  0.30665546489E+03  0.12499891222E+03 0.  0.
          4    1    3    3  501    0  0.19489551155E+02 -0.59313470816E+02  0.13407827453E+03  0.14790982600E+03  0.15500000000E+01 0. -1.
         -4    1    3    3    0  501 -0.19489551155E+02  0.59313470816E+02  0.14594466397E+03  0.15874563889E+03  0.15500000000E+01 0. -1.
<mgrwt>
<rscale>  2 0.12499891E+03</rscale>
<asrwt>0</asrwt>
<pdfrwt beam="1">  1       21 0.45129103E-01 0.12499891E+03</pdfrwt>
<pdfrwt beam="2">  1       21 0.20486561E-02 0.12499891E+03</pdfrwt>
<totfact> 0.54909077E+06</totfact>
</mgrwt>
</event>
<event>
 5    0  0.1418916E+000  0.1250034E+03  0.7546771E-02  0.1235064E+00
         21   -1    0    0  503  502  0.00000000000E+00  0.00000000000E+00  0.16006226237E+03  0.16006226237E+03  0.00000000000E+00 0.  1.
         21   -1    0    0  502  503 -0.00000000000E+00 -0.00000000000E+00 -0.24405892820E+02  0.24405892820E+02  0.00000000000E+00 0.  1.
         25    2    1    2    0    0  0.00000000000E+00  0.00000000000E+00  0.13565636955E+03  0.18446815519E+03  0.12500339867E+03 0.  0.
          4    1    3    3  501    0 -0.49104468423E+02 -0.69137203746E+01  0.12392461768E+03  0.13348693463E+03  0.15500000000E+01 0. -1.
         -4    1    3    3    0  501  0.49104468423E+02  0.69137203746E+01  0.11731751872E+02  0.50981220567E+02  0.15500000000E+01 0. -1.
<mgrwt>
<rscale>  2 0.12500340E+03</rscale>
<asrwt>0</asrwt>
<pdfrwt beam="1">  1       21 0.24624963E-01 0.12500340E+03</pdfrwt>
<pdfrwt beam="2">  1       21 0.37547528E-02 0.12500340E+03</pdfrwt>
<totfact> 0.66636882E+06</totfact>
</mgrwt>
</event>
<event>
 5    0  0.1494838E+000  0.1249975E+03  0.7546771E-02  0.1235073E+00
         21   -1    0    0  503  502  0.00000000000E+00  0.00000000000E+00  0.21783370784E+03  0.21783370784E+03  0.00000000000E+00 0. -1.
         21   -1    0    0  502  503 -0.00000000000E+00 -0.00000000000E+00 -0.17931542811E+02  0.17931542811E+02  0.00000000000E+00 0. -1.
         25    2    1    2    0    0  0.00000000000E+00  0.00000000000E+00  0.19990216503E+03  0.23576525065E+03  0.12499751130E+03 0.  0.
          4    1    3    3  501    0 -0.34868477517E+02  0.29102987491E+02  0.19024124614E+02  0.49265753040E+02  0.15500000000E+01 0. -1.
         -4    1    3    3    0  501  0.34868477517E+02 -0.29102987491E+02  0.18087804042E+03  0.18649949761E+03  0.15500000000E+01 0. -1.
<mgrwt>
<rscale>  2 0.12499751E+03</rscale>
<asrwt>0</asrwt>
<pdfrwt beam="1">  1       21 0.33512876E-01 0.12499751E+03</pdfrwt>
<pdfrwt beam="2">  1       21 0.27586991E-02 0.12499751E+03</pdfrwt>
<totfact> 0.61248720E+06</totfact>
</mgrwt>
</event>
<event>
 5    0  0.1222151E+000  0.1250132E+03  0.7546771E-02  0.1235049E+00
         21   -1    0    0  503  502  0.00000000000E+00  0.00000000000E+00  0.55950620161E+01  0.55950620161E+01  0.00000000000E+00 0.  1.
         21   -1    0    0  502  503 -0.00000000000E+00 -0.00000000000E+00 -0.69830828553E+03  0.69830828553E+03  0.00000000000E+00 0.  1.
         25    2    1    2    0    0  0.00000000000E+00  0.00000000000E+00 -0.69271322352E+03  0.70390334755E+03  0.12501324992E+03 0.  0.
          4    1    3    3  501    0 -0.26556504768E+02 -0.73705304788E+01 -0.66212919607E+03  0.66270434392E+03  0.15500000000E+01 0. -1.
         -4    1    3    3    0  501  0.26556504768E+02  0.73705304788E+01 -0.30584027449E+02  0.41199003629E+02  0.15500000000E+01 0. -1.
<mgrwt>
<rscale>  2 0.12501325E+03</rscale>
<asrwt>0</asrwt>
<pdfrwt beam="1">  1       21 0.86077885E-03 0.12501325E+03</pdfrwt>
<pdfrwt beam="2">  1       21 0.10743203E+00 0.12501325E+03</pdfrwt>
<totfact> 0.32749439E+06</totfact>
</mgrwt>
</event>
<event>
 5    0  0.1619487E+000  0.1249986E+03  0.7546771E-02  0.1235071E+00
         21   -1    0    0  503  502  0.00000000000E+00  0.00000000000E+00  0.77096355219E+02  0.77096355219E+02  0.00000000000E+00 0. -1.
         21   -1    0    0  502  503 -0.00000000000E+00 -0.00000000000E+00 -0.50665994510E+02  0.50665994510E+02  0.00000000000E+00 0. -1.
         25    2    1    2    0    0  0.00000000000E+00  0.00000000000E+00  0.26430360709E+02  0.12776234973E+03  0.12499861616E+03 0.  0.
          4    1    3    3  501    0 -0.56135960806E+01  0.57044916175E+02  0.38627026783E+02  0.69138156039E+02  0.15500000000E+01 0.  1.
         -4    1    3    3    0  501  0.56135960806E+01 -0.57044916175E+02 -0.12196666075E+02  0.58624193690E+02  0.15500000000E+01 0.  1.
<mgrwt>
<rscale>  2 0.12499862E+03</rscale>
<asrwt>0</asrwt>
<pdfrwt beam="1">  1       21 0.11860978E-01 0.12499862E+03</pdfrwt>
<pdfrwt beam="2">  1       21 0.77947684E-02 0.12499862E+03</pdfrwt>
<totfact> 0.73668290E+06</totfact>
</mgrwt>
</event>
<event>
 5    0  0.1540924E+000  0.1250031E+03  0.7546771E-02  0.1235064E+00
         21   -1    0    0  503  502  0.00000000000E+00  0.00000000000E+00  0.29253850341E+02  0.29253850341E+02  0.00000000000E+00 0.  1.
         21   -1    0    0  502  503 -0.00000000000E+00 -0.00000000000E+00 -0.13353604772E+03  0.13353604772E+03  0.00000000000E+00 0.  1.
         25    2    1    2    0    0  0.00000000000E+00  0.00000000000E+00 -0.10428219738E+03  0.16278989806E+03  0.12500309684E+03 0.  0.
          4    1    3    3  501    0 -0.46667571283E+02 -0.41201484475E+02 -0.59107606173E+02  0.85857650445E+02  0.15500000000E+01 0.  1.
         -4    1    3    3    0  501  0.46667571283E+02  0.41201484475E+02 -0.45174591203E+02  0.76932247613E+02  0.15500000000E+01 0.  1.
<mgrwt>
<rscale>  2 0.12500310E+03</rscale>
<asrwt>0</asrwt>
<pdfrwt beam="1">  1       21 0.45005924E-02 0.12500310E+03</pdfrwt>
<pdfrwt beam="2">  1       21 0.20544007E-01 0.12500310E+03</pdfrwt>
<totfact> 0.69174752E+06</totfact>
</mgrwt>
</event>
<event>
 5    0  0.1440901E+000  0.1250029E+03  0.7546771E-02  0.1235065E+00
         21   -1    0    0  503  502  0.00000000000E+00  0.00000000000E+00  0.68618825174E+02  0.68618825174E+02  0.00000000000E+00 0.  1.
         21   -1    0    0  502  503 -0.00000000000E+00 -0.00000000000E+00 -0.56929400310E+02  0.56929400310E+02  0.00000000000E+00 0.  1.
         25    2    1    2    0    0  0.00000000000E+00  0.00000000000E+00  0.11689424864E+02  0.12554822548E+03  0.12500285704E+03 0.  0.
          4    1    3    3  501    0 -0.12773538152E+02  0.24811940753E+02  0.61992372066E+02  0.68001855675E+02  0.15500000000E+01 0. -1.
         -4    1    3    3    0  501  0.12773538152E+02 -0.24811940753E+02 -0.50302947202E+02  0.57546369808E+02  0.15500000000E+01 0. -1.
<mgrwt>
<rscale>  2 0.12500286E+03</rscale>
<asrwt>0</asrwt>
<pdfrwt beam="1">  1       21 0.10556742E-01 0.12500286E+03</pdfrwt>
<pdfrwt beam="2">  1       21 0.87583693E-02 0.12500286E+03</pdfrwt>
<totfact> 0.73963273E+06</totfact>
</mgrwt>
</event>
<event>
 5    0  0.1548033E+000  0.1250531E+03  0.7546771E-02  0.1234986E+00
         21   -1    0    0  503  502  0.00000000000E+00  0.00000000000E+00  0.73640874520E+02  0.73640874520E+02  0.00000000000E+00 0.  1.
         21   -1    0    0  502  503 -0.00000000000E+00 -0.00000000000E+00 -0.53089647934E+02  0.53089647934E+02  0.00000000000E+00 0.  1.
         25    2    1    2    0    0  0.00000000000E+00  0.00000000000E+00  0.20551226586E+02  0.12673052245E+03  0.12505307836E+03 0.  0.
          4    1    3    3  501    0  0.51731575227E+02 -0.21672485962E+02 -0.17686402947E+02  0.58830807171E+02  0.15500000000E+01 0.  1.
         -4    1    3    3    0  501 -0.51731575227E+02  0.21672485962E+02  0.38237629533E+02  0.67899715283E+02  0.15500000000E+01 0.  1.
<mgrwt>
<rscale>  2 0.12505308E+03</rscale>
<asrwt>0</asrwt>
<pdfrwt beam="1">  1       21 0.11329365E-01 0.12505308E+03</pdfrwt>
<pdfrwt beam="2">  1       21 0.81676381E-02 0.12505308E+03</pdfrwt>
<totfact> 0.73705968E+06</totfact>
</mgrwt>
</event>
<event>
 5    0  0.1251446E+000  0.1250002E+03  0.7546771E-02  0.1235069E+00
         21   -1    0    0  503  502  0.00000000000E+00  0.00000000000E+00  0.10630224716E+02  0.10630224716E+02  0.00000000000E+00 0.  1.
         21   -1    0    0  502  503 -0.00000000000E+00 -0.00000000000E+00 -0.36746741849E+03  0.36746741849E+03  0.00000000000E+00 0.  1.
         25    2    1    2    0    0  0.00000000000E+00  0.00000000000E+00 -0.35683719377E+03  0.37809764320E+03  0.12500017975E+03 0.  0.
          4    1    3    3  501    0 -0.17543578840E+02 -0.23886699735E+02 -0.12041928049E+02  0.32027521195E+02  0.15500000000E+01 0.  1.
         -4    1    3    3    0  501  0.17543578840E+02  0.23886699735E+02 -0.34479526572E+03  0.34607012201E+03  0.15500000000E+01 0.  1.
<mgrwt>
<rscale>  2 0.12500018E+03</rscale>
<asrwt>0</asrwt>
<pdfrwt beam="1">  1       21 0.16354195E-02 0.12500018E+03</pdfrwt>
<pdfrwt beam="2">  1       21 0.56533438E-01 0.12500018E+03</pdfrwt>
<totfact> 0.49527742E+06</totfact>
</mgrwt>
</event>
