<event>
 5    0  0.1543324E+000  0.1250011E+03  0.7546771E-02  0.1235068E+00
         21   -1    0    0  503  502  0.00000000000E+00  0.00000000000E+00  0.54479444759E+02  0.54479444759E+02  0.00000000000E+00 0.  1.
         21   -1    0    0  502  503 -0.00000000000E+00 -0.00000000000E+00 -0.71702587642E+02  0.71702587642E+02  0.00000000000E+00 0.  1.
         25    2    1    2    0    0  0.00000000000E+00  0.00000000000E+00 -0.17223142883E+02  0.12618203240E+03  0.12500107460E+03 0.  0.
          4    1    3    3  501    0 -0.36145013019E+02 -0.49886442206E+02 -0.19140626543E+02  0.64528173433E+02  0.15500000000E+01 0. -1.
         -4    1    3    3    0  501  0.36145013019E+02  0.49886442206E+02  0.19174836604E+01  0.61653858969E+02  0.15500000000E+01 0. -1.
<mgrwt>
<rscale>  2 0.12500107E+03</rscale>
<asrwt>0</asrwt>
<pdfrwt beam="1">  1       21 0.83814530E-02 0.12500107E+03</pdfrwt>
<pdfrwt beam="2">  1       21 0.11031167E-01 0.12500107E+03</pdfrwt>
<totfact> 0.73878954E+06</totfact>
</mgrwt>
</event>
<event>
 5    0  0.1504096E+000  0.1249933E+03  0.7546771E-02  0.1235080E+00
         21   -1    0    0  503  502  0.00000000000E+00  0.00000000000E+00  0.15760435993E+03  0.15760435993E+03  0.00000000000E+00 0. -1.
         21   -1    0    0  502  503 -0.00000000000E+00 -0.00000000000E+00 -0.24782497471E+02  0.24782497471E+02  0.00000000000E+00 0. -1.
         25    2    1    2    0    0  0.00000000000E+00  0.00000000000E+00  0.13282186246E+03  0.18238685740E+03  0.12499327424E+03 0.  0.
          4    1    3    3  501    0  0.60215272016E+02  0.34391803835E+01  0.90196809146E+02  0.10851531609E+03  0.15500000000E+01 0.  1.
         -4    1    3    3    0  501 -0.60215272016E+02 -0.34391803835E+01  0.42625053310E+02  0.73871541309E+02  0.15500000000E+01 0.  1.
<mgrwt>
<rscale>  2 0.12499327E+03</rscale>
<asrwt>0</asrwt>
<pdfrwt beam="1">  1       21 0.24246824E-01 0.12499327E+03</pdfrwt>
<pdfrwt beam="2">  1       21 0.38126920E-02 0.12499327E+03</pdfrwt>
<totfact> 0.66890181E+06</totfact>
</mgrwt>
</event>
<event>
 5    0  0.1358198E+000  0.1249935E+03  0.7546771E-02  0.1235079E+00
         21   -1    0    0  503  502  0.00000000000E+00  0.00000000000E+00  0.30657587932E+03  0.30657587932E+03  0.00000000000E+00 0.  1.
         21   -1    0    0  502  503 -0.00000000000E+00 -0.00000000000E+00 -0.12740221485E+02  0.12740221485E+02  0.00000000000E+00 0.  1.
         25    2    1    2    0    0  0.00000000000E+00  0.00000000000E+00  0.29383565783E+03  0.31931610080E+03  0.12499351351E+03 0.  0.
          4    1    3    3  501    0 -0.11851065116E+02 -0.43365036831E+02  0.25775798681E+03  0.26165350452E+03  0.15500000000E+01 0.  1.
         -4    1    3    3    0  501  0.11851065116E+02  0.43365036831E+02  0.36077671027E+02  0.57662596286E+02  0.15500000000E+01 0.  1.
<mgrwt>
<rscale>  2 0.12499351E+03</rscale>
<asrwt>0</asrwt>
<pdfrwt beam="1">  1       21 0.47165514E-01 0.12499351E+03</pdfrwt>
<pdfrwt beam="2">  1       21 0.19600343E-02 0.12499351E+03</pdfrwt>
<totfact> 0.53896356E+06</totfact>
</mgrwt>
</event>
<event>
 5    0  0.1222151E+000  0.1250111E+03  0.7546771E-02  0.1235052E+00
         21   -1    0    0  503  502  0.00000000000E+00  0.00000000000E+00  0.41136140291E+01  0.41136140291E+01  0.00000000000E+00 0.  1.
         21   -1    0    0  502  503 -0.00000000000E+00 -0.00000000000E+00 -0.94975942452E+03  0.94975942452E+03  0.00000000000E+00 0.  1.
         25    2    1    2    0    0  0.00000000000E+00  0.00000000000E+00 -0.94564581049E+03  0.95387303855E+03  0.12501109860E+03 0.  0.
          4    1    3    3  501    0 -0.22818663166E+02  0.39202474100E+02 -0.80075000678E+03  0.80203522442E+03  0.15500000000E+01 0. -1.
         -4    1    3    3    0  501  0.22818663166E+02 -0.39202474100E+02 -0.14489580371E+03  0.15183781412E+03  0.15500000000E+01 0. -1.
<mgrwt>
<rscale>  2 0.12501110E+03</rscale>
<asrwt>0</asrwt>
<pdfrwt beam="1">  1       21 0.63286407E-03 0.12501110E+03</pdfrwt>
<pdfrwt beam="2">  1       21 0.14611675E+00 0.12501110E+03</pdfrwt>
<totfact> 0.24801196E+06</totfact>
</mgrwt>
</event>
<event>
 5    0  0.1538149E+000  0.1250027E+03  0.7546771E-02  0.1235065E+00
         21   -1    0    0  503  502  0.00000000000E+00  0.00000000000E+00  0.18024882040E+03  0.18024882040E+03  0.00000000000E+00 0. -1.
         21   -1    0    0  502  503 -0.00000000000E+00 -0.00000000000E+00 -0.21672370689E+02  0.21672370689E+02  0.00000000000E+00 0. -1.
         25    2    1    2    0    0  0.00000000000E+00  0.00000000000E+00  0.15857644971E+03  0.20192119109E+03  0.12500270800E+03 0.  0.
          4    1    3    3  501    0 -0.10813135149E+02 -0.58167858466E+02  0.11173969267E+03  0.12644597688E+03  0.15500000000E+01 0.  1.
         -4    1    3    3    0  501  0.10813135149E+02  0.58167858466E+02  0.46836757038E+02  0.75475214211E+02  0.15500000000E+01 0.  1.
<mgrwt>
<rscale>  2 0.12500271E+03</rscale>
<asrwt>0</asrwt>
<pdfrwt beam="1">  1       21 0.27730587E-01 0.12500271E+03</pdfrwt>
<pdfrwt beam="2">  1       21 0.33342110E-02 0.12500271E+03</pdfrwt>
<totfact> 0.64715236E+06</totfact>
</mgrwt>
</event>
<event>
 5    0  0.1222151E+000  0.1249976E+03  0.7546771E-02  0.1235073E+00
         21   -1    0    0  503  502  0.00000000000E+00  0.00000000000E+00  0.41286080801E+01  0.41286080801E+01  0.00000000000E+00 0. -1.
         21   -1    0    0  502  503 -0.00000000000E+00 -0.00000000000E+00 -0.94610529380E+03  0.94610529380E+03  0.00000000000E+00 0. -1.
         25    2    1    2    0    0  0.00000000000E+00  0.00000000000E+00 -0.94197668572E+03  0.95023390188E+03  0.12499756735E+03 0.  0.
          4    1    3    3  501    0 -0.37130601230E+02 -0.50247290338E+02 -0.46739260761E+03  0.47155246143E+03  0.15500000000E+01 0.  1.
         -4    1    3    3    0  501  0.37130601230E+02  0.50247290338E+02 -0.47458407810E+03  0.47868144044E+03  0.15500000000E+01 0.  1.
<mgrwt>
<rscale>  2 0.12499757E+03</rscale>
<asrwt>0</asrwt>
<pdfrwt beam="1">  1       21 0.63516990E-03 0.12499757E+03</pdfrwt>
<pdfrwt beam="2">  1       21 0.14555479E+00 0.12499757E+03</pdfrwt>
<totfact> 0.24906619E+06</totfact>
</mgrwt>
</event>
<event>
 5    0  0.1551373E+000  0.1249783E+03  0.7546771E-02  0.1235103E+00
         21   -1    0    0  503  502  0.00000000000E+00  0.00000000000E+00  0.74960345850E+02  0.74960345850E+02  0.00000000000E+00 0.  1.
         21   -1    0    0  502  503 -0.00000000000E+00 -0.00000000000E+00 -0.52092825223E+02  0.52092825223E+02  0.00000000000E+00 0.  1.
         25    2    1    2    0    0  0.00000000000E+00  0.00000000000E+00  0.22867520627E+02  0.12705317107E+03  0.12497833724E+03 0.  0.
          4    1    3    3  501    0 -0.55637338758E+02  0.15225870725E+02 -0.12946733393E+02  0.59138490080E+02  0.15500000000E+01 0.  1.
         -4    1    3    3    0  501  0.55637338758E+02 -0.15225870725E+02  0.35814254019E+02  0.67914680993E+02  0.15500000000E+01 0.  1.
<mgrwt>
<rscale>  2 0.12497834E+03</rscale>
<asrwt>0</asrwt>
<pdfrwt beam="1">  1       21 0.11532361E-01 0.12497834E+03</pdfrwt>
<pdfrwt beam="2">  1       21 0.80142808E-02 0.12497834E+03</pdfrwt>
<totfact> 0.73802702E+06</totfact>
</mgrwt>
</event>
<event>
 5    0  0.1430320E+000  0.1249995E+03  0.7546771E-02  0.1235070E+00
         21   -1    0    0  503  502  0.00000000000E+00  0.00000000000E+00  0.15649792257E+02  0.15649792257E+02  0.00000000000E+00 0.  1.
         21   -1    0    0  502  503 -0.00000000000E+00 -0.00000000000E+00 -0.24960193188E+03  0.24960193188E+03  0.00000000000E+00 0.  1.
         25    2    1    2    0    0  0.00000000000E+00  0.00000000000E+00 -0.23395213962E+03  0.26525172414E+03  0.12499949409E+03 0.  0.
          4    1    3    3  501    0  0.24358360191E+01 -0.28028439822E+02  0.14070904036E+01  0.28211861679E+02  0.15500000000E+01 0. -1.
         -4    1    3    3    0  501 -0.24358360191E+01  0.28028439822E+02 -0.23535923003E+03  0.23703986246E+03  0.15500000000E+01 0. -1.
<mgrwt>
<rscale>  2 0.12499949E+03</rscale>
<asrwt>0</asrwt>
<pdfrwt beam="1">  1       21 0.24076605E-02 0.12499949E+03</pdfrwt>
<pdfrwt beam="2">  1       21 0.38400295E-01 0.12499949E+03</pdfrwt>
<totfact> 0.58471988E+06</totfact>
</mgrwt>
</event>
<event>
 5    0  0.1403443E+000  0.1250034E+03  0.7546771E-02  0.1235064E+00
         21   -1    0    0  503  502  0.00000000000E+00  0.00000000000E+00  0.14411140033E+02  0.14411140033E+02  0.00000000000E+00 0. -1.
         21   -1    0    0  502  503 -0.00000000000E+00 -0.00000000000E+00 -0.27107248256E+03  0.27107248256E+03  0.00000000000E+00 0. -1.
         25    2    1    2    0    0  0.00000000000E+00  0.00000000000E+00 -0.25666134252E+03  0.28548362259E+03  0.12500341604E+03 0.  0.
          4    1    3    3  501    0  0.60246658844E+02  0.73282322552E+01 -0.16225870019E+03  0.17324448383E+03  0.15500000000E+01 0. -1.
         -4    1    3    3    0  501 -0.60246658844E+02 -0.73282322552E+01 -0.94402642330E+02  0.11223913876E+03  0.15500000000E+01 0. -1.
<mgrwt>
<rscale>  2 0.12500342E+03</rscale>
<asrwt>0</asrwt>
<pdfrwt beam="1">  1       21 0.22170986E-02 0.12500342E+03</pdfrwt>
<pdfrwt beam="2">  1       21 0.41703457E-01 0.12500342E+03</pdfrwt>
<totfact> 0.56679670E+06</totfact>
</mgrwt>
</event>
<event>
 5    0  0.1316337E+000  0.1250029E+03  0.7546771E-02  0.1235065E+00
         21   -1    0    0  503  502  0.00000000000E+00  0.00000000000E+00  0.45066234229E+03  0.45066234229E+03  0.00000000000E+00 0. -1.
         21   -1    0    0  502  503 -0.00000000000E+00 -0.00000000000E+00 -0.86681942798E+01  0.86681942798E+01  0.00000000000E+00 0. -1.
         25    2    1    2    0    0  0.00000000000E+00  0.00000000000E+00  0.44199414801E+03  0.45933053657E+03  0.12500285977E+03 0.  0.
          4    1    3    3  501    0  0.35320227902E+01 -0.34133482972E+02  0.29128146598E+02  0.45037998058E+02  0.15500000000E+01 0. -1.
         -4    1    3    3    0  501 -0.35320227902E+01  0.34133482972E+02  0.41286600141E+03  0.41429253851E+03  0.15500000000E+01 0. -1.
<mgrwt>
<rscale>  2 0.12500286E+03</rscale>
<asrwt>0</asrwt>
<pdfrwt beam="1">  1       21 0.69332650E-01 0.12500286E+03</pdfrwt>
<pdfrwt beam="2">  1       21 0.13335687E-02 0.12500286E+03</pdfrwt>
<totfact> 0.44336009E+06</totfact>
</mgrwt>
</event>
<event>
 5    0  0.1396255E+000  0.1249978E+03  0.7546771E-02  0.1235073E+00
         21   -1    0    0  503  502  0.00000000000E+00  0.00000000000E+00  0.40513197264E+03  0.40513197264E+03  0.00000000000E+00 0.  1.
         21   -1    0    0  502  503 -0.00000000000E+00 -0.00000000000E+00 -0.96415752486E+01  0.96415752486E+01  0.00000000000E+00 0.  1.
         25    2    1    2    0    0  0.00000000000E+00  0.00000000000E+00  0.39549039739E+03  0.41477354789E+03  0.12499776638E+03 0.  0.
          4    1    3    3  501    0 -0.20783623690E+02  0.56334598196E+02  0.25504259616E+03  0.26202037006E+03  0.15500000000E+01 0.  1.
         -4    1    3    3    0  501  0.20783623690E+02 -0.56334598196E+02  0.14044780123E+03  0.15275317783E+03  0.15500000000E+01 0.  1.
<mgrwt>
<rscale>  2 0.12499777E+03</rscale>
<asrwt>0</asrwt>
<pdfrwt beam="1">  1       21 0.62327983E-01 0.12499777E+03</pdfrwt>
<pdfrwt beam="2">  1       21 0.14833196E-02 0.12499777E+03</pdfrwt>
<totfact> 0.47079263E+06</totfact>
</mgrwt>
</event>
<event>
 5    0  0.1520802E+000  0.1249978E+03  0.7546771E-02  0.1235073E+00
         21   -1    0    0  503  502  0.00000000000E+00  0.00000000000E+00  0.20731383689E+03  0.20731383689E+03  0.00000000000E+00 0.  1.
         21   -1    0    0  502  503 -0.00000000000E+00 -0.00000000000E+00 -0.18841533566E+02  0.18841533566E+02  0.00000000000E+00 0.  1.
         25    2    1    2    0    0  0.00000000000E+00  0.00000000000E+00  0.18847230332E+03  0.22615537045E+03  0.12499776984E+03 0.  0.
          4    1    3    3  501    0 -0.47263876795E+02  0.32225237071E+02  0.48774419410E+02  0.75190999745E+02  0.15500000000E+01 0. -1.
         -4    1    3    3    0  501  0.47263876795E+02 -0.32225237071E+02  0.13969788391E+03  0.15096437071E+03  0.15500000000E+01 0. -1.
<mgrwt>
<rscale>  2 0.12499777E+03</rscale>
<asrwt>0</asrwt>
<pdfrwt beam="1">  1       21 0.31894435E-01 0.12499777E+03</pdfrwt>
<pdfrwt beam="2">  1       21 0.28986976E-02 0.12499777E+03</pdfrwt>
<totfact> 0.62202183E+06</totfact>
</mgrwt>
</event>
<event>
 5    0  0.1516330E+000  0.1249991E+03  0.7546771E-02  0.1235071E+00
         21   -1    0    0  503  502  0.00000000000E+00  0.00000000000E+00  0.32591405668E+02  0.32591405668E+02  0.00000000000E+00 0. -1.
         21   -1    0    0  502  503 -0.00000000000E+00 -0.00000000000E+00 -0.11985356223E+03  0.11985356223E+03  0.00000000000E+00 0. -1.
         25    2    1    2    0    0  0.00000000000E+00  0.00000000000E+00 -0.87262156558E+02  0.15244496790E+03  0.12499913707E+03 0.  0.
          4    1    3    3  501    0  0.39649668120E+01  0.50350298526E+02  0.12271527989E+01  0.50544850653E+02  0.15500000000E+01 0. -1.
         -4    1    3    3    0  501 -0.39649668120E+01 -0.50350298526E+02 -0.88489309357E+02  0.10190011724E+03  0.15500000000E+01 0. -1.
<mgrwt>
<rscale>  2 0.12499914E+03</rscale>
<asrwt>0</asrwt>
<pdfrwt beam="1">  1       21 0.50140624E-02 0.12499914E+03</pdfrwt>
<pdfrwt beam="2">  1       21 0.18439009E-01 0.12499914E+03</pdfrwt>
<totfact> 0.70454950E+06</totfact>
</mgrwt>
</event>
<event>
 5    0  0.1282517E+000  0.1250099E+03  0.7546771E-02  0.1235054E+00
         21   -1    0    0  503  502  0.00000000000E+00  0.00000000000E+00  0.59263073087E+01  0.59263073087E+01  0.00000000000E+00 0.  1.
         21   -1    0    0  502  503 -0.00000000000E+00 -0.00000000000E+00 -0.65924164048E+03  0.65924164048E+03  0.00000000000E+00 0.  1.
         25    2    1    2    0    0  0.00000000000E+00  0.00000000000E+00 -0.65331533317E+03  0.66516794778E+03  0.12500989644E+03 0.  0.
          4    1    3    3  501    0 -0.94278075422E+01 -0.60073034077E+02 -0.25013749887E+03  0.25742731754E+03  0.15500000000E+01 0. -1.
         -4    1    3    3    0  501  0.94278075422E+01  0.60073034077E+02 -0.40317783430E+03  0.40774063024E+03  0.15500000000E+01 0. -1.
<mgrwt>
<rscale>  2 0.12500990E+03</rscale>
<asrwt>0</asrwt>
<pdfrwt beam="1">  1       21 0.91173980E-03 0.12500990E+03</pdfrwt>
<pdfrwt beam="2">  1       21 0.10142177E+00 0.12500990E+03</pdfrwt>
<totfact> 0.34288297E+06</totfact>
</mgrwt>
</event>
<event>
 5    0  0.1438810E+000  0.1250070E+03  0.7546771E-02  0.1235058E+00
         21   -1    0    0  503  502  0.00000000000E+00  0.00000000000E+00  0.79943748568E+02  0.79943748568E+02  0.00000000000E+00 0.  1.
         21   -1    0    0  502  503 -0.00000000000E+00 -0.00000000000E+00 -0.48867920552E+02  0.48867920552E+02  0.00000000000E+00 0.  1.
         25    2    1    2    0    0  0.00000000000E+00  0.00000000000E+00  0.31075828016E+02  0.12881166912E+03  0.12500695587E+03 0.  0.
          4    1    3    3  501    0  0.37560478100E+02  0.13569828636E+01  0.66973615045E+02  0.76814702563E+02  0.15500000000E+01 0.  1.
         -4    1    3    3    0  501 -0.37560478100E+02 -0.13569828636E+01 -0.35897787029E+02  0.51996966558E+02  0.15500000000E+01 0.  1.
<mgrwt>
<rscale>  2 0.12500696E+03</rscale>
<asrwt>0</asrwt>
<pdfrwt beam="1">  1       21 0.12299038E-01 0.12500696E+03</pdfrwt>
<pdfrwt beam="2">  1       21 0.75181416E-02 0.12500696E+03</pdfrwt>
<totfact> 0.73511131E+06</totfact>
</mgrwt>
</event>
<event>
 5    0  0.1503998E+000  0.1250054E+03  0.7546771E-02  0.1235061E+00
         21   -1    0    0  503  502  0.00000000000E+00  0.00000000000E+00  0.41846781192E+02  0.41846781192E+02  0.00000000000E+00 0. -1.
         21   -1    0    0  502  503 -0.00000000000E+00 -0.00000000000E+00 -0.93354563060E+02  0.93354563060E+02  0.00000000000E+00 0. -1.
         25    2    1    2    0    0  0.00000000000E+00  0.00000000000E+00 -0.51507781868E+02  0.13520134425E+03  0.12500540746E+03 0.  0.
          4    1    3    3  501    0 -0.55192316292E+02 -0.20319362323E+02 -0.29352695155E+01  0.58907440702E+02  0.15500000000E+01 0. -1.
         -4    1    3    3    0  501  0.55192316292E+02  0.20319362323E+02 -0.48572512353E+02  0.76293903551E+02  0.15500000000E+01 0. -1.
<mgrwt>
<rscale>  2 0.12500541E+03</rscale>
<asrwt>0</asrwt>
<pdfrwt beam="1">  1       21 0.64379663E-02 0.12500541E+03</pdfrwt>
<pdfrwt beam="2">  1       21 0.14362240E-01 0.12500541E+03</pdfrwt>
<totfact> 0.72659802E+06</totfact>
</mgrwt>
</event>
<event>
 5    0  0.1595947E+000  0.1250045E+03  0.7546771E-02  0.1235062E+00
         21   -1    0    0  503  502  0.00000000000E+00  0.00000000000E+00  0.56938269069E+02  0.56938269069E+02  0.00000000000E+00 0. -1.
         21   -1    0    0  502  503 -0.00000000000E+00 -0.00000000000E+00 -0.68609924937E+02  0.68609924937E+02  0.00000000000E+00 0. -1.
         25    2    1    2    0    0  0.00000000000E+00  0.00000000000E+00 -0.11671655868E+02  0.12554819401E+03  0.12500448579E+03 0.  0.
          4    1    3    3  501    0 -0.45958886836E+02  0.37595774962E+02 -0.25374654361E+02  0.64590534586E+02  0.15500000000E+01 0.  1.
         -4    1    3    3    0  501  0.45958886836E+02 -0.37595774962E+02  0.13702998493E+02  0.60957659419E+02  0.15500000000E+01 0.  1.
<mgrwt>
<rscale>  2 0.12500449E+03</rscale>
<asrwt>0</asrwt>
<pdfrwt beam="1">  1       21 0.87597337E-02 0.12500449E+03</pdfrwt>
<pdfrwt beam="2">  1       21 0.10555373E-01 0.12500449E+03</pdfrwt>
<totfact> 0.73960206E+06</totfact>
</mgrwt>
</event>
<event>
 5    0  0.1598051E+000  0.1249983E+03  0.7546771E-02  0.1235072E+00
         21   -1    0    0  503  502  0.00000000000E+00  0.00000000000E+00  0.24127556456E+03  0.24127556456E+03  0.00000000000E+00 0. -1.
         21   -1    0    0  502  503 -0.00000000000E+00 -0.00000000000E+00 -0.16189549829E+02  0.16189549829E+02  0.00000000000E+00 0. -1.
         25    2    1    2    0    0  0.00000000000E+00  0.00000000000E+00  0.22508601473E+03  0.25746511438E+03  0.12499828438E+03 0.  0.
          4    1    3    3  501    0 -0.14917675373E+02 -0.58626187280E+02  0.14472874865E+03  0.15687058379E+03  0.15500000000E+01 0.  1.
         -4    1    3    3    0  501  0.14917675373E+02  0.58626187280E+02  0.80357266077E+02  0.10059453059E+03  0.15500000000E+01 0.  1.
<mgrwt>
<rscale>  2 0.12499828E+03</rscale>
<asrwt>0</asrwt>
<pdfrwt beam="1">  1       21 0.37119315E-01 0.12499828E+03</pdfrwt>
<pdfrwt beam="2">  1       21 0.24907002E-02 0.12499828E+03</pdfrwt>
<totfact> 0.59184952E+06</totfact>
</mgrwt>
</event>
<event>
 4    0  0.1222151E+000  0.1248825E+03  0.7546771E-02  0.1235253E+00
         21   -1    0    0  503  502  0.00000000000E+00  0.00000000000E+00  0.23369583378E+01  0.23369583378E+01  0.00000000000E+00 0. -1.
         21   -1    0    0  502  503 -0.00000000000E+00 -0.00000000000E+00 -0.16683694066E+04  0.16683694066E+04  0.00000000000E+00 0. -1.
          4    1    1    2  501    0  0.39563838672E+02  0.40369610220E+02 -0.11873510012E+04  0.11886966835E+04  0.15500000000E+01 0.  1.
         -4    1    1    2    0  501 -0.39563838672E+02 -0.40369610220E+02 -0.47868144705E+03  0.48200968145E+03  0.15500000000E+01 0.  1.
<mgrwt>
<rscale>  2 0.12488250E+03</rscale>
<asrwt>0</asrwt>
<pdfrwt beam="1">  1       21 0.35953285E-03 0.12488250E+03</pdfrwt>
<pdfrwt beam="2">  1       21 0.25667164E+00 0.12488250E+03</pdfrwt>
<totfact> 0.11674555E+06</totfact>
</mgrwt>
</event>
<event>
 5    0  0.1398583E+000  0.1250239E+03  0.7546771E-02  0.1235032E+00
         21   -1    0    0  503  502  0.00000000000E+00  0.00000000000E+00  0.76856126259E+01  0.76856126259E+01  0.00000000000E+00 0. -1.
         21   -1    0    0  502  503 -0.00000000000E+00 -0.00000000000E+00 -0.50844907164E+03  0.50844907164E+03  0.00000000000E+00 0. -1.
         25    2    1    2    0    0  0.00000000000E+00  0.00000000000E+00 -0.50076345901E+03  0.51613468427E+03  0.12502387939E+03 0.  0.
          4    1    3    3  501    0 -0.16527295815E+02  0.58735217819E+02 -0.19463258818E+03  0.20397848955E+03  0.15500000000E+01 0.  1.
         -4    1    3    3    0  501  0.16527295815E+02 -0.58735217819E+02 -0.30613087084E+03  0.31215619471E+03  0.15500000000E+01 0.  1.
<mgrwt>
<rscale>  2 0.12502388E+03</rscale>
<asrwt>0</asrwt>
<pdfrwt beam="1">  1       21 0.11824016E-02 0.12502388E+03</pdfrwt>
<pdfrwt beam="2">  1       21 0.78222956E-01 0.12502388E+03</pdfrwt>
<totfact> 0.41157880E+06</totfact>
</mgrwt>
</event>
<event>
 5    0  0.1381187E+000  0.1250013E+03  0.7546771E-02  0.1235067E+00
         21   -1    0    0  503  502  0.00000000000E+00  0.00000000000E+00  0.74731483664E+01  0.74731483664E+01  0.00000000000E+00 0. -1.
         21   -1    0    0  502  503 -0.00000000000E+00 -0.00000000000E+00 -0.52271570091E+03  0.52271570091E+03  0.00000000000E+00 0. -1.
         25    2    1    2    0    0  0.00000000000E+00  0.00000000000E+00 -0.51524255254E+03  0.53018884927E+03  0.12500131177E+03 0.  0.
          4    1    3    3  501    0 -0.45675279759E+02  0.29771284493E+02 -0.38706377588E+03  0.39088787352E+03  0.15500000000E+01 0.  1.
         -4    1    3    3    0  501  0.45675279759E+02 -0.29771284493E+02 -0.12817877666E+03  0.13930097576E+03  0.15500000000E+01 0.  1.
<mgrwt>
<rscale>  2 0.12500131E+03</rscale>
<asrwt>0</asrwt>
<pdfrwt beam="1">  1       21 0.11497149E-02 0.12500131E+03</pdfrwt>
<pdfrwt beam="2">  1       21 0.80417819E-01 0.12500131E+03</pdfrwt>
<totfact> 0.40451474E+06</totfact>
</mgrwt>
</event>
<event>
 5    0  0.1222151E+000  0.1249998E+03  0.7546771E-02  0.1235070E+00
         21   -1    0    0  503  502  0.00000000000E+00  0.00000000000E+00  0.40016663698E+01  0.40016663698E+01  0.00000000000E+00 0. -1.
         21   -1    0    0  502  503 -0.00000000000E+00 -0.00000000000E+00 -0.97615282341E+03  0.97615282341E+03  0.00000000000E+00 0. -1.
         25    2    1    2    0    0  0.00000000000E+00  0.00000000000E+00 -0.97215115704E+03  0.98015448978E+03  0.12499980680E+03 0.  0.
          4    1    3    3  501    0  0.34796914277E+01  0.25290551638E+02 -0.93324093572E+03  0.93359132754E+03  0.15500000000E+01 0.  1.
         -4    1    3    3    0  501 -0.34796914277E+01 -0.25290551638E+02 -0.38910221322E+02  0.46563162241E+02  0.15500000000E+01 0.  1.
<mgrwt>
<rscale>  2 0.12499981E+03</rscale>
<asrwt>0</asrwt>
<pdfrwt beam="1">  1       21 0.61564120E-03 0.12499981E+03</pdfrwt>
<pdfrwt beam="2">  1       21 0.15017730E+00 0.12499981E+03</pdfrwt>
<totfact> 0.24121188E+06</totfact>
</mgrwt>
</event>
<event>
 5    0  0.1270046E+000  0.1249937E+03  0.7546771E-02  0.1235079E+00
         21   -1    0    0  503  502  0.00000000000E+00  0.00000000000E+00  0.56446687259E+01  0.56446687259E+01  0.00000000000E+00 0.  1.
         21   -1    0    0  502  503 -0.00000000000E+00 -0.00000000000E+00 -0.69195469508E+03  0.69195469508E+03  0.00000000000E+00 0.  1.
         25    2    1    2    0    0  0.00000000000E+00  0.00000000000E+00 -0.68631002635E+03  0.69759936380E+03  0.12499368027E+03 0.  0.
          4    1    3    3  501    0  0.59683341378E+02 -0.15400598656E+02 -0.28619169319E+03  0.29275820642E+03  0.15500000000E+01 0. -1.
         -4    1    3    3    0  501 -0.59683341378E+02  0.15400598656E+02 -0.40011833316E+03  0.40484115738E+03  0.15500000000E+01 0. -1.
<mgrwt>
<rscale>  2 0.12499368E+03</rscale>
<asrwt>0</asrwt>
<pdfrwt beam="1">  1       21 0.86841042E-03 0.12499368E+03</pdfrwt>
<pdfrwt beam="2">  1       21 0.10645459E+00 0.12499368E+03</pdfrwt>
<totfact> 0.33008064E+06</totfact>
</mgrwt>
</event>
<event>
 5    0  0.1361515E+000  0.1249960E+03  0.7546771E-02  0.1235076E+00
         21   -1    0    0  503  502  0.00000000000E+00  0.00000000000E+00  0.10827382656E+02  0.10827382656E+02  0.00000000000E+00 0.  1.
         21   -1    0    0  502  503 -0.00000000000E+00 -0.00000000000E+00 -0.36075212244E+03  0.36075212244E+03  0.00000000000E+00 0.  1.
         25    2    1    2    0    0  0.00000000000E+00  0.00000000000E+00 -0.34992473978E+03  0.37157950510E+03  0.12499602032E+03 0.  0.
          4    1    3    3  501    0 -0.22434658521E+02  0.41967373729E+02 -0.29531297473E+03  0.29912661182E+03  0.15500000000E+01 0.  1.
         -4    1    3    3    0  501  0.22434658521E+02 -0.41967373729E+02 -0.54611765059E+02  0.72452893272E+02  0.15500000000E+01 0.  1.
<mgrwt>
<rscale>  2 0.12499602E+03</rscale>
<asrwt>0</asrwt>
<pdfrwt beam="1">  1       21 0.16657512E-02 0.12499602E+03</pdfrwt>
<pdfrwt beam="2">  1       21 0.55500326E-01 0.12499602E+03</pdfrwt>
<totfact> 0.49988131E+06</totfact>
</mgrwt>
</event>
<event>
 5    0  0.1616724E+000  0.1250040E+03  0.7546771E-02  0.1235063E+00
         21   -1    0    0  503  502  0.00000000000E+00  0.00000000000E+00  0.60098927951E+02  0.60098927951E+02  0.00000000000E+00 0.  1.
         21   -1    0    0  502  503 -0.00000000000E+00 -0.00000000000E+00 -0.65001148503E+02  0.65001148503E+02  0.00000000000E+00 0.  1.
         25    2    1    2    0    0  0.00000000000E+00  0.00000000000E+00 -0.49022205524E+01  0.12510007645E+03  0.12500398939E+03 0.  0.
          4    1    3    3  501    0  0.48615444270E+02 -0.31765752059E+02  0.20622466363E+02  0.61645868023E+02  0.15500000000E+01 0.  1.
         -4    1    3    3    0  501 -0.48615444270E+02  0.31765752059E+02 -0.25524686915E+02  0.63454208431E+02  0.15500000000E+01 0.  1.
<mgrwt>
<rscale>  2 0.12500399E+03</rscale>
<asrwt>0</asrwt>
<pdfrwt beam="1">  1       21 0.92459890E-02 0.12500399E+03</pdfrwt>
<pdfrwt beam="2">  1       21 0.10000177E-01 0.12500399E+03</pdfrwt>
<totfact> 0.74022515E+06</totfact>
</mgrwt>
</event>
<event>
 5    0  0.1547490E+000  0.1249876E+03  0.7546771E-02  0.1235089E+00
         21   -1    0    0  503  502  0.00000000000E+00  0.00000000000E+00  0.57079653610E+02  0.57079653610E+02  0.00000000000E+00 0.  1.
         21   -1    0    0  502  503 -0.00000000000E+00 -0.00000000000E+00 -0.68421503896E+02  0.68421503896E+02  0.00000000000E+00 0.  1.
         25    2    1    2    0    0  0.00000000000E+00  0.00000000000E+00 -0.11341850285E+02  0.12550115751E+03  0.12498761126E+03 0.  0.
          4    1    3    3  501    0 -0.33888075155E+02 -0.14998239031E+02 -0.56173947679E+02  0.67314661921E+02  0.15500000000E+01 0. -1.
         -4    1    3    3    0  501  0.33888075155E+02  0.14998239031E+02  0.44832097393E+02  0.58186495585E+02  0.15500000000E+01 0. -1.
<mgrwt>
<rscale>  2 0.12498761E+03</rscale>
<asrwt>0</asrwt>
<pdfrwt beam="1">  1       21 0.87814852E-02 0.12498761E+03</pdfrwt>
<pdfrwt beam="2">  1       21 0.10526385E-01 0.12498761E+03</pdfrwt>
<totfact> 0.73998601E+06</totfact>
</mgrwt>
</event>
<event>
 5    0  0.1440135E+000  0.1249961E+03  0.7546771E-02  0.1235075E+00
         21   -1    0    0  503  502  0.00000000000E+00  0.00000000000E+00  0.16510230027E+02  0.16510230027E+02  0.00000000000E+00 0. -1.
         21   -1    0    0  502  503 -0.00000000000E+00 -0.00000000000E+00 -0.23658107544E+03  0.23658107544E+03  0.00000000000E+00 0. -1.
         25    2    1    2    0    0  0.00000000000E+00  0.00000000000E+00 -0.22007084542E+03  0.25309130547E+03  0.12499612755E+03 0.  0.
          4    1    3    3  501    0  0.45879960916E+02  0.11681480404E+02 -0.27484983126E+02  0.54765450747E+02  0.15500000000E+01 0.  1.
         -4    1    3    3    0  501 -0.45879960916E+02 -0.11681480404E+02 -0.19258586229E+03  0.19832585472E+03  0.15500000000E+01 0.  1.
<mgrwt>
<rscale>  2 0.12499613E+03</rscale>
<asrwt>0</asrwt>
<pdfrwt beam="1">  1       21 0.25400356E-02 0.12499613E+03</pdfrwt>
<pdfrwt beam="2">  1       21 0.36397085E-01 0.12499613E+03</pdfrwt>
<totfact> 0.59594180E+06</totfact>
</mgrwt>
</event>
<event>
 5    0  0.1399811E+000  0.1249980E+03  0.7546771E-02  0.1235072E+00
         21   -1    0    0  503  502  0.00000000000E+00  0.00000000000E+00  0.11531963011E+02  0.11531963011E+02  0.00000000000E+00 0. -1.
         21   -1    0    0  502  503 -0.00000000000E+00 -0.00000000000E+00 -0.33872163569E+03  0.33872163569E+03  0.00000000000E+00 0. -1.
         25    2    1    2    0    0  0.00000000000E+00  0.00000000000E+00 -0.32718967268E+03  0.35025359870E+03  0.12499800597E+03 0.  0.
          4    1    3    3  501    0 -0.47153827997E+02  0.22665813739E+02 -0.67892631720E+02  0.85726510188E+02  0.15500000000E+01 0. -1.
         -4    1    3    3    0  501  0.47153827997E+02 -0.22665813739E+02 -0.25929704096E+03  0.26452708852E+03  0.15500000000E+01 0. -1.
<mgrwt>
<rscale>  2 0.12499801E+03</rscale>
<asrwt>0</asrwt>
<pdfrwt beam="1">  1       21 0.17741483E-02 0.12499801E+03</pdfrwt>
<pdfrwt beam="2">  1       21 0.52111015E-01 0.12499801E+03</pdfrwt>
<totfact> 0.51522284E+06</totfact>
</mgrwt>
</event>
<event>
 5    0  0.1667218E+000  0.1249946E+03  0.7546771E-02  0.1235078E+00
         21   -1    0    0  503  502  0.00000000000E+00  0.00000000000E+00  0.51057089215E+02  0.51057089215E+02  0.00000000000E+00 0. -1.
         21   -1    0    0  502  503 -0.00000000000E+00 -0.00000000000E+00 -0.76500839052E+02  0.76500839052E+02  0.00000000000E+00 0. -1.
         25    2    1    2    0    0  0.00000000000E+00  0.00000000000E+00 -0.25443749837E+02  0.12755792827E+03  0.12499456251E+03 0.  0.
          4    1    3    3  501    0  0.56098392631E+02  0.26289592229E+02 -0.44730811776E+01  0.62133592127E+02  0.15500000000E+01 0. -1.
         -4    1    3    3    0  501 -0.56098392631E+02 -0.26289592229E+02 -0.20970668659E+02  0.65424336140E+02  0.15500000000E+01 0. -1.
<mgrwt>
<rscale>  2 0.12499456E+03</rscale>
<asrwt>0</asrwt>
<pdfrwt beam="1">  1       21 0.78549368E-02 0.12499456E+03</pdfrwt>
<pdfrwt beam="2">  1       21 0.11769360E-01 0.12499456E+03</pdfrwt>
<totfact> 0.73703597E+06</totfact>
</mgrwt>
</event>
<event>
 5    0  0.1657318E+000  0.1249976E+03  0.7546771E-02  0.1235073E+00
         21   -1    0    0  503  502  0.00000000000E+00  0.00000000000E+00  0.74237988793E+02  0.74237988793E+02  0.00000000000E+00 0.  1.
         21   -1    0    0  502  503 -0.00000000000E+00 -0.00000000000E+00 -0.52615945864E+02  0.52615945864E+02  0.00000000000E+00 0.  1.
         25    2    1    2    0    0  0.00000000000E+00  0.00000000000E+00  0.21622042929E+02  0.12685393466E+03  0.12499763197E+03 0.  0.
          4    1    3    3  501    0  0.37323416240E+02  0.49023176405E+02  0.21327846131E+02  0.65219542664E+02  0.15500000000E+01 0.  1.
         -4    1    3    3    0  501 -0.37323416240E+02 -0.49023176405E+02  0.29419679783E+00  0.61634391994E+02  0.15500000000E+01 0.  1.
<mgrwt>
<rscale>  2 0.12499763E+03</rscale>
<asrwt>0</asrwt>
<pdfrwt beam="1">  1       21 0.11421229E-01 0.12499763E+03</pdfrwt>
<pdfrwt beam="2">  1       21 0.80947609E-02 0.12499763E+03</pdfrwt>
<totfact> 0.73793494E+06</totfact>
</mgrwt>
</event>
<event>
 5    0  0.1559651E+000  0.1249999E+03  0.7546771E-02  0.1235069E+00
         21   -1    0    0  503  502  0.00000000000E+00  0.00000000000E+00  0.24387049748E+02  0.24387049748E+02  0.00000000000E+00 0. -1.
         21   -1    0    0  502  503 -0.00000000000E+00 -0.00000000000E+00 -0.16017706042E+03  0.16017706042E+03  0.00000000000E+00 0. -1.
         25    2    1    2    0    0  0.00000000000E+00  0.00000000000E+00 -0.13579001067E+03  0.18456411016E+03  0.12499993505E+03 0.  0.
          4    1    3    3  501    0 -0.14264345611E+02  0.57972181758E+02 -0.95104473006E+02  0.11230097372E+03  0.15500000000E+01 0. -1.
         -4    1    3    3    0  501  0.14264345611E+02 -0.57972181758E+02 -0.40685537663E+02  0.72263136442E+02  0.15500000000E+01 0. -1.
<mgrwt>
<rscale>  2 0.12499994E+03</rscale>
<asrwt>0</asrwt>
<pdfrwt beam="1">  1       21 0.37518538E-02 0.12499994E+03</pdfrwt>
<pdfrwt beam="2">  1       21 0.24642625E-01 0.12499994E+03</pdfrwt>
<totfact> 0.66631884E+06</totfact>
</mgrwt>
</event>
<event>
 5    0  0.1535260E+000  0.1250010E+03  0.7546771E-02  0.1235068E+00
         21   -1    0    0  503  502  0.00000000000E+00  0.00000000000E+00  0.27656239039E+02  0.27656239039E+02  0.00000000000E+00 0. -1.
         21   -1    0    0  502  503 -0.00000000000E+00 -0.00000000000E+00 -0.14124530011E+03  0.14124530011E+03  0.00000000000E+00 0. -1.
         25    2    1    2    0    0  0.00000000000E+00  0.00000000000E+00 -0.11358906107E+03  0.16890153915E+03  0.12500102052E+03 0.  0.
          4    1    3    3  501    0  0.47966865221E+02 -0.18190410125E+02 -0.10498906192E+03  0.11686238403E+03  0.15500000000E+01 0. -1.
         -4    1    3    3    0  501 -0.47966865221E+02  0.18190410125E+02 -0.85999991535E+01  0.52039155115E+02  0.15500000000E+01 0. -1.
<mgrwt>
<rscale>  2 0.12500102E+03</rscale>
<asrwt>0</asrwt>
<pdfrwt beam="1">  1       21 0.42548061E-02 0.12500102E+03</pdfrwt>
<pdfrwt beam="2">  1       21 0.21730046E-01 0.12500102E+03</pdfrwt>
<totfact> 0.68446076E+06</totfact>
</mgrwt>
</event>
<event>
 5    0  0.1353887E+000  0.1250046E+03  0.7546771E-02  0.1235062E+00
         21   -1    0    0  503  502  0.00000000000E+00  0.00000000000E+00  0.11246970310E+02  0.11246970310E+02  0.00000000000E+00 0. -1.
         21   -1    0    0  502  503 -0.00000000000E+00 -0.00000000000E+00 -0.34734107985E+03  0.34734107985E+03  0.00000000000E+00 0. -1.
         25    2    1    2    0    0  0.00000000000E+00  0.00000000000E+00 -0.33609410954E+03  0.35858805016E+03  0.12500455692E+03 0.  0.
          4    1    3    3  501    0  0.41831586383E+02 -0.22189746841E+02 -0.51105746925E+02  0.69688351630E+02  0.15500000000E+01 0. -1.
         -4    1    3    3    0  501 -0.41831586383E+02  0.22189746841E+02 -0.28498836262E+03  0.28889969853E+03  0.15500000000E+01 0. -1.
<mgrwt>
<rscale>  2 0.12500456E+03</rscale>
<asrwt>0</asrwt>
<pdfrwt beam="1">  1       21 0.17303035E-02 0.12500456E+03</pdfrwt>
<pdfrwt beam="2">  1       21 0.53437078E-01 0.12500456E+03</pdfrwt>
<totfact> 0.50904564E+06</totfact>
</mgrwt>
</event>
<event>
 5    0  0.1468247E+000  0.1250061E+03  0.7546771E-02  0.1235060E+00
         21   -1    0    0  503  502  0.00000000000E+00  0.00000000000E+00  0.11656944451E+03  0.11656944451E+03  0.00000000000E+00 0.  1.
         21   -1    0    0  502  503 -0.00000000000E+00 -0.00000000000E+00 -0.33513357202E+02  0.33513357202E+02  0.00000000000E+00 0.  1.
         25    2    1    2    0    0  0.00000000000E+00  0.00000000000E+00  0.83056087307E+02  0.15008280171E+03  0.12500613477E+03 0.  0.
          4    1    3    3  501    0  0.60392010315E+02  0.13000039618E+02  0.30263145549E+02  0.68807386366E+02  0.15500000000E+01 0.  1.
         -4    1    3    3    0  501 -0.60392010315E+02 -0.13000039618E+02  0.52792941758E+02  0.81275415344E+02  0.15500000000E+01 0.  1.
<mgrwt>
<rscale>  2 0.12500613E+03</rscale>
<asrwt>0</asrwt>
<pdfrwt beam="1">  1       21 0.17933760E-01 0.12500613E+03</pdfrwt>
<pdfrwt beam="2">  1       21 0.51559012E-02 0.12500613E+03</pdfrwt>
<totfact> 0.70737754E+06</totfact>
</mgrwt>
</event>
<event>
 5    0  0.1531837E+000  0.1249836E+03  0.7546771E-02  0.1235095E+00
         21   -1    0    0  503  502  0.00000000000E+00  0.00000000000E+00  0.22629422377E+03  0.22629422377E+03  0.00000000000E+00 0. -1.
         21   -1    0    0  502  503 -0.00000000000E+00 -0.00000000000E+00 -0.17257295895E+02  0.17257295895E+02  0.00000000000E+00 0. -1.
         25    2    1    2    0    0  0.00000000000E+00  0.00000000000E+00  0.20903692788E+03  0.24355151966E+03  0.12498362099E+03 0.  0.
          4    1    3    3  501    0  0.17486570750E+02  0.59607389389E+02  0.11744488078E+03  0.13287032606E+03  0.15500000000E+01 0. -1.
         -4    1    3    3    0  501 -0.17486570750E+02 -0.59607389389E+02  0.91592047096E+02  0.11068119360E+03  0.15500000000E+01 0. -1.
<mgrwt>
<rscale>  2 0.12498362E+03</rscale>
<asrwt>0</asrwt>
<pdfrwt beam="1">  1       21 0.34814494E-01 0.12498362E+03</pdfrwt>
<pdfrwt beam="2">  1       21 0.26549688E-02 0.12498362E+03</pdfrwt>
<totfact> 0.60515667E+06</totfact>
</mgrwt>
</event>
<event>
 5    0  0.1492826E+000  0.1249944E+03  0.7546771E-02  0.1235078E+00
         21   -1    0    0  503  502  0.00000000000E+00  0.00000000000E+00  0.15677883216E+02  0.15677883216E+02  0.00000000000E+00 0.  1.
         21   -1    0    0  502  503 -0.00000000000E+00 -0.00000000000E+00 -0.24913430352E+03  0.24913430352E+03  0.00000000000E+00 0.  1.
         25    2    1    2    0    0  0.00000000000E+00  0.00000000000E+00 -0.23345642031E+03  0.26481218674E+03  0.12499437613E+03 0.  0.
          4    1    3    3  501    0 -0.44851776753E+02  0.38619284338E+02 -0.74337025367E+02  0.95034345586E+02  0.15500000000E+01 0.  1.
         -4    1    3    3    0  501  0.44851776753E+02 -0.38619284338E+02 -0.15911939494E+03  0.16977784115E+03  0.15500000000E+01 0.  1.
<mgrwt>
<rscale>  2 0.12499438E+03</rscale>
<asrwt>0</asrwt>
<pdfrwt beam="1">  1       21 0.24119820E-02 0.12499438E+03</pdfrwt>
<pdfrwt beam="2">  1       21 0.38328356E-01 0.12499438E+03</pdfrwt>
<totfact> 0.58519284E+06</totfact>
</mgrwt>
</event>
<event>
 5    0  0.1463373E+000  0.1250025E+03  0.7546771E-02  0.1235065E+00
         21   -1    0    0  503  502  0.00000000000E+00  0.00000000000E+00  0.28807506780E+02  0.28807506780E+02  0.00000000000E+00 0. -1.
         21   -1    0    0  502  503 -0.00000000000E+00 -0.00000000000E+00 -0.13560380552E+03  0.13560380552E+03  0.00000000000E+00 0. -1.
         25    2    1    2    0    0  0.00000000000E+00  0.00000000000E+00 -0.10679629874E+03  0.16441131230E+03  0.12500252072E+03 0.  0.
          4    1    3    3  501    0 -0.10702594704E+02  0.37165219270E+02 -0.11794272372E+03  0.12413173501E+03  0.15500000000E+01 0. -1.
         -4    1    3    3    0  501  0.10702594704E+02 -0.37165219270E+02  0.11146424985E+02  0.40279577291E+02  0.15500000000E+01 0. -1.
<mgrwt>
<rscale>  2 0.12500252E+03</rscale>
<asrwt>0</asrwt>
<pdfrwt beam="1">  1       21 0.44319241E-02 0.12500252E+03</pdfrwt>
<pdfrwt beam="2">  1       21 0.20862124E-01 0.12500252E+03</pdfrwt>
<totfact> 0.68980040E+06</totfact>
</mgrwt>
</event>
<event>
 5    0  0.1282426E+000  0.1249993E+03  0.7546771E-02  0.1235070E+00
         21   -1    0    0  503  502  0.00000000000E+00  0.00000000000E+00  0.50402892756E+03  0.50402892756E+03  0.00000000000E+00 0.  1.
         21   -1    0    0  502  503 -0.00000000000E+00 -0.00000000000E+00 -0.77499608388E+01  0.77499608388E+01  0.00000000000E+00 0.  1.
         25    2    1    2    0    0  0.00000000000E+00  0.00000000000E+00  0.49627896672E+03  0.51177888840E+03  0.12499927120E+03 0.  0.
          4    1    3    3  501    0  0.97814679585E+01 -0.34057229125E+02  0.45883375812E+03  0.46020255547E+03  0.15500000000E+01 0.  1.
         -4    1    3    3    0  501 -0.97814679585E+01  0.34057229125E+02  0.37445208600E+02  0.51576332927E+02  0.15500000000E+01 0.  1.
<mgrwt>
<rscale>  2 0.12499927E+03</rscale>
<asrwt>0</asrwt>
<pdfrwt beam="1">  1       21 0.77542886E-01 0.12499927E+03</pdfrwt>
<pdfrwt beam="2">  1       21 0.11923021E-02 0.12499927E+03</pdfrwt>
<totfact> 0.41413156E+06</totfact>
</mgrwt>
</event>
<event>
 5    0  0.1222151E+000  0.1249957E+03  0.7546771E-02  0.1235076E+00
         21   -1    0    0  503  502  0.00000000000E+00  0.00000000000E+00  0.46565433880E+01  0.46565433880E+01  0.00000000000E+00 0.  1.
         21   -1    0    0  502  503 -0.00000000000E+00 -0.00000000000E+00 -0.83881603503E+03  0.83881603503E+03  0.00000000000E+00 0.  1.
         25    2    1    2    0    0  0.00000000000E+00  0.00000000000E+00 -0.83415949165E+03  0.84347257842E+03  0.12499573211E+03 0.  0.
          4    1    3    3  501    0  0.48011912581E+02 -0.13087650740E+02 -0.16215578546E+03  0.16962703679E+03  0.15500000000E+01 0.  1.
         -4    1    3    3    0  501 -0.48011912581E+02  0.13087650740E+02 -0.67200370618E+03  0.67384554163E+03  0.15500000000E+01 0.  1.
<mgrwt>
<rscale>  2 0.12499573E+03</rscale>
<asrwt>0</asrwt>
<pdfrwt beam="1">  1       21 0.71639139E-03 0.12499573E+03</pdfrwt>
<pdfrwt beam="2">  1       21 0.12904860E+00 0.12499573E+03</pdfrwt>
<totfact> 0.27975138E+06</totfact>
</mgrwt>
</event>
<event>
 4    0  0.1720165E+000  0.1248402E+03  0.7546771E-02  0.1235319E+00
         21   -1    0    0  503  502  0.00000000000E+00  0.00000000000E+00  0.12403424932E+02  0.12403424932E+02  0.00000000000E+00 0. -1.
         21   -1    0    0  502  503 -0.00000000000E+00 -0.00000000000E+00 -0.31412856762E+03  0.31412856762E+03  0.00000000000E+00 0. -1.
          4    1    1    2  501    0 -0.13392629213E+02 -0.28033903607E+02 -0.93152551305E+01  0.32472122611E+02  0.15500000000E+01 0.  1.
         -4    1    1    2    0  501  0.13392629213E+02  0.28033903607E+02 -0.29240988756E+03  0.29405986994E+03  0.15500000000E+01 0.  1.
<mgrwt>
<rscale>  2 0.12484022E+03</rscale>
<asrwt>0</asrwt>
<pdfrwt beam="1">  1       21 0.19082194E-02 0.12484022E+03</pdfrwt>
<pdfrwt beam="2">  1       21 0.48327468E-01 0.12484022E+03</pdfrwt>
<totfact> 0.53533965E+06</totfact>
</mgrwt>
</event>
<event>
 5    0  0.1566037E+000  0.1250054E+03  0.7546771E-02  0.1235061E+00
         21   -1    0    0  503  502  0.00000000000E+00  0.00000000000E+00  0.22577184565E+02  0.22577184565E+02  0.00000000000E+00 0. -1.
         21   -1    0    0  502  503 -0.00000000000E+00 -0.00000000000E+00 -0.17303246224E+03  0.17303246224E+03  0.00000000000E+00 0. -1.
         25    2    1    2    0    0  0.00000000000E+00  0.00000000000E+00 -0.15045527767E+03  0.19560964680E+03  0.12500537326E+03 0.  0.
          4    1    3    3  501    0 -0.67257711632E+01  0.57756909552E+02 -0.39438731275E+02  0.70277397670E+02  0.15500000000E+01 0.  1.
         -4    1    3    3    0  501  0.67257711632E+01 -0.57756909552E+02 -0.11101654640E+03  0.12533224913E+03  0.15500000000E+01 0.  1.
<mgrwt>
<rscale>  2 0.12500537E+03</rscale>
<asrwt>0</asrwt>
<pdfrwt beam="1">  1       21 0.34734130E-02 0.12500537E+03</pdfrwt>
<pdfrwt beam="2">  1       21 0.26620379E-01 0.12500537E+03</pdfrwt>
<totfact> 0.65395459E+06</totfact>
</mgrwt>
</event>
<event>
 5    0  0.1529675E+000  0.1249949E+03  0.7546771E-02  0.1235077E+00
         21   -1    0    0  503  502  0.00000000000E+00  0.00000000000E+00  0.19902536956E+02  0.19902536956E+02  0.00000000000E+00 0.  1.
         21   -1    0    0  502  503 -0.00000000000E+00 -0.00000000000E+00 -0.19625285517E+03  0.19625285517E+03  0.00000000000E+00 0.  1.
         25    2    1    2    0    0  0.00000000000E+00  0.00000000000E+00 -0.17635031822E+03  0.21615539213E+03  0.12499487514E+03 0.  0.
          4    1    3    3  501    0 -0.23821069655E+02 -0.55067479352E+02 -0.58040575051E+02  0.83492403809E+02  0.15500000000E+01 0.  1.
         -4    1    3    3    0  501  0.23821069655E+02  0.55067479352E+02 -0.11830974317E+03  0.13266298832E+03  0.15500000000E+01 0.  1.
<mgrwt>
<rscale>  2 0.12499488E+03</rscale>
<asrwt>0</asrwt>
<pdfrwt beam="1">  1       21 0.30619287E-02 0.12499488E+03</pdfrwt>
<pdfrwt beam="2">  1       21 0.30192748E-01 0.12499488E+03</pdfrwt>
<totfact> 0.63225871E+06</totfact>
</mgrwt>
</event>
<event>
 5    0  0.1222151E+000  0.1249972E+03  0.7546771E-02  0.1235074E+00
         21   -1    0    0  503  502  0.00000000000E+00  0.00000000000E+00  0.70561154833E+03  0.70561154833E+03  0.00000000000E+00 0. -1.
         21   -1    0    0  502  503 -0.00000000000E+00 -0.00000000000E+00 -0.55357302254E+01  0.55357302254E+01  0.00000000000E+00 0. -1.
         25    2    1    2    0    0  0.00000000000E+00  0.00000000000E+00  0.70007581810E+03  0.71114727855E+03  0.12499720278E+03 0.  0.
          4    1    3    3  501    0  0.30672184613E+02  0.10172478744E+02  0.65426473578E+03  0.65506412604E+03  0.15500000000E+01 0. -1.
         -4    1    3    3    0  501 -0.30672184613E+02 -0.10172478744E+02  0.45811082318E+02  0.56083152514E+02  0.15500000000E+01 0. -1.
<mgrwt>
<rscale>  2 0.12499720E+03</rscale>
<asrwt>0</asrwt>
<pdfrwt beam="1">  1       21 0.10855555E+00 0.12499720E+03</pdfrwt>
<pdfrwt beam="2">  1       21 0.85165136E-03 0.12499720E+03</pdfrwt>
<totfact> 0.32487053E+06</totfact>
</mgrwt>
</event>
<event>
 5    0  0.1427270E+000  0.1249982E+03  0.7546771E-02  0.1235072E+00
         21   -1    0    0  503  502  0.00000000000E+00  0.00000000000E+00  0.25741735522E+03  0.25741735522E+03  0.00000000000E+00 0.  1.
         21   -1    0    0  502  503 -0.00000000000E+00 -0.00000000000E+00 -0.15174327024E+02  0.15174327024E+02  0.00000000000E+00 0.  1.
         25    2    1    2    0    0  0.00000000000E+00  0.00000000000E+00  0.24224302820E+03  0.27259168225E+03  0.12499816206E+03 0.  0.
          4    1    3    3  501    0  0.32122225064E+02 -0.40478599464E+02  0.19770887758E+03  0.20435644627E+03  0.15500000000E+01 0. -1.
         -4    1    3    3    0  501 -0.32122225064E+02  0.40478599464E+02  0.44534150617E+02  0.68235235977E+02  0.15500000000E+01 0. -1.
<mgrwt>
<rscale>  2 0.12499816E+03</rscale>
<asrwt>0</asrwt>
<pdfrwt beam="1">  1       21 0.39602667E-01 0.12499816E+03</pdfrwt>
<pdfrwt beam="2">  1       21 0.23345120E-02 0.12499816E+03</pdfrwt>
<totfact> 0.57816377E+06</totfact>
</mgrwt>
</event>
<event>
 5    0  0.1302136E+000  0.1250022E+03  0.7546771E-02  0.1235066E+00
         21   -1    0    0  503  502  0.00000000000E+00  0.00000000000E+00  0.55223198709E+03  0.55223198709E+03  0.00000000000E+00 0. -1.
         21   -1    0    0  502  503 -0.00000000000E+00 -0.00000000000E+00 -0.70738166707E+01  0.70738166707E+01  0.00000000000E+00 0. -1.
         25    2    1    2    0    0  0.00000000000E+00  0.00000000000E+00  0.54515817042E+03  0.55930580376E+03  0.12500220536E+03 0.  0.
          4    1    3    3  501    0 -0.33084672844E+02  0.10551310321E+02  0.40167688301E+02  0.53120348363E+02  0.15500000000E+01 0.  1.
         -4    1    3    3    0  501  0.33084672844E+02 -0.10551310321E+02  0.50499048212E+03  0.50618545540E+03  0.15500000000E+01 0.  1.
<mgrwt>
<rscale>  2 0.12500221E+03</rscale>
<asrwt>0</asrwt>
<pdfrwt beam="1">  1       21 0.84958733E-01 0.12500221E+03</pdfrwt>
<pdfrwt beam="2">  1       21 0.10882799E-02 0.12500221E+03</pdfrwt>
<totfact> 0.38997988E+06</totfact>
</mgrwt>
</event>
<event>
 5    0  0.1581199E+000  0.1250219E+03  0.7546771E-02  0.1235035E+00
         21   -1    0    0  503  502  0.00000000000E+00  0.00000000000E+00  0.69005635823E+02  0.69005635823E+02  0.00000000000E+00 0.  1.
         21   -1    0    0  502  503 -0.00000000000E+00 -0.00000000000E+00 -0.56627543933E+02  0.56627543933E+02  0.00000000000E+00 0.  1.
         25    2    1    2    0    0  0.00000000000E+00  0.00000000000E+00  0.12378091889E+02  0.12563317976E+03  0.12502191287E+03 0.  0.
          4    1    3    3  501    0 -0.56860074008E+02 -0.20385380464E+02  0.22285647760E+02  0.64402518188E+02  0.15500000000E+01 0.  1.
         -4    1    3    3    0  501  0.56860074008E+02  0.20385380464E+02 -0.99075558701E+01  0.61230661569E+02  0.15500000000E+01 0.  1.
<mgrwt>
<rscale>  2 0.12502191E+03</rscale>
<asrwt>0</asrwt>
<pdfrwt beam="1">  1       21 0.10616252E-01 0.12502191E+03</pdfrwt>
<pdfrwt beam="2">  1       21 0.87119299E-02 0.12502191E+03</pdfrwt>
<totfact> 0.73915516E+06</totfact>
</mgrwt>
</event>
<event>
 5    0  0.1522706E+000  0.1250007E+03  0.7546771E-02  0.1235068E+00
         21   -1    0    0  503  502  0.00000000000E+00  0.00000000000E+00  0.13273816745E+02  0.13273816745E+02  0.00000000000E+00 0. -1.
         21   -1    0    0  502  503 -0.00000000000E+00 -0.00000000000E+00 -0.29428550127E+03  0.29428550127E+03  0.00000000000E+00 0. -1.
         25    2    1    2    0    0  0.00000000000E+00  0.00000000000E+00 -0.28101168453E+03  0.30755931802E+03  0.12500066903E+03 0.  0.
          4    1    3    3  501    0 -0.61644702560E+02  0.14775827744E+01 -0.11570069264E+03  0.13111561837E+03  0.15500000000E+01 0.  1.
         -4    1    3    3    0  501  0.61644702560E+02 -0.14775827744E+01 -0.16531099189E+03  0.17644369964E+03  0.15500000000E+01 0.  1.
<mgrwt>
<rscale>  2 0.12500067E+03</rscale>
<asrwt>0</asrwt>
<pdfrwt beam="1">  1       21 0.20421256E-02 0.12500067E+03</pdfrwt>
<pdfrwt beam="2">  1       21 0.45274694E-01 0.12500067E+03</pdfrwt>
<totfact> 0.54832835E+06</totfact>
</mgrwt>
</event>
<event>
 5    0  0.1528500E+000  0.1250226E+03  0.7546771E-02  0.1235034E+00
         21   -1    0    0  503  502  0.00000000000E+00  0.00000000000E+00  0.22167077332E+03  0.22167077332E+03  0.00000000000E+00 0.  1.
         21   -1    0    0  502  503 -0.00000000000E+00 -0.00000000000E+00 -0.17628215762E+02  0.17628215762E+02  0.00000000000E+00 0.  1.
         25    2    1    2    0    0  0.00000000000E+00  0.00000000000E+00  0.20404255756E+03  0.23929898908E+03  0.12502256149E+03 0.  0.
          4    1    3    3  501    0  0.15166306534E+02  0.56298559241E+02  0.14506448072E+03  0.15635104954E+03  0.15500000000E+01 0. -1.
         -4    1    3    3    0  501 -0.15166306534E+02 -0.56298559241E+02  0.58978076841E+02  0.82947939543E+02  0.15500000000E+01 0. -1.
<mgrwt>
<rscale>  2 0.12502256E+03</rscale>
<asrwt>0</asrwt>
<pdfrwt beam="1">  1       21 0.34103194E-01 0.12502256E+03</pdfrwt>
<pdfrwt beam="2">  1       21 0.27120334E-02 0.12502256E+03</pdfrwt>
<totfact> 0.60865916E+06</totfact>
</mgrwt>
</event>
<event>
 5    0  0.1458942E+000  0.1249991E+03  0.7546771E-02  0.1235071E+00
         21   -1    0    0  503  502  0.00000000000E+00  0.00000000000E+00  0.16674438577E+02  0.16674438577E+02  0.00000000000E+00 0.  1.
         21   -1    0    0  502  503 -0.00000000000E+00 -0.00000000000E+00 -0.23426227086E+03  0.23426227086E+03  0.00000000000E+00 0.  1.
         25    2    1    2    0    0  0.00000000000E+00  0.00000000000E+00 -0.21758783228E+03  0.25093670944E+03  0.12499906954E+03 0.  0.
          4    1    3    3  501    0  0.44616531671E+02 -0.36862315816E+02 -0.61528954810E+02  0.84484791564E+02  0.15500000000E+01 0.  1.
         -4    1    3    3    0  501 -0.44616531671E+02  0.36862315816E+02 -0.15605887747E+03  0.16645191787E+03  0.15500000000E+01 0.  1.
<mgrwt>
<rscale>  2 0.12499907E+03</rscale>
<asrwt>0</asrwt>
<pdfrwt beam="1">  1       21 0.25652984E-02 0.12499907E+03</pdfrwt>
<pdfrwt beam="2">  1       21 0.36040347E-01 0.12499907E+03</pdfrwt>
<totfact> 0.59791515E+06</totfact>
</mgrwt>
</event>
<event>
 5    0  0.1222151E+000  0.1249990E+03  0.7546771E-02  0.1235071E+00
         21   -1    0    0  503  502  0.00000000000E+00  0.00000000000E+00  0.26257848289E+01  0.26257848289E+01  0.00000000000E+00 0. -1.
         21   -1    0    0  502  503 -0.00000000000E+00 -0.00000000000E+00 -0.14876275202E+04  0.14876275202E+04  0.00000000000E+00 0. -1.
         25    2    1    2    0    0  0.00000000000E+00  0.00000000000E+00 -0.14850017354E+04  0.14902533050E+04  0.12499903637E+03 0.  0.
          4    1    3    3  501    0  0.55474905441E+02 -0.19948325010E+02 -0.49574283388E+03  0.49923818028E+03  0.15500000000E+01 0.  1.
         -4    1    3    3    0  501 -0.55474905441E+02  0.19948325010E+02 -0.98925890149E+03  0.99101512475E+03  0.15500000000E+01 0.  1.
<mgrwt>
<rscale>  2 0.12499904E+03</rscale>
<asrwt>0</asrwt>
<pdfrwt beam="1">  1       21 0.40396568E-03 0.12499904E+03</pdfrwt>
<pdfrwt beam="2">  1       21 0.22886646E+00 0.12499904E+03</pdfrwt>
<totfact> 0.14138684E+06</totfact>
</mgrwt>
</event>
<event>
 5    0  0.1457066E+000  0.1249987E+03  0.7546771E-02  0.1235071E+00
         21   -1    0    0  503  502  0.00000000000E+00  0.00000000000E+00  0.15237088902E+02  0.15237088902E+02  0.00000000000E+00 0. -1.
         21   -1    0    0  502  503 -0.00000000000E+00 -0.00000000000E+00 -0.25635906717E+03  0.25635906717E+03  0.00000000000E+00 0. -1.
         25    2    1    2    0    0  0.00000000000E+00  0.00000000000E+00 -0.24112197827E+03  0.27159615607E+03  0.12499865435E+03 0.  0.
          4    1    3    3  501    0  0.31753700379E+02  0.28241106134E+02 -0.21040780762E+02  0.47444436117E+02  0.15500000000E+01 0.  1.
         -4    1    3    3    0  501 -0.31753700379E+02 -0.28241106134E+02 -0.22008119751E+03  0.22415171996E+03  0.15500000000E+01 0.  1.
<mgrwt>
<rscale>  2 0.12499865E+03</rscale>
<asrwt>0</asrwt>
<pdfrwt beam="1">  1       21 0.23441676E-02 0.12499865E+03</pdfrwt>
<pdfrwt beam="2">  1       21 0.39439855E-01 0.12499865E+03</pdfrwt>
<totfact> 0.57904406E+06</totfact>
</mgrwt>
</event>
<event>
 5    0  0.1566785E+000  0.1250016E+03  0.7546771E-02  0.1235067E+00
         21   -1    0    0  503  502  0.00000000000E+00  0.00000000000E+00  0.29349971026E+02  0.29349971026E+02  0.00000000000E+00 0. -1.
         21   -1    0    0  502  503 -0.00000000000E+00 -0.00000000000E+00 -0.13309546693E+03  0.13309546693E+03  0.00000000000E+00 0. -1.
         25    2    1    2    0    0  0.00000000000E+00  0.00000000000E+00 -0.10374549591E+03  0.16244543796E+03  0.12500156956E+03 0.  0.
          4    1    3    3  501    0  0.54287854734E+02 -0.25754885327E+02 -0.74134879155E+02  0.95440390282E+02  0.15500000000E+01 0.  1.
         -4    1    3    3    0  501 -0.54287854734E+02  0.25754885327E+02 -0.29610616753E+02  0.67005047678E+02  0.15500000000E+01 0.  1.
<mgrwt>
<rscale>  2 0.12500157E+03</rscale>
<asrwt>0</asrwt>
<pdfrwt beam="1">  1       21 0.45153802E-02 0.12500157E+03</pdfrwt>
<pdfrwt beam="2">  1       21 0.20476226E-01 0.12500157E+03</pdfrwt>
<totfact> 0.69219156E+06</totfact>
</mgrwt>
</event>
<event>
 5    0  0.1222151E+000  0.1249716E+03  0.7546771E-02  0.1235114E+00
         21   -1    0    0  503  502  0.00000000000E+00  0.00000000000E+00  0.52431891782E+01  0.52431891782E+01  0.00000000000E+00 0. -1.
         21   -1    0    0  502  503 -0.00000000000E+00 -0.00000000000E+00 -0.74467598772E+03  0.74467598772E+03  0.00000000000E+00 0. -1.
         25    2    1    2    0    0  0.00000000000E+00  0.00000000000E+00 -0.73943279854E+03  0.74991917690E+03  0.12497163006E+03 0.  0.
          4    1    3    3  501    0 -0.28553742669E+02  0.17219410559E+01 -0.36485201846E+02  0.46388077727E+02  0.15500000000E+01 0.  1.
         -4    1    3    3    0  501  0.28553742669E+02 -0.17219410559E+01 -0.70294759669E+03  0.70353109917E+03  0.15500000000E+01 0.  1.
<mgrwt>
<rscale>  2 0.12497163E+03</rscale>
<asrwt>0</asrwt>
<pdfrwt beam="1">  1       21 0.80664416E-03 0.12497163E+03</pdfrwt>
<pdfrwt beam="2">  1       21 0.11456558E+00 0.12497163E+03</pdfrwt>
<totfact> 0.31093542E+06</totfact>
</mgrwt>
</event>
<event>
 5    0  0.1483750E+000  0.1250004E+03  0.7546771E-02  0.1235069E+00
         21   -1    0    0  503  502  0.00000000000E+00  0.00000000000E+00  0.20422684820E+02  0.20422684820E+02  0.00000000000E+00 0. -1.
         21   -1    0    0  502  503 -0.00000000000E+00 -0.00000000000E+00 -0.19127144953E+03  0.19127144953E+03  0.00000000000E+00 0. -1.
         25    2    1    2    0    0  0.00000000000E+00  0.00000000000E+00 -0.17084876471E+03  0.21169413435E+03  0.12500042446E+03 0.  0.
          4    1    3    3  501    0 -0.59808882174E+02 -0.82953828989E+01 -0.11262458003E+03  0.12779911694E+03  0.15500000000E+01 0.  1.
         -4    1    3    3    0  501  0.59808882174E+02  0.82953828989E+01 -0.58224184682E+02  0.83895017410E+02  0.15500000000E+01 0.  1.
<mgrwt>
<rscale>  2 0.12500042E+03</rscale>
<asrwt>0</asrwt>
<pdfrwt beam="1">  1       21 0.31419516E-02 0.12500042E+03</pdfrwt>
<pdfrwt beam="2">  1       21 0.29426376E-01 0.12500042E+03</pdfrwt>
<totfact> 0.63681050E+06</totfact>
</mgrwt>
</event>
<event>
 5    0  0.1404894E+000  0.1249988E+03  0.7546771E-02  0.1235071E+00
         21   -1    0    0  503  502  0.00000000000E+00  0.00000000000E+00  0.30469021883E+03  0.30469021883E+03  0.00000000000E+00 0. -1.
         21   -1    0    0  502  503 -0.00000000000E+00 -0.00000000000E+00 -0.12820157825E+02  0.12820157825E+02  0.00000000000E+00 0. -1.
         25    2    1    2    0    0  0.00000000000E+00  0.00000000000E+00  0.29187006101E+03  0.31751037666E+03  0.12499882708E+03 0.  0.
          4    1    3    3  501    0  0.34072464271E+02  0.38120114607E+02  0.23715628445E+03  0.24260993738E+03  0.15500000000E+01 0.  1.
         -4    1    3    3    0  501 -0.34072464271E+02 -0.38120114607E+02  0.54713776553E+02  0.74900439276E+02  0.15500000000E+01 0.  1.
<mgrwt>
<rscale>  2 0.12499883E+03</rscale>
<asrwt>0</asrwt>
<pdfrwt beam="1">  1       21 0.46875413E-01 0.12499883E+03</pdfrwt>
<pdfrwt beam="2">  1       21 0.19723322E-02 0.12499883E+03</pdfrwt>
<totfact> 0.54032817E+06</totfact>
</mgrwt>
</event>
<event>
 5    0  0.1521657E+000  0.1249990E+03  0.7546771E-02  0.1235071E+00
         21   -1    0    0  503  502  0.00000000000E+00  0.00000000000E+00  0.67068044048E+02  0.67068044048E+02  0.00000000000E+00 0.  1.
         21   -1    0    0  502  503 -0.00000000000E+00 -0.00000000000E+00 -0.58242160430E+02  0.58242160430E+02  0.00000000000E+00 0.  1.
         25    2    1    2    0    0  0.00000000000E+00  0.00000000000E+00  0.88258836177E+01  0.12531020448E+03  0.12499900449E+03 0.  0.
          4    1    3    3  501    0 -0.23918523453E+02  0.50001969053E+02 -0.24494461435E+02  0.60619087871E+02  0.15500000000E+01 0. -1.
         -4    1    3    3    0  501  0.23918523453E+02 -0.50001969053E+02  0.33320345053E+02  0.64691116607E+02  0.15500000000E+01 0. -1.
<mgrwt>
<rscale>  2 0.12499900E+03</rscale>
<asrwt>0</asrwt>
<pdfrwt beam="1">  1       21 0.10318161E-01 0.12499900E+03</pdfrwt>
<pdfrwt beam="2">  1       21 0.89603324E-02 0.12499900E+03</pdfrwt>
<totfact> 0.74003577E+06</totfact>
</mgrwt>
</event>
<event>
 5    0  0.1395083E+000  0.1249957E+03  0.7546771E-02  0.1235076E+00
         21   -1    0    0  503  502  0.00000000000E+00  0.00000000000E+00  0.11915663406E+02  0.11915663406E+02  0.00000000000E+00 0.  1.
         21   -1    0    0  502  503 -0.00000000000E+00 -0.00000000000E+00 -0.32780229439E+03  0.32780229439E+03  0.00000000000E+00 0.  1.
         25    2    1    2    0    0  0.00000000000E+00  0.00000000000E+00 -0.31588663099E+03  0.33971795780E+03  0.12499570879E+03 0.  0.
          4    1    3    3  501    0  0.60122348277E+02  0.16641604244E+02 -0.14855219589E+03  0.16112664944E+03  0.15500000000E+01 0. -1.
         -4    1    3    3    0  501 -0.60122348277E+02 -0.16641604244E+02 -0.16733443509E+03  0.17859130836E+03  0.15500000000E+01 0. -1.
<mgrwt>
<rscale>  2 0.12499571E+03</rscale>
<asrwt>0</asrwt>
<pdfrwt beam="1">  1       21 0.18331789E-02 0.12499571E+03</pdfrwt>
<pdfrwt beam="2">  1       21 0.50431125E-01 0.12499571E+03</pdfrwt>
<totfact> 0.52312496E+06</totfact>
</mgrwt>
</event>
<event>
 5    0  0.1506450E+000  0.1250029E+03  0.7546771E-02  0.1235065E+00
         21   -1    0    0  503  502  0.00000000000E+00  0.00000000000E+00  0.16123981168E+03  0.16123981168E+03  0.00000000000E+00 0. -1.
         21   -1    0    0  502  503 -0.00000000000E+00 -0.00000000000E+00 -0.24227456382E+02  0.24227456382E+02  0.00000000000E+00 0. -1.
         25    2    1    2    0    0  0.00000000000E+00  0.00000000000E+00  0.13701235529E+03  0.18546726806E+03  0.12500288804E+03 0.  0.
          4    1    3    3  501    0 -0.50097988909E+00 -0.49709960922E+02  0.12346529958E+02  0.51246175445E+02  0.15500000000E+01 0.  1.
         -4    1    3    3    0  501  0.50097988909E+00  0.49709960922E+02  0.12466582534E+03  0.13422109261E+03  0.15500000000E+01 0.  1.
<mgrwt>
<rscale>  2 0.12500289E+03</rscale>
<asrwt>0</asrwt>
<pdfrwt beam="1">  1       21 0.24806124E-01 0.12500289E+03</pdfrwt>
<pdfrwt beam="2">  1       21 0.37273011E-02 0.12500289E+03</pdfrwt>
<totfact> 0.66524945E+06</totfact>
</mgrwt>
</event>
<event>
 5    0  0.1579978E+000  0.1249996E+03  0.7546771E-02  0.1235070E+00
         21   -1    0    0  503  502  0.00000000000E+00  0.00000000000E+00  0.80621959763E+02  0.80621959763E+02  0.00000000000E+00 0. -1.
         21   -1    0    0  502  503 -0.00000000000E+00 -0.00000000000E+00 -0.48451103743E+02  0.48451103743E+02  0.00000000000E+00 0. -1.
         25    2    1    2    0    0  0.00000000000E+00  0.00000000000E+00  0.32170856020E+02  0.12907306351E+03  0.12499956698E+03 0.  0.
          4    1    3    3  501    0 -0.48129089177E+02 -0.37960398502E+02  0.35907129344E+01  0.61422282592E+02  0.15500000000E+01 0. -1.
         -4    1    3    3    0  501  0.48129089177E+02  0.37960398502E+02  0.28580143085E+02  0.67650780913E+02  0.15500000000E+01 0. -1.
<mgrwt>
<rscale>  2 0.12499957E+03</rscale>
<asrwt>0</asrwt>
<pdfrwt beam="1">  1       21 0.12403378E-01 0.12499957E+03</pdfrwt>
<pdfrwt beam="2">  1       21 0.74540160E-02 0.12499957E+03</pdfrwt>
<totfact> 0.73489883E+06</totfact>
</mgrwt>
</event>
<event>
 5    0  0.1473869E+000  0.1250026E+03  0.7546771E-02  0.1235065E+00
         21   -1    0    0  503  502  0.00000000000E+00  0.00000000000E+00  0.92999799557E+02  0.92999799557E+02  0.00000000000E+00 0. -1.
         21   -1    0    0  502  503 -0.00000000000E+00 -0.00000000000E+00 -0.42004493486E+02  0.42004493486E+02  0.00000000000E+00 0. -1.
         25    2    1    2    0    0  0.00000000000E+00  0.00000000000E+00  0.50995306071E+02  0.13500429304E+03  0.12500255157E+03 0.  0.
          4    1    3    3  501    0  0.81901193312E+01  0.34946643080E+02  0.80733298614E+02  0.88366361939E+02  0.15500000000E+01 0. -1.
         -4    1    3    3    0  501 -0.81901193312E+01 -0.34946643080E+02 -0.29737992542E+02  0.46637931104E+02  0.15500000000E+01 0. -1.
<mgrwt>
<rscale>  2 0.12500255E+03</rscale>
<asrwt>0</asrwt>
<pdfrwt beam="1">  1       21 0.14307661E-01 0.12500255E+03</pdfrwt>
<pdfrwt beam="2">  1       21 0.64622298E-02 0.12500255E+03</pdfrwt>
<totfact> 0.72691173E+06</totfact>
</mgrwt>
</event>
<event>
 5    0  0.1559003E+000  0.1249881E+03  0.7546771E-02  0.1235088E+00
         21   -1    0    0  503  502  0.00000000000E+00  0.00000000000E+00  0.12399664674E+03  0.12399664674E+03  0.00000000000E+00 0. -1.
         21   -1    0    0  502  503 -0.00000000000E+00 -0.00000000000E+00 -0.31496880369E+02  0.31496880369E+02  0.00000000000E+00 0. -1.
         25    2    1    2    0    0  0.00000000000E+00  0.00000000000E+00  0.92499766374E+02  0.15549352711E+03  0.12498812021E+03 0.  0.
          4    1    3    3  501    0 -0.44465222538E+02 -0.23986599327E+02  0.52994034575E+00  0.50548949538E+02  0.15500000000E+01 0.  1.
         -4    1    3    3    0  501  0.44465222538E+02  0.23986599327E+02  0.91969826028E+02  0.10494457757E+03  0.15500000000E+01 0.  1.
<mgrwt>
<rscale>  2 0.12498812E+03</rscale>
<asrwt>0</asrwt>
<pdfrwt beam="1">  1       21 0.19076407E-01 0.12498812E+03</pdfrwt>
<pdfrwt beam="2">  1       21 0.48456740E-02 0.12498812E+03</pdfrwt>
<totfact> 0.70095550E+06</totfact>
</mgrwt>
</event>
<event>
 5    0  0.1471997E+000  0.1249890E+03  0.7546771E-02  0.1235086E+00
         21   -1    0    0  503  502  0.00000000000E+00  0.00000000000E+00  0.15989833031E+02  0.15989833031E+02  0.00000000000E+00 0.  1.
         21   -1    0    0  502  503 -0.00000000000E+00 -0.00000000000E+00 -0.24425282420E+03  0.24425282420E+03  0.00000000000E+00 0.  1.
         25    2    1    2    0    0  0.00000000000E+00  0.00000000000E+00 -0.22826299117E+03  0.26024265723E+03  0.12498898954E+03 0.  0.
          4    1    3    3  501    0  0.61753586075E+02 -0.64532352028E+01 -0.99704649514E+02  0.11746731151E+03  0.15500000000E+01 0.  1.
         -4    1    3    3    0  501 -0.61753586075E+02  0.64532352028E+01 -0.12855834166E+03  0.14277534573E+03  0.15500000000E+01 0.  1.
<mgrwt>
<rscale>  2 0.12498899E+03</rscale>
<asrwt>0</asrwt>
<pdfrwt beam="1">  1       21 0.24599744E-02 0.12498899E+03</pdfrwt>
<pdfrwt beam="2">  1       21 0.37577356E-01 0.12498899E+03</pdfrwt>
<totfact> 0.58943385E+06</totfact>
</mgrwt>
</event>
<event>
 5    0  0.1558531E+000  0.1249985E+03  0.7546771E-02  0.1235072E+00
         21   -1    0    0  503  502  0.00000000000E+00  0.00000000000E+00  0.88941500603E+02  0.88941500603E+02  0.00000000000E+00 0. -1.
         21   -1    0    0  502  503 -0.00000000000E+00 -0.00000000000E+00 -0.43918277332E+02  0.43918277332E+02  0.00000000000E+00 0. -1.
         25    2    1    2    0    0  0.00000000000E+00  0.00000000000E+00  0.45023223271E+02  0.13285977794E+03  0.12499851983E+03 0.  0.
          4    1    3    3  501    0 -0.33344592355E+02  0.50357931557E+02  0.55062927289E+01  0.60667164674E+02  0.15500000000E+01 0.  1.
         -4    1    3    3    0  501  0.33344592355E+02 -0.50357931557E+02  0.39516930542E+02  0.72192613261E+02  0.15500000000E+01 0.  1.
<mgrwt>
<rscale>  2 0.12499852E+03</rscale>
<asrwt>0</asrwt>
<pdfrwt beam="1">  1       21 0.13683308E-01 0.12499852E+03</pdfrwt>
<pdfrwt beam="2">  1       21 0.67566581E-02 0.12499852E+03</pdfrwt>
<totfact> 0.72983884E+06</totfact>
</mgrwt>
</event>
<event>
 5    0  0.1543556E+000  0.1250013E+03  0.7546771E-02  0.1235067E+00
         21   -1    0    0  503  502  0.00000000000E+00  0.00000000000E+00  0.18003695872E+03  0.18003695872E+03  0.00000000000E+00 0.  1.
         21   -1    0    0  502  503 -0.00000000000E+00 -0.00000000000E+00 -0.21697381670E+02  0.21697381670E+02  0.00000000000E+00 0.  1.
         25    2    1    2    0    0  0.00000000000E+00  0.00000000000E+00  0.15833957705E+03  0.20173434039E+03  0.12500128972E+03 0.  0.
          4    1    3    3  501    0 -0.10974107279E+02 -0.61323999173E+02  0.71452879665E+02  0.94810233718E+02  0.15500000000E+01 0. -1.
         -4    1    3    3    0  501  0.10974107279E+02  0.61323999173E+02  0.86886697388E+02  0.10692410667E+03  0.15500000000E+01 0. -1.
<mgrwt>
<rscale>  2 0.12500129E+03</rscale>
<asrwt>0</asrwt>
<pdfrwt beam="1">  1       21 0.27697993E-01 0.12500129E+03</pdfrwt>
<pdfrwt beam="2">  1       21 0.33380589E-02 0.12500129E+03</pdfrwt>
<totfact> 0.64737695E+06</totfact>
</mgrwt>
</event>
<event>
 5    0  0.1263219E+000  0.1250030E+03  0.7546771E-02  0.1235065E+00
         21   -1    0    0  503  502  0.00000000000E+00  0.00000000000E+00  0.61690943299E+01  0.61690943299E+01  0.00000000000E+00 0.  1.
         21   -1    0    0  502  503 -0.00000000000E+00 -0.00000000000E+00 -0.63322733722E+03  0.63322733722E+03  0.00000000000E+00 0.  1.
         25    2    1    2    0    0  0.00000000000E+00  0.00000000000E+00 -0.62705824289E+03  0.63939643155E+03  0.12500302677E+03 0.  0.
          4    1    3    3  501    0  0.40330995391E+02  0.15517687673E+02 -0.82690879564E+02  0.93314371256E+02  0.15500000000E+01 0. -1.
         -4    1    3    3    0  501 -0.40330995391E+02 -0.15517687673E+02 -0.54436736333E+03  0.54608206030E+03  0.15500000000E+01 0. -1.
<mgrwt>
<rscale>  2 0.12500303E+03</rscale>
<asrwt>0</asrwt>
<pdfrwt beam="1">  1       21 0.94909119E-03 0.12500303E+03</pdfrwt>
<pdfrwt beam="2">  1       21 0.97419616E-01 0.12500303E+03</pdfrwt>
<totfact> 0.35366746E+06</totfact>
</mgrwt>
</event>
<event>
 5    0  0.1470954E+000  0.1249996E+03  0.7546771E-02  0.1235070E+00
         21   -1    0    0  503  502  0.00000000000E+00  0.00000000000E+00  0.25216523188E+02  0.25216523188E+02  0.00000000000E+00 0.  1.
         21   -1    0    0  502  503 -0.00000000000E+00 -0.00000000000E+00 -0.15490729202E+03  0.15490729202E+03  0.00000000000E+00 0.  1.
         25    2    1    2    0    0  0.00000000000E+00  0.00000000000E+00 -0.12969076884E+03  0.18012381521E+03  0.12499957314E+03 0.  0.
          4    1    3    3  501    0  0.26521756066E+02  0.18239741589E+02  0.12321624915E+02  0.34500966053E+02  0.15500000000E+01 0.  1.
         -4    1    3    3    0  501 -0.26521756066E+02 -0.18239741589E+02 -0.14201239375E+03  0.14562284916E+03  0.15500000000E+01 0.  1.
<mgrwt>
<rscale>  2 0.12499957E+03</rscale>
<asrwt>0</asrwt>
<pdfrwt beam="1">  1       21 0.38794651E-02 0.12499957E+03</pdfrwt>
<pdfrwt beam="2">  1       21 0.23831891E-01 0.12499957E+03</pdfrwt>
<totfact> 0.67138062E+06</totfact>
</mgrwt>
</event>
<event>
 5    0  0.1648769E+000  0.1249960E+03  0.7546771E-02  0.1235076E+00
         21   -1    0    0  503  502  0.00000000000E+00  0.00000000000E+00  0.77749713801E+02  0.77749713801E+02  0.00000000000E+00 0.  1.
         21   -1    0    0  502  503 -0.00000000000E+00 -0.00000000000E+00 -0.50238092883E+02  0.50238092883E+02  0.00000000000E+00 0.  1.
         25    2    1    2    0    0  0.00000000000E+00  0.00000000000E+00  0.27511620918E+02  0.12798780668E+03  0.12499595743E+03 0.  0.
          4    1    3    3  501    0 -0.47759184767E+02  0.39544932610E+02  0.21611032709E+02  0.65682422759E+02  0.15500000000E+01 0. -1.
         -4    1    3    3    0  501  0.47759184767E+02 -0.39544932610E+02  0.59005882086E+01  0.62305383925E+02  0.15500000000E+01 0. -1.
<mgrwt>
<rscale>  2 0.12499596E+03</rscale>
<asrwt>0</asrwt>
<pdfrwt beam="1">  1       21 0.11961494E-01 0.12499596E+03</pdfrwt>
<pdfrwt beam="2">  1       21 0.77289374E-02 0.12499596E+03</pdfrwt>
<totfact> 0.73642806E+06</totfact>
</mgrwt>
</event>
<event>
 5    0  0.1374384E+000  0.1250027E+03  0.7546771E-02  0.1235065E+00
         21   -1    0    0  503  502  0.00000000000E+00  0.00000000000E+00  0.13845351484E+02  0.13845351484E+02  0.00000000000E+00 0.  1.
         21   -1    0    0  502  503 -0.00000000000E+00 -0.00000000000E+00 -0.28214647855E+03  0.28214647855E+03  0.00000000000E+00 0.  1.
         25    2    1    2    0    0  0.00000000000E+00  0.00000000000E+00 -0.26830112707E+03  0.29599183003E+03  0.12500267462E+03 0.  0.
          4    1    3    3  501    0 -0.25193586669E+02  0.54862844364E+02 -0.17228497764E+03  0.18256276872E+03  0.15500000000E+01 0.  1.
         -4    1    3    3    0  501  0.25193586669E+02 -0.54862844364E+02 -0.96016149424E+02  0.11342906132E+03  0.15500000000E+01 0.  1.
<mgrwt>
<rscale>  2 0.12500267E+03</rscale>
<asrwt>0</asrwt>
<pdfrwt beam="1">  1       21 0.21300541E-02 0.12500267E+03</pdfrwt>
<pdfrwt beam="2">  1       21 0.43407150E-01 0.12500267E+03</pdfrwt>
<totfact> 0.55787171E+06</totfact>
</mgrwt>
</event>
<event>
 5    0  0.1222151E+000  0.1249888E+03  0.7546771E-02  0.1235087E+00
         21   -1    0    0  503  502  0.00000000000E+00  0.00000000000E+00  0.34431462309E+01  0.34431462309E+01  0.00000000000E+00 0.  1.
         21   -1    0    0  502  503 -0.00000000000E+00 -0.00000000000E+00 -0.11342971258E+04  0.11342971258E+04  0.00000000000E+00 0.  1.
         25    2    1    2    0    0  0.00000000000E+00  0.00000000000E+00 -0.11308539795E+04  0.11377402720E+04  0.12498881347E+03 0.  0.
          4    1    3    3  501    0  0.59576185388E+01 -0.48685692378E+02 -0.21319006285E+03  0.21876516006E+03  0.15500000000E+01 0.  1.
         -4    1    3    3    0  501 -0.59576185388E+01  0.48685692378E+02 -0.91766391669E+03  0.91897511194E+03  0.15500000000E+01 0.  1.
<mgrwt>
<rscale>  2 0.12498881E+03</rscale>
<asrwt>0</asrwt>
<pdfrwt beam="1">  1       21 0.52971457E-03 0.12498881E+03</pdfrwt>
<pdfrwt beam="2">  1       21 0.17450733E+00 0.12498881E+03</pdfrwt>
<totfact> 0.20435540E+06</totfact>
</mgrwt>
</event>
<event>
 5    0  0.1480084E+000  0.1250072E+03  0.7546771E-02  0.1235058E+00
         21   -1    0    0  503  502  0.00000000000E+00  0.00000000000E+00  0.19159206106E+03  0.19159206106E+03  0.00000000000E+00 0. -1.
         21   -1    0    0  502  503 -0.00000000000E+00 -0.00000000000E+00 -0.20390720840E+02  0.20390720840E+02  0.00000000000E+00 0. -1.
         25    2    1    2    0    0  0.00000000000E+00  0.00000000000E+00  0.17120134022E+03  0.21198278190E+03  0.12500720351E+03 0.  0.
          4    1    3    3  501    0  0.35837581762E+02  0.13304752158E+02  0.16941586339E+03  0.17368214060E+03  0.15500000000E+01 0.  1.
         -4    1    3    3    0  501 -0.35837581762E+02 -0.13304752158E+02  0.17854768350E+01  0.38300641301E+02  0.15500000000E+01 0.  1.
<mgrwt>
<rscale>  2 0.12500720E+03</rscale>
<asrwt>0</asrwt>
<pdfrwt beam="1">  1       21 0.29475700E-01 0.12500720E+03</pdfrwt>
<pdfrwt beam="2">  1       21 0.31370341E-02 0.12500720E+03</pdfrwt>
<totfact> 0.63639932E+06</totfact>
</mgrwt>
</event>
<event>
 5    0  0.1542733E+000  0.1250005E+03  0.7546771E-02  0.1235069E+00
         21   -1    0    0  503  502  0.00000000000E+00  0.00000000000E+00  0.36819034962E+02  0.36819034962E+02  0.00000000000E+00 0.  1.
         21   -1    0    0  502  503 -0.00000000000E+00 -0.00000000000E+00 -0.10609400045E+03  0.10609400045E+03  0.00000000000E+00 0.  1.
         25    2    1    2    0    0  0.00000000000E+00  0.00000000000E+00 -0.69274965485E+02  0.14291303541E+03  0.12500045939E+03 0.  0.
          4    1    3    3  501    0  0.59745127088E+02 -0.16390237242E+02 -0.25366445248E+02  0.66962520354E+02  0.15500000000E+01 0.  1.
         -4    1    3    3    0  501 -0.59745127088E+02  0.16390237242E+02 -0.43908520237E+02  0.75950515054E+02  0.15500000000E+01 0.  1.
<mgrwt>
<rscale>  2 0.12500046E+03</rscale>
<asrwt>0</asrwt>
<pdfrwt beam="1">  1       21 0.56644670E-02 0.12500046E+03</pdfrwt>
<pdfrwt beam="2">  1       21 0.16322154E-01 0.12500046E+03</pdfrwt>
<totfact> 0.71660424E+06</totfact>
</mgrwt>
</event>
<event>
 5    0  0.1222151E+000  0.1250027E+03  0.7546771E-02  0.1235065E+00
         21   -1    0    0  503  502  0.00000000000E+00  0.00000000000E+00  0.19813322925E+01  0.19813322925E+01  0.00000000000E+00 0.  1.
         21   -1    0    0  502  503 -0.00000000000E+00 -0.00000000000E+00 -0.19716106114E+04  0.19716106114E+04  0.00000000000E+00 0.  1.
         25    2    1    2    0    0  0.00000000000E+00  0.00000000000E+00 -0.19696292791E+04  0.19735919437E+04  0.12500265234E+03 0.  0.
          4    1    3    3  501    0  0.54502827258E+02  0.72643427660E+01 -0.14533563858E+04  0.14543969594E+04  0.15500000000E+01 0.  1.
         -4    1    3    3    0  501 -0.54502827258E+02 -0.72643427660E+01 -0.51627289338E+03  0.51919498437E+03  0.15500000000E+01 0.  1.
<mgrwt>
<rscale>  2 0.12500265E+03</rscale>
<asrwt>0</asrwt>
<pdfrwt beam="1">  1       21 0.30482020E-03 0.12500265E+03</pdfrwt>
<pdfrwt beam="2">  1       21 0.30332486E+00 0.12500265E+03</pdfrwt>
<totfact> 0.82078615E+05</totfact>
</mgrwt>
</event>
<event>
 5    0  0.1480851E+000  0.1250020E+03  0.7546771E-02  0.1235066E+00
         21   -1    0    0  503  502  0.00000000000E+00  0.00000000000E+00  0.78056506234E+02  0.78056506234E+02  0.00000000000E+00 0.  1.
         21   -1    0    0  502  503 -0.00000000000E+00 -0.00000000000E+00 -0.50045496504E+02  0.50045496504E+02  0.00000000000E+00 0.  1.
         25    2    1    2    0    0  0.00000000000E+00  0.00000000000E+00  0.28011009729E+02  0.12810200274E+03  0.12500202574E+03 0.  0.
          4    1    3    3  501    0  0.46199041597E+02 -0.11650036658E+02 -0.27418445555E+02  0.54993167351E+02  0.15500000000E+01 0. -1.
         -4    1    3    3    0  501 -0.46199041597E+02  0.11650036658E+02  0.55429455284E+02  0.73108835387E+02  0.15500000000E+01 0. -1.
<mgrwt>
<rscale>  2 0.12500203E+03</rscale>
<asrwt>0</asrwt>
<pdfrwt beam="1">  1       21 0.12008693E-01 0.12500203E+03</pdfrwt>
<pdfrwt beam="2">  1       21 0.76993071E-02 0.12500203E+03</pdfrwt>
<totfact> 0.73615977E+06</totfact>
</mgrwt>
</event>
<event>
 5    0  0.1459261E+000  0.1249989E+03  0.7546771E-02  0.1235071E+00
         21   -1    0    0  503  502  0.00000000000E+00  0.00000000000E+00  0.14076789758E+03  0.14076789758E+03  0.00000000000E+00 0. -1.
         21   -1    0    0  502  503 -0.00000000000E+00 -0.00000000000E+00 -0.27749087849E+02  0.27749087849E+02  0.00000000000E+00 0. -1.
         25    2    1    2    0    0  0.00000000000E+00  0.00000000000E+00  0.11301880973E+03  0.16851698543E+03  0.12499889210E+03 0.  0.
          4    1    3    3  501    0 -0.29766242305E+02  0.31711241246E+02  0.11698320914E+03  0.12481628790E+03  0.15500000000E+01 0. -1.
         -4    1    3    3    0  501  0.29766242305E+02 -0.31711241246E+02 -0.39643994109E+01  0.43700697535E+02  0.15500000000E+01 0. -1.
<mgrwt>
<rscale>  2 0.12499889E+03</rscale>
<asrwt>0</asrwt>
<pdfrwt beam="1">  1       21 0.21656599E-01 0.12499889E+03</pdfrwt>
<pdfrwt beam="2">  1       21 0.42690905E-02 0.12499889E+03</pdfrwt>
<totfact> 0.68495425E+06</totfact>
</mgrwt>
</event>
<event>
 5    0  0.1222151E+000  0.1250008E+03  0.7546771E-02  0.1235068E+00
         21   -1    0    0  503  502  0.00000000000E+00  0.00000000000E+00  0.74977977579E+02  0.74977977579E+02  0.00000000000E+00 0.  1.
         21   -1    0    0  502  503 -0.00000000000E+00 -0.00000000000E+00 -0.52099272890E+02  0.52099272890E+02  0.00000000000E+00 0.  1.
         25    2    1    2    0    0  0.00000000000E+00  0.00000000000E+00  0.22878704689E+02  0.12707725047E+03  0.12500076983E+03 0.  0.
          4    1    3    3  501    0  0.92430595649E+01  0.21069628986E+02  0.70495064371E+02  0.74170883885E+02  0.15500000000E+01 0.  1.
         -4    1    3    3    0  501 -0.92430595649E+01 -0.21069628986E+02 -0.47616359682E+02  0.52906366583E+02  0.15500000000E+01 0.  1.
<mgrwt>
<rscale>  2 0.12500077E+03</rscale>
<asrwt>0</asrwt>
<pdfrwt beam="1">  1       21 0.11535073E-01 0.12500077E+03</pdfrwt>
<pdfrwt beam="2">  1       21 0.80152727E-02 0.12500077E+03</pdfrwt>
<totfact> 0.73757174E+06</totfact>
</mgrwt>
</event>
<event>
 5    0  0.1499451E+000  0.1250010E+03  0.7546771E-02  0.1235068E+00
         21   -1    0    0  503  502  0.00000000000E+00  0.00000000000E+00  0.12411436840E+02  0.12411436840E+02  0.00000000000E+00 0.  1.
         21   -1    0    0  502  503 -0.00000000000E+00 -0.00000000000E+00 -0.31473502653E+03  0.31473502653E+03  0.00000000000E+00 0.  1.
         25    2    1    2    0    0  0.00000000000E+00  0.00000000000E+00 -0.30232358969E+03  0.32714646337E+03  0.12500102244E+03 0.  0.
          4    1    3    3  501    0  0.50965682478E+02  0.34999674285E+02 -0.12754450923E+03  0.14174795352E+03  0.15500000000E+01 0. -1.
         -4    1    3    3    0  501 -0.50965682478E+02 -0.34999674285E+02 -0.17477908045E+03  0.18539850985E+03  0.15500000000E+01 0. -1.
<mgrwt>
<rscale>  2 0.12500102E+03</rscale>
<asrwt>0</asrwt>
<pdfrwt beam="1">  1       21 0.19094519E-02 0.12500102E+03</pdfrwt>
<pdfrwt beam="2">  1       21 0.48420771E-01 0.12500102E+03</pdfrwt>
<totfact> 0.53270472E+06</totfact>
</mgrwt>
</event>
<event>
 5    0  0.1516549E+000  0.1250047E+03  0.7546771E-02  0.1235062E+00
         21   -1    0    0  503  502  0.00000000000E+00  0.00000000000E+00  0.68922557813E+02  0.68922557813E+02  0.00000000000E+00 0. -1.
         21   -1    0    0  502  503 -0.00000000000E+00 -0.00000000000E+00 -0.56680163209E+02  0.56680163209E+02  0.00000000000E+00 0. -1.
         25    2    1    2    0    0  0.00000000000E+00  0.00000000000E+00  0.12242394604E+02  0.12560272102E+03  0.12500466912E+03 0.  0.
          4    1    3    3  501    0 -0.31769369321E+02  0.37836762530E+02 -0.32313945848E+02  0.59055118509E+02  0.15500000000E+01 0.  1.
         -4    1    3    3    0  501  0.31769369321E+02 -0.37836762530E+02  0.44556340452E+02  0.66547602513E+02  0.15500000000E+01 0.  1.
<mgrwt>
<rscale>  2 0.12500467E+03</rscale>
<asrwt>0</asrwt>
<pdfrwt beam="1">  1       21 0.10603470E-01 0.12500467E+03</pdfrwt>
<pdfrwt beam="2">  1       21 0.87200251E-02 0.12500467E+03</pdfrwt>
<totfact> 0.73952259E+06</totfact>
</mgrwt>
</event>
<event>
 5    0  0.1545588E+000  0.1249779E+03  0.7546771E-02  0.1235104E+00
         21   -1    0    0  503  502  0.00000000000E+00  0.00000000000E+00  0.16366012505E+03  0.16366012505E+03  0.00000000000E+00 0. -1.
         21   -1    0    0  502  503 -0.00000000000E+00 -0.00000000000E+00 -0.23859607523E+02  0.23859607523E+02  0.00000000000E+00 0. -1.
         25    2    1    2    0    0  0.00000000000E+00  0.00000000000E+00  0.13980051753E+03  0.18751973257E+03  0.12497785965E+03 0.  0.
          4    1    3    3  501    0  0.44587999846E+02  0.25235201797E+02  0.16270687387E+02  0.53777717579E+02  0.15500000000E+01 0.  1.
         -4    1    3    3    0  501 -0.44587999846E+02 -0.25235201797E+02  0.12352983014E+03  0.13374201499E+03  0.15500000000E+01 0.  1.
<mgrwt>
<rscale>  2 0.12497786E+03</rscale>
<asrwt>0</asrwt>
<pdfrwt beam="1">  1       21 0.25178480E-01 0.12497786E+03</pdfrwt>
<pdfrwt beam="2">  1       21 0.36707090E-02 0.12497786E+03</pdfrwt>
<totfact> 0.66336409E+06</totfact>
</mgrwt>
</event>
<event>
 5    0  0.1222151E+000  0.1249983E+03  0.7546771E-02  0.1235072E+00
         21   -1    0    0  503  502  0.00000000000E+00  0.00000000000E+00  0.38797775306E+01  0.38797775306E+01  0.00000000000E+00 0. -1.
         21   -1    0    0  502  503 -0.00000000000E+00 -0.00000000000E+00 -0.10067952069E+04  0.10067952069E+04  0.00000000000E+00 0. -1.
         25    2    1    2    0    0  0.00000000000E+00  0.00000000000E+00 -0.10029154294E+04  0.10106749845E+04  0.12499826274E+03 0.  0.
          4    1    3    3  501    0  0.14336034370E+02 -0.49779190413E+02 -0.78390136306E+03  0.78561265213E+03  0.15500000000E+01 0. -1.
         -4    1    3    3    0  501 -0.14336034370E+02  0.49779190413E+02 -0.21901406634E+03  0.22506233233E+03  0.15500000000E+01 0. -1.
<mgrwt>
<rscale>  2 0.12499826E+03</rscale>
<asrwt>0</asrwt>
<pdfrwt beam="1">  1       21 0.59688868E-03 0.12499826E+03</pdfrwt>
<pdfrwt beam="2">  1       21 0.15489161E+00 0.12499826E+03</pdfrwt>
<totfact> 0.23354932E+06</totfact>
</mgrwt>
</event>
<event>
 5    0  0.1533433E+000  0.1250070E+03  0.7546771E-02  0.1235058E+00
         21   -1    0    0  503  502  0.00000000000E+00  0.00000000000E+00  0.32476012577E+02  0.32476012577E+02  0.00000000000E+00 0.  1.
         21   -1    0    0  502  503 -0.00000000000E+00 -0.00000000000E+00 -0.12029446568E+03  0.12029446568E+03  0.00000000000E+00 0.  1.
         25    2    1    2    0    0  0.00000000000E+00  0.00000000000E+00 -0.87818453104E+02  0.15277047826E+03  0.12500695309E+03 0.  0.
          4    1    3    3  501    0 -0.41553590994E+02  0.32665934631E+02 -0.31835747121E+01  0.52974539713E+02  0.15500000000E+01 0.  1.
         -4    1    3    3    0  501  0.41553590994E+02 -0.32665934631E+02 -0.84634878392E+02  0.99795938546E+02  0.15500000000E+01 0.  1.
<mgrwt>
<rscale>  2 0.12500695E+03</rscale>
<asrwt>0</asrwt>
<pdfrwt beam="1">  1       21 0.49963096E-02 0.12500695E+03</pdfrwt>
<pdfrwt beam="2">  1       21 0.18506841E-01 0.12500695E+03</pdfrwt>
<totfact> 0.70400431E+06</totfact>
</mgrwt>
</event>
<event>
 5    0  0.1222151E+000  0.1250072E+03  0.7546771E-02  0.1235058E+00
         21   -1    0    0  503  502  0.00000000000E+00  0.00000000000E+00  0.23614310873E+01  0.23614310873E+01  0.00000000000E+00 0. -1.
         21   -1    0    0  502  503 -0.00000000000E+00 -0.00000000000E+00 -0.16543789393E+04  0.16543789393E+04  0.00000000000E+00 0. -1.
         25    2    1    2    0    0  0.00000000000E+00  0.00000000000E+00 -0.16520175083E+04  0.16567403704E+04  0.12500722951E+03 0.  0.
          4    1    3    3  501    0  0.31575744286E+02 -0.38022047990E+02 -0.13326877927E+04  0.13336048362E+04  0.15500000000E+01 0. -1.
         -4    1    3    3    0  501 -0.31575744286E+02  0.38022047990E+02 -0.31932971551E+03  0.32313553421E+03  0.15500000000E+01 0. -1.
<mgrwt>
<rscale>  2 0.12500723E+03</rscale>
<asrwt>0</asrwt>
<pdfrwt beam="1">  1       21 0.36329818E-03 0.12500723E+03</pdfrwt>
<pdfrwt beam="2">  1       21 0.25451907E+00 0.12500723E+03</pdfrwt>
<totfact> 0.11818182E+06</totfact>
</mgrwt>
</event>
<event>
 5    0  0.1376839E+000  0.1249985E+03  0.7546771E-02  0.1235072E+00
         21   -1    0    0  503  502  0.00000000000E+00  0.00000000000E+00  0.83306221441E+01  0.83306221441E+01  0.00000000000E+00 0. -1.
         21   -1    0    0  502  503 -0.00000000000E+00 -0.00000000000E+00 -0.46889148970E+03  0.46889148970E+03  0.00000000000E+00 0. -1.
         25    2    1    2    0    0  0.00000000000E+00  0.00000000000E+00 -0.46056086756E+03  0.47722211185E+03  0.12499852523E+03 0.  0.
          4    1    3    3  501    0 -0.10532490349E+02  0.56799604575E+02 -0.13940128277E+03  0.15090476656E+03  0.15500000000E+01 0. -1.
         -4    1    3    3    0  501  0.10532490349E+02 -0.56799604575E+02 -0.32115958480E+03  0.32631734529E+03  0.15500000000E+01 0. -1.
<mgrwt>
<rscale>  2 0.12499853E+03</rscale>
<asrwt>0</asrwt>
<pdfrwt beam="1">  1       21 0.12816339E-02 0.12499853E+03</pdfrwt>
<pdfrwt beam="2">  1       21 0.72137167E-01 0.12499853E+03</pdfrwt>
<totfact> 0.43308517E+06</totfact>
</mgrwt>
</event>
<event>
 5    0  0.1338068E+000  0.1249990E+03  0.7546771E-02  0.1235071E+00
         21   -1    0    0  503  502  0.00000000000E+00  0.00000000000E+00  0.10383614193E+02  0.10383614193E+02  0.00000000000E+00 0.  1.
         21   -1    0    0  502  503 -0.00000000000E+00 -0.00000000000E+00 -0.37618791790E+03  0.37618791790E+03  0.00000000000E+00 0.  1.
         25    2    1    2    0    0  0.00000000000E+00  0.00000000000E+00 -0.36580430370E+03  0.38657153209E+03  0.12499904325E+03 0.  0.
          4    1    3    3  501    0 -0.47368628304E+02  0.23761181158E+01 -0.30868965890E+03  0.31231577113E+03  0.15500000000E+01 0. -1.
         -4    1    3    3    0  501  0.47368628304E+02 -0.23761181158E+01 -0.57114644804E+02  0.74255760961E+02  0.15500000000E+01 0. -1.
<mgrwt>
<rscale>  2 0.12499904E+03</rscale>
<asrwt>0</asrwt>
<pdfrwt beam="1">  1       21 0.15974788E-02 0.12499904E+03</pdfrwt>
<pdfrwt beam="2">  1       21 0.57875075E-01 0.12499904E+03</pdfrwt>
<totfact> 0.48946155E+06</totfact>
</mgrwt>
</event>
<event>
 5    0  0.1585774E+000  0.1249971E+03  0.7546771E-02  0.1235074E+00
         21   -1    0    0  503  502  0.00000000000E+00  0.00000000000E+00  0.90896655966E+02  0.90896655966E+02  0.00000000000E+00 0. -1.
         21   -1    0    0  502  503 -0.00000000000E+00 -0.00000000000E+00 -0.42972604176E+02  0.42972604176E+02  0.00000000000E+00 0. -1.
         25    2    1    2    0    0  0.00000000000E+00  0.00000000000E+00  0.47924051790E+02  0.13386926014E+03  0.12499705625E+03 0.  0.
          4    1    3    3  501    0  0.47071704629E+02  0.39740718646E+02  0.12801546797E+02  0.62939273873E+02  0.15500000000E+01 0. -1.
         -4    1    3    3    0  501 -0.47071704629E+02 -0.39740718646E+02  0.35122504992E+02  0.70929986269E+02  0.15500000000E+01 0. -1.
<mgrwt>
<rscale>  2 0.12499706E+03</rscale>
<asrwt>0</asrwt>
<pdfrwt beam="1">  1       21 0.13984101E-01 0.12499706E+03</pdfrwt>
<pdfrwt beam="2">  1       21 0.66111699E-02 0.12499706E+03</pdfrwt>
<totfact> 0.72852011E+06</totfact>
</mgrwt>
</event>
<event>
 5    0  0.1222151E+000  0.1250022E+03  0.7546771E-02  0.1235066E+00
         21   -1    0    0  503  502  0.00000000000E+00  0.00000000000E+00  0.63646242629E+02  0.63646242629E+02  0.00000000000E+00 0. -1.
         21   -1    0    0  502  503 -0.00000000000E+00 -0.00000000000E+00 -0.61376572354E+02  0.61376572354E+02  0.00000000000E+00 0. -1.
         25    2    1    2    0    0  0.00000000000E+00  0.00000000000E+00  0.22696702744E+01  0.12502281498E+03  0.12500221143E+03 0.  0.
          4    1    3    3  501    0  0.41701000185E+01 -0.22591240123E+02  0.59249763694E+02  0.63566428736E+02  0.15500000000E+01 0.  1.
         -4    1    3    3    0  501 -0.41701000185E+01  0.22591240123E+02 -0.56980093419E+02  0.61456386247E+02  0.15500000000E+01 0.  1.
<mgrwt>
<rscale>  2 0.12500221E+03</rscale>
<asrwt>0</asrwt>
<pdfrwt beam="1">  1       21 0.97917296E-02 0.12500221E+03</pdfrwt>
<pdfrwt beam="2">  1       21 0.94425496E-02 0.12500221E+03</pdfrwt>
<totfact> 0.74036314E+06</totfact>
</mgrwt>
</event>
<event>
 5    0  0.1257961E+000  0.1250002E+03  0.7546771E-02  0.1235069E+00
         21   -1    0    0  503  502  0.00000000000E+00  0.00000000000E+00  0.48108274820E+03  0.48108274820E+03  0.00000000000E+00 0. -1.
         21   -1    0    0  502  503 -0.00000000000E+00 -0.00000000000E+00 -0.81197257647E+01  0.81197257647E+01  0.00000000000E+00 0. -1.
         25    2    1    2    0    0  0.00000000000E+00  0.00000000000E+00  0.47296302243E+03  0.48920247396E+03  0.12500015977E+03 0.  0.
          4    1    3    3  501    0  0.11939248877E+02  0.28332867964E+02  0.23609630272E+02  0.38795801479E+02  0.15500000000E+01 0. -1.
         -4    1    3    3    0  501 -0.11939248877E+02 -0.28332867964E+02  0.44935339216E+03  0.45040667248E+03  0.15500000000E+01 0. -1.
<mgrwt>
<rscale>  2 0.12500016E+03</rscale>
<asrwt>0</asrwt>
<pdfrwt beam="1">  1       21 0.74012708E-01 0.12500016E+03</pdfrwt>
<pdfrwt beam="2">  1       21 0.12491890E-02 0.12500016E+03</pdfrwt>
<totfact> 0.42635602E+06</totfact>
</mgrwt>
</event>
<event>
 5    0  0.1361450E+000  0.1250240E+03  0.7546771E-02  0.1235032E+00
         21   -1    0    0  503  502  0.00000000000E+00  0.00000000000E+00  0.41893656548E+03  0.41893656548E+03  0.00000000000E+00 0.  1.
         21   -1    0    0  502  503 -0.00000000000E+00 -0.00000000000E+00 -0.93277774288E+01  0.93277774288E+01  0.00000000000E+00 0.  1.
         25    2    1    2    0    0  0.00000000000E+00  0.00000000000E+00  0.40960878806E+03  0.42826434291E+03  0.12502395034E+03 0.  0.
          4    1    3    3  501    0 -0.33546443708E+02 -0.43705147205E+02  0.30583165471E+03  0.31075859972E+03  0.15500000000E+01 0. -1.
         -4    1    3    3    0  501  0.33546443708E+02  0.43705147205E+02  0.10377713334E+03  0.11750574319E+03  0.15500000000E+01 0. -1.
<mgrwt>
<rscale>  2 0.12502395E+03</rscale>
<asrwt>0</asrwt>
<pdfrwt beam="1">  1       21 0.64451765E-01 0.12502395E+03</pdfrwt>
<pdfrwt beam="2">  1       21 0.14350430E-02 0.12502395E+03</pdfrwt>
<totfact> 0.46193801E+06</totfact>
</mgrwt>
</event>
<event>
 5    0  0.1274650E+000  0.1250090E+03  0.7546771E-02  0.1235055E+00
         21   -1    0    0  503  502  0.00000000000E+00  0.00000000000E+00  0.67650102379E+01  0.67650102379E+01  0.00000000000E+00 0.  1.
         21   -1    0    0  502  503 -0.00000000000E+00 -0.00000000000E+00 -0.57750288290E+03  0.57750288290E+03  0.00000000000E+00 0.  1.
         25    2    1    2    0    0  0.00000000000E+00  0.00000000000E+00 -0.57073787266E+03  0.58426789314E+03  0.12500900632E+03 0.  0.
          4    1    3    3  501    0 -0.50992773450E+02 -0.27423835637E+02 -0.39518655068E+03  0.39940849020E+03  0.15500000000E+01 0. -1.
         -4    1    3    3    0  501  0.50992773450E+02  0.27423835637E+02 -0.17555132199E+03  0.18485940294E+03  0.15500000000E+01 0. -1.
<mgrwt>
<rscale>  2 0.12500901E+03</rscale>
<asrwt>0</asrwt>
<pdfrwt beam="1">  1       21 0.10407708E-02 0.12500901E+03</pdfrwt>
<pdfrwt beam="2">  1       21 0.88846598E-01 0.12500901E+03</pdfrwt>
<totfact> 0.37805437E+06</totfact>
</mgrwt>
</event>
<event>
 5    0  0.1469093E+000  0.1250021E+03  0.7546771E-02  0.1235066E+00
         21   -1    0    0  503  502  0.00000000000E+00  0.00000000000E+00  0.61214597727E+02  0.61214597727E+02  0.00000000000E+00 0.  1.
         21   -1    0    0  502  503 -0.00000000000E+00 -0.00000000000E+00 -0.63814584350E+02  0.63814584350E+02  0.00000000000E+00 0.  1.
         25    2    1    2    0    0  0.00000000000E+00  0.00000000000E+00 -0.25999866227E+01  0.12502918208E+03  0.12500214574E+03 0.  0.
          4    1    3    3  501    0 -0.29893731574E+02 -0.41158175854E+02  0.34989405467E+02  0.61759951603E+02  0.15500000000E+01 0.  1.
         -4    1    3    3    0  501  0.29893731574E+02  0.41158175854E+02 -0.37589392090E+02  0.63269230474E+02  0.15500000000E+01 0.  1.
<mgrwt>
<rscale>  2 0.12500215E+03</rscale>
<asrwt>0</asrwt>
<pdfrwt beam="1">  1       21 0.94176304E-02 0.12500215E+03</pdfrwt>
<pdfrwt beam="2">  1       21 0.98176284E-02 0.12500215E+03</pdfrwt>
<totfact> 0.74035578E+06</totfact>
</mgrwt>
</event>
<event>
 5    0  0.1222151E+000  0.1250010E+03  0.7546771E-02  0.1235068E+00
         21   -1    0    0  503  502  0.00000000000E+00  0.00000000000E+00  0.38618403165E+01  0.38618403165E+01  0.00000000000E+00 0. -1.
         21   -1    0    0  502  503 -0.00000000000E+00 -0.00000000000E+00 -0.10115157877E+04  0.10115157877E+04  0.00000000000E+00 0. -1.
         25    2    1    2    0    0  0.00000000000E+00  0.00000000000E+00 -0.10076539473E+04  0.10153776280E+04  0.12500099919E+03 0.  0.
          4    1    3    3  501    0  0.18729612234E+02  0.59171605427E+02 -0.44534581560E+03  0.44965250498E+03  0.15500000000E+01 0. -1.
         -4    1    3    3    0  501 -0.18729612234E+02 -0.59171605427E+02 -0.56230813174E+03  0.56572512299E+03  0.15500000000E+01 0. -1.
<mgrwt>
<rscale>  2 0.12500100E+03</rscale>
<asrwt>0</asrwt>
<pdfrwt beam="1">  1       21 0.59412881E-03 0.12500100E+03</pdfrwt>
<pdfrwt beam="2">  1       21 0.15561794E+00 0.12500100E+03</pdfrwt>
<totfact> 0.23236949E+06</totfact>
</mgrwt>
</event>
<event>
 5    0  0.1433565E+000  0.1249956E+03  0.7546771E-02  0.1235076E+00
         21   -1    0    0  503  502  0.00000000000E+00  0.00000000000E+00  0.17470126840E+02  0.17470126840E+02  0.00000000000E+00 0.  1.
         21   -1    0    0  502  503 -0.00000000000E+00 -0.00000000000E+00 -0.22358039626E+03  0.22358039626E+03  0.00000000000E+00 0.  1.
         25    2    1    2    0    0  0.00000000000E+00  0.00000000000E+00 -0.20611026941E+03  0.24105052310E+03  0.12499564603E+03 0.  0.
          4    1    3    3  501    0 -0.34266408350E+02 -0.17551900614E+02 -0.19794924010E+03  0.20166447410E+03  0.15500000000E+01 0.  1.
         -4    1    3    3    0  501  0.34266408350E+02  0.17551900614E+02 -0.81610293158E+01  0.39386049000E+02  0.15500000000E+01 0.  1.
<mgrwt>
<rscale>  2 0.12499565E+03</rscale>
<asrwt>0</asrwt>
<pdfrwt beam="1">  1       21 0.26877118E-02 0.12499565E+03</pdfrwt>
<pdfrwt beam="2">  1       21 0.34396984E-01 0.12499565E+03</pdfrwt>
<totfact> 0.60737824E+06</totfact>
</mgrwt>
</event>
<event>
 5    0  0.1414101E+000  0.1249908E+03  0.7546771E-02  0.1235084E+00
         21   -1    0    0  503  502  0.00000000000E+00  0.00000000000E+00  0.69255207908E+02  0.69255207908E+02  0.00000000000E+00 0. -1.
         21   -1    0    0  502  503 -0.00000000000E+00 -0.00000000000E+00 -0.56395395152E+02  0.56395395152E+02  0.00000000000E+00 0. -1.
         25    2    1    2    0    0  0.00000000000E+00  0.00000000000E+00  0.12859812756E+02  0.12565060306E+03  0.12499079672E+03 0.  0.
          4    1    3    3  501    0  0.24831015373E+02 -0.19053589657E+02 -0.47926346074E+02  0.57262166840E+02  0.15500000000E+01 0. -1.
         -4    1    3    3    0  501 -0.24831015373E+02  0.19053589657E+02  0.60786158830E+02  0.68388436220E+02  0.15500000000E+01 0. -1.
<mgrwt>
<rscale>  2 0.12499080E+03</rscale>
<asrwt>0</asrwt>
<pdfrwt beam="1">  1       21 0.10654647E-01 0.12499080E+03</pdfrwt>
<pdfrwt beam="2">  1       21 0.86762147E-02 0.12499080E+03</pdfrwt>
<totfact> 0.73971759E+06</totfact>
</mgrwt>
</event>
<event>
 5    0  0.1273306E+000  0.1249939E+03  0.7546771E-02  0.1235079E+00
         21   -1    0    0  503  502  0.00000000000E+00  0.00000000000E+00  0.29899257270E+03  0.29899257270E+03  0.00000000000E+00 0.  1.
         21   -1    0    0  502  503 -0.00000000000E+00 -0.00000000000E+00 -0.13063441051E+02  0.13063441051E+02  0.00000000000E+00 0.  1.
         25    2    1    2    0    0  0.00000000000E+00  0.00000000000E+00  0.28592913165E+03  0.31205601375E+03  0.12499394943E+03 0.  0.
          4    1    3    3  501    0 -0.39226506724E+02 -0.45847777612E+01  0.22100448133E+02  0.45283234475E+02  0.15500000000E+01 0.  1.
         -4    1    3    3    0  501  0.39226506724E+02  0.45847777612E+01  0.26382868352E+03  0.26677277928E+03  0.15500000000E+01 0.  1.
<mgrwt>
<rscale>  2 0.12499395E+03</rscale>
<asrwt>0</asrwt>
<pdfrwt beam="1">  1       21 0.45998852E-01 0.12499395E+03</pdfrwt>
<pdfrwt beam="2">  1       21 0.20097604E-02 0.12499395E+03</pdfrwt>
<totfact> 0.54477197E+06</totfact>
</mgrwt>
</event>
<event>
 5    0  0.1222151E+000  0.1249961E+03  0.7546771E-02  0.1235075E+00
         21   -1    0    0  503  502  0.00000000000E+00  0.00000000000E+00  0.37526699769E+02  0.37526699769E+02  0.00000000000E+00 0. -1.
         21   -1    0    0  502  503 -0.00000000000E+00 -0.00000000000E+00 -0.10408602546E+03  0.10408602546E+03  0.00000000000E+00 0. -1.
         25    2    1    2    0    0  0.00000000000E+00  0.00000000000E+00 -0.66559325696E+02  0.14161272523E+03  0.12499608038E+03 0.  0.
          4    1    3    3  501    0 -0.21726304878E+02 -0.27075545316E+01 -0.99575757046E+02  0.10196615648E+03  0.15500000000E+01 0.  1.
         -4    1    3    3    0  501  0.21726304878E+02  0.27075545316E+01  0.33016431350E+02  0.39646568758E+02  0.15500000000E+01 0.  1.
<mgrwt>
<rscale>  2 0.12499608E+03</rscale>
<asrwt>0</asrwt>
<pdfrwt beam="1">  1       21 0.57733386E-02 0.12499608E+03</pdfrwt>
<pdfrwt beam="2">  1       21 0.16013234E-01 0.12499608E+03</pdfrwt>
<totfact> 0.71836636E+06</totfact>
</mgrwt>
</event>
<event>
 5    0  0.1222151E+000  0.1250008E+03  0.7546771E-02  0.1235068E+00
         21   -1    0    0  503  502  0.00000000000E+00  0.00000000000E+00  0.49275701852E+01  0.49275701852E+01  0.00000000000E+00 0.  1.
         21   -1    0    0  502  503 -0.00000000000E+00 -0.00000000000E+00 -0.79274339722E+03  0.79274339722E+03  0.00000000000E+00 0.  1.
         25    2    1    2    0    0  0.00000000000E+00  0.00000000000E+00 -0.78781582704E+03  0.79767096741E+03  0.12500077966E+03 0.  0.
          4    1    3    3  501    0 -0.27028622144E+02  0.21375621523E+02 -0.72649894345E+03  0.72731738666E+03  0.15500000000E+01 0. -1.
         -4    1    3    3    0  501  0.27028622144E+02 -0.21375621523E+02 -0.61316883587E+02  0.70353580743E+02  0.15500000000E+01 0. -1.
<mgrwt>
<rscale>  2 0.12500078E+03</rscale>
<asrwt>0</asrwt>
<pdfrwt beam="1">  1       21 0.75808825E-03 0.12500078E+03</pdfrwt>
<pdfrwt beam="2">  1       21 0.12196044E+00 0.12500078E+03</pdfrwt>
<totfact> 0.29439578E+06</totfact>
</mgrwt>
</event>
<event>
 5    0  0.1430589E+000  0.1250098E+03  0.7546771E-02  0.1235054E+00
         21   -1    0    0  503  502  0.00000000000E+00  0.00000000000E+00  0.26351119197E+03  0.26351119197E+03  0.00000000000E+00 0.  1.
         21   -1    0    0  502  503 -0.00000000000E+00 -0.00000000000E+00 -0.14826175040E+02  0.14826175040E+02  0.00000000000E+00 0.  1.
         25    2    1    2    0    0  0.00000000000E+00  0.00000000000E+00  0.24868501693E+03  0.27833736701E+03  0.12500980853E+03 0.  0.
          4    1    3    3  501    0  0.38553772845E+02 -0.44890804373E+02  0.79651844271E+02  0.99239087630E+02  0.15500000000E+01 0.  1.
         -4    1    3    3    0  501 -0.38553772845E+02  0.44890804373E+02  0.16903317266E+03  0.17909827938E+03  0.15500000000E+01 0.  1.
<mgrwt>
<rscale>  2 0.12500981E+03</rscale>
<asrwt>0</asrwt>
<pdfrwt beam="1">  1       21 0.40540180E-01 0.12500981E+03</pdfrwt>
<pdfrwt beam="2">  1       21 0.22809502E-02 0.12500981E+03</pdfrwt>
<totfact> 0.57291744E+06</totfact>
</mgrwt>
</event>
<event>
 5    0  0.1222151E+000  0.1250012E+03  0.7546771E-02  0.1235067E+00
         21   -1    0    0  503  502  0.00000000000E+00  0.00000000000E+00  0.39283914450E+01  0.39283914450E+01  0.00000000000E+00 0. -1.
         21   -1    0    0  502  503 -0.00000000000E+00 -0.00000000000E+00 -0.99438319835E+03  0.99438319835E+03  0.00000000000E+00 0. -1.
         25    2    1    2    0    0  0.00000000000E+00  0.00000000000E+00 -0.99045480691E+03  0.99831158980E+03  0.12500122319E+03 0.  0.
          4    1    3    3  501    0 -0.53627298465E+02 -0.31237489648E+02 -0.55295987319E+03  0.55643390601E+03  0.15500000000E+01 0. -1.
         -4    1    3    3    0  501  0.53627298465E+02  0.31237489648E+02 -0.43749493372E+03  0.44187768379E+03  0.15500000000E+01 0. -1.
<mgrwt>
<rscale>  2 0.12500122E+03</rscale>
<asrwt>0</asrwt>
<pdfrwt beam="1">  1       21 0.60436767E-03 0.12500122E+03</pdfrwt>
<pdfrwt beam="2">  1       21 0.15298209E+00 0.12500122E+03</pdfrwt>
<totfact> 0.23660184E+06</totfact>
</mgrwt>
</event>
<event>
 5    0  0.1245342E+000  0.1250007E+03  0.7546771E-02  0.1235068E+00
         21   -1    0    0  503  502  0.00000000000E+00  0.00000000000E+00  0.58236534808E+03  0.58236534808E+03  0.00000000000E+00 0. -1.
         21   -1    0    0  502  503 -0.00000000000E+00 -0.00000000000E+00 -0.67076371362E+01  0.67076371362E+01  0.00000000000E+00 0. -1.
         25    2    1    2    0    0  0.00000000000E+00  0.00000000000E+00  0.57565771094E+03  0.58907298521E+03  0.12500072697E+03 0.  0.
          4    1    3    3  501    0  0.30288067022E+02  0.19978367937E+02  0.52753964264E+03  0.52878821777E+03  0.15500000000E+01 0. -1.
         -4    1    3    3    0  501 -0.30288067022E+02 -0.19978367937E+02  0.48118068299E+02  0.60284767447E+02  0.15500000000E+01 0. -1.
<mgrwt>
<rscale>  2 0.12500073E+03</rscale>
<asrwt>0</asrwt>
<pdfrwt beam="1">  1       21 0.89594629E-01 0.12500073E+03</pdfrwt>
<pdfrwt beam="2">  1       21 0.10319446E-02 0.12500073E+03</pdfrwt>
<totfact> 0.37590832E+06</totfact>
</mgrwt>
</event>
<event>
 5    0  0.1509391E+000  0.1250024E+03  0.7546771E-02  0.1235066E+00
         21   -1    0    0  503  502  0.00000000000E+00  0.00000000000E+00  0.20186670699E+02  0.20186670699E+02  0.00000000000E+00 0. -1.
         21   -1    0    0  502  503 -0.00000000000E+00 -0.00000000000E+00 -0.19351382573E+03  0.19351382573E+03  0.00000000000E+00 0. -1.
         25    2    1    2    0    0  0.00000000000E+00  0.00000000000E+00 -0.17332715503E+03  0.21370049643E+03  0.12500239799E+03 0.  0.
          4    1    3    3  501    0  0.45117677296E+02  0.41358748483E+02 -0.10814211262E+03  0.12427095358E+03  0.15500000000E+01 0. -1.
         -4    1    3    3    0  501 -0.45117677296E+02 -0.41358748483E+02 -0.65185042411E+02  0.89429542852E+02  0.15500000000E+01 0. -1.
<mgrwt>
<rscale>  2 0.12500240E+03</rscale>
<asrwt>0</asrwt>
<pdfrwt beam="1">  1       21 0.31056416E-02 0.12500240E+03</pdfrwt>
<pdfrwt beam="2">  1       21 0.29771358E-01 0.12500240E+03</pdfrwt>
<totfact> 0.63468443E+06</totfact>
</mgrwt>
</event>
<event>
 5    0  0.1454049E+000  0.1250056E+03  0.7546771E-02  0.1235060E+00
         21   -1    0    0  503  502  0.00000000000E+00  0.00000000000E+00  0.36067440374E+02  0.36067440374E+02  0.00000000000E+00 0. -1.
         21   -1    0    0  502  503 -0.00000000000E+00 -0.00000000000E+00 -0.10831382735E+03  0.10831382735E+03  0.00000000000E+00 0. -1.
         25    2    1    2    0    0  0.00000000000E+00  0.00000000000E+00 -0.72246386973E+02  0.14438126772E+03  0.12500564002E+03 0.  0.
          4    1    3    3  501    0 -0.21644827581E+02  0.28901341839E+02 -0.95021455701E+02  0.10166250865E+03  0.15500000000E+01 0. -1.
         -4    1    3    3    0  501  0.21644827581E+02 -0.28901341839E+02  0.22775068728E+02  0.42718759072E+02  0.15500000000E+01 0. -1.
<mgrwt>
<rscale>  2 0.12500564E+03</rscale>
<asrwt>0</asrwt>
<pdfrwt beam="1">  1       21 0.55488370E-02 0.12500564E+03</pdfrwt>
<pdfrwt beam="2">  1       21 0.16663666E-01 0.12500564E+03</pdfrwt>
<totfact> 0.71462110E+06</totfact>
</mgrwt>
</event>
<event>
 5    0  0.1577258E+000  0.1249973E+03  0.7546771E-02  0.1235074E+00
         21   -1    0    0  503  502  0.00000000000E+00  0.00000000000E+00  0.45096655695E+02  0.45096655695E+02  0.00000000000E+00 0. -1.
         21   -1    0    0  502  503 -0.00000000000E+00 -0.00000000000E+00 -0.86615707540E+02  0.86615707540E+02  0.00000000000E+00 0. -1.
         25    2    1    2    0    0  0.00000000000E+00  0.00000000000E+00 -0.41519051845E+02  0.13171236324E+03  0.12499725982E+03 0.  0.
          4    1    3    3  501    0  0.24504893827E+02  0.45351055330E+02  0.16442505147E+02  0.54129165119E+02  0.15500000000E+01 0. -1.
         -4    1    3    3    0  501 -0.24504893827E+02 -0.45351055330E+02 -0.57961556992E+02  0.77583198116E+02  0.15500000000E+01 0. -1.
<mgrwt>
<rscale>  2 0.12499726E+03</rscale>
<asrwt>0</asrwt>
<pdfrwt beam="1">  1       21 0.69379470E-02 0.12499726E+03</pdfrwt>
<pdfrwt beam="2">  1       21 0.13325494E-01 0.12499726E+03</pdfrwt>
<totfact> 0.73139948E+06</totfact>
</mgrwt>
</event>
<event>
 5    0  0.1495933E+000  0.1250067E+03  0.7546771E-02  0.1235059E+00
         21   -1    0    0  503  502  0.00000000000E+00  0.00000000000E+00  0.26367162862E+02  0.26367162862E+02  0.00000000000E+00 0.  1.
         21   -1    0    0  502  503 -0.00000000000E+00 -0.00000000000E+00 -0.14816421698E+03  0.14816421698E+03  0.00000000000E+00 0.  1.
         25    2    1    2    0    0  0.00000000000E+00  0.00000000000E+00 -0.12179705412E+03  0.17453137984E+03  0.12500672045E+03 0.  0.
          4    1    3    3  501    0  0.41129348893E+02 -0.26672474509E+02 -0.68028190600E+01  0.49514897596E+02  0.15500000000E+01 0. -1.
         -4    1    3    3    0  501 -0.41129348893E+02  0.26672474509E+02 -0.11499423506E+03  0.12501648224E+03  0.15500000000E+01 0. -1.
<mgrwt>
<rscale>  2 0.12500672E+03</rscale>
<asrwt>0</asrwt>
<pdfrwt beam="1">  1       21 0.40564866E-02 0.12500672E+03</pdfrwt>
<pdfrwt beam="2">  1       21 0.22794495E-01 0.12500672E+03</pdfrwt>
<totfact> 0.67772926E+06</totfact>
</mgrwt>
</event>
<event>
 5    0  0.1583465E+000  0.1250094E+03  0.7546771E-02  0.1235055E+00
         21   -1    0    0  503  502  0.00000000000E+00  0.00000000000E+00  0.75359272037E+02  0.75359272037E+02  0.00000000000E+00 0.  1.
         21   -1    0    0  502  503 -0.00000000000E+00 -0.00000000000E+00 -0.51842796421E+02  0.51842796421E+02  0.00000000000E+00 0.  1.
         25    2    1    2    0    0  0.00000000000E+00  0.00000000000E+00  0.23516475617E+02  0.12720206846E+03  0.12500936603E+03 0.  0.
          4    1    3    3  501    0  0.59640604871E+02 -0.16953525030E+02  0.19640671319E+02  0.65058298704E+02  0.15500000000E+01 0.  1.
         -4    1    3    3    0  501 -0.59640604871E+02  0.16953525030E+02  0.38758042975E+01  0.62143769754E+02  0.15500000000E+01 0.  1.
<mgrwt>
<rscale>  2 0.12500937E+03</rscale>
<asrwt>0</asrwt>
<pdfrwt beam="1">  1       21 0.11593734E-01 0.12500937E+03</pdfrwt>
<pdfrwt beam="2">  1       21 0.79758148E-02 0.12500937E+03</pdfrwt>
<totfact> 0.73724026E+06</totfact>
</mgrwt>
</event>
<event>
 5    0  0.1222151E+000  0.1249934E+03  0.7546771E-02  0.1235080E+00
         21   -1    0    0  503  502  0.00000000000E+00  0.00000000000E+00  0.10509037033E+04  0.10509037033E+04  0.00000000000E+00 0.  1.
         21   -1    0    0  502  503 -0.00000000000E+00 -0.00000000000E+00 -0.37166478248E+01  0.37166478248E+01  0.00000000000E+00 0.  1.
         25    2    1    2    0    0  0.00000000000E+00  0.00000000000E+00  0.10471870555E+04  0.10546203511E+04  0.12499342323E+03 0.  0.
          4    1    3    3  501    0  0.45279810179E+02 -0.91306509262E+01  0.87854736390E+03  0.87976218554E+03  0.15500000000E+01 0.  1.
         -4    1    3    3    0  501 -0.45279810179E+02  0.91306509262E+01  0.16863969159E+03  0.17485816560E+03  0.15500000000E+01 0.  1.
<mgrwt>
<rscale>  2 0.12499342E+03</rscale>
<asrwt>0</asrwt>
<pdfrwt beam="1">  1       21 0.16167726E+00 0.12499342E+03</pdfrwt>
<pdfrwt beam="2">  1       21 0.57179281E-03 0.12499342E+03</pdfrwt>
<totfact> 0.22293556E+06</totfact>
</mgrwt>
</event>
<event>
 5    0  0.1543157E+000  0.1249961E+03  0.7546771E-02  0.1235075E+00
         21   -1    0    0  503  502  0.00000000000E+00  0.00000000000E+00  0.30015966149E+02  0.30015966149E+02  0.00000000000E+00 0.  1.
         21   -1    0    0  502  503 -0.00000000000E+00 -0.00000000000E+00 -0.13013101364E+03  0.13013101364E+03  0.00000000000E+00 0.  1.
         25    2    1    2    0    0  0.00000000000E+00  0.00000000000E+00 -0.10011504749E+03  0.16014697979E+03  0.12499612955E+03 0.  0.
          4    1    3    3  501    0  0.50456286463E+02  0.32929385264E+02 -0.71243124112E+02  0.93317557248E+02  0.15500000000E+01 0. -1.
         -4    1    3    3    0  501 -0.50456286463E+02 -0.32929385264E+02 -0.28871923377E+02  0.66829422540E+02  0.15500000000E+01 0. -1.
<mgrwt>
<rscale>  2 0.12499613E+03</rscale>
<asrwt>0</asrwt>
<pdfrwt beam="1">  1       21 0.46178410E-02 0.12499613E+03</pdfrwt>
<pdfrwt beam="2">  1       21 0.20020156E-01 0.12499613E+03</pdfrwt>
<totfact> 0.69508380E+06</totfact>
</mgrwt>
</event>
<event>
 5    0  0.1409657E+000  0.1249987E+03  0.7546771E-02  0.1235071E+00
         21   -1    0    0  503  502  0.00000000000E+00  0.00000000000E+00  0.27698988235E+03  0.27698988235E+03  0.00000000000E+00 0.  1.
         21   -1    0    0  502  503 -0.00000000000E+00 -0.00000000000E+00 -0.14102198299E+02  0.14102198299E+02  0.00000000000E+00 0.  1.
         25    2    1    2    0    0  0.00000000000E+00  0.00000000000E+00  0.26288768405E+03  0.29109208065E+03  0.12499865996E+03 0.  0.
          4    1    3    3  501    0 -0.50694036025E+02  0.98901711005E+01  0.21331771446E+03  0.21948701688E+03  0.15500000000E+01 0.  1.
         -4    1    3    3    0  501  0.50694036025E+02 -0.98901711005E+01  0.49569969582E+02  0.71605063768E+02  0.15500000000E+01 0.  1.
<mgrwt>
<rscale>  2 0.12499866E+03</rscale>
<asrwt>0</asrwt>
<pdfrwt beam="1">  1       21 0.42613824E-01 0.12499866E+03</pdfrwt>
<pdfrwt beam="2">  1       21 0.21695692E-02 0.12499866E+03</pdfrwt>
<totfact> 0.56206573E+06</totfact>
</mgrwt>
</event>
<event>
 5    0  0.1425694E+000  0.1250068E+03  0.7546771E-02  0.1235059E+00
         21   -1    0    0  503  502  0.00000000000E+00  0.00000000000E+00  0.10625573588E+02  0.10625573588E+02  0.00000000000E+00 0.  1.
         21   -1    0    0  502  503 -0.00000000000E+00 -0.00000000000E+00 -0.36766722085E+03  0.36766722085E+03  0.00000000000E+00 0.  1.
         25    2    1    2    0    0  0.00000000000E+00  0.00000000000E+00 -0.35704164726E+03  0.37829279444E+03  0.12500680159E+03 0.  0.
          4    1    3    3  501    0  0.35024432579E+02  0.50930496039E+02 -0.20619774697E+03  0.21526852919E+03  0.15500000000E+01 0. -1.
         -4    1    3    3    0  501 -0.35024432579E+02 -0.50930496039E+02 -0.15084390029E+03  0.16302426525E+03  0.15500000000E+01 0. -1.
<mgrwt>
<rscale>  2 0.12500680E+03</rscale>
<asrwt>0</asrwt>
<pdfrwt beam="1">  1       21 0.16347037E-02 0.12500680E+03</pdfrwt>
<pdfrwt beam="2">  1       21 0.56564187E-01 0.12500680E+03</pdfrwt>
<totfact> 0.49506008E+06</totfact>
</mgrwt>
</event>
<event>
 5    0  0.1607969E+000  0.1249992E+03  0.7546771E-02  0.1235071E+00
         21   -1    0    0  503  502  0.00000000000E+00  0.00000000000E+00  0.41939480450E+02  0.41939480450E+02  0.00000000000E+00 0. -1.
         21   -1    0    0  502  503 -0.00000000000E+00 -0.00000000000E+00 -0.93138940122E+02  0.93138940122E+02  0.00000000000E+00 0. -1.
         25    2    1    2    0    0  0.00000000000E+00  0.00000000000E+00 -0.51199459672E+02  0.13507842057E+03  0.12499918013E+03 0.  0.
          4    1    3    3  501    0  0.52014349414E+01 -0.61443497105E+02 -0.36483494453E+02  0.71664538856E+02  0.15500000000E+01 0.  1.
         -4    1    3    3    0  501 -0.52014349414E+01  0.61443497105E+02 -0.14715965219E+02  0.63413881716E+02  0.15500000000E+01 0.  1.
<mgrwt>
<rscale>  2 0.12499918E+03</rscale>
<asrwt>0</asrwt>
<pdfrwt beam="1">  1       21 0.64522278E-02 0.12499918E+03</pdfrwt>
<pdfrwt beam="2">  1       21 0.14329068E-01 0.12499918E+03</pdfrwt>
<totfact> 0.72687610E+06</totfact>
</mgrwt>
</event>
<event>
 5    0  0.1538755E+000  0.1250008E+03  0.7546771E-02  0.1235068E+00
         21   -1    0    0  503  502  0.00000000000E+00  0.00000000000E+00  0.77237556603E+02  0.77237556603E+02  0.00000000000E+00 0.  1.
         21   -1    0    0  502  503 -0.00000000000E+00 -0.00000000000E+00 -0.50575138788E+02  0.50575138788E+02  0.00000000000E+00 0.  1.
         25    2    1    2    0    0  0.00000000000E+00  0.00000000000E+00  0.26662417815E+02  0.12781269539E+03  0.12500080232E+03 0.  0.
          4    1    3    3  501    0  0.28270979514E+02 -0.54168679625E+02 -0.16307426299E-01  0.61121983778E+02  0.15500000000E+01 0.  1.
         -4    1    3    3    0  501 -0.28270979514E+02  0.54168679625E+02  0.26678725241E+02  0.66690711613E+02  0.15500000000E+01 0.  1.
<mgrwt>
<rscale>  2 0.12500080E+03</rscale>
<asrwt>0</asrwt>
<pdfrwt beam="1">  1       21 0.11882701E-01 0.12500080E+03</pdfrwt>
<pdfrwt beam="2">  1       21 0.77807906E-02 0.12500080E+03</pdfrwt>
<totfact> 0.73657368E+06</totfact>
</mgrwt>
</event>
<event>
 5    0  0.1580884E+000  0.1250417E+03  0.7546771E-02  0.1235004E+00
         21   -1    0    0  503  502  0.00000000000E+00  0.00000000000E+00  0.28045588815E+02  0.28045588815E+02  0.00000000000E+00 0.  1.
         21   -1    0    0  502  503 -0.00000000000E+00 -0.00000000000E+00 -0.13937509018E+03  0.13937509018E+03  0.00000000000E+00 0.  1.
         25    2    1    2    0    0  0.00000000000E+00  0.00000000000E+00 -0.11132950137E+03  0.16742067900E+03  0.12504169657E+03 0.  0.
          4    1    3    3  501    0  0.35735913532E+02  0.50786584588E+02 -0.65143811708E+02  0.90013617825E+02  0.15500000000E+01 0.  1.
         -4    1    3    3    0  501 -0.35735913532E+02 -0.50786584588E+02 -0.46185689661E+02  0.77407061174E+02  0.15500000000E+01 0.  1.
<mgrwt>
<rscale>  2 0.12504170E+03</rscale>
<asrwt>0</asrwt>
<pdfrwt beam="1">  1       21 0.43147059E-02 0.12504170E+03</pdfrwt>
<pdfrwt beam="2">  1       21 0.21442322E-01 0.12504170E+03</pdfrwt>
<totfact> 0.68551300E+06</totfact>
</mgrwt>
</event>
<event>
 5    0  0.1222151E+000  0.1250084E+03  0.7546771E-02  0.1235056E+00
         21   -1    0    0  503  502  0.00000000000E+00  0.00000000000E+00  0.36879904599E+01  0.36879904599E+01  0.00000000000E+00 0. -1.
         21   -1    0    0  502  503 -0.00000000000E+00 -0.00000000000E+00 -0.10593228895E+04  0.10593228895E+04  0.00000000000E+00 0. -1.
         25    2    1    2    0    0  0.00000000000E+00  0.00000000000E+00 -0.10556348991E+04  0.10630108800E+04  0.12500836309E+03 0.  0.
          4    1    3    3  501    0  0.18845386147E+02  0.45742348304E+02 -0.20324815459E+03  0.20918825458E+03  0.15500000000E+01 0. -1.
         -4    1    3    3    0  501 -0.18845386147E+02 -0.45742348304E+02 -0.85238674449E+03  0.85382262543E+03  0.15500000000E+01 0. -1.
<mgrwt>
<rscale>  2 0.12500836E+03</rscale>
<asrwt>0</asrwt>
<pdfrwt beam="1">  1       21 0.56738329E-03 0.12500836E+03</pdfrwt>
<pdfrwt beam="2">  1       21 0.16297271E+00 0.12500836E+03</pdfrwt>
<totfact> 0.22088788E+06</totfact>
</mgrwt>
</event>
<event>
 5    0  0.1222151E+000  0.1250004E+03  0.7546771E-02  0.1235069E+00
         21   -1    0    0  503  502  0.00000000000E+00  0.00000000000E+00  0.54022295018E+01  0.54022295018E+01  0.00000000000E+00 0.  1.
         21   -1    0    0  502  503 -0.00000000000E+00 -0.00000000000E+00 -0.72308552336E+03  0.72308552336E+03  0.00000000000E+00 0.  1.
         25    2    1    2    0    0  0.00000000000E+00  0.00000000000E+00 -0.71768329386E+03  0.72848775286E+03  0.12500038314E+03 0.  0.
          4    1    3    3  501    0 -0.47350766300E+02 -0.18592420457E+02 -0.14741726419E+03  0.15595520334E+03  0.15500000000E+01 0. -1.
         -4    1    3    3    0  501  0.47350766300E+02  0.18592420457E+02 -0.57026602967E+03  0.57253254952E+03  0.15500000000E+01 0. -1.
<mgrwt>
<rscale>  2 0.12500038E+03</rscale>
<asrwt>0</asrwt>
<pdfrwt beam="1">  1       21 0.83111277E-03 0.12500038E+03</pdfrwt>
<pdfrwt beam="2">  1       21 0.11124385E+00 0.12500038E+03</pdfrwt>
<totfact> 0.31840058E+06</totfact>
</mgrwt>
</event>
<event>
 5    0  0.1347229E+000  0.1249926E+03  0.7546771E-02  0.1235081E+00
         21   -1    0    0  503  502  0.00000000000E+00  0.00000000000E+00  0.11593766690E+02  0.11593766690E+02  0.00000000000E+00 0. -1.
         21   -1    0    0  502  503 -0.00000000000E+00 -0.00000000000E+00 -0.33688685107E+03  0.33688685107E+03  0.00000000000E+00 0. -1.
         25    2    1    2    0    0  0.00000000000E+00  0.00000000000E+00 -0.32529308438E+03  0.34848061775E+03  0.12499260062E+03 0.  0.
          4    1    3    3  501    0  0.58465904780E+02  0.14482170149E+02 -0.20891321104E+03  0.21742844230E+03  0.15500000000E+01 0. -1.
         -4    1    3    3    0  501 -0.58465904780E+02 -0.14482170149E+02 -0.11637987334E+03  0.13105217546E+03  0.15500000000E+01 0. -1.
<mgrwt>
<rscale>  2 0.12499260E+03</rscale>
<asrwt>0</asrwt>
<pdfrwt beam="1">  1       21 0.17836566E-02 0.12499260E+03</pdfrwt>
<pdfrwt beam="2">  1       21 0.51828740E-01 0.12499260E+03</pdfrwt>
<totfact> 0.51660417E+06</totfact>
</mgrwt>
</event>
<event>
 5    0  0.1515012E+000  0.1249990E+03  0.7546771E-02  0.1235071E+00
         21   -1    0    0  503  502  0.00000000000E+00  0.00000000000E+00  0.13085293291E+03  0.13085293291E+03  0.00000000000E+00 0. -1.
         21   -1    0    0  502  503 -0.00000000000E+00 -0.00000000000E+00 -0.29851759415E+02  0.29851759415E+02  0.00000000000E+00 0. -1.
         25    2    1    2    0    0  0.00000000000E+00  0.00000000000E+00  0.10100117349E+03  0.16070469232E+03  0.12499904435E+03 0.  0.
          4    1    3    3  501    0 -0.17906513984E+02  0.59837877219E+02  0.52562830374E+02  0.81648444137E+02  0.15500000000E+01 0. -1.
         -4    1    3    3    0  501  0.17906513984E+02 -0.59837877219E+02  0.48438343120E+02  0.79056248187E+02  0.15500000000E+01 0. -1.
<mgrwt>
<rscale>  2 0.12499904E+03</rscale>
<asrwt>0</asrwt>
<pdfrwt beam="1">  1       21 0.20131220E-01 0.12499904E+03</pdfrwt>
<pdfrwt beam="2">  1       21 0.45925784E-02 0.12499904E+03</pdfrwt>
<totfact> 0.69435179E+06</totfact>
</mgrwt>
</event>
<event>
 5    0  0.1430640E+000  0.1250022E+03  0.7546771E-02  0.1235066E+00
         21   -1    0    0  503  502  0.00000000000E+00  0.00000000000E+00  0.34778438718E+03  0.34778438718E+03  0.00000000000E+00 0.  1.
         21   -1    0    0  502  503 -0.00000000000E+00 -0.00000000000E+00 -0.11232210882E+02  0.11232210882E+02  0.00000000000E+00 0.  1.
         25    2    1    2    0    0  0.00000000000E+00  0.00000000000E+00  0.33655217629E+03  0.35901659806E+03  0.12500220123E+03 0.  0.
          4    1    3    3  501    0  0.16209468656E+02 -0.60263552401E+02  0.15940397744E+03  0.17119133491E+03  0.15500000000E+01 0.  1.
         -4    1    3    3    0  501 -0.16209468656E+02  0.60263552401E+02  0.17714819885E+03  0.18782526315E+03  0.15500000000E+01 0.  1.
<mgrwt>
<rscale>  2 0.12500220E+03</rscale>
<asrwt>0</asrwt>
<pdfrwt beam="1">  1       21 0.53505282E-01 0.12500220E+03</pdfrwt>
<pdfrwt beam="2">  1       21 0.17280327E-02 0.12500220E+03</pdfrwt>
<totfact> 0.50876547E+06</totfact>
</mgrwt>
</event>
<event>
 5    0  0.1293502E+000  0.1250069E+03  0.7546771E-02  0.1235059E+00
         21   -1    0    0  503  502  0.00000000000E+00  0.00000000000E+00  0.56236601211E+03  0.56236601211E+03  0.00000000000E+00 0.  1.
         21   -1    0    0  502  503 -0.00000000000E+00 -0.00000000000E+00 -0.69468654625E+01  0.69468654625E+01  0.00000000000E+00 0.  1.
         25    2    1    2    0    0  0.00000000000E+00  0.00000000000E+00  0.55541914665E+03  0.56931287757E+03  0.12500689624E+03 0.  0.
          4    1    3    3  501    0  0.53639721050E+02 -0.19101755134E+02  0.16051549815E+03  0.17032241299E+03  0.15500000000E+01 0. -1.
         -4    1    3    3    0  501 -0.53639721050E+02  0.19101755134E+02  0.39490364850E+03  0.39899046458E+03  0.15500000000E+01 0. -1.
<mgrwt>
<rscale>  2 0.12500690E+03</rscale>
<asrwt>0</asrwt>
<pdfrwt beam="1">  1       21 0.86517812E-01 0.12500690E+03</pdfrwt>
<pdfrwt beam="2">  1       21 0.10687490E-02 0.12500690E+03</pdfrwt>
<totfact> 0.38511649E+06</totfact>
</mgrwt>
</event>
<event>
 5    0  0.1549258E+000  0.1249998E+03  0.7546771E-02  0.1235070E+00
         21   -1    0    0  503  502  0.00000000000E+00  0.00000000000E+00  0.17590221767E+03  0.17590221767E+03  0.00000000000E+00 0.  1.
         21   -1    0    0  502  503 -0.00000000000E+00 -0.00000000000E+00 -0.22206859809E+02  0.22206859809E+02  0.00000000000E+00 0.  1.
         25    2    1    2    0    0  0.00000000000E+00  0.00000000000E+00  0.15369535786E+03  0.19810907748E+03  0.12499977421E+03 0.  0.
          4    1    3    3  501    0 -0.38448765378E+02  0.49091063691E+02  0.83106090037E+02  0.10390988786E+03  0.15500000000E+01 0.  1.
         -4    1    3    3    0  501  0.38448765378E+02 -0.49091063691E+02  0.70589267823E+02  0.94199189620E+02  0.15500000000E+01 0.  1.
<mgrwt>
<rscale>  2 0.12499977E+03</rscale>
<asrwt>0</asrwt>
<pdfrwt beam="1">  1       21 0.27061879E-01 0.12499977E+03</pdfrwt>
<pdfrwt beam="2">  1       21 0.34164401E-02 0.12499977E+03</pdfrwt>
<totfact> 0.65132712E+06</totfact>
</mgrwt>
</event>
<event>
 5    0  0.1234033E+000  0.1249994E+03  0.7546771E-02  0.1235070E+00
         21   -1    0    0  503  502  0.00000000000E+00  0.00000000000E+00  0.57043868648E+03  0.57043868648E+03  0.00000000000E+00 0.  1.
         21   -1    0    0  502  503 -0.00000000000E+00 -0.00000000000E+00 -0.68477327593E+01  0.68477327593E+01  0.00000000000E+00 0.  1.
         25    2    1    2    0    0  0.00000000000E+00  0.00000000000E+00  0.56359095372E+03  0.57728641924E+03  0.12499938689E+03 0.  0.
          4    1    3    3  501    0 -0.17050242285E+02 -0.20492461071E+02  0.54276730341E+03  0.54342377559E+03  0.15500000000E+01 0.  1.
         -4    1    3    3    0  501  0.17050242285E+02  0.20492461071E+02  0.20823650306E+02  0.33862643647E+02  0.15500000000E+01 0.  1.
<mgrwt>
<rscale>  2 0.12499939E+03</rscale>
<asrwt>0</asrwt>
<pdfrwt beam="1">  1       21 0.87759761E-01 0.12499939E+03</pdfrwt>
<pdfrwt beam="2">  1       21 0.10534978E-02 0.12499939E+03</pdfrwt>
<totfact> 0.38140983E+06</totfact>
</mgrwt>
</event>
<event>
 5    0  0.1470325E+000  0.1250002E+03  0.7546771E-02  0.1235069E+00
         21   -1    0    0  503  502  0.00000000000E+00  0.00000000000E+00  0.43275597110E+02  0.43275597110E+02  0.00000000000E+00 0. -1.
         21   -1    0    0  502  503 -0.00000000000E+00 -0.00000000000E+00 -0.90264824889E+02  0.90264824889E+02  0.00000000000E+00 0. -1.
         25    2    1    2    0    0  0.00000000000E+00  0.00000000000E+00 -0.46989227778E+02  0.13354042200E+03  0.12500022712E+03 0.  0.
          4    1    3    3  501    0  0.26374857305E+02  0.25388032054E+02 -0.77586677131E+02  0.85803730908E+02  0.15500000000E+01 0. -1.
         -4    1    3    3    0  501 -0.26374857305E+02 -0.25388032054E+02  0.30597449353E+02  0.47736691091E+02  0.15500000000E+01 0. -1.
<mgrwt>
<rscale>  2 0.12500023E+03</rscale>
<asrwt>0</asrwt>
<pdfrwt beam="1">  1       21 0.66577842E-02 0.12500023E+03</pdfrwt>
<pdfrwt beam="2">  1       21 0.13886896E-01 0.12500023E+03</pdfrwt>
<totfact> 0.72889896E+06</totfact>
</mgrwt>
</event>
<event>
 5    0  0.1268159E+000  0.1249988E+03  0.7546771E-02  0.1235071E+00
         21   -1    0    0  503  502  0.00000000000E+00  0.00000000000E+00  0.59082106240E+01  0.59082106240E+01  0.00000000000E+00 0.  1.
         21   -1    0    0  502  503 -0.00000000000E+00 -0.00000000000E+00 -0.66114401587E+03  0.66114401587E+03  0.00000000000E+00 0.  1.
         25    2    1    2    0    0  0.00000000000E+00  0.00000000000E+00 -0.65523580525E+03  0.66705222650E+03  0.12499884957E+03 0.  0.
          4    1    3    3  501    0 -0.10826292714E+02  0.59908537738E+02 -0.40262024915E+03  0.40719983919E+03  0.15500000000E+01 0. -1.
         -4    1    3    3    0  501  0.10826292714E+02 -0.59908537738E+02 -0.25261555610E+03  0.25985238731E+03  0.15500000000E+01 0. -1.
<mgrwt>
<rscale>  2 0.12499885E+03</rscale>
<asrwt>0</asrwt>
<pdfrwt beam="1">  1       21 0.90895605E-03 0.12499885E+03</pdfrwt>
<pdfrwt beam="2">  1       21 0.10171440E+00 0.12499885E+03</pdfrwt>
<totfact> 0.34220449E+06</totfact>
</mgrwt>
</event>
<event>
 5    0  0.1449953E+000  0.1249893E+03  0.7546771E-02  0.1235086E+00
         21   -1    0    0  503  502  0.00000000000E+00  0.00000000000E+00  0.12363770188E+02  0.12363770188E+02  0.00000000000E+00 0. -1.
         21   -1    0    0  502  503 -0.00000000000E+00 -0.00000000000E+00 -0.31588929636E+03  0.31588929636E+03  0.00000000000E+00 0. -1.
         25    2    1    2    0    0  0.00000000000E+00  0.00000000000E+00 -0.30352552617E+03  0.32825306655E+03  0.12498932218E+03 0.  0.
          4    1    3    3  501    0 -0.56973030539E+01  0.33928258583E+02 -0.28872092854E+03  0.29076754129E+03  0.15500000000E+01 0.  1.
         -4    1    3    3    0  501  0.56973030539E+01 -0.33928258583E+02 -0.14804597633E+02  0.37485525255E+02  0.15500000000E+01 0.  1.
<mgrwt>
<rscale>  2 0.12498932E+03</rscale>
<asrwt>0</asrwt>
<pdfrwt beam="1">  1       21 0.19021186E-02 0.12498932E+03</pdfrwt>
<pdfrwt beam="2">  1       21 0.48598352E-01 0.12498932E+03</pdfrwt>
<totfact> 0.53199987E+06</totfact>
</mgrwt>
</event>
<event>
 5    0  0.1404179E+000  0.1250018E+03  0.7546771E-02  0.1235066E+00
         21   -1    0    0  503  502  0.00000000000E+00  0.00000000000E+00  0.25482708864E+03  0.25482708864E+03  0.00000000000E+00 0. -1.
         21   -1    0    0  502  503 -0.00000000000E+00 -0.00000000000E+00 -0.15329461250E+02  0.15329461250E+02  0.00000000000E+00 0. -1.
         25    2    1    2    0    0  0.00000000000E+00  0.00000000000E+00  0.23949762740E+03  0.27015654989E+03  0.12500179168E+03 0.  0.
          4    1    3    3  501    0  0.41613102252E+02 -0.37170352079E+02  0.18052004386E+03  0.18895283562E+03  0.15500000000E+01 0. -1.
         -4    1    3    3    0  501 -0.41613102252E+02  0.37170352079E+02  0.58977583535E+02  0.81203714276E+02  0.15500000000E+01 0. -1.
<mgrwt>
<rscale>  2 0.12500179E+03</rscale>
<asrwt>0</asrwt>
<pdfrwt beam="1">  1       21 0.39204164E-01 0.12500179E+03</pdfrwt>
<pdfrwt beam="2">  1       21 0.23583788E-02 0.12500179E+03</pdfrwt>
<totfact> 0.58028074E+06</totfact>
</mgrwt>
</event>
<event>
 5    0  0.1363311E+000  0.1250000E+03  0.7546771E-02  0.1235069E+00
         21   -1    0    0  503  502  0.00000000000E+00  0.00000000000E+00  0.11020824654E+03  0.11020824654E+03  0.00000000000E+00 0.  1.
         21   -1    0    0  502  503 -0.00000000000E+00 -0.00000000000E+00 -0.35444242129E+02  0.35444242129E+02  0.00000000000E+00 0.  1.
         25    2    1    2    0    0  0.00000000000E+00  0.00000000000E+00  0.74764004409E+02  0.14565248867E+03  0.12499996440E+03 0.  0.
          4    1    3    3  501    0 -0.43928023264E+02 -0.51756345643E+01 -0.14038242274E+02  0.46432027386E+02  0.15500000000E+01 0. -1.
         -4    1    3    3    0  501  0.43928023264E+02  0.51756345643E+01  0.88802246683E+02  0.99220461282E+02  0.15500000000E+01 0. -1.
<mgrwt>
<rscale>  2 0.12499996E+03</rscale>
<asrwt>0</asrwt>
<pdfrwt beam="1">  1       21 0.16955115E-01 0.12499996E+03</pdfrwt>
<pdfrwt beam="2">  1       21 0.54529604E-02 0.12499996E+03</pdfrwt>
<totfact> 0.71309766E+06</totfact>
</mgrwt>
</event>
<event>
 5    0  0.1222151E+000  0.1249658E+03  0.7546771E-02  0.1235123E+00
         21   -1    0    0  503  502  0.00000000000E+00  0.00000000000E+00  0.77688845102E+03  0.77688845102E+03  0.00000000000E+00 0. -1.
         21   -1    0    0  502  503 -0.00000000000E+00 -0.00000000000E+00 -0.50253226792E+01  0.50253226792E+01  0.00000000000E+00 0. -1.
         25    2    1    2    0    0  0.00000000000E+00  0.00000000000E+00  0.77186312834E+03  0.78191377370E+03  0.12496583777E+03 0.  0.
          4    1    3    3  501    0  0.59704233869E+02 -0.63366416227E+01  0.27810655061E+03  0.28451784577E+03  0.15500000000E+01 0.  1.
         -4    1    3    3    0  501 -0.59704233869E+02  0.63366416227E+01  0.49375657773E+03  0.49739592793E+03  0.15500000000E+01 0.  1.
<mgrwt>
<rscale>  2 0.12496584E+03</rscale>
<asrwt>0</asrwt>
<pdfrwt beam="1">  1       21 0.11952120E+00 0.12496584E+03</pdfrwt>
<pdfrwt beam="2">  1       21 0.77312718E-03 0.12496584E+03</pdfrwt>
<totfact> 0.29996266E+06</totfact>
</mgrwt>
</event>
<event>
 5    0  0.1479609E+000  0.1250024E+03  0.7546771E-02  0.1235066E+00
         21   -1    0    0  503  502  0.00000000000E+00  0.00000000000E+00  0.15679072409E+03  0.15679072409E+03  0.00000000000E+00 0.  1.
         21   -1    0    0  502  503 -0.00000000000E+00 -0.00000000000E+00 -0.24914739692E+02  0.24914739692E+02  0.00000000000E+00 0.  1.
         25    2    1    2    0    0  0.00000000000E+00  0.00000000000E+00  0.13187598440E+03  0.18170546379E+03  0.12500240121E+03 0.  0.
          4    1    3    3  501    0 -0.25169150102E+02  0.51264147814E+01 -0.16857279953E+02  0.30762584950E+02  0.15500000000E+01 0.  1.
         -4    1    3    3    0  501  0.25169150102E+02 -0.51264147814E+01  0.14873326436E+03  0.15094287884E+03  0.15500000000E+01 0.  1.
<mgrwt>
<rscale>  2 0.12500240E+03</rscale>
<asrwt>0</asrwt>
<pdfrwt beam="1">  1       21 0.24121649E-01 0.12500240E+03</pdfrwt>
<pdfrwt beam="2">  1       21 0.38330370E-02 0.12500240E+03</pdfrwt>
<totfact> 0.66952351E+06</totfact>
</mgrwt>
</event>
<event>
 5    0  0.1291574E+000  0.1250003E+03  0.7546771E-02  0.1235069E+00
         21   -1    0    0  503  502  0.00000000000E+00  0.00000000000E+00  0.92684427384E+01  0.92684427384E+01  0.00000000000E+00 0. -1.
         21   -1    0    0  502  503 -0.00000000000E+00 -0.00000000000E+00 -0.42145914501E+03  0.42145914501E+03  0.00000000000E+00 0. -1.
         25    2    1    2    0    0  0.00000000000E+00  0.00000000000E+00 -0.41219070227E+03  0.43072758775E+03  0.12500031923E+03 0.  0.
          4    1    3    3  501    0 -0.26411640678E+02 -0.34820015642E+02 -0.52230716485E+02  0.68120910866E+02  0.15500000000E+01 0.  1.
         -4    1    3    3    0  501  0.26411640678E+02  0.34820015642E+02 -0.35995998579E+03  0.36260667688E+03  0.15500000000E+01 0.  1.
<mgrwt>
<rscale>  2 0.12500032E+03</rscale>
<asrwt>0</asrwt>
<pdfrwt beam="1">  1       21 0.14259140E-02 0.12500032E+03</pdfrwt>
<pdfrwt beam="2">  1       21 0.64839883E-01 0.12500032E+03</pdfrwt>
<totfact> 0.46067466E+06</totfact>
</mgrwt>
</event>
<event>
 5    0  0.1515118E+000  0.1249980E+03  0.7546771E-02  0.1235072E+00
         21   -1    0    0  503  502  0.00000000000E+00  0.00000000000E+00  0.19452326174E+03  0.19452326174E+03  0.00000000000E+00 0.  1.
         21   -1    0    0  502  503 -0.00000000000E+00 -0.00000000000E+00 -0.20080507874E+02  0.20080507874E+02  0.00000000000E+00 0.  1.
         25    2    1    2    0    0  0.00000000000E+00  0.00000000000E+00  0.17444275386E+03  0.21460376961E+03  0.12499801421E+03 0.  0.
          4    1    3    3  501    0  0.28993142691E+02  0.55292966139E+02  0.83083443665E+02  0.10393832565E+03  0.15500000000E+01 0.  1.
         -4    1    3    3    0  501 -0.28993142691E+02 -0.55292966139E+02  0.91359310199E+02  0.11066544396E+03  0.15500000000E+01 0.  1.
<mgrwt>
<rscale>  2 0.12499801E+03</rscale>
<asrwt>0</asrwt>
<pdfrwt beam="1">  1       21 0.29926654E-01 0.12499801E+03</pdfrwt>
<pdfrwt beam="2">  1       21 0.30893090E-02 0.12499801E+03</pdfrwt>
<totfact> 0.63381581E+06</totfact>
</mgrwt>
</event>
<event>
 5    0  0.1586120E+000  0.1249944E+03  0.7546771E-02  0.1235078E+00
         21   -1    0    0  503  502  0.00000000000E+00  0.00000000000E+00  0.88038803536E+02  0.88038803536E+02  0.00000000000E+00 0. -1.
         21   -1    0    0  502  503 -0.00000000000E+00 -0.00000000000E+00 -0.44365671200E+02  0.44365671200E+02  0.00000000000E+00 0. -1.
         25    2    1    2    0    0  0.00000000000E+00  0.00000000000E+00  0.43673132336E+02  0.13240447474E+03  0.12499440964E+03 0.  0.
          4    1    3    3  501    0 -0.43741626943E+02 -0.39239782954E+02  0.44317530477E+02  0.73617501326E+02  0.15500000000E+01 0.  1.
         -4    1    3    3    0  501  0.43741626943E+02  0.39239782954E+02 -0.64439814084E+00  0.58786973411E+02  0.15500000000E+01 0.  1.
<mgrwt>
<rscale>  2 0.12499441E+03</rscale>
<asrwt>0</asrwt>
<pdfrwt beam="1">  1       21 0.13544431E-01 0.12499441E+03</pdfrwt>
<pdfrwt beam="2">  1       21 0.68254879E-02 0.12499441E+03</pdfrwt>
<totfact> 0.73052443E+06</totfact>
</mgrwt>
</event>
<event>
 5    0  0.1222151E+000  0.1250072E+03  0.7546771E-02  0.1235058E+00
         21   -1    0    0  503  502  0.00000000000E+00  0.00000000000E+00  0.75338931820E+03  0.75338931820E+03  0.00000000000E+00 0. -1.
         21   -1    0    0  502  503 -0.00000000000E+00 -0.00000000000E+00 -0.51854971806E+01  0.51854971806E+01  0.00000000000E+00 0. -1.
         25    2    1    2    0    0  0.00000000000E+00  0.00000000000E+00  0.74820382102E+03  0.75857481538E+03  0.12500717076E+03 0.  0.
          4    1    3    3  501    0 -0.25880913699E+02 -0.52485482829E+02  0.24118809713E+03  0.24819074983E+03  0.15500000000E+01 0. -1.
         -4    1    3    3    0  501  0.25880913699E+02  0.52485482829E+02  0.50701572389E+03  0.51038406555E+03  0.15500000000E+01 0. -1.
<mgrwt>
<rscale>  2 0.12500717E+03</rscale>
<asrwt>0</asrwt>
<pdfrwt beam="1">  1       21 0.11590596E+00 0.12500717E+03</pdfrwt>
<pdfrwt beam="2">  1       21 0.79776940E-03 0.12500717E+03</pdfrwt>
<totfact> 0.30764098E+06</totfact>
</mgrwt>
</event>
<event>
 5    0  0.1591288E+000  0.1249979E+03  0.7546771E-02  0.1235073E+00
         21   -1    0    0  503  502  0.00000000000E+00  0.00000000000E+00  0.94317643928E+02  0.94317643928E+02  0.00000000000E+00 0. -1.
         21   -1    0    0  502  503 -0.00000000000E+00 -0.00000000000E+00 -0.41414515527E+02  0.41414515527E+02  0.00000000000E+00 0. -1.
         25    2    1    2    0    0  0.00000000000E+00  0.00000000000E+00  0.52903128401E+02  0.13573215945E+03  0.12499791244E+03 0.  0.
          4    1    3    3  501    0 -0.52245593729E+02  0.30375771123E+02  0.92334183821E+01  0.61155114671E+02  0.15500000000E+01 0.  1.
         -4    1    3    3    0  501  0.52245593729E+02 -0.30375771123E+02  0.43669710019E+02  0.74577044783E+02  0.15500000000E+01 0.  1.
<mgrwt>
<rscale>  2 0.12499791E+03</rscale>
<asrwt>0</asrwt>
<pdfrwt beam="1">  1       21 0.14510407E-01 0.12499791E+03</pdfrwt>
<pdfrwt beam="2">  1       21 0.63714640E-02 0.12499791E+03</pdfrwt>
<totfact> 0.72603540E+06</totfact>
</mgrwt>
</event>
<event>
 5    0  0.1435113E+000  0.1250039E+03  0.7546771E-02  0.1235063E+00
         21   -1    0    0  503  502  0.00000000000E+00  0.00000000000E+00  0.15775326364E+03  0.15775326364E+03  0.00000000000E+00 0. -1.
         21   -1    0    0  502  503 -0.00000000000E+00 -0.00000000000E+00 -0.24763322628E+02  0.24763322628E+02  0.00000000000E+00 0. -1.
         25    2    1    2    0    0  0.00000000000E+00  0.00000000000E+00  0.13298994102E+03  0.18251658627E+03  0.12500391935E+03 0.  0.
          4    1    3    3  501    0  0.33401104170E+02 -0.32960648986E+02  0.62576818471E+01  0.47366646740E+02  0.15500000000E+01 0. -1.
         -4    1    3    3    0  501 -0.33401104170E+02  0.32960648986E+02  0.12673225917E+03  0.13514993953E+03  0.15500000000E+01 0. -1.
<mgrwt>
<rscale>  2 0.12500392E+03</rscale>
<asrwt>0</asrwt>
<pdfrwt beam="1">  1       21 0.24269732E-01 0.12500392E+03</pdfrwt>
<pdfrwt beam="2">  1       21 0.38097420E-02 0.12500392E+03</pdfrwt>
<totfact> 0.66857363E+06</totfact>
</mgrwt>
</event>
<event>
 5    0  0.1413920E+000  0.1249993E+03  0.7546771E-02  0.1235070E+00
         21   -1    0    0  503  502  0.00000000000E+00  0.00000000000E+00  0.12848842287E+02  0.12848842287E+02  0.00000000000E+00 0. -1.
         21   -1    0    0  502  503 -0.00000000000E+00 -0.00000000000E+00 -0.30401241450E+03  0.30401241450E+03  0.00000000000E+00 0. -1.
         25    2    1    2    0    0  0.00000000000E+00  0.00000000000E+00 -0.29116357221E+03  0.31686125678E+03  0.12499932107E+03 0.  0.
          4    1    3    3  501    0 -0.21456993812E+02 -0.41630546211E+02 -0.40748874590E+02  0.62099744296E+02  0.15500000000E+01 0. -1.
         -4    1    3    3    0  501  0.21456993812E+02  0.41630546211E+02 -0.25041469762E+03  0.25476151249E+03  0.15500000000E+01 0. -1.
<mgrwt>
<rscale>  2 0.12499932E+03</rscale>
<asrwt>0</asrwt>
<pdfrwt beam="1">  1       21 0.19767451E-02 0.12499932E+03</pdfrwt>
<pdfrwt beam="2">  1       21 0.46771139E-01 0.12499932E+03</pdfrwt>
<totfact> 0.54083935E+06</totfact>
</mgrwt>
</event>
<event>
 5    0  0.1314123E+000  0.1249990E+03  0.7546771E-02  0.1235071E+00
         21   -1    0    0  503  502  0.00000000000E+00  0.00000000000E+00  0.74230851768E+01  0.74230851768E+01  0.00000000000E+00 0. -1.
         21   -1    0    0  502  503 -0.00000000000E+00 -0.00000000000E+00 -0.52622137766E+03  0.52622137766E+03  0.00000000000E+00 0. -1.
         25    2    1    2    0    0  0.00000000000E+00  0.00000000000E+00 -0.51879829249E+03  0.53364446284E+03  0.12499897773E+03 0.  0.
          4    1    3    3  501    0  0.36254544346E+02  0.41586401355E+02 -0.38459368663E+03  0.38853381713E+03  0.15500000000E+01 0. -1.
         -4    1    3    3    0  501 -0.36254544346E+02 -0.41586401355E+02 -0.13420460586E+03  0.14511064571E+03  0.15500000000E+01 0. -1.
<mgrwt>
<rscale>  2 0.12499898E+03</rscale>
<asrwt>0</asrwt>
<pdfrwt beam="1">  1       21 0.11420128E-02 0.12499898E+03</pdfrwt>
<pdfrwt beam="2">  1       21 0.80957160E-01 0.12499898E+03</pdfrwt>
<totfact> 0.40277339E+06</totfact>
</mgrwt>
</event>
<event>
 5    0  0.1375106E+000  0.1250017E+03  0.7546771E-02  0.1235067E+00
         21   -1    0    0  503  502  0.00000000000E+00  0.00000000000E+00  0.32707697246E+03  0.32707697246E+03  0.00000000000E+00 0.  1.
         21   -1    0    0  502  503 -0.00000000000E+00 -0.00000000000E+00 -0.11943225618E+02  0.11943225618E+02  0.00000000000E+00 0.  1.
         25    2    1    2    0    0  0.00000000000E+00  0.00000000000E+00  0.31513374684E+03  0.33902019807E+03  0.12500166521E+03 0.  0.
          4    1    3    3  501    0  0.19262331956E+02  0.59047549231E+02  0.13911224495E+03  0.15235573405E+03  0.15500000000E+01 0. -1.
         -4    1    3    3    0  501 -0.19262331956E+02 -0.59047549231E+02  0.17602150189E+03  0.18666446402E+03  0.15500000000E+01 0. -1.
<mgrwt>
<rscale>  2 0.12500167E+03</rscale>
<asrwt>0</asrwt>
<pdfrwt beam="1">  1       21 0.50319527E-01 0.12500167E+03</pdfrwt>
<pdfrwt beam="2">  1       21 0.18374196E-02 0.12500167E+03</pdfrwt>
<totfact> 0.52357504E+06</totfact>
</mgrwt>
</event>
<event>
 5    0  0.1499151E+000  0.1250004E+03  0.7546771E-02  0.1235069E+00
         21   -1    0    0  503  502  0.00000000000E+00  0.00000000000E+00  0.31809373147E+02  0.31809373147E+02  0.00000000000E+00 0. -1.
         21   -1    0    0  502  503 -0.00000000000E+00 -0.00000000000E+00 -0.12280262439E+03  0.12280262439E+03  0.00000000000E+00 0. -1.
         25    2    1    2    0    0  0.00000000000E+00  0.00000000000E+00 -0.90993251243E+02  0.15461199754E+03  0.12500039204E+03 0.  0.
          4    1    3    3  501    0 -0.10667478019E+02  0.42232477046E+02  0.99086136953E+01  0.44698549530E+02  0.15500000000E+01 0.  1.
         -4    1    3    3    0  501  0.10667478019E+02 -0.42232477046E+02 -0.10090186494E+03  0.10991344801E+03  0.15500000000E+01 0.  1.
<mgrwt>
<rscale>  2 0.12500039E+03</rscale>
<asrwt>0</asrwt>
<pdfrwt beam="1">  1       21 0.48937498E-02 0.12500039E+03</pdfrwt>
<pdfrwt beam="2">  1       21 0.18892711E-01 0.12500039E+03</pdfrwt>
<totfact> 0.70183215E+06</totfact>
</mgrwt>
</event>
<event>
 5    0  0.1232185E+000  0.1250033E+03  0.7546771E-02  0.1235064E+00
         21   -1    0    0  503  502  0.00000000000E+00  0.00000000000E+00  0.90771415118E+01  0.90771415118E+01  0.00000000000E+00 0.  1.
         21   -1    0    0  502  503 -0.00000000000E+00 -0.00000000000E+00 -0.43036179394E+03  0.43036179394E+03  0.00000000000E+00 0.  1.
         25    2    1    2    0    0  0.00000000000E+00  0.00000000000E+00 -0.42128465243E+03  0.43943893545E+03  0.12500327844E+03 0.  0.
          4    1    3    3  501    0  0.18490242383E+02 -0.20415642093E+02 -0.13485123091E+02  0.30707304509E+02  0.15500000000E+01 0.  1.
         -4    1    3    3    0  501 -0.18490242383E+02  0.20415642093E+02 -0.40779952934E+03  0.40873163094E+03  0.15500000000E+01 0.  1.
<mgrwt>
<rscale>  2 0.12500328E+03</rscale>
<asrwt>0</asrwt>
<pdfrwt beam="1">  1       21 0.13964834E-02 0.12500328E+03</pdfrwt>
<pdfrwt beam="2">  1       21 0.66209503E-01 0.12500328E+03</pdfrwt>
<totfact> 0.45527157E+06</totfact>
</mgrwt>
</event>
<event>
 5    0  0.1307967E+000  0.1249997E+03  0.7546771E-02  0.1235070E+00
         21   -1    0    0  503  502  0.00000000000E+00  0.00000000000E+00  0.77581367342E+01  0.77581367342E+01  0.00000000000E+00 0.  1.
         21   -1    0    0  502  503 -0.00000000000E+00 -0.00000000000E+00 -0.50350098753E+03  0.50350098753E+03  0.00000000000E+00 0.  1.
         25    2    1    2    0    0  0.00000000000E+00  0.00000000000E+00 -0.49574285079E+03  0.51125912426E+03  0.12499967211E+03 0.  0.
          4    1    3    3  501    0  0.24892990821E+02 -0.27563051951E+02 -0.45337296703E+03  0.45489430922E+03  0.15500000000E+01 0.  1.
         -4    1    3    3    0  501 -0.24892990821E+02  0.27563051951E+02 -0.42369883763E+02  0.56364815044E+02  0.15500000000E+01 0.  1.
<mgrwt>
<rscale>  2 0.12499967E+03</rscale>
<asrwt>0</asrwt>
<pdfrwt beam="1">  1       21 0.11935594E-02 0.12499967E+03</pdfrwt>
<pdfrwt beam="2">  1       21 0.77461697E-01 0.12499967E+03</pdfrwt>
<totfact> 0.41440308E+06</totfact>
</mgrwt>
</event>
<event>
 5    0  0.1555736E+000  0.1249988E+03  0.7546771E-02  0.1235071E+00
         21   -1    0    0  503  502  0.00000000000E+00  0.00000000000E+00  0.13627131190E+03  0.13627131190E+03  0.00000000000E+00 0.  1.
         21   -1    0    0  502  503 -0.00000000000E+00 -0.00000000000E+00 -0.28664712281E+02  0.28664712281E+02  0.00000000000E+00 0.  1.
         25    2    1    2    0    0  0.00000000000E+00  0.00000000000E+00  0.10760659962E+03  0.16493602418E+03  0.12499884716E+03 0.  0.
          4    1    3    3  501    0 -0.76157106572E+01  0.61966746932E+02  0.57007994741E+02  0.84558800479E+02  0.15500000000E+01 0.  1.
         -4    1    3    3    0  501  0.76157106572E+01 -0.61966746932E+02  0.50598604875E+02  0.80377223698E+02  0.15500000000E+01 0.  1.
<mgrwt>
<rscale>  2 0.12499885E+03</rscale>
<asrwt>0</asrwt>
<pdfrwt beam="1">  1       21 0.20964817E-01 0.12499885E+03</pdfrwt>
<pdfrwt beam="2">  1       21 0.44099558E-02 0.12499885E+03</pdfrwt>
<totfact> 0.68923360E+06</totfact>
</mgrwt>
</event>
<event>
 5    0  0.1251950E+000  0.1250003E+03  0.7546771E-02  0.1235069E+00
         21   -1    0    0  503  502  0.00000000000E+00  0.00000000000E+00  0.60252329994E+01  0.60252329994E+01  0.00000000000E+00 0. -1.
         21   -1    0    0  502  503 -0.00000000000E+00 -0.00000000000E+00 -0.64831854943E+03  0.64831854943E+03  0.00000000000E+00 0. -1.
         25    2    1    2    0    0  0.00000000000E+00  0.00000000000E+00 -0.64229331643E+03  0.65434378243E+03  0.12500032509E+03 0.  0.
          4    1    3    3  501    0  0.18985014501E+02  0.59213090834E+02 -0.35309438785E+03  0.35853126800E+03  0.15500000000E+01 0.  1.
         -4    1    3    3    0  501 -0.18985014501E+02 -0.59213090834E+02 -0.28919892858E+03  0.29581251443E+03  0.15500000000E+01 0.  1.
<mgrwt>
<rscale>  2 0.12500033E+03</rscale>
<asrwt>0</asrwt>
<pdfrwt beam="1">  1       21 0.92695881E-03 0.12500033E+03</pdfrwt>
<pdfrwt beam="2">  1       21 0.99741327E-01 0.12500033E+03</pdfrwt>
<totfact> 0.34744238E+06</totfact>
</mgrwt>
</event>
<event>
 5    0  0.1576116E+000  0.1250014E+03  0.7546771E-02  0.1235067E+00
         21   -1    0    0  503  502  0.00000000000E+00  0.00000000000E+00  0.34733124286E+02  0.34733124286E+02  0.00000000000E+00 0.  1.
         21   -1    0    0  502  503 -0.00000000000E+00 -0.00000000000E+00 -0.11246716904E+03  0.11246716904E+03  0.00000000000E+00 0.  1.
         25    2    1    2    0    0  0.00000000000E+00  0.00000000000E+00 -0.77734044758E+02  0.14720029333E+03  0.12500137856E+03 0.  0.
          4    1    3    3  501    0 -0.51373077190E+02  0.27562050187E+02 -0.12402054278E+02  0.59624433924E+02  0.15500000000E+01 0.  1.
         -4    1    3    3    0  501  0.51373077190E+02 -0.27562050187E+02 -0.65331990480E+02  0.87575859405E+02  0.15500000000E+01 0.  1.
<mgrwt>
<rscale>  2 0.12500138E+03</rscale>
<asrwt>0</asrwt>
<pdfrwt beam="1">  1       21 0.53435577E-02 0.12500138E+03</pdfrwt>
<pdfrwt beam="2">  1       21 0.17302641E-01 0.12500138E+03</pdfrwt>
<totfact> 0.71110196E+06</totfact>
</mgrwt>
</event>
<event>
 5    0  0.1619553E+000  0.1249997E+03  0.7546771E-02  0.1235070E+00
         21   -1    0    0  503  502  0.00000000000E+00  0.00000000000E+00  0.33901872755E+02  0.33901872755E+02  0.00000000000E+00 0.  1.
         21   -1    0    0  502  503 -0.00000000000E+00 -0.00000000000E+00 -0.11522169248E+03  0.11522169248E+03  0.00000000000E+00 0.  1.
         25    2    1    2    0    0  0.00000000000E+00  0.00000000000E+00 -0.81319819722E+02  0.14912356523E+03  0.12499969851E+03 0.  0.
          4    1    3    3  501    0  0.45872822525E+02 -0.40174885952E+02 -0.56907881140E+02  0.83422099851E+02  0.15500000000E+01 0. -1.
         -4    1    3    3    0  501 -0.45872822525E+02  0.40174885952E+02 -0.24411938581E+02  0.65701465380E+02  0.15500000000E+01 0. -1.
<mgrwt>
<rscale>  2 0.12499970E+03</rscale>
<asrwt>0</asrwt>
<pdfrwt beam="1">  1       21 0.52156727E-02 0.12499970E+03</pdfrwt>
<pdfrwt beam="2">  1       21 0.17726414E-01 0.12499970E+03</pdfrwt>
<totfact> 0.70870015E+06</totfact>
</mgrwt>
</event>
<event>
 5    0  0.1519859E+000  0.1250016E+03  0.7546771E-02  0.1235067E+00
         21   -1    0    0  503  502  0.00000000000E+00  0.00000000000E+00  0.34999591283E+02  0.34999591283E+02  0.00000000000E+00 0. -1.
         21   -1    0    0  502  503 -0.00000000000E+00 -0.00000000000E+00 -0.11161129667E+03  0.11161129667E+03  0.00000000000E+00 0. -1.
         25    2    1    2    0    0  0.00000000000E+00  0.00000000000E+00 -0.76611705392E+02  0.14661088796E+03  0.12500159625E+03 0.  0.
          4    1    3    3  501    0 -0.16203720806E+02  0.43837841879E+02  0.10331307744E+02  0.47890034123E+02  0.15500000000E+01 0.  1.
         -4    1    3    3    0  501  0.16203720806E+02 -0.43837841879E+02 -0.86943013136E+02  0.98720853834E+02  0.15500000000E+01 0.  1.
<mgrwt>
<rscale>  2 0.12500160E+03</rscale>
<asrwt>0</asrwt>
<pdfrwt beam="1">  1       21 0.53845524E-02 0.12500160E+03</pdfrwt>
<pdfrwt beam="2">  1       21 0.17170969E-01 0.12500160E+03</pdfrwt>
<totfact> 0.71184684E+06</totfact>
</mgrwt>
</event>
<event>
 5    0  0.1586783E+000  0.1250012E+03  0.7546771E-02  0.1235067E+00
         21   -1    0    0  503  502  0.00000000000E+00  0.00000000000E+00  0.70723674563E+02  0.70723674563E+02  0.00000000000E+00 0. -1.
         21   -1    0    0  502  503 -0.00000000000E+00 -0.00000000000E+00 -0.55233601379E+02  0.55233601379E+02  0.00000000000E+00 0. -1.
         25    2    1    2    0    0  0.00000000000E+00  0.00000000000E+00  0.15490073184E+02  0.12595727594E+03  0.12500117198E+03 0.  0.
          4    1    3    3  501    0  0.53978640574E+02  0.24451699254E+02  0.27704152798E+02  0.65433185899E+02  0.15500000000E+01 0. -1.
         -4    1    3    3    0  501 -0.53978640574E+02 -0.24451699254E+02 -0.12214079614E+02  0.60524090043E+02  0.15500000000E+01 0. -1.
<mgrwt>
<rscale>  2 0.12500117E+03</rscale>
<asrwt>0</asrwt>
<pdfrwt beam="1">  1       21 0.10880565E-01 0.12500117E+03</pdfrwt>
<pdfrwt beam="2">  1       21 0.84974771E-02 0.12500117E+03</pdfrwt>
<totfact> 0.73909722E+06</totfact>
</mgrwt>
</event>
<event>
 5    0  0.1441511E+000  0.1249991E+03  0.7546771E-02  0.1235071E+00
         21   -1    0    0  503  502  0.00000000000E+00  0.00000000000E+00  0.22131779695E+03  0.22131779695E+03  0.00000000000E+00 0. -1.
         21   -1    0    0  502  503 -0.00000000000E+00 -0.00000000000E+00 -0.17649694603E+02  0.17649694603E+02  0.00000000000E+00 0. -1.
         25    2    1    2    0    0  0.00000000000E+00  0.00000000000E+00  0.20366810235E+03  0.23896749155E+03  0.12499906442E+03 0.  0.
          4    1    3    3  501    0 -0.27186340829E+02  0.44165998051E+02  0.35222198285E+02  0.62711548088E+02  0.15500000000E+01 0. -1.
         -4    1    3    3    0  501  0.27186340829E+02 -0.44165998051E+02  0.16844590406E+03  0.17625594347E+03  0.15500000000E+01 0. -1.
<mgrwt>
<rscale>  2 0.12499906E+03</rscale>
<asrwt>0</asrwt>
<pdfrwt beam="1">  1       21 0.34048890E-01 0.12499906E+03</pdfrwt>
<pdfrwt beam="2">  1       21 0.27153378E-02 0.12499906E+03</pdfrwt>
<totfact> 0.60934159E+06</totfact>
</mgrwt>
</event>
<event>
 5    0  0.1222151E+000  0.1250134E+03  0.7546771E-02  0.1235048E+00
         21   -1    0    0  503  502  0.00000000000E+00  0.00000000000E+00  0.83183202861E+03  0.83183202861E+03  0.00000000000E+00 0.  1.
         21   -1    0    0  502  503 -0.00000000000E+00 -0.00000000000E+00 -0.46969659282E+01  0.46969659282E+01  0.00000000000E+00 0.  1.
         25    2    1    2    0    0  0.00000000000E+00  0.00000000000E+00  0.82713506268E+03  0.83652899454E+03  0.12501338643E+03 0.  0.
          4    1    3    3  501    0  0.12974643912E+02  0.25019815111E+02  0.78675686788E+03  0.78726304638E+03  0.15500000000E+01 0. -1.
         -4    1    3    3    0  501 -0.12974643912E+02 -0.25019815111E+02  0.40378194799E+02  0.49265948160E+02  0.15500000000E+01 0. -1.
<mgrwt>
<rscale>  2 0.12501339E+03</rscale>
<asrwt>0</asrwt>
<pdfrwt beam="1">  1       21 0.12797404E+00 0.12501339E+03</pdfrwt>
<pdfrwt beam="2">  1       21 0.72261080E-03 0.12501339E+03</pdfrwt>
<totfact> 0.28178433E+06</totfact>
</mgrwt>
</event>
<event>
 5    0  0.1503796E+000  0.1250134E+03  0.7546771E-02  0.1235048E+00
         21   -1    0    0  503  502  0.00000000000E+00  0.00000000000E+00  0.24664346615E+02  0.24664346615E+02  0.00000000000E+00 0. -1.
         21   -1    0    0  502  503 -0.00000000000E+00 -0.00000000000E+00 -0.15841024689E+03  0.15841024689E+03  0.00000000000E+00 0. -1.
         25    2    1    2    0    0  0.00000000000E+00  0.00000000000E+00 -0.13374590027E+03  0.18307459350E+03  0.12501336307E+03 0.  0.
          4    1    3    3  501    0 -0.29696183883E+02  0.35303817438E+02 -0.51496211868E+01  0.46445063907E+02  0.15500000000E+01 0. -1.
         -4    1    3    3    0  501  0.29696183883E+02 -0.35303817438E+02 -0.12859627909E+03  0.13662952960E+03  0.15500000000E+01 0. -1.
<mgrwt>
<rscale>  2 0.12501336E+03</rscale>
<asrwt>0</asrwt>
<pdfrwt beam="1">  1       21 0.37945148E-02 0.12501336E+03</pdfrwt>
<pdfrwt beam="2">  1       21 0.24370808E-01 0.12501336E+03</pdfrwt>
<totfact> 0.66777937E+06</totfact>
</mgrwt>
</event>
<event>
 5    0  0.1575913E+000  0.1250011E+03  0.7546771E-02  0.1235067E+00
         21   -1    0    0  503  502  0.00000000000E+00  0.00000000000E+00  0.89620008003E+02  0.89620008003E+02  0.00000000000E+00 0.  1.
         21   -1    0    0  502  503 -0.00000000000E+00 -0.00000000000E+00 -0.43587607293E+02  0.43587607293E+02  0.00000000000E+00 0.  1.
         25    2    1    2    0    0  0.00000000000E+00  0.00000000000E+00  0.46032400710E+02  0.13320761530E+03  0.12500114742E+03 0.  0.
          4    1    3    3  501    0 -0.59801652270E+02 -0.13008775452E+02  0.96019693086E+01  0.61968267424E+02  0.15500000000E+01 0. -1.
         -4    1    3    3    0  501  0.59801652270E+02  0.13008775452E+02  0.36430431402E+02  0.71239347871E+02  0.15500000000E+01 0. -1.
<mgrwt>
<rscale>  2 0.12500115E+03</rscale>
<asrwt>0</asrwt>
<pdfrwt beam="1">  1       21 0.13787694E-01 0.12500115E+03</pdfrwt>
<pdfrwt beam="2">  1       21 0.67057857E-02 0.12500115E+03</pdfrwt>
<totfact> 0.72932552E+06</totfact>
</mgrwt>
</event>
<event>
 5    0  0.1222151E+000  0.1250147E+03  0.7546771E-02  0.1235046E+00
         21   -1    0    0  503  502  0.00000000000E+00  0.00000000000E+00  0.45161136254E+01  0.45161136254E+01  0.00000000000E+00 0. -1.
         21   -1    0    0  502  503 -0.00000000000E+00 -0.00000000000E+00 -0.86516158125E+03  0.86516158125E+03  0.00000000000E+00 0. -1.
         25    2    1    2    0    0  0.00000000000E+00  0.00000000000E+00 -0.86064546763E+03  0.86967769488E+03  0.12501468722E+03 0.  0.
          4    1    3    3  501    0  0.15309640871E+02  0.26032040422E+02 -0.81088861318E+03  0.81145227691E+03  0.15500000000E+01 0. -1.
         -4    1    3    3    0  501 -0.15309640871E+02 -0.26032040422E+02 -0.49756854452E+02  0.58225417964E+02  0.15500000000E+01 0. -1.
<mgrwt>
<rscale>  2 0.12501469E+03</rscale>
<asrwt>0</asrwt>
<pdfrwt beam="1">  1       21 0.69478696E-03 0.12501469E+03</pdfrwt>
<pdfrwt beam="2">  1       21 0.13310173E+00 0.12501469E+03</pdfrwt>
<totfact> 0.27170000E+06</totfact>
</mgrwt>
</event>
<event>
 5    0  0.1449767E+000  0.1250017E+03  0.7546771E-02  0.1235067E+00
         21   -1    0    0  503  502  0.00000000000E+00  0.00000000000E+00  0.27213613809E+02  0.27213613809E+02  0.00000000000E+00 0.  1.
         21   -1    0    0  502  503 -0.00000000000E+00 -0.00000000000E+00 -0.14354417396E+03  0.14354417396E+03  0.00000000000E+00 0.  1.
         25    2    1    2    0    0  0.00000000000E+00  0.00000000000E+00 -0.11633056015E+03  0.17075778777E+03  0.12500169142E+03 0.  0.
          4    1    3    3  501    0 -0.25555984188E+02 -0.28353959093E+02  0.94076192476E+01  0.39344137098E+02  0.15500000000E+01 0. -1.
         -4    1    3    3    0  501  0.25555984188E+02  0.28353959093E+02 -0.12573817940E+03  0.13141365067E+03  0.15500000000E+01 0. -1.
<mgrwt>
<rscale>  2 0.12500169E+03</rscale>
<asrwt>0</asrwt>
<pdfrwt beam="1">  1       21 0.41867097E-02 0.12500169E+03</pdfrwt>
<pdfrwt beam="2">  1       21 0.22083719E-01 0.12500169E+03</pdfrwt>
<totfact> 0.68224988E+06</totfact>
</mgrwt>
</event>
<event>
 5    0  0.1248587E+000  0.1250014E+03  0.7546771E-02  0.1235067E+00
         21   -1    0    0  503  502  0.00000000000E+00  0.00000000000E+00  0.66528887284E+01  0.66528887284E+01  0.00000000000E+00 0. -1.
         21   -1    0    0  502  503 -0.00000000000E+00 -0.00000000000E+00 -0.58716440532E+03  0.58716440532E+03  0.00000000000E+00 0. -1.
         25    2    1    2    0    0  0.00000000000E+00  0.00000000000E+00 -0.58051151659E+03  0.59381729405E+03  0.12500143125E+03 0.  0.
          4    1    3    3  501    0  0.32212281744E+02 -0.42439236109E+02 -0.13521106003E+03  0.14533806491E+03  0.15500000000E+01 0. -1.
         -4    1    3    3    0  501 -0.32212281744E+02  0.42439236109E+02 -0.44530045656E+03  0.44847922914E+03  0.15500000000E+01 0. -1.
<mgrwt>
<rscale>  2 0.12500143E+03</rscale>
<asrwt>0</asrwt>
<pdfrwt beam="1">  1       21 0.10235214E-02 0.12500143E+03</pdfrwt>
<pdfrwt beam="2">  1       21 0.90332979E-01 0.12500143E+03</pdfrwt>
<totfact> 0.37372409E+06</totfact>
</mgrwt>
</event>
<event>
 5    0  0.1222151E+000  0.1249992E+03  0.7546771E-02  0.1235071E+00
         21   -1    0    0  503  502  0.00000000000E+00  0.00000000000E+00  0.19123808202E+04  0.19123808202E+04  0.00000000000E+00 0.  1.
         21   -1    0    0  502  503 -0.00000000000E+00 -0.00000000000E+00 -0.20425831853E+01  0.20425831853E+01  0.00000000000E+00 0.  1.
         25    2    1    2    0    0  0.00000000000E+00  0.00000000000E+00  0.19103382370E+04  0.19144234034E+04  0.12499915051E+03 0.  0.
          4    1    3    3  501    0  0.47022497504E+02 -0.40395161665E+02  0.83563953378E+03  0.83793717979E+03  0.15500000000E+01 0.  1.
         -4    1    3    3    0  501 -0.47022497504E+02  0.40395161665E+02  0.10746987032E+04  0.10764862236E+04  0.15500000000E+01 0.  1.
<mgrwt>
<rscale>  2 0.12499915E+03</rscale>
<asrwt>0</asrwt>
<pdfrwt beam="1">  1       21 0.29421100E+00 0.12499915E+03</pdfrwt>
<pdfrwt beam="2">  1       21 0.31424510E-03 0.12499915E+03</pdfrwt>
<totfact> 0.88132982E+05</totfact>
</mgrwt>
</event>
<event>
 5    0  0.1487066E+000  0.1250032E+03  0.7546771E-02  0.1235064E+00
         21   -1    0    0  503  502  0.00000000000E+00  0.00000000000E+00  0.37766303020E+02  0.37766303020E+02  0.00000000000E+00 0.  1.
         21   -1    0    0  502  503 -0.00000000000E+00 -0.00000000000E+00 -0.10343750597E+03  0.10343750597E+03  0.00000000000E+00 0.  1.
         25    2    1    2    0    0  0.00000000000E+00  0.00000000000E+00 -0.65671202945E+02  0.14120380899E+03  0.12500323506E+03 0.  0.
          4    1    3    3  501    0  0.34087950064E+02 -0.10901513505E+02  0.25019596079E+02  0.43694553713E+02  0.15500000000E+01 0. -1.
         -4    1    3    3    0  501 -0.34087950064E+02  0.10901513505E+02 -0.90690799024E+02  0.97509255273E+02  0.15500000000E+01 0. -1.
<mgrwt>
<rscale>  2 0.12500324E+03</rscale>
<asrwt>0</asrwt>
<pdfrwt beam="1">  1       21 0.58102005E-02 0.12500324E+03</pdfrwt>
<pdfrwt beam="2">  1       21 0.15913462E-01 0.12500324E+03</pdfrwt>
<totfact> 0.71876617E+06</totfact>
</mgrwt>
</event>
<event>
 5    0  0.1514775E+000  0.1250041E+03  0.7546771E-02  0.1235063E+00
         21   -1    0    0  503  502  0.00000000000E+00  0.00000000000E+00  0.40902667534E+02  0.40902667534E+02  0.00000000000E+00 0.  1.
         21   -1    0    0  502  503 -0.00000000000E+00 -0.00000000000E+00 -0.95507410936E+02  0.95507410936E+02  0.00000000000E+00 0.  1.
         25    2    1    2    0    0  0.00000000000E+00  0.00000000000E+00 -0.54604743402E+02  0.13641007847E+03  0.12500412596E+03 0.  0.
          4    1    3    3  501    0 -0.13934687642E+02 -0.40080300017E+02  0.22746386687E+02  0.48170598672E+02  0.15500000000E+01 0.  1.
         -4    1    3    3    0  501  0.13934687642E+02  0.40080300017E+02 -0.77351130089E+02  0.88239479798E+02  0.15500000000E+01 0.  1.
<mgrwt>
<rscale>  2 0.12500413E+03</rscale>
<asrwt>0</asrwt>
<pdfrwt beam="1">  1       21 0.62927181E-02 0.12500413E+03</pdfrwt>
<pdfrwt beam="2">  1       21 0.14693448E-01 0.12500413E+03</pdfrwt>
<totfact> 0.72502673E+06</totfact>
</mgrwt>
</event>
<event>
 5    0  0.1222151E+000  0.1250062E+03  0.7546771E-02  0.1235060E+00
         21   -1    0    0  503  502  0.00000000000E+00  0.00000000000E+00  0.11511208126E+04  0.11511208126E+04  0.00000000000E+00 0.  1.
         21   -1    0    0  502  503 -0.00000000000E+00 -0.00000000000E+00 -0.33937691624E+01  0.33937691624E+01  0.00000000000E+00 0.  1.
         25    2    1    2    0    0  0.00000000000E+00  0.00000000000E+00  0.11477270434E+04  0.11545145817E+04  0.12500621290E+03 0.  0.
          4    1    3    3  501    0  0.24464013846E+02  0.55811292126E+02  0.70145188825E+03  0.70409554915E+03  0.15500000000E+01 0. -1.
         -4    1    3    3    0  501 -0.24464013846E+02 -0.55811292126E+02  0.44627515517E+03  0.45041903259E+03  0.15500000000E+01 0. -1.
<mgrwt>
<rscale>  2 0.12500621E+03</rscale>
<asrwt>0</asrwt>
<pdfrwt beam="1">  1       21 0.17709520E+00 0.12500621E+03</pdfrwt>
<pdfrwt beam="2">  1       21 0.52211925E-03 0.12500621E+03</pdfrwt>
<totfact> 0.20071020E+06</totfact>
</mgrwt>
</event>
<event>
 5    0  0.1539609E+000  0.1250065E+03  0.7546771E-02  0.1235059E+00
         21   -1    0    0  503  502  0.00000000000E+00  0.00000000000E+00  0.19729944012E+02  0.19729944012E+02  0.00000000000E+00 0. -1.
         21   -1    0    0  502  503 -0.00000000000E+00 -0.00000000000E+00 -0.19800655454E+03  0.19800655454E+03  0.00000000000E+00 0. -1.
         25    2    1    2    0    0  0.00000000000E+00  0.00000000000E+00 -0.17827661053E+03  0.21773649855E+03  0.12500653159E+03 0.  0.
          4    1    3    3  501    0 -0.61953114235E+02  0.74381908575E+01 -0.83429902754E+02  0.10419436751E+03  0.15500000000E+01 0.  1.
         -4    1    3    3    0  501  0.61953114235E+02 -0.74381908575E+01 -0.94846707774E+02  0.11354213105E+03  0.15500000000E+01 0.  1.
<mgrwt>
<rscale>  2 0.12500653E+03</rscale>
<asrwt>0</asrwt>
<pdfrwt beam="1">  1       21 0.30353759E-02 0.12500653E+03</pdfrwt>
<pdfrwt beam="2">  1       21 0.30462547E-01 0.12500653E+03</pdfrwt>
<totfact> 0.63044237E+06</totfact>
</mgrwt>
</event>
<event>
 5    0  0.1483291E+000  0.1250054E+03  0.7546771E-02  0.1235061E+00
         21   -1    0    0  503  502  0.00000000000E+00  0.00000000000E+00  0.28721606992E+02  0.28721606992E+02  0.00000000000E+00 0.  1.
         21   -1    0    0  502  503 -0.00000000000E+00 -0.00000000000E+00 -0.13601567048E+03  0.13601567048E+03  0.00000000000E+00 0.  1.
         25    2    1    2    0    0  0.00000000000E+00  0.00000000000E+00 -0.10729406349E+03  0.16473727747E+03  0.12500541800E+03 0.  0.
          4    1    3    3  501    0 -0.13952631202E+02  0.52535859200E+02 -0.13039266064E+02  0.55920634642E+02  0.15500000000E+01 0.  1.
         -4    1    3    3    0  501  0.13952631202E+02 -0.52535859200E+02 -0.94254797424E+02  0.10881664283E+03  0.15500000000E+01 0.  1.
<mgrwt>
<rscale>  2 0.12500542E+03</rscale>
<asrwt>0</asrwt>
<pdfrwt beam="1">  1       21 0.44187088E-02 0.12500542E+03</pdfrwt>
<pdfrwt beam="2">  1       21 0.20925488E-01 0.12500542E+03</pdfrwt>
<totfact> 0.68935743E+06</totfact>
</mgrwt>
</event>
<event>
 5    0  0.1498802E+000  0.1249915E+03  0.7546771E-02  0.1235083E+00
         21   -1    0    0  503  502  0.00000000000E+00  0.00000000000E+00  0.22997325595E+02  0.22997325595E+02  0.00000000000E+00 0. -1.
         21   -1    0    0  502  503 -0.00000000000E+00 -0.00000000000E+00 -0.16983348257E+03  0.16983348257E+03  0.00000000000E+00 0. -1.
         25    2    1    2    0    0  0.00000000000E+00  0.00000000000E+00 -0.14683615697E+03  0.19283080816E+03  0.12499145404E+03 0.  0.
          4    1    3    3  501    0 -0.53557938746E+02  0.22039521180E+02 -0.37266291351E+02  0.68886662480E+02  0.15500000000E+01 0.  1.
         -4    1    3    3    0  501  0.53557938746E+02 -0.22039521180E+02 -0.10956986562E+03  0.12394414568E+03  0.15500000000E+01 0.  1.
<mgrwt>
<rscale>  2 0.12499145E+03</rscale>
<asrwt>0</asrwt>
<pdfrwt beam="1">  1       21 0.35380503E-02 0.12499145E+03</pdfrwt>
<pdfrwt beam="2">  1       21 0.26128227E-01 0.12499145E+03</pdfrwt>
<totfact> 0.65723449E+06</totfact>
</mgrwt>
</event>
<event>
 5    0  0.1222151E+000  0.1249980E+03  0.7546771E-02  0.1235072E+00
         21   -1    0    0  503  502  0.00000000000E+00  0.00000000000E+00  0.12305695863E+04  0.12305695863E+04  0.00000000000E+00 0. -1.
         21   -1    0    0  502  503 -0.00000000000E+00 -0.00000000000E+00 -0.31742432394E+01  0.31742432394E+01  0.00000000000E+00 0. -1.
         25    2    1    2    0    0  0.00000000000E+00  0.00000000000E+00  0.12273953431E+04  0.12337438296E+04  0.12499803502E+03 0.  0.
          4    1    3    3  501    0 -0.52574244143E+02  0.32647070393E+02  0.52888230845E+03  0.53249298685E+03  0.15500000000E+01 0. -1.
         -4    1    3    3    0  501  0.52574244143E+02 -0.32647070393E+02  0.69851303463E+03  0.70125084271E+03  0.15500000000E+01 0. -1.
<mgrwt>
<rscale>  2 0.12499804E+03</rscale>
<asrwt>0</asrwt>
<pdfrwt beam="1">  1       21 0.18931802E+00 0.12499804E+03</pdfrwt>
<pdfrwt beam="2">  1       21 0.48834609E-03 0.12499804E+03</pdfrwt>
<totfact> 0.18484595E+06</totfact>
</mgrwt>
</event>
<event>
 5    0  0.1480779E+000  0.1250011E+03  0.7546771E-02  0.1235068E+00
         21   -1    0    0  503  502  0.00000000000E+00  0.00000000000E+00  0.92746538708E+02  0.92746538708E+02  0.00000000000E+00 0. -1.
         21   -1    0    0  502  503 -0.00000000000E+00 -0.00000000000E+00 -0.42118188609E+02  0.42118188609E+02  0.00000000000E+00 0. -1.
         25    2    1    2    0    0  0.00000000000E+00  0.00000000000E+00  0.50628350099E+02  0.13486472732E+03  0.12500105936E+03 0.  0.
          4    1    3    3  501    0  0.37356204806E+02  0.21233315972E+02 -0.23625650070E+02  0.49060305603E+02  0.15500000000E+01 0. -1.
         -4    1    3    3    0  501 -0.37356204806E+02 -0.21233315972E+02  0.74254000169E+02  0.85804421714E+02  0.15500000000E+01 0. -1.
<mgrwt>
<rscale>  2 0.12500106E+03</rscale>
<asrwt>0</asrwt>
<pdfrwt beam="1">  1       21 0.14268698E-01 0.12500106E+03</pdfrwt>
<pdfrwt beam="2">  1       21 0.64797213E-02 0.12500106E+03</pdfrwt>
<totfact> 0.72712423E+06</totfact>
</mgrwt>
</event>
<event>
 5    0  0.1234176E+000  0.1250246E+03  0.7546771E-02  0.1235031E+00
         21   -1    0    0  503  502  0.00000000000E+00  0.00000000000E+00  0.82534753945E+03  0.82534753945E+03  0.00000000000E+00 0.  1.
         21   -1    0    0  502  503 -0.00000000000E+00 -0.00000000000E+00 -0.47347188769E+01  0.47347188769E+01  0.00000000000E+00 0.  1.
         25    2    1    2    0    0  0.00000000000E+00  0.00000000000E+00  0.82061282057E+03  0.83008225833E+03  0.12502461478E+03 0.  0.
          4    1    3    3  501    0  0.21422207964E+02 -0.58705665510E+02  0.41260556311E+03  0.41731405364E+03  0.15500000000E+01 0. -1.
         -4    1    3    3    0  501 -0.21422207964E+02  0.58705665510E+02  0.40800725746E+03  0.41276820468E+03  0.15500000000E+01 0. -1.
<mgrwt>
<rscale>  2 0.12502461E+03</rscale>
<asrwt>0</asrwt>
<pdfrwt beam="1">  1       21 0.12697643E+00 0.12502461E+03</pdfrwt>
<pdfrwt beam="2">  1       21 0.72841894E-03 0.12502461E+03</pdfrwt>
<totfact> 0.28372808E+06</totfact>
</mgrwt>
</event>
<event>
 5    0  0.1436324E+000  0.1250080E+03  0.7546771E-02  0.1235057E+00
         21   -1    0    0  503  502  0.00000000000E+00  0.00000000000E+00  0.13371184794E+03  0.13371184794E+03  0.00000000000E+00 0.  1.
         21   -1    0    0  502  503 -0.00000000000E+00 -0.00000000000E+00 -0.29217701945E+02  0.29217701945E+02  0.00000000000E+00 0.  1.
         25    2    1    2    0    0  0.00000000000E+00  0.00000000000E+00  0.10449414599E+03  0.16292954988E+03  0.12500804645E+03 0.  0.
          4    1    3    3  501    0  0.36995202698E+02 -0.39472450003E+02  0.11495029517E+02  0.55328632149E+02  0.15500000000E+01 0. -1.
         -4    1    3    3    0  501 -0.36995202698E+02  0.39472450003E+02  0.92999116474E+02  0.10760091773E+03  0.15500000000E+01 0. -1.
<mgrwt>
<rscale>  2 0.12500805E+03</rscale>
<asrwt>0</asrwt>
<pdfrwt beam="1">  1       21 0.20571053E-01 0.12500805E+03</pdfrwt>
<pdfrwt beam="2">  1       21 0.44950311E-02 0.12500805E+03</pdfrwt>
<totfact> 0.69149154E+06</totfact>
</mgrwt>
</event>
<event>
 5    0  0.1422245E+000  0.1249973E+03  0.7546771E-02  0.1235074E+00
         21   -1    0    0  503  502  0.00000000000E+00  0.00000000000E+00  0.44713622493E+03  0.44713622493E+03  0.00000000000E+00 0. -1.
         21   -1    0    0  502  503 -0.00000000000E+00 -0.00000000000E+00 -0.87357722872E+01  0.87357722872E+01  0.00000000000E+00 0. -1.
         25    2    1    2    0    0  0.00000000000E+00  0.00000000000E+00  0.43840045264E+03  0.45587199722E+03  0.12499728385E+03 0.  0.
          4    1    3    3  501    0 -0.21980409671E+02 -0.41941736617E+02  0.70543908273E+02  0.84977015564E+02  0.15500000000E+01 0.  1.
         -4    1    3    3    0  501  0.21980409671E+02  0.41941736617E+02  0.36785654437E+03  0.37089498166E+03  0.15500000000E+01 0.  1.
<mgrwt>
<rscale>  2 0.12499728E+03</rscale>
<asrwt>0</asrwt>
<pdfrwt beam="1">  1       21 0.68790170E-01 0.12499728E+03</pdfrwt>
<pdfrwt beam="2">  1       21 0.13439653E-02 0.12499728E+03</pdfrwt>
<totfact> 0.44545997E+06</totfact>
</mgrwt>
</event>
<event>
 4    0  0.1423708E+000  0.1251614E+03  0.7546771E-02  0.1234817E+00
         21   -1    0    0  503  502  0.00000000000E+00  0.00000000000E+00  0.12264363819E+02  0.12264363819E+02  0.00000000000E+00 0.  1.
         21   -1    0    0  502  503 -0.00000000000E+00 -0.00000000000E+00 -0.31932734485E+03  0.31932734485E+03  0.00000000000E+00 0.  1.
          4    1    1    2  501    0  0.55475062616E+02 -0.26633654088E+02 -0.18340066259E+03  0.19345552368E+03  0.15500000000E+01 0.  1.
         -4    1    1    2    0  501 -0.55475062616E+02  0.26633654088E+02 -0.12366231844E+03  0.13813618499E+03  0.15500000000E+01 0.  1.
<mgrwt>
<rscale>  2 0.12516144E+03</rscale>
<asrwt>0</asrwt>
<pdfrwt beam="1">  1       21 0.18868255E-02 0.12516144E+03</pdfrwt>
<pdfrwt beam="2">  1       21 0.49127277E-01 0.12516144E+03</pdfrwt>
<totfact> 0.52713666E+06</totfact>
</mgrwt>
</event>
<event>
 5    0  0.1222151E+000  0.1250031E+03  0.7546771E-02  0.1235064E+00
         21   -1    0    0  503  502  0.00000000000E+00  0.00000000000E+00  0.32262540858E+01  0.32262540858E+01  0.00000000000E+00 0. -1.
         21   -1    0    0  502  503 -0.00000000000E+00 -0.00000000000E+00 -0.12108299400E+04  0.12108299400E+04  0.00000000000E+00 0. -1.
         25    2    1    2    0    0  0.00000000000E+00  0.00000000000E+00 -0.12076036859E+04  0.12140561941E+04  0.12500312062E+03 0.  0.
          4    1    3    3  501    0 -0.57973519773E+02 -0.83086708405E+00 -0.82999895968E+03  0.83202301345E+03  0.15500000000E+01 0. -1.
         -4    1    3    3    0  501  0.57973519773E+02  0.83086708405E+00 -0.37760472624E+03  0.38203318065E+03  0.15500000000E+01 0. -1.
<mgrwt>
<rscale>  2 0.12500312E+03</rscale>
<asrwt>0</asrwt>
<pdfrwt beam="1">  1       21 0.49634675E-03 0.12500312E+03</pdfrwt>
<pdfrwt beam="2">  1       21 0.18628154E+00 0.12500312E+03</pdfrwt>
<totfact> 0.18864028E+06</totfact>
</mgrwt>
</event>
<event>
 5    0  0.1222151E+000  0.1249990E+03  0.7546771E-02  0.1235071E+00
         21   -1    0    0  503  502  0.00000000000E+00  0.00000000000E+00  0.12623899226E+04  0.12623899226E+04  0.00000000000E+00 0. -1.
         21   -1    0    0  502  503 -0.00000000000E+00 -0.00000000000E+00 -0.30942795737E+01  0.30942795737E+01  0.00000000000E+00 0. -1.
         25    2    1    2    0    0  0.00000000000E+00  0.00000000000E+00  0.12592956431E+04  0.12654842022E+04  0.12499899762E+03 0.  0.
          4    1    3    3  501    0 -0.64852595626E+01  0.24047313070E+02  0.12097648307E+04  0.12100221816E+04  0.15500000000E+01 0. -1.
         -4    1    3    3    0  501  0.64852595626E+01 -0.24047313070E+02  0.49530812385E+02  0.55462020636E+02  0.15500000000E+01 0. -1.
<mgrwt>
<rscale>  2 0.12499900E+03</rscale>
<asrwt>0</asrwt>
<pdfrwt beam="1">  1       21 0.19421342E+00 0.12499900E+03</pdfrwt>
<pdfrwt beam="2">  1       21 0.47604402E-03 0.12499900E+03</pdfrwt>
<totfact> 0.17884177E+06</totfact>
</mgrwt>
</event>
<event>
 5    0  0.1265551E+000  0.1250019E+03  0.7546771E-02  0.1235066E+00
         21   -1    0    0  503  502  0.00000000000E+00  0.00000000000E+00  0.98455765352E+01  0.98455765352E+01  0.00000000000E+00 0. -1.
         21   -1    0    0  502  503 -0.00000000000E+00 -0.00000000000E+00 -0.39676411463E+03  0.39676411463E+03  0.00000000000E+00 0. -1.
         25    2    1    2    0    0  0.00000000000E+00  0.00000000000E+00 -0.38691853809E+03  0.40660969116E+03  0.12500194330E+03 0.  0.
          4    1    3    3  501    0 -0.19753661392E+02  0.43965299166E+02 -0.32278989723E+03  0.32637229497E+03  0.15500000000E+01 0. -1.
         -4    1    3    3    0  501  0.19753661392E+02 -0.43965299166E+02 -0.64128640860E+02  0.80237396192E+02  0.15500000000E+01 0. -1.
<mgrwt>
<rscale>  2 0.12500194E+03</rscale>
<asrwt>0</asrwt>
<pdfrwt beam="1">  1       21 0.15147042E-02 0.12500194E+03</pdfrwt>
<pdfrwt beam="2">  1       21 0.61040628E-01 0.12500194E+03</pdfrwt>
<totfact> 0.47603696E+06</totfact>
</mgrwt>
</event>
<event>
 5    0  0.1442789E+000  0.1250046E+03  0.7546771E-02  0.1235062E+00
         21   -1    0    0  503  502  0.00000000000E+00  0.00000000000E+00  0.10825994744E+03  0.10825994744E+03  0.00000000000E+00 0. -1.
         21   -1    0    0  502  503 -0.00000000000E+00 -0.00000000000E+00 -0.36084762640E+02  0.36084762640E+02  0.00000000000E+00 0. -1.
         25    2    1    2    0    0  0.00000000000E+00  0.00000000000E+00  0.72175184804E+02  0.14434471008E+03  0.12500455203E+03 0.  0.
          4    1    3    3  501    0  0.25564230956E+02 -0.18375115877E+02 -0.26234510303E+02  0.41010081915E+02  0.15500000000E+01 0. -1.
         -4    1    3    3    0  501 -0.25564230956E+02  0.18375115877E+02  0.98409695107E+02  0.10333462817E+03  0.15500000000E+01 0. -1.
<mgrwt>
<rscale>  2 0.12500455E+03</rscale>
<asrwt>0</asrwt>
<pdfrwt beam="1">  1       21 0.16655376E-01 0.12500455E+03</pdfrwt>
<pdfrwt beam="2">  1       21 0.55515020E-02 0.12500455E+03</pdfrwt>
<totfact> 0.71468779E+06</totfact>
</mgrwt>
</event>
<event>
 5    0  0.1326627E+000  0.1250036E+03  0.7546771E-02  0.1235064E+00
         21   -1    0    0  503  502  0.00000000000E+00  0.00000000000E+00  0.34300594937E+03  0.34300594937E+03  0.00000000000E+00 0.  1.
         21   -1    0    0  502  503 -0.00000000000E+00 -0.00000000000E+00 -0.11388937622E+02  0.11388937622E+02  0.00000000000E+00 0.  1.
         25    2    1    2    0    0  0.00000000000E+00  0.00000000000E+00  0.33161701175E+03  0.35439488700E+03  0.12500357373E+03 0.  0.
          4    1    3    3  501    0  0.14794301680E+02  0.49053203778E+02  0.26719902648E+03  0.27207133333E+03  0.15500000000E+01 0. -1.
         -4    1    3    3    0  501 -0.14794301680E+02 -0.49053203778E+02  0.64417985267E+02  0.82323553670E+02  0.15500000000E+01 0. -1.
<mgrwt>
<rscale>  2 0.12500357E+03</rscale>
<asrwt>0</asrwt>
<pdfrwt beam="1">  1       21 0.52770138E-01 0.12500357E+03</pdfrwt>
<pdfrwt beam="2">  1       21 0.17521445E-02 0.12500357E+03</pdfrwt>
<totfact> 0.51210906E+06</totfact>
</mgrwt>
</event>
<event>
 5    0  0.1543395E+000  0.1249956E+03  0.7546771E-02  0.1235076E+00
         21   -1    0    0  503  502  0.00000000000E+00  0.00000000000E+00  0.66058759344E+02  0.66058759344E+02  0.00000000000E+00 0.  1.
         21   -1    0    0  502  503 -0.00000000000E+00 -0.00000000000E+00 -0.59128763286E+02  0.59128763286E+02  0.00000000000E+00 0.  1.
         25    2    1    2    0    0  0.00000000000E+00  0.00000000000E+00  0.69299960577E+01  0.12518752263E+03  0.12499556383E+03 0.  0.
          4    1    3    3  501    0  0.13810803625E+02  0.57223230762E+02  0.24433573629E+02  0.63754517141E+02  0.15500000000E+01 0.  1.
         -4    1    3    3    0  501 -0.13810803625E+02 -0.57223230762E+02 -0.17503577571E+02  0.61433005489E+02  0.15500000000E+01 0.  1.
<mgrwt>
<rscale>  2 0.12499556E+03</rscale>
<asrwt>0</asrwt>
<pdfrwt beam="1">  1       21 0.10162886E-01 0.12499556E+03</pdfrwt>
<pdfrwt beam="2">  1       21 0.90967328E-02 0.12499556E+03</pdfrwt>
<totfact> 0.74026652E+06</totfact>
</mgrwt>
</event>
<event>
 5    0  0.1473762E+000  0.1249916E+03  0.7546771E-02  0.1235082E+00
         21   -1    0    0  503  502  0.00000000000E+00  0.00000000000E+00  0.17348188864E+03  0.17348188864E+03  0.00000000000E+00 0. -1.
         21   -1    0    0  502  503 -0.00000000000E+00 -0.00000000000E+00 -0.22513751242E+02  0.22513751242E+02  0.00000000000E+00 0. -1.
         25    2    1    2    0    0  0.00000000000E+00  0.00000000000E+00  0.15096813740E+03  0.19599563989E+03  0.12499164910E+03 0.  0.
          4    1    3    3  501    0  0.49238745451E+02 -0.26299369178E+02  0.11947994916E+03  0.13188620711E+03  0.15500000000E+01 0. -1.
         -4    1    3    3    0  501 -0.49238745451E+02  0.26299369178E+02  0.31488188240E+02  0.64109432781E+02  0.15500000000E+01 0. -1.
<mgrwt>
<rscale>  2 0.12499165E+03</rscale>
<asrwt>0</asrwt>
<pdfrwt beam="1">  1       21 0.26689520E-01 0.12499165E+03</pdfrwt>
<pdfrwt beam="2">  1       21 0.34636542E-02 0.12499165E+03</pdfrwt>
<totfact> 0.65376044E+06</totfact>
</mgrwt>
</event>
<event>
 5    0  0.1222151E+000  0.1249998E+03  0.7546771E-02  0.1235070E+00
         21   -1    0    0  503  502  0.00000000000E+00  0.00000000000E+00  0.87683227823E+03  0.87683227823E+03  0.00000000000E+00 0. -1.
         21   -1    0    0  502  503 -0.00000000000E+00 -0.00000000000E+00 -0.44549443722E+01  0.44549443722E+01  0.00000000000E+00 0. -1.
         25    2    1    2    0    0  0.00000000000E+00  0.00000000000E+00  0.87237733386E+03  0.88128722260E+03  0.12499982437E+03 0.  0.
          4    1    3    3  501    0  0.39623149698E+02  0.40744669386E+02  0.25319081109E+03  0.25949587934E+03  0.15500000000E+01 0. -1.
         -4    1    3    3    0  501 -0.39623149698E+02 -0.40744669386E+02  0.61918652277E+03  0.62179134326E+03  0.15500000000E+01 0. -1.
<mgrwt>
<rscale>  2 0.12499982E+03</rscale>
<asrwt>0</asrwt>
<pdfrwt beam="1">  1       21 0.13489714E+00 0.12499982E+03</pdfrwt>
<pdfrwt beam="2">  1       21 0.68537675E-03 0.12499982E+03</pdfrwt>
<totfact> 0.26839252E+06</totfact>
</mgrwt>
</event>
<event>
 5    0  0.1380287E+000  0.1249954E+03  0.7546771E-02  0.1235076E+00
         21   -1    0    0  503  502  0.00000000000E+00  0.00000000000E+00  0.30153012780E+03  0.30153012780E+03  0.00000000000E+00 0.  1.
         21   -1    0    0  502  503 -0.00000000000E+00 -0.00000000000E+00 -0.12953811777E+02  0.12953811777E+02  0.00000000000E+00 0.  1.
         25    2    1    2    0    0  0.00000000000E+00  0.00000000000E+00  0.28857631602E+03  0.31448393957E+03  0.12499543224E+03 0.  0.
          4    1    3    3  501    0  0.26528322318E+02 -0.17059252547E+02  0.85941517122E+01  0.32726624117E+02  0.15500000000E+01 0.  1.
         -4    1    3    3    0  501 -0.26528322318E+02  0.17059252547E+02  0.27998216431E+03  0.28175731545E+03  0.15500000000E+01 0.  1.
<mgrwt>
<rscale>  2 0.12499543E+03</rscale>
<asrwt>0</asrwt>
<pdfrwt beam="1">  1       21 0.46389245E-01 0.12499543E+03</pdfrwt>
<pdfrwt beam="2">  1       21 0.19928943E-02 0.12499543E+03</pdfrwt>
<totfact> 0.54279602E+06</totfact>
</mgrwt>
</event>
<event>
 5    0  0.1371397E+000  0.1249940E+03  0.7546771E-02  0.1235079E+00
         21   -1    0    0  503  502  0.00000000000E+00  0.00000000000E+00  0.30856677892E+03  0.30856677892E+03  0.00000000000E+00 0. -1.
         21   -1    0    0  502  503 -0.00000000000E+00 -0.00000000000E+00 -0.12658111385E+02  0.12658111385E+02  0.00000000000E+00 0. -1.
         25    2    1    2    0    0  0.00000000000E+00  0.00000000000E+00  0.29590866754E+03  0.32122489031E+03  0.12499396237E+03 0.  0.
          4    1    3    3  501    0 -0.27059395550E+02 -0.43152977502E+02  0.54971406377E+02  0.74957643865E+02  0.15500000000E+01 0. -1.
         -4    1    3    3    0  501  0.27059395550E+02  0.43152977502E+02  0.24093726116E+03  0.24626724644E+03  0.15500000000E+01 0. -1.
<mgrwt>
<rscale>  2 0.12499396E+03</rscale>
<asrwt>0</asrwt>
<pdfrwt beam="1">  1       21 0.47471806E-01 0.12499396E+03</pdfrwt>
<pdfrwt beam="2">  1       21 0.19474020E-02 0.12499396E+03</pdfrwt>
<totfact> 0.53744562E+06</totfact>
</mgrwt>
</event>
<event>
 5    0  0.1552055E+000  0.1249896E+03  0.7546771E-02  0.1235085E+00
         21   -1    0    0  503  502  0.00000000000E+00  0.00000000000E+00  0.10229644012E+03  0.10229644012E+03  0.00000000000E+00 0. -1.
         21   -1    0    0  502  503 -0.00000000000E+00 -0.00000000000E+00 -0.38179258763E+02  0.38179258763E+02  0.00000000000E+00 0. -1.
         25    2    1    2    0    0  0.00000000000E+00  0.00000000000E+00  0.64117181359E+02  0.14047569888E+03  0.12498963570E+03 0.  0.
          4    1    3    3  501    0  0.11357688594E+02 -0.46540162552E+02 -0.13012636190E+02  0.49666034885E+02  0.15500000000E+01 0.  1.
         -4    1    3    3    0  501 -0.11357688594E+02  0.46540162552E+02  0.77129817550E+02  0.90809664000E+02  0.15500000000E+01 0.  1.
<mgrwt>
<rscale>  2 0.12498964E+03</rscale>
<asrwt>0</asrwt>
<pdfrwt beam="1">  1       21 0.15737914E-01 0.12498964E+03</pdfrwt>
<pdfrwt beam="2">  1       21 0.58737322E-02 0.12498964E+03</pdfrwt>
<totfact> 0.71996276E+06</totfact>
</mgrwt>
</event>
<event>
 5    0  0.1460959E+000  0.1249992E+03  0.7546771E-02  0.1235071E+00
         21   -1    0    0  503  502  0.00000000000E+00  0.00000000000E+00  0.26836740302E+03  0.26836740302E+03  0.00000000000E+00 0.  1.
         21   -1    0    0  502  503 -0.00000000000E+00 -0.00000000000E+00 -0.14555408749E+02  0.14555408749E+02  0.00000000000E+00 0.  1.
         25    2    1    2    0    0  0.00000000000E+00  0.00000000000E+00  0.25381199428E+03  0.28292281177E+03  0.12499915593E+03 0.  0.
          4    1    3    3  501    0  0.53570786740E+02 -0.22589660200E+02  0.75110632347E+02  0.94995429003E+02  0.15500000000E+01 0.  1.
         -4    1    3    3    0  501 -0.53570786740E+02  0.22589660200E+02  0.17870136193E+03  0.18792738277E+03  0.15500000000E+01 0.  1.
<mgrwt>
<rscale>  2 0.12499916E+03</rscale>
<asrwt>0</asrwt>
<pdfrwt beam="1">  1       21 0.41287289E-01 0.12499916E+03</pdfrwt>
<pdfrwt beam="2">  1       21 0.22392938E-02 0.12499916E+03</pdfrwt>
<totfact> 0.56907112E+06</totfact>
</mgrwt>
</event>
<event>
 5    0  0.1508012E+000  0.1249962E+03  0.7546771E-02  0.1235075E+00
         21   -1    0    0  503  502  0.00000000000E+00  0.00000000000E+00  0.56200598596E+02  0.56200598596E+02  0.00000000000E+00 0. -1.
         21   -1    0    0  502  503 -0.00000000000E+00 -0.00000000000E+00 -0.69501312154E+02  0.69501312154E+02  0.00000000000E+00 0. -1.
         25    2    1    2    0    0  0.00000000000E+00  0.00000000000E+00 -0.13300713558E+02  0.12570191075E+03  0.12499624548E+03 0.  0.
          4    1    3    3  501    0  0.13157896928E+02  0.38678546872E+02  0.40886502492E+02  0.57821006786E+02  0.15500000000E+01 0. -1.
         -4    1    3    3    0  501 -0.13157896928E+02 -0.38678546872E+02 -0.54187216050E+02  0.67880903964E+02  0.15500000000E+01 0. -1.
<mgrwt>
<rscale>  2 0.12499625E+03</rscale>
<asrwt>0</asrwt>
<pdfrwt beam="1">  1       21 0.86462460E-02 0.12499625E+03</pdfrwt>
<pdfrwt beam="2">  1       21 0.10692509E-01 0.12499625E+03</pdfrwt>
<totfact> 0.73954353E+06</totfact>
</mgrwt>
</event>
<event>
 5    0  0.1395881E+000  0.1250024E+03  0.7546771E-02  0.1235066E+00
         21   -1    0    0  503  502  0.00000000000E+00  0.00000000000E+00  0.45228506144E+03  0.45228506144E+03  0.00000000000E+00 0. -1.
         21   -1    0    0  502  503 -0.00000000000E+00 -0.00000000000E+00 -0.86370252768E+01  0.86370252768E+01  0.00000000000E+00 0. -1.
         25    2    1    2    0    0  0.00000000000E+00  0.00000000000E+00  0.44364803617E+03  0.46092208672E+03  0.12500236011E+03 0.  0.
          4    1    3    3  501    0 -0.52349073379E+01 -0.35700600900E+02  0.40991491628E+03  0.41150282897E+03  0.15500000000E+01 0.  1.
         -4    1    3    3    0  501  0.52349073379E+01  0.35700600900E+02  0.33733119883E+02  0.49419257749E+02  0.15500000000E+01 0.  1.
<mgrwt>
<rscale>  2 0.12500236E+03</rscale>
<asrwt>0</asrwt>
<pdfrwt beam="1">  1       21 0.69582299E-01 0.12500236E+03</pdfrwt>
<pdfrwt beam="2">  1       21 0.13287735E-02 0.12500236E+03</pdfrwt>
<totfact> 0.44243251E+06</totfact>
</mgrwt>
</event>
<event>
 5    0  0.1222151E+000  0.1250114E+03  0.7546771E-02  0.1235052E+00
         21   -1    0    0  503  502  0.00000000000E+00  0.00000000000E+00  0.26591522131E+01  0.26591522131E+01  0.00000000000E+00 0.  1.
         21   -1    0    0  502  503 -0.00000000000E+00 -0.00000000000E+00 -0.14692504705E+04  0.14692504705E+04  0.00000000000E+00 0.  1.
         25    2    1    2    0    0  0.00000000000E+00  0.00000000000E+00 -0.14665913183E+04  0.14719096227E+04  0.12501136973E+03 0.  0.
          4    1    3    3  501    0  0.51131281800E+02  0.13036073178E+02 -0.33921825009E+03  0.34330128296E+03  0.15500000000E+01 0.  1.
         -4    1    3    3    0  501 -0.51131281800E+02 -0.13036073178E+02 -0.11273730682E+04  0.11286083397E+04  0.15500000000E+01 0.  1.
<mgrwt>
<rscale>  2 0.12501137E+03</rscale>
<asrwt>0</asrwt>
<pdfrwt beam="1">  1       21 0.40909968E-03 0.12501137E+03</pdfrwt>
<pdfrwt beam="2">  1       21 0.22603890E+00 0.12501137E+03</pdfrwt>
<totfact> 0.14410495E+06</totfact>
</mgrwt>
</event>
<event>
 5    0  0.1462395E+000  0.1249967E+03  0.7546771E-02  0.1235074E+00
         21   -1    0    0  503  502  0.00000000000E+00  0.00000000000E+00  0.26051063009E+02  0.26051063009E+02  0.00000000000E+00 0. -1.
         21   -1    0    0  502  503 -0.00000000000E+00 -0.00000000000E+00 -0.14993789271E+03  0.14993789271E+03  0.00000000000E+00 0. -1.
         25    2    1    2    0    0  0.00000000000E+00  0.00000000000E+00 -0.12388682971E+03  0.17598895572E+03  0.12499666380E+03 0.  0.
          4    1    3    3  501    0  0.46401462703E+02 -0.20367008917E+01 -0.12078146127E+03  0.12941332148E+03  0.15500000000E+01 0.  1.
         -4    1    3    3    0  501 -0.46401462703E+02  0.20367008917E+01 -0.31053684360E+01  0.46575634237E+02  0.15500000000E+01 0.  1.
<mgrwt>
<rscale>  2 0.12499666E+03</rscale>
<asrwt>0</asrwt>
<pdfrwt beam="1">  1       21 0.40078557E-02 0.12499666E+03</pdfrwt>
<pdfrwt beam="2">  1       21 0.23067369E-01 0.12499666E+03</pdfrwt>
<totfact> 0.67620400E+06</totfact>
</mgrwt>
</event>
<event>
 5    0  0.1522374E+000  0.1250025E+03  0.7546771E-02  0.1235065E+00
         21   -1    0    0  503  502  0.00000000000E+00  0.00000000000E+00  0.34457376804E+02  0.34457376804E+02  0.00000000000E+00 0.  1.
         21   -1    0    0  502  503 -0.00000000000E+00 -0.00000000000E+00 -0.11336919899E+03  0.11336919899E+03  0.00000000000E+00 0.  1.
         25    2    1    2    0    0  0.00000000000E+00  0.00000000000E+00 -0.78911822182E+02  0.14782657579E+03  0.12500248329E+03 0.  0.
          4    1    3    3  501    0 -0.34402961741E+02 -0.39594970920E+02 -0.79606112617E+02  0.95346007597E+02  0.15500000000E+01 0.  1.
         -4    1    3    3    0  501  0.34402961741E+02  0.39594970920E+02  0.69429043474E+00  0.52480568193E+02  0.15500000000E+01 0.  1.
<mgrwt>
<rscale>  2 0.12500248E+03</rscale>
<asrwt>0</asrwt>
<pdfrwt beam="1">  1       21 0.53011350E-02 0.12500248E+03</pdfrwt>
<pdfrwt beam="2">  1       21 0.17441415E-01 0.12500248E+03</pdfrwt>
<totfact> 0.71028811E+06</totfact>
</mgrwt>
</event>
<event>
 5    0  0.1550536E+000  0.1249989E+03  0.7546771E-02  0.1235071E+00
         21   -1    0    0  503  502  0.00000000000E+00  0.00000000000E+00  0.22374762606E+02  0.22374762606E+02  0.00000000000E+00 0. -1.
         21   -1    0    0  502  503 -0.00000000000E+00 -0.00000000000E+00 -0.17457978863E+03  0.17457978863E+03  0.00000000000E+00 0. -1.
         25    2    1    2    0    0  0.00000000000E+00  0.00000000000E+00 -0.15220502602E+03  0.19695455123E+03  0.12499890122E+03 0.  0.
          4    1    3    3  501    0  0.26958759803E+02  0.53423332398E+02 -0.47786729679E+02  0.76595046890E+02  0.15500000000E+01 0.  1.
         -4    1    3    3    0  501 -0.26958759803E+02 -0.53423332398E+02 -0.10441829634E+03  0.12035950434E+03  0.15500000000E+01 0.  1.
<mgrwt>
<rscale>  2 0.12499890E+03</rscale>
<asrwt>0</asrwt>
<pdfrwt beam="1">  1       21 0.34422712E-02 0.12499890E+03</pdfrwt>
<pdfrwt beam="2">  1       21 0.26858429E-01 0.12499890E+03</pdfrwt>
<totfact> 0.65259552E+06</totfact>
</mgrwt>
</event>
<event>
 5    0  0.1494192E+000  0.1250028E+03  0.7546771E-02  0.1235065E+00
         21   -1    0    0  503  502  0.00000000000E+00  0.00000000000E+00  0.11031868629E+03  0.11031868629E+03  0.00000000000E+00 0.  1.
         21   -1    0    0  502  503 -0.00000000000E+00 -0.00000000000E+00 -0.35410356154E+02  0.35410356154E+02  0.00000000000E+00 0.  1.
         25    2    1    2    0    0  0.00000000000E+00  0.00000000000E+00  0.74908330139E+02  0.14572904245E+03  0.12500278352E+03 0.  0.
          4    1    3    3  501    0  0.14424382084E+02  0.38490315694E+02  0.92314668127E+02  0.10106417591E+03  0.15500000000E+01 0.  1.
         -4    1    3    3    0  501 -0.14424382084E+02 -0.38490315694E+02 -0.17406337988E+02  0.44664866539E+02  0.15500000000E+01 0.  1.
<mgrwt>
<rscale>  2 0.12500278E+03</rscale>
<asrwt>0</asrwt>
<pdfrwt beam="1">  1       21 0.16972105E-01 0.12500278E+03</pdfrwt>
<pdfrwt beam="2">  1       21 0.54477472E-02 0.12500278E+03</pdfrwt>
<totfact> 0.71294876E+06</totfact>
</mgrwt>
</event>
<event>
 5    0  0.1397487E+000  0.1249963E+03  0.7546771E-02  0.1235075E+00
         21   -1    0    0  503  502  0.00000000000E+00  0.00000000000E+00  0.12060171157E+02  0.12060171157E+02  0.00000000000E+00 0.  1.
         21   -1    0    0  502  503 -0.00000000000E+00 -0.00000000000E+00 -0.32387776058E+03  0.32387776058E+03  0.00000000000E+00 0.  1.
         25    2    1    2    0    0  0.00000000000E+00  0.00000000000E+00 -0.31181758942E+03  0.33593793174E+03  0.12499633957E+03 0.  0.
          4    1    3    3  501    0  0.56434056858E+02 -0.68129130092E+01 -0.22559962777E+03  0.23265599735E+03  0.15500000000E+01 0. -1.
         -4    1    3    3    0  501 -0.56434056858E+02  0.68129130092E+01 -0.86217961657E+02  0.10328193438E+03  0.15500000000E+01 0. -1.
<mgrwt>
<rscale>  2 0.12499634E+03</rscale>
<asrwt>0</asrwt>
<pdfrwt beam="1">  1       21 0.18554107E-02 0.12499634E+03</pdfrwt>
<pdfrwt beam="2">  1       21 0.49827354E-01 0.12499634E+03</pdfrwt>
<totfact> 0.52598849E+06</totfact>
</mgrwt>
</event>
<event>
 5    0  0.1583751E+000  0.1249977E+03  0.7546771E-02  0.1235073E+00
         21   -1    0    0  503  502  0.00000000000E+00  0.00000000000E+00  0.32709046586E+02  0.32709046586E+02  0.00000000000E+00 0.  1.
         21   -1    0    0  502  503 -0.00000000000E+00 -0.00000000000E+00 -0.11941971470E+03  0.11941971470E+03  0.00000000000E+00 0.  1.
         25    2    1    2    0    0  0.00000000000E+00  0.00000000000E+00 -0.86710668110E+02  0.15212876128E+03  0.12499768016E+03 0.  0.
          4    1    3    3  501    0  0.16802865409E+02  0.60128811475E+02 -0.40401064102E+02  0.74380499702E+02  0.15500000000E+01 0. -1.
         -4    1    3    3    0  501 -0.16802865409E+02 -0.60128811475E+02 -0.46309604008E+02  0.77748261581E+02  0.15500000000E+01 0. -1.
<mgrwt>
<rscale>  2 0.12499768E+03</rscale>
<asrwt>0</asrwt>
<pdfrwt beam="1">  1       21 0.50321610E-02 0.12499768E+03</pdfrwt>
<pdfrwt beam="2">  1       21 0.18372264E-01 0.12499768E+03</pdfrwt>
<totfact> 0.70496965E+06</totfact>
</mgrwt>
</event>
<event>
 5    0  0.1528975E+000  0.1250016E+03  0.7546771E-02  0.1235067E+00
         21   -1    0    0  503  502  0.00000000000E+00  0.00000000000E+00  0.23873973512E+02  0.23873973512E+02  0.00000000000E+00 0. -1.
         21   -1    0    0  502  503 -0.00000000000E+00 -0.00000000000E+00 -0.16362388541E+03  0.16362388541E+03  0.00000000000E+00 0. -1.
         25    2    1    2    0    0  0.00000000000E+00  0.00000000000E+00 -0.13974991190E+03  0.18749785892E+03  0.12500163689E+03 0.  0.
          4    1    3    3  501    0  0.59851359671E+01  0.57212705053E+02 -0.10645789781E+03  0.12101570964E+03  0.15500000000E+01 0.  1.
         -4    1    3    3    0  501 -0.59851359671E+01 -0.57212705053E+02 -0.33292014086E+02  0.66482149287E+02  0.15500000000E+01 0.  1.
<mgrwt>
<rscale>  2 0.12500164E+03</rscale>
<asrwt>0</asrwt>
<pdfrwt beam="1">  1       21 0.36729191E-02 0.12500164E+03</pdfrwt>
<pdfrwt beam="2">  1       21 0.25172905E-01 0.12500164E+03</pdfrwt>
<totfact> 0.66298889E+06</totfact>
</mgrwt>
</event>
<event>
 5    0  0.1479152E+000  0.1250108E+03  0.7546771E-02  0.1235052E+00
         21   -1    0    0  503  502  0.00000000000E+00  0.00000000000E+00  0.16638676212E+02  0.16638676212E+02  0.00000000000E+00 0.  1.
         21   -1    0    0  502  503 -0.00000000000E+00 -0.00000000000E+00 -0.23480985403E+03  0.23480985403E+03  0.00000000000E+00 0.  1.
         25    2    1    2    0    0  0.00000000000E+00  0.00000000000E+00 -0.21817117782E+03  0.25144853025E+03  0.12501080166E+03 0.  0.
          4    1    3    3  501    0  0.45930195075E+02  0.40120434996E+02 -0.13646525505E+03  0.14948043504E+03  0.15500000000E+01 0. -1.
         -4    1    3    3    0  501 -0.45930195075E+02 -0.40120434996E+02 -0.81705922775E+02  0.10196809521E+03  0.15500000000E+01 0. -1.
<mgrwt>
<rscale>  2 0.12501080E+03</rscale>
<asrwt>0</asrwt>
<pdfrwt beam="1">  1       21 0.25597964E-02 0.12501080E+03</pdfrwt>
<pdfrwt beam="2">  1       21 0.36124592E-01 0.12501080E+03</pdfrwt>
<totfact> 0.59725817E+06</totfact>
</mgrwt>
</event>
<event>
 5    0  0.1467998E+000  0.1250002E+03  0.7546771E-02  0.1235069E+00
         21   -1    0    0  503  502  0.00000000000E+00  0.00000000000E+00  0.20496062071E+02  0.20496062071E+02  0.00000000000E+00 0. -1.
         21   -1    0    0  502  503 -0.00000000000E+00 -0.00000000000E+00 -0.19058591040E+03  0.19058591040E+03  0.00000000000E+00 0. -1.
         25    2    1    2    0    0  0.00000000000E+00  0.00000000000E+00 -0.17008984833E+03  0.21108197247E+03  0.12500017039E+03 0.  0.
          4    1    3    3  501    0  0.56354148717E+02 -0.27033611821E+01 -0.39709691385E+02  0.69009856754E+02  0.15500000000E+01 0.  1.
         -4    1    3    3    0  501 -0.56354148717E+02  0.27033611821E+01 -0.13038015694E+03  0.14207211572E+03  0.15500000000E+01 0.  1.
<mgrwt>
<rscale>  2 0.12500017E+03</rscale>
<asrwt>0</asrwt>
<pdfrwt beam="1">  1       21 0.31532404E-02 0.12500017E+03</pdfrwt>
<pdfrwt beam="2">  1       21 0.29320909E-01 0.12500017E+03</pdfrwt>
<totfact> 0.63745605E+06</totfact>
</mgrwt>
</event>
<event>
 5    0  0.1222151E+000  0.1250053E+03  0.7546771E-02  0.1235061E+00
         21   -1    0    0  503  502  0.00000000000E+00  0.00000000000E+00  0.70718446022E+01  0.70718446022E+01  0.00000000000E+00 0.  1.
         21   -1    0    0  502  503 -0.00000000000E+00 -0.00000000000E+00 -0.55241365971E+03  0.55241365971E+03  0.00000000000E+00 0.  1.
         25    2    1    2    0    0  0.00000000000E+00  0.00000000000E+00 -0.54534181510E+03  0.55948550431E+03  0.12500533681E+03 0.  0.
          4    1    3    3  501    0  0.33254468349E+02 -0.32668434689E+02 -0.86453315689E+02  0.98232706284E+02  0.15500000000E+01 0.  1.
         -4    1    3    3    0  501 -0.33254468349E+02  0.32668434689E+02 -0.45888849942E+03  0.46125279803E+03  0.15500000000E+01 0.  1.
<mgrwt>
<rscale>  2 0.12500534E+03</rscale>
<asrwt>0</asrwt>
<pdfrwt beam="1">  1       21 0.10879757E-02 0.12500534E+03</pdfrwt>
<pdfrwt beam="2">  1       21 0.84986750E-01 0.12500534E+03</pdfrwt>
<totfact> 0.38986202E+06</totfact>
</mgrwt>
</event>
<event>
 5    0  0.1222151E+000  0.1250013E+03  0.7546771E-02  0.1235067E+00
         21   -1    0    0  503  502  0.00000000000E+00  0.00000000000E+00  0.38783166584E+01  0.38783166584E+01  0.00000000000E+00 0. -1.
         21   -1    0    0  502  503 -0.00000000000E+00 -0.00000000000E+00 -0.10072227537E+04  0.10072227537E+04  0.00000000000E+00 0. -1.
         25    2    1    2    0    0  0.00000000000E+00  0.00000000000E+00 -0.10033444370E+04  0.10111010703E+04  0.12500126054E+03 0.  0.
          4    1    3    3  501    0 -0.26900493392E+02 -0.50112820339E+02 -0.71088663435E+03  0.71315996853E+03  0.15500000000E+01 0. -1.
         -4    1    3    3    0  501  0.26900493392E+02  0.50112820339E+02 -0.29245780266E+03  0.29794110181E+03  0.15500000000E+01 0. -1.
<mgrwt>
<rscale>  2 0.12500126E+03</rscale>
<asrwt>0</asrwt>
<pdfrwt beam="1">  1       21 0.59666458E-03 0.12500126E+03</pdfrwt>
<pdfrwt beam="2">  1       21 0.15495722E+00 0.12500126E+03</pdfrwt>
<totfact> 0.23342736E+06</totfact>
</mgrwt>
</event>
<event>
 5    0  0.1540689E+000  0.1250040E+03  0.7546771E-02  0.1235063E+00
         21   -1    0    0  503  502  0.00000000000E+00  0.00000000000E+00  0.33206774462E+02  0.33206774462E+02  0.00000000000E+00 0.  1.
         21   -1    0    0  502  503 -0.00000000000E+00 -0.00000000000E+00 -0.11764167831E+03  0.11764167831E+03  0.00000000000E+00 0.  1.
         25    2    1    2    0    0  0.00000000000E+00  0.00000000000E+00 -0.84434903850E+02  0.15084845277E+03  0.12500401080E+03 0.  0.
          4    1    3    3  501    0  0.60925164057E+02 -0.47415070831E+01 -0.57939527290E+02  0.84224395678E+02  0.15500000000E+01 0.  1.
         -4    1    3    3    0  501 -0.60925164057E+02  0.47415070831E+01 -0.26495376560E+02  0.66624057095E+02  0.15500000000E+01 0.  1.
<mgrwt>
<rscale>  2 0.12500401E+03</rscale>
<asrwt>0</asrwt>
<pdfrwt beam="1">  1       21 0.51087344E-02 0.12500401E+03</pdfrwt>
<pdfrwt beam="2">  1       21 0.18098720E-01 0.12500401E+03</pdfrwt>
<totfact> 0.70645570E+06</totfact>
</mgrwt>
</event>
<event>
 5    0  0.1570051E+000  0.1249779E+03  0.7546771E-02  0.1235104E+00
         21   -1    0    0  503  502  0.00000000000E+00  0.00000000000E+00  0.40153269476E+02  0.40153269476E+02  0.00000000000E+00 0.  1.
         21   -1    0    0  502  503 -0.00000000000E+00 -0.00000000000E+00 -0.97249040980E+02  0.97249040980E+02  0.00000000000E+00 0.  1.
         25    2    1    2    0    0  0.00000000000E+00  0.00000000000E+00 -0.57095771504E+02  0.13740231046E+03  0.12497786922E+03 0.  0.
          4    1    3    3  501    0 -0.59693927265E+02  0.42254676558E+01 -0.48253004371E+02  0.76889365065E+02  0.15500000000E+01 0. -1.
         -4    1    3    3    0  501  0.59693927265E+02 -0.42254676558E+01 -0.88427671338E+01  0.60512945391E+02  0.15500000000E+01 0. -1.
<mgrwt>
<rscale>  2 0.12497787E+03</rscale>
<asrwt>0</asrwt>
<pdfrwt beam="1">  1       21 0.61774261E-02 0.12497787E+03</pdfrwt>
<pdfrwt beam="2">  1       21 0.14961391E-01 0.12497787E+03</pdfrwt>
<totfact> 0.72420786E+06</totfact>
</mgrwt>
</event>
<event>
 5    0  0.1459933E+000  0.1250080E+03  0.7546771E-02  0.1235057E+00
         21   -1    0    0  503  502  0.00000000000E+00  0.00000000000E+00  0.11172395452E+03  0.11172395452E+03  0.00000000000E+00 0. -1.
         21   -1    0    0  502  503 -0.00000000000E+00 -0.00000000000E+00 -0.34967857443E+02  0.34967857443E+02  0.00000000000E+00 0. -1.
         25    2    1    2    0    0  0.00000000000E+00  0.00000000000E+00  0.76756097075E+02  0.14669181196E+03  0.12500795678E+03 0.  0.
          4    1    3    3  501    0 -0.33390555280E+02  0.18153606686E+02 -0.19822034655E+02  0.42892868585E+02  0.15500000000E+01 0. -1.
         -4    1    3    3    0  501  0.33390555280E+02 -0.18153606686E+02  0.96578131730E+02  0.10379894338E+03  0.15500000000E+01 0. -1.
<mgrwt>
<rscale>  2 0.12500796E+03</rscale>
<asrwt>0</asrwt>
<pdfrwt beam="1">  1       21 0.17188301E-01 0.12500796E+03</pdfrwt>
<pdfrwt beam="2">  1       21 0.53796704E-02 0.12500796E+03</pdfrwt>
<totfact> 0.71162868E+06</totfact>
</mgrwt>
</event>
<event>
 5    0  0.1314003E+000  0.1249967E+03  0.7546771E-02  0.1235074E+00
         21   -1    0    0  503  502  0.00000000000E+00  0.00000000000E+00  0.49400335340E+03  0.49400335340E+03  0.00000000000E+00 0.  1.
         21   -1    0    0  502  503 -0.00000000000E+00 -0.00000000000E+00 -0.79069196970E+01  0.79069196970E+01  0.00000000000E+00 0.  1.
         25    2    1    2    0    0  0.00000000000E+00  0.00000000000E+00  0.48609643371E+03  0.50191027310E+03  0.12499671748E+03 0.  0.
          4    1    3    3  501    0  0.52322552974E+02  0.15149280246E+02  0.36592774546E+03  0.36996306253E+03  0.15500000000E+01 0.  1.
         -4    1    3    3    0  501 -0.52322552974E+02 -0.15149280246E+02  0.12016868825E+03  0.13194721057E+03  0.15500000000E+01 0.  1.
<mgrwt>
<rscale>  2 0.12499672E+03</rscale>
<asrwt>0</asrwt>
<pdfrwt beam="1">  1       21 0.76000491E-01 0.12499672E+03</pdfrwt>
<pdfrwt beam="2">  1       21 0.12164496E-02 0.12499672E+03</pdfrwt>
<totfact> 0.41944098E+06</totfact>
</mgrwt>
</event>
<event>
 5    0  0.1327280E+000  0.1250001E+03  0.7546771E-02  0.1235069E+00
         21   -1    0    0  503  502  0.00000000000E+00  0.00000000000E+00  0.43687648955E+03  0.43687648955E+03  0.00000000000E+00 0.  1.
         21   -1    0    0  502  503 -0.00000000000E+00 -0.00000000000E+00 -0.89413233238E+01  0.89413233238E+01  0.00000000000E+00 0.  1.
         25    2    1    2    0    0  0.00000000000E+00  0.00000000000E+00  0.42793516622E+03  0.44581781287E+03  0.12500006313E+03 0.  0.
          4    1    3    3  501    0 -0.58378104120E+02  0.22032291732E+02  0.22548399000E+03  0.23396336715E+03  0.15500000000E+01 0.  1.
         -4    1    3    3    0  501  0.58378104120E+02 -0.22032291732E+02  0.20245117622E+03  0.21185444572E+03  0.15500000000E+01 0.  1.
<mgrwt>
<rscale>  2 0.12500006E+03</rscale>
<asrwt>0</asrwt>
<pdfrwt beam="1">  1       21 0.67211751E-01 0.12500006E+03</pdfrwt>
<pdfrwt beam="2">  1       21 0.13755885E-02 0.12500006E+03</pdfrwt>
<totfact> 0.45143518E+06</totfact>
</mgrwt>
</event>
<event>
 5    0  0.1455232E+000  0.1249914E+03  0.7546771E-02  0.1235083E+00
         21   -1    0    0  503  502  0.00000000000E+00  0.00000000000E+00  0.19707997009E+03  0.19707997009E+03  0.00000000000E+00 0. -1.
         21   -1    0    0  502  503 -0.00000000000E+00 -0.00000000000E+00 -0.19817920407E+02  0.19817920407E+02  0.00000000000E+00 0. -1.
         25    2    1    2    0    0  0.00000000000E+00  0.00000000000E+00  0.17726204969E+03  0.21689789050E+03  0.12499144228E+03 0.  0.
          4    1    3    3  501    0  0.40334876032E+02  0.14667097917E+02  0.16741615316E+03  0.17283690817E+03  0.15500000000E+01 0.  1.
         -4    1    3    3    0  501 -0.40334876032E+02 -0.14667097917E+02  0.98458965276E+01  0.44060982334E+02  0.15500000000E+01 0.  1.
<mgrwt>
<rscale>  2 0.12499144E+03</rscale>
<asrwt>0</asrwt>
<pdfrwt beam="1">  1       21 0.30319994E-01 0.12499144E+03</pdfrwt>
<pdfrwt beam="2">  1       21 0.30489110E-02 0.12499144E+03</pdfrwt>
<totfact> 0.63154689E+06</totfact>
</mgrwt>
</event>
<event>
 5    0  0.1329136E+000  0.1250008E+03  0.7546771E-02  0.1235068E+00
         21   -1    0    0  503  502  0.00000000000E+00  0.00000000000E+00  0.98393292014E+01  0.98393292014E+01  0.00000000000E+00 0.  1.
         21   -1    0    0  502  503 -0.00000000000E+00 -0.00000000000E+00 -0.39700856317E+03  0.39700856317E+03  0.00000000000E+00 0.  1.
         25    2    1    2    0    0  0.00000000000E+00  0.00000000000E+00 -0.38716923397E+03  0.40684789237E+03  0.12500076718E+03 0.  0.
          4    1    3    3  501    0 -0.34126369996E+02  0.51019962889E+02 -0.23157618162E+03  0.23957791245E+03  0.15500000000E+01 0. -1.
         -4    1    3    3    0  501  0.34126369996E+02 -0.51019962889E+02 -0.15559305235E+03  0.16726997992E+03  0.15500000000E+01 0. -1.
<mgrwt>
<rscale>  2 0.12500077E+03</rscale>
<asrwt>0</asrwt>
<pdfrwt beam="1">  1       21 0.15137433E-02 0.12500077E+03</pdfrwt>
<pdfrwt beam="2">  1       21 0.61078225E-01 0.12500077E+03</pdfrwt>
<totfact> 0.47589524E+06</totfact>
</mgrwt>
</event>
<event>
 5    0  0.1222151E+000  0.1249899E+03  0.7546771E-02  0.1235085E+00
         21   -1    0    0  503  502  0.00000000000E+00  0.00000000000E+00  0.21370513955E+01  0.21370513955E+01  0.00000000000E+00 0.  1.
         21   -1    0    0  502  503 -0.00000000000E+00 -0.00000000000E+00 -0.18275746075E+04  0.18275746075E+04  0.00000000000E+00 0.  1.
         25    2    1    2    0    0  0.00000000000E+00  0.00000000000E+00 -0.18254375561E+04  0.18297116589E+04  0.12498993344E+03 0.  0.
          4    1    3    3  501    0 -0.12484307909E+02  0.26884266372E+02 -0.10763448919E+03  0.11165217188E+03  0.15500000000E+01 0. -1.
         -4    1    3    3    0  501  0.12484307909E+02 -0.26884266372E+02 -0.17178030669E+04  0.17180594870E+04  0.15500000000E+01 0. -1.
<mgrwt>
<rscale>  2 0.12498993E+03</rscale>
<asrwt>0</asrwt>
<pdfrwt beam="1">  1       21 0.32877732E-03 0.12498993E+03</pdfrwt>
<pdfrwt beam="2">  1       21 0.28116516E+00 0.12498993E+03</pdfrwt>
<totfact> 0.97347045E+05</totfact>
</mgrwt>
</event>
<event>
 5    0  0.1449305E+000  0.1249914E+03  0.7546771E-02  0.1235083E+00
         21   -1    0    0  503  502  0.00000000000E+00  0.00000000000E+00  0.30584950836E+02  0.30584950836E+02  0.00000000000E+00 0.  1.
         21   -1    0    0  502  503 -0.00000000000E+00 -0.00000000000E+00 -0.12770053282E+03  0.12770053282E+03  0.00000000000E+00 0.  1.
         25    2    1    2    0    0  0.00000000000E+00  0.00000000000E+00 -0.97115581980E+02  0.15828548365E+03  0.12499143199E+03 0.  0.
          4    1    3    3  501    0 -0.48984092039E+02 -0.13716663003E+02 -0.94492738657E+02  0.10732599068E+03  0.15500000000E+01 0.  1.
         -4    1    3    3    0  501  0.48984092039E+02  0.13716663003E+02 -0.26228433230E+01  0.50959492971E+02  0.15500000000E+01 0.  1.
<mgrwt>
<rscale>  2 0.12499143E+03</rscale>
<asrwt>0</asrwt>
<pdfrwt beam="1">  1       21 0.47053770E-02 0.12499143E+03</pdfrwt>
<pdfrwt beam="2">  1       21 0.19646236E-01 0.12499143E+03</pdfrwt>
<totfact> 0.69744794E+06</totfact>
</mgrwt>
</event>
<event>
 5    0  0.1439773E+000  0.1249670E+03  0.7546771E-02  0.1235121E+00
         21   -1    0    0  503  502  0.00000000000E+00  0.00000000000E+00  0.33090343172E+02  0.33090343172E+02  0.00000000000E+00 0. -1.
         21   -1    0    0  502  503 -0.00000000000E+00 -0.00000000000E+00 -0.11798568999E+03  0.11798568999E+03  0.00000000000E+00 0. -1.
         25    2    1    2    0    0  0.00000000000E+00  0.00000000000E+00 -0.84895346820E+02  0.15107603316E+03  0.12496698718E+03 0.  0.
          4    1    3    3  501    0  0.26668963285E+02 -0.76750370747E+01  0.25205241474E+02  0.37521280556E+02  0.15500000000E+01 0. -1.
         -4    1    3    3    0  501 -0.26668963285E+02  0.76750370747E+01 -0.11010058829E+03  0.11355475261E+03  0.15500000000E+01 0. -1.
<mgrwt>
<rscale>  2 0.12496699E+03</rscale>
<asrwt>0</asrwt>
<pdfrwt beam="1">  1       21 0.50908220E-02 0.12496699E+03</pdfrwt>
<pdfrwt beam="2">  1       21 0.18151645E-01 0.12496699E+03</pdfrwt>
<totfact> 0.70683668E+06</totfact>
</mgrwt>
</event>
<event>
 5    0  0.1285934E+000  0.1250001E+03  0.7546771E-02  0.1235069E+00
         21   -1    0    0  503  502  0.00000000000E+00  0.00000000000E+00  0.53484635276E+03  0.53484635276E+03  0.00000000000E+00 0.  1.
         21   -1    0    0  502  503 -0.00000000000E+00 -0.00000000000E+00 -0.73035059203E+01  0.73035059203E+01  0.00000000000E+00 0.  1.
         25    2    1    2    0    0  0.00000000000E+00  0.00000000000E+00  0.52754284684E+03  0.54214985868E+03  0.12500005606E+03 0.  0.
          4    1    3    3  501    0 -0.56342898296E+02 -0.23130680190E+02  0.20331449987E+03  0.21224688198E+03  0.15500000000E+01 0.  1.
         -4    1    3    3    0  501  0.56342898296E+02  0.23130680190E+02  0.32422834697E+03  0.32990297670E+03  0.15500000000E+01 0.  1.
<mgrwt>
<rscale>  2 0.12500006E+03</rscale>
<asrwt>0</asrwt>
<pdfrwt beam="1">  1       21 0.82284023E-01 0.12500006E+03</pdfrwt>
<pdfrwt beam="2">  1       21 0.11236167E-02 0.12500006E+03</pdfrwt>
<totfact> 0.39846669E+06</totfact>
</mgrwt>
</event>
<event>
 5    0  0.1601274E+000  0.1249972E+03  0.7546771E-02  0.1235074E+00
         21   -1    0    0  503  502  0.00000000000E+00  0.00000000000E+00  0.48776167150E+02  0.48776167150E+02  0.00000000000E+00 0.  1.
         21   -1    0    0  502  503 -0.00000000000E+00 -0.00000000000E+00 -0.80081622959E+02  0.80081622959E+02  0.00000000000E+00 0.  1.
         25    2    1    2    0    0  0.00000000000E+00  0.00000000000E+00 -0.31305455809E+02  0.12885779011E+03  0.12499719400E+03 0.  0.
          4    1    3    3  501    0 -0.52968153613E+01 -0.53951902495E+02  0.16367976659E+02  0.56649600137E+02  0.15500000000E+01 0.  1.
         -4    1    3    3    0  501  0.52968153613E+01  0.53951902495E+02 -0.47673432468E+02  0.72208189972E+02  0.15500000000E+01 0.  1.
<mgrwt>
<rscale>  2 0.12499719E+03</rscale>
<asrwt>0</asrwt>
<pdfrwt beam="1">  1       21 0.75040258E-02 0.12499719E+03</pdfrwt>
<pdfrwt beam="2">  1       21 0.12320250E-01 0.12499719E+03</pdfrwt>
<totfact> 0.73523254E+06</totfact>
</mgrwt>
</event>
<event>
 5    0  0.1548255E+000  0.1250060E+03  0.7546771E-02  0.1235060E+00
         21   -1    0    0  503  502  0.00000000000E+00  0.00000000000E+00  0.79972428736E+02  0.79972428736E+02  0.00000000000E+00 0. -1.
         21   -1    0    0  502  503 -0.00000000000E+00 -0.00000000000E+00 -0.48849677206E+02  0.48849677206E+02  0.00000000000E+00 0. -1.
         25    2    1    2    0    0  0.00000000000E+00  0.00000000000E+00  0.31122751530E+02  0.12882210594E+03  0.12500603712E+03 0.  0.
          4    1    3    3  501    0  0.59427305037E+02  0.11832080251E+02  0.31278928046E+02  0.68208331945E+02  0.15500000000E+01 0.  1.
         -4    1    3    3    0  501 -0.59427305037E+02 -0.11832080251E+02 -0.15617651598E+00  0.60613773997E+02  0.15500000000E+01 0.  1.
<mgrwt>
<rscale>  2 0.12500604E+03</rscale>
<asrwt>0</asrwt>
<pdfrwt beam="1">  1       21 0.12303451E-01 0.12500604E+03</pdfrwt>
<pdfrwt beam="2">  1       21 0.75153350E-02 0.12500604E+03</pdfrwt>
<totfact> 0.73511452E+06</totfact>
</mgrwt>
</event>
<event>
 5    0  0.1533008E+000  0.1249999E+03  0.7546771E-02  0.1235069E+00
         21   -1    0    0  503  502  0.00000000000E+00  0.00000000000E+00  0.22528133276E+03  0.22528133276E+03  0.00000000000E+00 0. -1.
         21   -1    0    0  502  503 -0.00000000000E+00 -0.00000000000E+00 -0.17339411121E+02  0.17339411121E+02  0.00000000000E+00 0. -1.
         25    2    1    2    0    0  0.00000000000E+00  0.00000000000E+00  0.20794192163E+03  0.24262074388E+03  0.12499993035E+03 0.  0.
          4    1    3    3  501    0 -0.55651326451E+02 -0.16522840140E+02  0.14881396883E+03  0.15974377672E+03  0.15500000000E+01 0.  1.
         -4    1    3    3    0  501  0.55651326451E+02  0.16522840140E+02  0.59127952803E+02  0.82876967155E+02  0.15500000000E+01 0.  1.
<mgrwt>
<rscale>  2 0.12499993E+03</rscale>
<asrwt>0</asrwt>
<pdfrwt beam="1">  1       21 0.34658665E-01 0.12499993E+03</pdfrwt>
<pdfrwt beam="2">  1       21 0.26676019E-02 0.12499993E+03</pdfrwt>
<totfact> 0.60580084E+06</totfact>
</mgrwt>
</event>
<event>
 5    0  0.1577159E+000  0.1249938E+03  0.7546771E-02  0.1235079E+00
         21   -1    0    0  503  502  0.00000000000E+00  0.00000000000E+00  0.31364135659E+02  0.31364135659E+02  0.00000000000E+00 0.  1.
         21   -1    0    0  502  503 -0.00000000000E+00 -0.00000000000E+00 -0.12453268948E+03  0.12453268948E+03  0.00000000000E+00 0.  1.
         25    2    1    2    0    0  0.00000000000E+00  0.00000000000E+00 -0.93168553823E+02  0.15589682514E+03  0.12499376252E+03 0.  0.
          4    1    3    3  501    0 -0.58737537064E+02 -0.17207068904E+02 -0.30942704324E+02  0.68600546146E+02  0.15500000000E+01 0.  1.
         -4    1    3    3    0  501  0.58737537064E+02  0.17207068904E+02 -0.62225849499E+02  0.87296278996E+02  0.15500000000E+01 0.  1.
<mgrwt>
<rscale>  2 0.12499376E+03</rscale>
<asrwt>0</asrwt>
<pdfrwt beam="1">  1       21 0.48252517E-02 0.12499376E+03</pdfrwt>
<pdfrwt beam="2">  1       21 0.19158875E-01 0.12499376E+03</pdfrwt>
<totfact> 0.70035477E+06</totfact>
</mgrwt>
</event>
<event>
 5    0  0.1549224E+000  0.1250102E+03  0.7546771E-02  0.1235053E+00
         21   -1    0    0  503  502  0.00000000000E+00  0.00000000000E+00  0.13498253908E+03  0.13498253908E+03  0.00000000000E+00 0. -1.
         21   -1    0    0  502  503 -0.00000000000E+00 -0.00000000000E+00 -0.28943669778E+02  0.28943669778E+02  0.00000000000E+00 0. -1.
         25    2    1    2    0    0  0.00000000000E+00  0.00000000000E+00  0.10603886931E+03  0.16392620886E+03  0.12501024017E+03 0.  0.
          4    1    3    3  501    0  0.25761126795E+02  0.55035577629E+02  0.72109449977E+02  0.94311853628E+02  0.15500000000E+01 0. -1.
         -4    1    3    3    0  501 -0.25761126795E+02 -0.55035577629E+02  0.33929419328E+02  0.69614355234E+02  0.15500000000E+01 0. -1.
<mgrwt>
<rscale>  2 0.12501024E+03</rscale>
<asrwt>0</asrwt>
<pdfrwt beam="1">  1       21 0.20766544E-01 0.12501024E+03</pdfrwt>
<pdfrwt beam="2">  1       21 0.44528723E-02 0.12501024E+03</pdfrwt>
<totfact> 0.69024945E+06</totfact>
</mgrwt>
</event>
<event>
 5    0  0.1222151E+000  0.1249960E+03  0.7546771E-02  0.1235076E+00
         21   -1    0    0  503  502  0.00000000000E+00  0.00000000000E+00  0.66393405526E+03  0.66393405526E+03  0.00000000000E+00 0.  1.
         21   -1    0    0  502  503 -0.00000000000E+00 -0.00000000000E+00 -0.58831158808E+01  0.58831158808E+01  0.00000000000E+00 0.  1.
         25    2    1    2    0    0  0.00000000000E+00  0.00000000000E+00  0.65805093938E+03  0.66981717114E+03  0.12499601569E+03 0.  0.
          4    1    3    3  501    0 -0.31037838983E+02  0.29787673813E+02  0.86225393012E+02  0.96373615995E+02  0.15500000000E+01 0.  1.
         -4    1    3    3    0  501  0.31037838983E+02 -0.29787673813E+02  0.57182554637E+03  0.57344355515E+03  0.15500000000E+01 0.  1.
<mgrwt>
<rscale>  2 0.12499602E+03</rscale>
<asrwt>0</asrwt>
<pdfrwt beam="1">  1       21 0.10214364E+00 0.12499602E+03</pdfrwt>
<pdfrwt beam="2">  1       21 0.90509528E-03 0.12499602E+03</pdfrwt>
<totfact> 0.34109948E+06</totfact>
</mgrwt>
</event>
<event>
 5    0  0.1373859E+000  0.1250016E+03  0.7546771E-02  0.1235067E+00
         21   -1    0    0  503  502  0.00000000000E+00  0.00000000000E+00  0.11029538495E+02  0.11029538495E+02  0.00000000000E+00 0. -1.
         21   -1    0    0  502  503 -0.00000000000E+00 -0.00000000000E+00 -0.35417193247E+03  0.35417193247E+03  0.00000000000E+00 0. -1.
         25    2    1    2    0    0  0.00000000000E+00  0.00000000000E+00 -0.34314239398E+03  0.36520147097E+03  0.12500164740E+03 0.  0.
          4    1    3    3  501    0  0.17480054667E+02 -0.51575348991E+02 -0.82074603179E+02  0.98509958491E+02  0.15500000000E+01 0. -1.
         -4    1    3    3    0  501 -0.17480054667E+02  0.51575348991E+02 -0.26106779080E+03  0.26669151248E+03  0.15500000000E+01 0. -1.
<mgrwt>
<rscale>  2 0.12500165E+03</rscale>
<asrwt>0</asrwt>
<pdfrwt beam="1">  1       21 0.16968519E-02 0.12500165E+03</pdfrwt>
<pdfrwt beam="2">  1       21 0.54487996E-01 0.12500165E+03</pdfrwt>
<totfact> 0.50432901E+06</totfact>
</mgrwt>
</event>
<event>
 5    0  0.1496858E+000  0.1250003E+03  0.7546771E-02  0.1235069E+00
         21   -1    0    0  503  502  0.00000000000E+00  0.00000000000E+00  0.13313056707E+03  0.13313056707E+03  0.00000000000E+00 0. -1.
         21   -1    0    0  502  503 -0.00000000000E+00 -0.00000000000E+00 -0.29341626021E+02  0.29341626021E+02  0.00000000000E+00 0. -1.
         25    2    1    2    0    0  0.00000000000E+00  0.00000000000E+00  0.10378894104E+03  0.16247219309E+03  0.12500027697E+03 0.  0.
          4    1    3    3  501    0 -0.77340886774E+01 -0.53931651611E+02  0.91647726184E+02  0.10663089322E+03  0.15500000000E+01 0. -1.
         -4    1    3    3    0  501  0.77340886774E+01  0.53931651611E+02  0.12141214860E+02  0.55841299872E+02  0.15500000000E+01 0. -1.
<mgrwt>
<rscale>  2 0.12500028E+03</rscale>
<asrwt>0</asrwt>
<pdfrwt beam="1">  1       21 0.20481625E-01 0.12500028E+03</pdfrwt>
<pdfrwt beam="2">  1       21 0.45140964E-02 0.12500028E+03</pdfrwt>
<totfact> 0.69218188E+06</totfact>
</mgrwt>
</event>
<event>
 5    0  0.1539819E+000  0.1249889E+03  0.7546771E-02  0.1235087E+00
         21   -1    0    0  503  502  0.00000000000E+00  0.00000000000E+00  0.21901923801E+02  0.21901923801E+02  0.00000000000E+00 0.  1.
         21   -1    0    0  502  503 -0.00000000000E+00 -0.00000000000E+00 -0.17832033342E+03  0.17832033342E+03  0.00000000000E+00 0.  1.
         25    2    1    2    0    0  0.00000000000E+00  0.00000000000E+00 -0.15641840962E+03  0.20022225722E+03  0.12498893318E+03 0.  0.
          4    1    3    3  501    0  0.54661200672E+01  0.57658252080E+02 -0.40681744875E+02  0.70793780572E+02  0.15500000000E+01 0. -1.
         -4    1    3    3    0  501 -0.54661200672E+01 -0.57658252080E+02 -0.11573666474E+03  0.12942847665E+03  0.15500000000E+01 0. -1.
<mgrwt>
<rscale>  2 0.12498893E+03</rscale>
<asrwt>0</asrwt>
<pdfrwt beam="1">  1       21 0.33695267E-02 0.12498893E+03</pdfrwt>
<pdfrwt beam="2">  1       21 0.27433898E-01 0.12498893E+03</pdfrwt>
<totfact> 0.64921364E+06</totfact>
</mgrwt>
</event>
<event>
 5    0  0.1488604E+000  0.1249937E+03  0.7546771E-02  0.1235079E+00
         21   -1    0    0  503  502  0.00000000000E+00  0.00000000000E+00  0.23883530510E+02  0.23883530510E+02  0.00000000000E+00 0.  1.
         21   -1    0    0  502  503 -0.00000000000E+00 -0.00000000000E+00 -0.16353770960E+03  0.16353770960E+03  0.00000000000E+00 0.  1.
         25    2    1    2    0    0  0.00000000000E+00  0.00000000000E+00 -0.13965417909E+03  0.18742124011E+03  0.12499372587E+03 0.  0.
          4    1    3    3  501    0  0.41479788120E+02 -0.16717061940E+02 -0.44089512528E+01  0.44965256961E+02  0.15500000000E+01 0.  1.
         -4    1    3    3    0  501 -0.41479788120E+02  0.16717061940E+02 -0.13524522784E+03  0.14245598315E+03  0.15500000000E+01 0.  1.
<mgrwt>
<rscale>  2 0.12499373E+03</rscale>
<asrwt>0</asrwt>
<pdfrwt beam="1">  1       21 0.36743892E-02 0.12499373E+03</pdfrwt>
<pdfrwt beam="2">  1       21 0.25159648E-01 0.12499373E+03</pdfrwt>
<totfact> 0.66320768E+06</totfact>
</mgrwt>
</event>
<event>
 5    0  0.1222151E+000  0.1249506E+03  0.7546771E-02  0.1235146E+00
         21   -1    0    0  503  502  0.00000000000E+00  0.00000000000E+00  0.43481937430E+01  0.43481937430E+01  0.00000000000E+00 0. -1.
         21   -1    0    0  502  503 -0.00000000000E+00 -0.00000000000E+00 -0.89765206153E+03  0.89765206153E+03  0.00000000000E+00 0. -1.
         25    2    1    2    0    0  0.00000000000E+00  0.00000000000E+00 -0.89330386778E+03  0.90200025527E+03  0.12495063149E+03 0.  0.
          4    1    3    3  501    0 -0.23694294247E+02  0.47316560349E+02 -0.20717676478E+03  0.21383379253E+03  0.15500000000E+01 0. -1.
         -4    1    3    3    0  501  0.23694294247E+02 -0.47316560349E+02 -0.68612710301E+03  0.68816646274E+03  0.15500000000E+01 0. -1.
<mgrwt>
<rscale>  2 0.12495063E+03</rscale>
<asrwt>0</asrwt>
<pdfrwt beam="1">  1       21 0.66895284E-03 0.12495063E+03</pdfrwt>
<pdfrwt beam="2">  1       21 0.13810033E+00 0.12495063E+03</pdfrwt>
<totfact> 0.26273770E+06</totfact>
</mgrwt>
</event>
<event>
 5    0  0.1222151E+000  0.1250024E+03  0.7546771E-02  0.1235066E+00
         21   -1    0    0  503  502  0.00000000000E+00  0.00000000000E+00  0.78358172130E+03  0.78358172130E+03  0.00000000000E+00 0. -1.
         21   -1    0    0  502  503 -0.00000000000E+00 -0.00000000000E+00 -0.49853143592E+01  0.49853143592E+01  0.00000000000E+00 0. -1.
         25    2    1    2    0    0  0.00000000000E+00  0.00000000000E+00  0.77859640694E+03  0.78856703566E+03  0.12500241929E+03 0.  0.
          4    1    3    3  501    0  0.25119199766E+02  0.18695368930E+02  0.48205585564E+02  0.57503669413E+02  0.15500000000E+01 0. -1.
         -4    1    3    3    0  501 -0.25119199766E+02 -0.18695368930E+02  0.73039082138E+03  0.73106336625E+03  0.15500000000E+01 0. -1.
<mgrwt>
<rscale>  2 0.12500242E+03</rscale>
<asrwt>0</asrwt>
<pdfrwt beam="1">  1       21 0.12055094E+00 0.12500242E+03</pdfrwt>
<pdfrwt beam="2">  1       21 0.76697206E-03 0.12500242E+03</pdfrwt>
<totfact> 0.29743377E+06</totfact>
</mgrwt>
</event>
<event>
 5    0  0.1671929E+000  0.1249992E+03  0.7546771E-02  0.1235070E+00
         21   -1    0    0  503  502  0.00000000000E+00  0.00000000000E+00  0.14984360733E+02  0.14984360733E+02  0.00000000000E+00 0.  1.
         21   -1    0    0  502  503 -0.00000000000E+00 -0.00000000000E+00 -0.26068527754E+03  0.26068527754E+03  0.00000000000E+00 0.  1.
         25    2    1    2    0    0  0.00000000000E+00  0.00000000000E+00 -0.24570091680E+03  0.27566963827E+03  0.12499923578E+03 0.  0.
          4    1    3    3  501    0 -0.52536384139E+02 -0.86491837225E+00 -0.19740959891E+03  0.20428845289E+03  0.15500000000E+01 0.  1.
         -4    1    3    3    0  501  0.52536384139E+02  0.86491837225E+00 -0.48291317891E+02  0.71381185377E+02  0.15500000000E+01 0.  1.
<mgrwt>
<rscale>  2 0.12499924E+03</rscale>
<asrwt>0</asrwt>
<pdfrwt beam="1">  1       21 0.23052862E-02 0.12499924E+03</pdfrwt>
<pdfrwt beam="2">  1       21 0.40105429E-01 0.12499924E+03</pdfrwt>
<totfact> 0.57541841E+06</totfact>
</mgrwt>
</event>
<event>
 5    0  0.1260265E+000  0.1250081E+03  0.7546771E-02  0.1235057E+00
         21   -1    0    0  503  502  0.00000000000E+00  0.00000000000E+00  0.48009016368E+03  0.48009016368E+03  0.00000000000E+00 0.  1.
         21   -1    0    0  502  503 -0.00000000000E+00 -0.00000000000E+00 -0.81375421646E+01  0.81375421646E+01  0.00000000000E+00 0.  1.
         25    2    1    2    0    0  0.00000000000E+00  0.00000000000E+00  0.47195262152E+03  0.48822770585E+03  0.12500806294E+03 0.  0.
          4    1    3    3  501    0  0.31701371826E+02  0.32839475987E+02  0.40263678216E+03  0.40521869281E+03  0.15500000000E+01 0.  1.
         -4    1    3    3    0  501 -0.31701371826E+02 -0.32839475987E+02  0.69315839361E+02  0.83009013035E+02  0.15500000000E+01 0.  1.
<mgrwt>
<rscale>  2 0.12500806E+03</rscale>
<asrwt>0</asrwt>
<pdfrwt beam="1">  1       21 0.73860003E-01 0.12500806E+03</pdfrwt>
<pdfrwt beam="2">  1       21 0.12519299E-02 0.12500806E+03</pdfrwt>
<totfact> 0.42681225E+06</totfact>
</mgrwt>
</event>
<event>
 5    0  0.1343014E+000  0.1250072E+03  0.7546771E-02  0.1235058E+00
         21   -1    0    0  503  502  0.00000000000E+00  0.00000000000E+00  0.38138687178E+03  0.38138687178E+03  0.00000000000E+00 0.  1.
         21   -1    0    0  502  503 -0.00000000000E+00 -0.00000000000E+00 -0.10243399724E+02  0.10243399724E+02  0.00000000000E+00 0.  1.
         25    2    1    2    0    0  0.00000000000E+00  0.00000000000E+00  0.37114347206E+03  0.39163027150E+03  0.12500717063E+03 0.  0.
          4    1    3    3  501    0  0.15556249313E+02  0.54923141776E+02  0.10596081992E+03  0.12036879269E+03  0.15500000000E+01 0.  1.
         -4    1    3    3    0  501 -0.15556249313E+02 -0.54923141776E+02  0.26518265214E+03  0.27126147881E+03  0.15500000000E+01 0.  1.
<mgrwt>
<rscale>  2 0.12500717E+03</rscale>
<asrwt>0</asrwt>
<pdfrwt beam="1">  1       21 0.58674892E-01 0.12500717E+03</pdfrwt>
<pdfrwt beam="2">  1       21 0.15759079E-02 0.12500717E+03</pdfrwt>
<totfact> 0.48592798E+06</totfact>
</mgrwt>
</event>
<event>
 5    0  0.1382290E+000  0.1249987E+03  0.7546771E-02  0.1235071E+00
         21   -1    0    0  503  502  0.00000000000E+00  0.00000000000E+00  0.31458616547E+03  0.31458616547E+03  0.00000000000E+00 0.  1.
         21   -1    0    0  502  503 -0.00000000000E+00 -0.00000000000E+00 -0.12416841334E+02  0.12416841334E+02  0.00000000000E+00 0.  1.
         25    2    1    2    0    0  0.00000000000E+00  0.00000000000E+00  0.30216932414E+03  0.32700300681E+03  0.12499866403E+03 0.  0.
          4    1    3    3  501    0 -0.18926685468E+02  0.46078160521E+02  0.52422810280E+02  0.72332356781E+02  0.15500000000E+01 0.  1.
         -4    1    3    3    0  501  0.18926685468E+02 -0.46078160521E+02  0.24974651386E+03  0.25467065003E+03  0.15500000000E+01 0.  1.
<mgrwt>
<rscale>  2 0.12499866E+03</rscale>
<asrwt>0</asrwt>
<pdfrwt beam="1">  1       21 0.48397865E-01 0.12499866E+03</pdfrwt>
<pdfrwt beam="2">  1       21 0.19102835E-02 0.12499866E+03</pdfrwt>
<totfact> 0.53284803E+06</totfact>
</mgrwt>
</event>
<event>
 5    0  0.1423037E+000  0.1249999E+03  0.7546771E-02  0.1235069E+00
         21   -1    0    0  503  502  0.00000000000E+00  0.00000000000E+00  0.20830575145E+02  0.20830575145E+02  0.00000000000E+00 0.  1.
         21   -1    0    0  502  503 -0.00000000000E+00 -0.00000000000E+00 -0.18752446254E+03  0.18752446254E+03  0.00000000000E+00 0.  1.
         25    2    1    2    0    0  0.00000000000E+00  0.00000000000E+00 -0.16669388739E+03  0.20835503768E+03  0.12499987853E+03 0.  0.
          4    1    3    3  501    0  0.39091642609E+02 -0.11420097436E+02 -0.16232895602E+03  0.16736686533E+03  0.15500000000E+01 0.  1.
         -4    1    3    3    0  501 -0.39091642609E+02  0.11420097436E+02 -0.43649313768E+01  0.40988172358E+02  0.15500000000E+01 0.  1.
<mgrwt>
<rscale>  2 0.12499988E+03</rscale>
<asrwt>0</asrwt>
<pdfrwt beam="1">  1       21 0.32047038E-02 0.12499988E+03</pdfrwt>
<pdfrwt beam="2">  1       21 0.28849918E-01 0.12499988E+03</pdfrwt>
<totfact> 0.64033217E+06</totfact>
</mgrwt>
</event>
<event>
 5    0  0.1222151E+000  0.1249925E+03  0.7546771E-02  0.1235081E+00
         21   -1    0    0  503  502  0.00000000000E+00  0.00000000000E+00  0.41892915698E+01  0.41892915698E+01  0.00000000000E+00 0.  1.
         21   -1    0    0  502  503 -0.00000000000E+00 -0.00000000000E+00 -0.93232565087E+03  0.93232565087E+03  0.00000000000E+00 0.  1.
         25    2    1    2    0    0  0.00000000000E+00  0.00000000000E+00 -0.92813635930E+03  0.93651494244E+03  0.12499254361E+03 0.  0.
          4    1    3    3  501    0 -0.13877956894E+02 -0.39299833207E+02 -0.81279921382E+03  0.81386856375E+03  0.15500000000E+01 0. -1.
         -4    1    3    3    0  501  0.13877956894E+02  0.39299833207E+02 -0.11533714548E+03  0.12264637869E+03  0.15500000000E+01 0. -1.
<mgrwt>
<rscale>  2 0.12499254E+03</rscale>
<asrwt>0</asrwt>
<pdfrwt beam="1">  1       21 0.64450605E-03 0.12499254E+03</pdfrwt>
<pdfrwt beam="2">  1       21 0.14343479E+00 0.12499254E+03</pdfrwt>
<totfact> 0.25280612E+06</totfact>
</mgrwt>
</event>
<event>
 5    0  0.1370364E+000  0.1249952E+03  0.7546771E-02  0.1235077E+00
         21   -1    0    0  503  502  0.00000000000E+00  0.00000000000E+00  0.67207620077E+01  0.67207620077E+01  0.00000000000E+00 0. -1.
         21   -1    0    0  502  503 -0.00000000000E+00 -0.00000000000E+00 -0.58117626246E+03  0.58117626246E+03  0.00000000000E+00 0. -1.
         25    2    1    2    0    0  0.00000000000E+00  0.00000000000E+00 -0.57445550045E+03  0.58789702446E+03  0.12499515742E+03 0.  0.
          4    1    3    3  501    0  0.16365515311E+02 -0.57903555748E+02 -0.20811997640E+03  0.21664943788E+03  0.15500000000E+01 0.  1.
         -4    1    3    3    0  501 -0.16365515311E+02  0.57903555748E+02 -0.36633552405E+03  0.37124758658E+03  0.15500000000E+01 0.  1.
<mgrwt>
<rscale>  2 0.12499516E+03</rscale>
<asrwt>0</asrwt>
<pdfrwt beam="1">  1       21 0.10339634E-02 0.12499516E+03</pdfrwt>
<pdfrwt beam="2">  1       21 0.89411733E-01 0.12499516E+03</pdfrwt>
<totfact> 0.37650284E+06</totfact>
</mgrwt>
</event>
<event>
 5    0  0.1340952E+000  0.1249922E+03  0.7546771E-02  0.1235081E+00
         21   -1    0    0  503  502  0.00000000000E+00  0.00000000000E+00  0.11845991226E+03  0.11845991226E+03  0.00000000000E+00 0. -1.
         21   -1    0    0  502  503 -0.00000000000E+00 -0.00000000000E+00 -0.32971196842E+02  0.32971196842E+02  0.00000000000E+00 0. -1.
         25    2    1    2    0    0  0.00000000000E+00  0.00000000000E+00  0.85488715414E+02  0.15143110910E+03  0.12499224112E+03 0.  0.
          4    1    3    3  501    0 -0.43295279826E+02 -0.34933347073E+01 -0.11662083890E+02  0.45001014913E+02  0.15500000000E+01 0.  1.
         -4    1    3    3    0  501  0.43295279826E+02  0.34933347073E+01  0.97150799304E+02  0.10643009418E+03  0.15500000000E+01 0.  1.
<mgrwt>
<rscale>  2 0.12499224E+03</rscale>
<asrwt>0</asrwt>
<pdfrwt beam="1">  1       21 0.18224602E-01 0.12499224E+03</pdfrwt>
<pdfrwt beam="2">  1       21 0.50724919E-02 0.12499224E+03</pdfrwt>
<totfact> 0.70593827E+06</totfact>
</mgrwt>
</event>
<event>
 5    0  0.1452417E+000  0.1250020E+03  0.7546771E-02  0.1235066E+00
         21   -1    0    0  503  502  0.00000000000E+00  0.00000000000E+00  0.19286798779E+03  0.19286798779E+03  0.00000000000E+00 0.  1.
         21   -1    0    0  502  503 -0.00000000000E+00 -0.00000000000E+00 -0.20254133636E+02  0.20254133636E+02  0.00000000000E+00 0.  1.
         25    2    1    2    0    0  0.00000000000E+00  0.00000000000E+00  0.17261385416E+03  0.21312212143E+03  0.12500198397E+03 0.  0.
          4    1    3    3  501    0 -0.23326228696E+02  0.46649541096E+02  0.14496510546E+03  0.15407003904E+03  0.15500000000E+01 0. -1.
         -4    1    3    3    0  501  0.23326228696E+02 -0.46649541096E+02  0.27648748698E+02  0.59052082386E+02  0.15500000000E+01 0. -1.
<mgrwt>
<rscale>  2 0.12500198E+03</rscale>
<asrwt>0</asrwt>
<pdfrwt beam="1">  1       21 0.29671997E-01 0.12500198E+03</pdfrwt>
<pdfrwt beam="2">  1       21 0.31160207E-02 0.12500198E+03</pdfrwt>
<totfact> 0.63529356E+06</totfact>
</mgrwt>
</event>
<event>
 5    0  0.1533434E+000  0.1249994E+03  0.7546771E-02  0.1235070E+00
         21   -1    0    0  503  502  0.00000000000E+00  0.00000000000E+00  0.24582221608E+02  0.24582221608E+02  0.00000000000E+00 0. -1.
         21   -1    0    0  502  503 -0.00000000000E+00 -0.00000000000E+00 -0.15890407946E+03  0.15890407946E+03  0.00000000000E+00 0. -1.
         25    2    1    2    0    0  0.00000000000E+00  0.00000000000E+00 -0.13432185786E+03  0.18348630107E+03  0.12499944473E+03 0.  0.
          4    1    3    3  501    0  0.23554425348E+02  0.26091315548E+02 -0.14298523106E+03  0.14725062479E+03  0.15500000000E+01 0. -1.
         -4    1    3    3    0  501 -0.23554425348E+02 -0.26091315548E+02  0.86633732004E+01  0.36235676283E+02  0.15500000000E+01 0. -1.
<mgrwt>
<rscale>  2 0.12499944E+03</rscale>
<asrwt>0</asrwt>
<pdfrwt beam="1">  1       21 0.37818802E-02 0.12499944E+03</pdfrwt>
<pdfrwt beam="2">  1       21 0.24446781E-01 0.12499944E+03</pdfrwt>
<totfact> 0.66754772E+06</totfact>
</mgrwt>
</event>
<event>
 5    0  0.1459836E+000  0.1250018E+03  0.7546771E-02  0.1235067E+00
         21   -1    0    0  503  502  0.00000000000E+00  0.00000000000E+00  0.10889987586E+03  0.10889987586E+03  0.00000000000E+00 0. -1.
         21   -1    0    0  502  503 -0.00000000000E+00 -0.00000000000E+00 -0.35871121891E+02  0.35871121891E+02  0.00000000000E+00 0. -1.
         25    2    1    2    0    0  0.00000000000E+00  0.00000000000E+00  0.73028753967E+02  0.14477099775E+03  0.12500177152E+03 0.  0.
          4    1    3    3  501    0  0.27090086354E+01  0.32292394598E+02 -0.25355427688E+02  0.41175692950E+02  0.15500000000E+01 0. -1.
         -4    1    3    3    0  501 -0.27090086354E+01 -0.32292394598E+02  0.98384181654E+02  0.10359530480E+03  0.15500000000E+01 0. -1.
<mgrwt>
<rscale>  2 0.12500177E+03</rscale>
<asrwt>0</asrwt>
<pdfrwt beam="1">  1       21 0.16753827E-01 0.12500177E+03</pdfrwt>
<pdfrwt beam="2">  1       21 0.55186342E-02 0.12500177E+03</pdfrwt>
<totfact> 0.71419196E+06</totfact>
</mgrwt>
</event>
<event>
 5    0  0.1561717E+000  0.1249906E+03  0.7546771E-02  0.1235084E+00
         21   -1    0    0  503  502  0.00000000000E+00  0.00000000000E+00  0.42817283705E+02  0.42817283705E+02  0.00000000000E+00 0. -1.
         21   -1    0    0  502  503 -0.00000000000E+00 -0.00000000000E+00 -0.91216913328E+02  0.91216913328E+02  0.00000000000E+00 0. -1.
         25    2    1    2    0    0  0.00000000000E+00  0.00000000000E+00 -0.48399629623E+02  0.13403419703E+03  0.12499056695E+03 0.  0.
          4    1    3    3  501    0  0.53671201341E+02  0.16341653572E+02  0.52774620223E+01  0.56372880007E+02  0.15500000000E+01 0. -1.
         -4    1    3    3    0  501 -0.53671201341E+02 -0.16341653572E+02 -0.53677091646E+02  0.77661317027E+02  0.15500000000E+01 0. -1.
<mgrwt>
<rscale>  2 0.12499057E+03</rscale>
<asrwt>0</asrwt>
<pdfrwt beam="1">  1       21 0.65872744E-02 0.12499057E+03</pdfrwt>
<pdfrwt beam="2">  1       21 0.14033371E-01 0.12499057E+03</pdfrwt>
<totfact> 0.72842132E+06</totfact>
</mgrwt>
</event>
<event>
 5    0  0.1377539E+000  0.1250050E+03  0.7546771E-02  0.1235061E+00
         21   -1    0    0  503  502  0.00000000000E+00  0.00000000000E+00  0.17982778546E+02  0.17982778546E+02  0.00000000000E+00 0. -1.
         21   -1    0    0  502  503 -0.00000000000E+00 -0.00000000000E+00 -0.21723922421E+03  0.21723922421E+03  0.00000000000E+00 0. -1.
         25    2    1    2    0    0  0.00000000000E+00  0.00000000000E+00 -0.19925644566E+03  0.23522200275E+03  0.12500503766E+03 0.  0.
          4    1    3    3  501    0  0.21569789799E+02 -0.12696805286E+02  0.81013341459E+01  0.26353345355E+02  0.15500000000E+01 0. -1.
         -4    1    3    3    0  501 -0.21569789799E+02  0.12696805286E+02 -0.20735777981E+03  0.20886865740E+03  0.15500000000E+01 0. -1.
<mgrwt>
<rscale>  2 0.12500504E+03</rscale>
<asrwt>0</asrwt>
<pdfrwt beam="1">  1       21 0.27665812E-02 0.12500504E+03</pdfrwt>
<pdfrwt beam="2">  1       21 0.33421420E-01 0.12500504E+03</pdfrwt>
<totfact> 0.61290314E+06</totfact>
</mgrwt>
</event>
<event>
 5    0  0.1524778E+000  0.1249999E+03  0.7546771E-02  0.1235069E+00
         21   -1    0    0  503  502  0.00000000000E+00  0.00000000000E+00  0.29658529568E+02  0.29658529568E+02  0.00000000000E+00 0.  1.
         21   -1    0    0  502  503 -0.00000000000E+00 -0.00000000000E+00 -0.13170733595E+03  0.13170733595E+03  0.00000000000E+00 0.  1.
         25    2    1    2    0    0  0.00000000000E+00  0.00000000000E+00 -0.10204880638E+03  0.16136586552E+03  0.12499993468E+03 0.  0.
          4    1    3    3  501    0  0.37717054043E+02  0.32284668229E+02 -0.99994094985E+02  0.11165167934E+03  0.15500000000E+01 0.  1.
         -4    1    3    3    0  501 -0.37717054043E+02 -0.32284668229E+02 -0.20547113997E+01  0.49714186177E+02  0.15500000000E+01 0.  1.
<mgrwt>
<rscale>  2 0.12499993E+03</rscale>
<asrwt>0</asrwt>
<pdfrwt beam="1">  1       21 0.45628507E-02 0.12499993E+03</pdfrwt>
<pdfrwt beam="2">  1       21 0.20262667E-01 0.12499993E+03</pdfrwt>
<totfact> 0.69353101E+06</totfact>
</mgrwt>
</event>
<event>
 5    0  0.1597454E+000  0.1249979E+03  0.7546771E-02  0.1235073E+00
         21   -1    0    0  503  502  0.00000000000E+00  0.00000000000E+00  0.89372062015E+02  0.89372062015E+02  0.00000000000E+00 0. -1.
         21   -1    0    0  502  503 -0.00000000000E+00 -0.00000000000E+00 -0.43706229284E+02  0.43706229284E+02  0.00000000000E+00 0. -1.
         25    2    1    2    0    0  0.00000000000E+00  0.00000000000E+00  0.45665832730E+02  0.13307829130E+03  0.12499785333E+03 0.  0.
          4    1    3    3  501    0  0.21902680688E+02  0.33711981635E+02 -0.28086579265E+02  0.49066114192E+02  0.15500000000E+01 0.  1.
         -4    1    3    3    0  501 -0.21902680688E+02 -0.33711981635E+02  0.73752411996E+02  0.84012177107E+02  0.15500000000E+01 0.  1.
<mgrwt>
<rscale>  2 0.12499785E+03</rscale>
<asrwt>0</asrwt>
<pdfrwt beam="1">  1       21 0.13749548E-01 0.12499785E+03</pdfrwt>
<pdfrwt beam="2">  1       21 0.67240353E-02 0.12499785E+03</pdfrwt>
<totfact> 0.72955940E+06</totfact>
</mgrwt>
</event>
<event>
 5    0  0.1222151E+000  0.1249909E+03  0.7546771E-02  0.1235083E+00
         21   -1    0    0  503  502  0.00000000000E+00  0.00000000000E+00  0.29482109822E+01  0.29482109822E+01  0.00000000000E+00 0. -1.
         21   -1    0    0  502  503 -0.00000000000E+00 -0.00000000000E+00 -0.13247638770E+04  0.13247638770E+04  0.00000000000E+00 0. -1.
         25    2    1    2    0    0  0.00000000000E+00  0.00000000000E+00 -0.13218156660E+04  0.13277120879E+04  0.12499093425E+03 0.  0.
          4    1    3    3  501    0  0.35279938332E+02  0.51559778328E+02 -0.66561205043E+03  0.66853936980E+03  0.15500000000E+01 0.  1.
         -4    1    3    3    0  501 -0.35279938332E+02 -0.51559778328E+02 -0.65620361555E+03  0.65917271815E+03  0.15500000000E+01 0.  1.
<mgrwt>
<rscale>  2 0.12499093E+03</rscale>
<asrwt>0</asrwt>
<pdfrwt beam="1">  1       21 0.45357150E-03 0.12499093E+03</pdfrwt>
<pdfrwt beam="2">  1       21 0.20380957E+00 0.12499093E+03</pdfrwt>
<totfact> 0.16765805E+06</totfact>
</mgrwt>
</event>
<event>
 5    0  0.1222151E+000  0.1250134E+03  0.7546771E-02  0.1235048E+00
         21   -1    0    0  503  502  0.00000000000E+00  0.00000000000E+00  0.17981147325E+04  0.17981147325E+04  0.00000000000E+00 0.  1.
         21   -1    0    0  502  503 -0.00000000000E+00 -0.00000000000E+00 -0.21728784512E+01  0.21728784512E+01  0.00000000000E+00 0.  1.
         25    2    1    2    0    0  0.00000000000E+00  0.00000000000E+00  0.17959418541E+04  0.18002876110E+04  0.12501335537E+03 0.  0.
          4    1    3    3  501    0 -0.28033046220E+02  0.21437376168E+02  0.15535090291E+03  0.15931640942E+03  0.15500000000E+01 0. -1.
         -4    1    3    3    0  501  0.28033046220E+02 -0.21437376168E+02  0.16405909512E+04  0.16409712016E+04  0.15500000000E+01 0. -1.
<mgrwt>
<rscale>  2 0.12501336E+03</rscale>
<asrwt>0</asrwt>
<pdfrwt beam="1">  1       21 0.27663185E+00 0.12501336E+03</pdfrwt>
<pdfrwt beam="2">  1       21 0.33429043E-03 0.12501336E+03</pdfrwt>
<totfact> 0.10063318E+06</totfact>
</mgrwt>
</event>
<event>
 5    0  0.1745773E+000  0.1249982E+03  0.7546771E-02  0.1235072E+00
         21   -1    0    0  503  502  0.00000000000E+00  0.00000000000E+00  0.37689101097E+02  0.37689101097E+02  0.00000000000E+00 0.  1.
         21   -1    0    0  502  503 -0.00000000000E+00 -0.00000000000E+00 -0.10364110630E+03  0.10364110630E+03  0.00000000000E+00 0.  1.
         25    2    1    2    0    0  0.00000000000E+00  0.00000000000E+00 -0.65952005199E+02  0.14133020739E+03  0.12499824211E+03 0.  0.
          4    1    3    3  501    0 -0.52359608754E+02 -0.16744638023E-01  0.55694506024E+01  0.52677795980E+02  0.15500000000E+01 0. -1.
         -4    1    3    3    0  501  0.52359608754E+02  0.16744638023E-01 -0.71521455802E+02  0.88652411412E+02  0.15500000000E+01 0. -1.
<mgrwt>
<rscale>  2 0.12499824E+03</rscale>
<asrwt>0</asrwt>
<pdfrwt beam="1">  1       21 0.57983233E-02 0.12499824E+03</pdfrwt>
<pdfrwt beam="2">  1       21 0.15944785E-01 0.12499824E+03</pdfrwt>
<totfact> 0.71869344E+06</totfact>
</mgrwt>
</event>
<event>
 5    0  0.1543452E+000  0.1249969E+03  0.7546771E-02  0.1235074E+00
         21   -1    0    0  503  502  0.00000000000E+00  0.00000000000E+00  0.56008945161E+02  0.56008945161E+02  0.00000000000E+00 0. -1.
         21   -1    0    0  502  503 -0.00000000000E+00 -0.00000000000E+00 -0.69739892995E+02  0.69739892995E+02  0.00000000000E+00 0. -1.
         25    2    1    2    0    0  0.00000000000E+00  0.00000000000E+00 -0.13730947834E+02  0.12574883816E+03  0.12499692544E+03 0.  0.
          4    1    3    3  501    0  0.44551749151E+02 -0.10143007117E+02  0.36004436441E+02  0.58193306223E+02  0.15500000000E+01 0.  1.
         -4    1    3    3    0  501 -0.44551749151E+02  0.10143007117E+02 -0.49735384275E+02  0.67555531933E+02  0.15500000000E+01 0.  1.
<mgrwt>
<rscale>  2 0.12499693E+03</rscale>
<asrwt>0</asrwt>
<pdfrwt beam="1">  1       21 0.86167608E-02 0.12499693E+03</pdfrwt>
<pdfrwt beam="2">  1       21 0.10729214E-01 0.12499693E+03</pdfrwt>
<totfact> 0.73946559E+06</totfact>
</mgrwt>
</event>
<event>
 5    0  0.1521821E+000  0.1249935E+03  0.7546771E-02  0.1235079E+00
         21   -1    0    0  503  502  0.00000000000E+00  0.00000000000E+00  0.11569117193E+03  0.11569117193E+03  0.00000000000E+00 0. -1.
         21   -1    0    0  502  503 -0.00000000000E+00 -0.00000000000E+00 -0.33760948173E+02  0.33760948173E+02  0.00000000000E+00 0. -1.
         25    2    1    2    0    0  0.00000000000E+00  0.00000000000E+00  0.81930223756E+02  0.14945212010E+03  0.12499349838E+03 0.  0.
          4    1    3    3  501    0 -0.23101904933E+02  0.57045156399E+02  0.28109849372E+02  0.67678755986E+02  0.15500000000E+01 0.  1.
         -4    1    3    3    0  501  0.23101904933E+02 -0.57045156399E+02  0.53820374384E+02  0.81773364116E+02  0.15500000000E+01 0.  1.
<mgrwt>
<rscale>  2 0.12499350E+03</rscale>
<asrwt>0</asrwt>
<pdfrwt beam="1">  1       21 0.17798642E-01 0.12499350E+03</pdfrwt>
<pdfrwt beam="2">  1       21 0.51939921E-02 0.12499350E+03</pdfrwt>
<totfact> 0.70839816E+06</totfact>
</mgrwt>
</event>
<event>
 5    0  0.1531835E+000  0.1250038E+03  0.7546771E-02  0.1235063E+00
         21   -1    0    0  503  502  0.00000000000E+00  0.00000000000E+00  0.22239344246E+02  0.22239344246E+02  0.00000000000E+00 0. -1.
         21   -1    0    0  502  503 -0.00000000000E+00 -0.00000000000E+00 -0.17565665915E+03  0.17565665915E+03  0.00000000000E+00 0. -1.
         25    2    1    2    0    0  0.00000000000E+00  0.00000000000E+00 -0.15341731490E+03  0.19789600340E+03  0.12500382253E+03 0.  0.
          4    1    3    3  501    0 -0.47697992454E+01 -0.35297670925E+02  0.45627559384E+01  0.35942979834E+02  0.15500000000E+01 0.  1.
         -4    1    3    3    0  501  0.47697992454E+01  0.35297670925E+02 -0.15798007084E+03  0.16195302356E+03  0.15500000000E+01 0.  1.
<mgrwt>
<rscale>  2 0.12500382E+03</rscale>
<asrwt>0</asrwt>
<pdfrwt beam="1">  1       21 0.34214377E-02 0.12500382E+03</pdfrwt>
<pdfrwt beam="2">  1       21 0.27024100E-01 0.12500382E+03</pdfrwt>
<totfact> 0.65149143E+06</totfact>
</mgrwt>
</event>
<event>
 5    0  0.1434120E+000  0.1249816E+03  0.7546771E-02  0.1235098E+00
         21   -1    0    0  503  502  0.00000000000E+00  0.00000000000E+00  0.24849455582E+03  0.24849455582E+03  0.00000000000E+00 0.  1.
         21   -1    0    0  502  503 -0.00000000000E+00 -0.00000000000E+00 -0.15715043617E+02  0.15715043617E+02  0.00000000000E+00 0.  1.
         25    2    1    2    0    0  0.00000000000E+00  0.00000000000E+00  0.23277951221E+03  0.26420959944E+03  0.12498164319E+03 0.  0.
          4    1    3    3  501    0  0.42604202153E+02 -0.44042798784E+02  0.90688146663E+02  0.10946062585E+03  0.15500000000E+01 0. -1.
         -4    1    3    3    0  501 -0.42604202153E+02  0.44042798784E+02  0.14209136554E+03  0.15474897359E+03  0.15500000000E+01 0. -1.
<mgrwt>
<rscale>  2 0.12498164E+03</rscale>
<asrwt>0</asrwt>
<pdfrwt beam="1">  1       21 0.38229929E-01 0.12498164E+03</pdfrwt>
<pdfrwt beam="2">  1       21 0.24176992E-02 0.12498164E+03</pdfrwt>
<totfact> 0.58592658E+06</totfact>
</mgrwt>
</event>
<event>
 5    0  0.1462981E+000  0.1249685E+03  0.7546771E-02  0.1235119E+00
         21   -1    0    0  503  502  0.00000000000E+00  0.00000000000E+00  0.12302768288E+02  0.12302768288E+02  0.00000000000E+00 0.  1.
         21   -1    0    0  502  503 -0.00000000000E+00 -0.00000000000E+00 -0.31734969249E+03  0.31734969249E+03  0.00000000000E+00 0.  1.
         25    2    1    2    0    0  0.00000000000E+00  0.00000000000E+00 -0.30504692420E+03  0.32965246077E+03  0.12496847175E+03 0.  0.
          4    1    3    3  501    0 -0.91403711757E+01 -0.55103129100E+02 -0.22628884114E+03  0.23308569957E+03  0.15500000000E+01 0. -1.
         -4    1    3    3    0  501  0.91403711757E+01  0.55103129100E+02 -0.78758083063E+02  0.96566761204E+02  0.15500000000E+01 0. -1.
<mgrwt>
<rscale>  2 0.12496847E+03</rscale>
<asrwt>0</asrwt>
<pdfrwt beam="1">  1       21 0.18927334E-02 0.12496847E+03</pdfrwt>
<pdfrwt beam="2">  1       21 0.48823034E-01 0.12496847E+03</pdfrwt>
<totfact> 0.53119173E+06</totfact>
</mgrwt>
</event>
<event>
 5    0  0.1524213E+000  0.1250104E+03  0.7546771E-02  0.1235053E+00
         21   -1    0    0  503  502  0.00000000000E+00  0.00000000000E+00  0.12339652391E+03  0.12339652391E+03  0.00000000000E+00 0. -1.
         21   -1    0    0  502  503 -0.00000000000E+00 -0.00000000000E+00 -0.31661326434E+02  0.31661326434E+02  0.00000000000E+00 0. -1.
         25    2    1    2    0    0  0.00000000000E+00  0.00000000000E+00  0.91735197477E+02  0.15505785034E+03  0.12501036156E+03 0.  0.
          4    1    3    3  501    0 -0.32014454501E+02  0.14609355771E+02 -0.18177948667E+02  0.39638351262E+02  0.15500000000E+01 0. -1.
         -4    1    3    3    0  501  0.32014454501E+02 -0.14609355771E+02  0.10991314614E+03  0.11541949908E+03  0.15500000000E+01 0. -1.
<mgrwt>
<rscale>  2 0.12501036E+03</rscale>
<asrwt>0</asrwt>
<pdfrwt beam="1">  1       21 0.18984080E-01 0.12501036E+03</pdfrwt>
<pdfrwt beam="2">  1       21 0.48709734E-02 0.12501036E+03</pdfrwt>
<totfact> 0.70109990E+06</totfact>
</mgrwt>
</event>
<event>
 5    0  0.1539711E+000  0.1250224E+03  0.7546771E-02  0.1235034E+00
         21   -1    0    0  503  502  0.00000000000E+00  0.00000000000E+00  0.60578274158E+02  0.60578274158E+02  0.00000000000E+00 0.  1.
         21   -1    0    0  502  503 -0.00000000000E+00 -0.00000000000E+00 -0.64505789840E+02  0.64505789840E+02  0.00000000000E+00 0.  1.
         25    2    1    2    0    0  0.00000000000E+00  0.00000000000E+00 -0.39275156819E+01  0.12508406400E+03  0.12502238874E+03 0.  0.
          4    1    3    3  501    0 -0.46631744553E+02 -0.15161545238E+02  0.36796221743E+02  0.61325007041E+02  0.15500000000E+01 0. -1.
         -4    1    3    3    0  501  0.46631744553E+02  0.15161545238E+02 -0.40723737425E+02  0.63759056956E+02  0.15500000000E+01 0. -1.
<mgrwt>
<rscale>  2 0.12502239E+03</rscale>
<asrwt>0</asrwt>
<pdfrwt beam="1">  1       21 0.93197345E-02 0.12502239E+03</pdfrwt>
<pdfrwt beam="2">  1       21 0.99239677E-02 0.12502239E+03</pdfrwt>
<totfact> 0.73989867E+06</totfact>
</mgrwt>
</event>
<event>
 5    0  0.1552868E+000  0.1249997E+03  0.7546771E-02  0.1235070E+00
         21   -1    0    0  503  502  0.00000000000E+00  0.00000000000E+00  0.11197921187E+03  0.11197921187E+03  0.00000000000E+00 0.  1.
         21   -1    0    0  502  503 -0.00000000000E+00 -0.00000000000E+00 -0.34883551508E+02  0.34883551508E+02  0.00000000000E+00 0.  1.
         25    2    1    2    0    0  0.00000000000E+00  0.00000000000E+00  0.77095660364E+02  0.14686276338E+03  0.12499972168E+03 0.  0.
          4    1    3    3  501    0 -0.47789678065E+02 -0.19587987484E+02  0.79858514820E+02  0.95117440422E+02  0.15500000000E+01 0. -1.
         -4    1    3    3    0  501  0.47789678065E+02  0.19587987484E+02 -0.27628544557E+01  0.51745322957E+02  0.15500000000E+01 0. -1.
<mgrwt>
<rscale>  2 0.12499972E+03</rscale>
<asrwt>0</asrwt>
<pdfrwt beam="1">  1       21 0.17227571E-01 0.12499972E+03</pdfrwt>
<pdfrwt beam="2">  1       21 0.53667003E-02 0.12499972E+03</pdfrwt>
<totfact> 0.71156061E+06</totfact>
</mgrwt>
</event>
<event>
 5    0  0.1451526E+000  0.1250935E+03  0.7546771E-02  0.1234923E+00
         21   -1    0    0  503  502  0.00000000000E+00  0.00000000000E+00  0.40343225663E+02  0.40343225663E+02  0.00000000000E+00 0. -1.
         21   -1    0    0  502  503 -0.00000000000E+00 -0.00000000000E+00 -0.96970289326E+02  0.96970289326E+02  0.00000000000E+00 0. -1.
         25    2    1    2    0    0  0.00000000000E+00  0.00000000000E+00 -0.56627063663E+02  0.13731351499E+03  0.12509347329E+03 0.  0.
          4    1    3    3  501    0  0.28891859877E+02 -0.30998062801E+02  0.22157077886E+02  0.47843056601E+02  0.15500000000E+01 0.  1.
         -4    1    3    3    0  501 -0.28891859877E+02  0.30998062801E+02 -0.78784141549E+02  0.89470458388E+02  0.15500000000E+01 0.  1.
<mgrwt>
<rscale>  2 0.12509347E+03</rscale>
<asrwt>0</asrwt>
<pdfrwt beam="1">  1       21 0.62066502E-02 0.12509347E+03</pdfrwt>
<pdfrwt beam="2">  1       21 0.14918506E-01 0.12509347E+03</pdfrwt>
<totfact> 0.72219284E+06</totfact>
</mgrwt>
</event>
<event>
 5    0  0.1563741E+000  0.1249934E+03  0.7546771E-02  0.1235080E+00
         21   -1    0    0  503  502  0.00000000000E+00  0.00000000000E+00  0.73425942710E+02  0.73425942710E+02  0.00000000000E+00 0.  1.
         21   -1    0    0  502  503 -0.00000000000E+00 -0.00000000000E+00 -0.53194258931E+02  0.53194258931E+02  0.00000000000E+00 0.  1.
         25    2    1    2    0    0  0.00000000000E+00  0.00000000000E+00  0.20231683779E+02  0.12662020164E+03  0.12499341757E+03 0.  0.
          4    1    3    3  501    0 -0.57107893855E+02  0.24027482980E+02  0.18270746311E+02  0.64613111283E+02  0.15500000000E+01 0. -1.
         -4    1    3    3    0  501  0.57107893855E+02 -0.24027482980E+02  0.19609374674E+01  0.62007090358E+02  0.15500000000E+01 0. -1.
<mgrwt>
<rscale>  2 0.12499342E+03</rscale>
<asrwt>0</asrwt>
<pdfrwt beam="1">  1       21 0.11296299E-01 0.12499342E+03</pdfrwt>
<pdfrwt beam="2">  1       21 0.81837322E-02 0.12499342E+03</pdfrwt>
<totfact> 0.73833338E+06</totfact>
</mgrwt>
</event>
<event>
 5    0  0.1230827E+000  0.1249985E+03  0.7546771E-02  0.1235072E+00
         21   -1    0    0  503  502  0.00000000000E+00  0.00000000000E+00  0.56008345566E+01  0.56008345566E+01  0.00000000000E+00 0. -1.
         21   -1    0    0  502  503 -0.00000000000E+00 -0.00000000000E+00 -0.69742353779E+03  0.69742353779E+03  0.00000000000E+00 0. -1.
         25    2    1    2    0    0  0.00000000000E+00  0.00000000000E+00 -0.69182270323E+03  0.70302437234E+03  0.12499846161E+03 0.  0.
          4    1    3    3  501    0 -0.25026216815E+02  0.32841666556E+02 -0.82178049216E+02  0.91981089705E+02  0.15500000000E+01 0. -1.
         -4    1    3    3    0  501  0.25026216815E+02 -0.32841666556E+02 -0.60964465401E+03  0.61104328264E+03  0.15500000000E+01 0. -1.
<mgrwt>
<rscale>  2 0.12499846E+03</rscale>
<asrwt>0</asrwt>
<pdfrwt beam="1">  1       21 0.86166739E-03 0.12499846E+03</pdfrwt>
<pdfrwt beam="2">  1       21 0.10729586E+00 0.12499846E+03</pdfrwt>
<totfact> 0.32795132E+06</totfact>
</mgrwt>
</event>
<event>
 5    0  0.1441116E+000  0.1250034E+03  0.7546771E-02  0.1235064E+00
         21   -1    0    0  503  502  0.00000000000E+00  0.00000000000E+00  0.30650250356E+03  0.30650250356E+03  0.00000000000E+00 0.  1.
         21   -1    0    0  502  503 -0.00000000000E+00 -0.00000000000E+00 -0.12745277815E+02  0.12745277815E+02  0.00000000000E+00 0.  1.
         25    2    1    2    0    0  0.00000000000E+00  0.00000000000E+00  0.29375722574E+03  0.31924778137E+03  0.12500335289E+03 0.  0.
          4    1    3    3  501    0 -0.43239617881E+02 -0.26913382704E+02  0.54440258321E+02  0.74566339250E+02  0.15500000000E+01 0.  1.
         -4    1    3    3    0  501  0.43239617881E+02  0.26913382704E+02  0.23931696742E+03  0.24468144212E+03  0.15500000000E+01 0.  1.
<mgrwt>
<rscale>  2 0.12500335E+03</rscale>
<asrwt>0</asrwt>
<pdfrwt beam="1">  1       21 0.47154226E-01 0.12500335E+03</pdfrwt>
<pdfrwt beam="2">  1       21 0.19608122E-02 0.12500335E+03</pdfrwt>
<totfact> 0.53888475E+06</totfact>
</mgrwt>
</event>
<event>
 5    0  0.1444813E+000  0.1250064E+03  0.7546771E-02  0.1235059E+00
         21   -1    0    0  503  502  0.00000000000E+00  0.00000000000E+00  0.35356184505E+02  0.35356184505E+02  0.00000000000E+00 0.  1.
         21   -1    0    0  502  503 -0.00000000000E+00 -0.00000000000E+00 -0.11049405269E+03  0.11049405269E+03  0.00000000000E+00 0.  1.
         25    2    1    2    0    0  0.00000000000E+00  0.00000000000E+00 -0.75137868189E+02  0.14585023720E+03  0.12500636966E+03 0.  0.
          4    1    3    3  501    0 -0.22134899463E+00 -0.46380937942E+02  0.11281294549E+02  0.47758878823E+02  0.15500000000E+01 0. -1.
         -4    1    3    3    0  501  0.22134899463E+00  0.46380937942E+02 -0.86419162738E+02  0.98091358376E+02  0.15500000000E+01 0. -1.
<mgrwt>
<rscale>  2 0.12500637E+03</rscale>
<asrwt>0</asrwt>
<pdfrwt beam="1">  1       21 0.54394131E-02 0.12500637E+03</pdfrwt>
<pdfrwt beam="2">  1       21 0.16999085E-01 0.12500637E+03</pdfrwt>
<totfact> 0.71272905E+06</totfact>
</mgrwt>
</event>
<event>
 5    0  0.1521824E+000  0.1250007E+03  0.7546771E-02  0.1235068E+00
         21   -1    0    0  503  502  0.00000000000E+00  0.00000000000E+00  0.94144517023E+02  0.94144517023E+02  0.00000000000E+00 0.  1.
         21   -1    0    0  502  503 -0.00000000000E+00 -0.00000000000E+00 -0.41492493678E+02  0.41492493678E+02  0.00000000000E+00 0.  1.
         25    2    1    2    0    0  0.00000000000E+00  0.00000000000E+00  0.52652023344E+02  0.13563701070E+03  0.12500065244E+03 0.  0.
          4    1    3    3  501    0  0.22373270600E+02 -0.50714964841E+02 -0.49599393037E+01  0.55673821443E+02  0.15500000000E+01 0.  1.
         -4    1    3    3    0  501 -0.22373270600E+02  0.50714964841E+02  0.57611962648E+02  0.79963189258E+02  0.15500000000E+01 0.  1.
<mgrwt>
<rscale>  2 0.12500065E+03</rscale>
<asrwt>0</asrwt>
<pdfrwt beam="1">  1       21 0.14483772E-01 0.12500065E+03</pdfrwt>
<pdfrwt beam="2">  1       21 0.63834606E-02 0.12500065E+03</pdfrwt>
<totfact> 0.72611029E+06</totfact>
</mgrwt>
</event>
<event>
 5    0  0.1274457E+000  0.1250003E+03  0.7546771E-02  0.1235069E+00
         21   -1    0    0  503  502  0.00000000000E+00  0.00000000000E+00  0.75557947552E+01  0.75557947552E+01  0.00000000000E+00 0.  1.
         21   -1    0    0  502  503 -0.00000000000E+00 -0.00000000000E+00 -0.51698959461E+03  0.51698959461E+03  0.00000000000E+00 0.  1.
         25    2    1    2    0    0  0.00000000000E+00  0.00000000000E+00 -0.50943379986E+03  0.52454538937E+03  0.12500027628E+03 0.  0.
          4    1    3    3  501    0  0.20910546199E+02  0.55760783222E+02 -0.17539039618E+03  0.18523150234E+03  0.15500000000E+01 0. -1.
         -4    1    3    3    0  501 -0.20910546199E+02 -0.55760783222E+02 -0.33404340368E+03  0.33931388702E+03  0.15500000000E+01 0. -1.
<mgrwt>
<rscale>  2 0.12500028E+03</rscale>
<asrwt>0</asrwt>
<pdfrwt beam="1">  1       21 0.11624298E-02 0.12500028E+03</pdfrwt>
<pdfrwt beam="2">  1       21 0.79536875E-01 0.12500028E+03</pdfrwt>
<totfact> 0.40743170E+06</totfact>
</mgrwt>
</event>
<event>
 5    0  0.1377019E+000  0.1249948E+03  0.7546771E-02  0.1235077E+00
         21   -1    0    0  503  502  0.00000000000E+00  0.00000000000E+00  0.43968819783E+03  0.43968819783E+03  0.00000000000E+00 0.  1.
         21   -1    0    0  502  503 -0.00000000000E+00 -0.00000000000E+00 -0.88833932991E+01  0.88833932991E+01  0.00000000000E+00 0.  1.
         25    2    1    2    0    0  0.00000000000E+00  0.00000000000E+00  0.43080480453E+03  0.44857159113E+03  0.12499477094E+03 0.  0.
          4    1    3    3  501    0  0.44520106099E+02 -0.28854522764E+02  0.33382467528E+03  0.33801766175E+03  0.15500000000E+01 0.  1.
         -4    1    3    3    0  501 -0.44520106099E+02  0.28854522764E+02  0.96980129252E+02  0.11055392938E+03  0.15500000000E+01 0.  1.
<mgrwt>
<rscale>  2 0.12499477E+03</rscale>
<asrwt>0</asrwt>
<pdfrwt beam="1">  1       21 0.67644321E-01 0.12499477E+03</pdfrwt>
<pdfrwt beam="2">  1       21 0.13666762E-02 0.12499477E+03</pdfrwt>
<totfact> 0.44983738E+06</totfact>
</mgrwt>
</event>
<event>
 5    0  0.1440114E+000  0.1249980E+03  0.7546771E-02  0.1235072E+00
         21   -1    0    0  503  502  0.00000000000E+00  0.00000000000E+00  0.17476829325E+02  0.17476829325E+02  0.00000000000E+00 0.  1.
         21   -1    0    0  502  503 -0.00000000000E+00 -0.00000000000E+00 -0.22350320411E+03  0.22350320411E+03  0.00000000000E+00 0.  1.
         25    2    1    2    0    0  0.00000000000E+00  0.00000000000E+00 -0.20602637479E+03  0.24098003344E+03  0.12499803761E+03 0.  0.
          4    1    3    3  501    0 -0.32927155784E+02  0.48866828701E+02 -0.14306282741E+03  0.15473053875E+03  0.15500000000E+01 0. -1.
         -4    1    3    3    0  501  0.32927155784E+02 -0.48866828701E+02 -0.62963547376E+02  0.86249494685E+02  0.15500000000E+01 0. -1.
<mgrwt>
<rscale>  2 0.12499804E+03</rscale>
<asrwt>0</asrwt>
<pdfrwt beam="1">  1       21 0.26887430E-02 0.12499804E+03</pdfrwt>
<pdfrwt beam="2">  1       21 0.34385108E-01 0.12499804E+03</pdfrwt>
<totfact> 0.60740962E+06</totfact>
</mgrwt>
</event>
<event>
 5    0  0.1477317E+000  0.1249923E+03  0.7546771E-02  0.1235081E+00
         21   -1    0    0  503  502  0.00000000000E+00  0.00000000000E+00  0.15542155925E+02  0.15542155925E+02  0.00000000000E+00 0. -1.
         21   -1    0    0  502  503 -0.00000000000E+00 -0.00000000000E+00 -0.25130154930E+03  0.25130154930E+03  0.00000000000E+00 0. -1.
         25    2    1    2    0    0  0.00000000000E+00  0.00000000000E+00 -0.23575939337E+03  0.26684370522E+03  0.12499228558E+03 0.  0.
          4    1    3    3  501    0 -0.44311545786E+02 -0.32605749762E+02 -0.18109228231E+03  0.18927087790E+03  0.15500000000E+01 0.  1.
         -4    1    3    3    0  501  0.44311545786E+02  0.32605749762E+02 -0.54667111060E+02  0.77572827324E+02  0.15500000000E+01 0.  1.
<mgrwt>
<rscale>  2 0.12499229E+03</rscale>
<asrwt>0</asrwt>
<pdfrwt beam="1">  1       21 0.23911010E-02 0.12499229E+03</pdfrwt>
<pdfrwt beam="2">  1       21 0.38661776E-01 0.12499229E+03</pdfrwt>
<totfact> 0.58338964E+06</totfact>
</mgrwt>
</event>
<event>
 5    0  0.1447864E+000  0.1249966E+03  0.7546771E-02  0.1235075E+00
         21   -1    0    0  503  502  0.00000000000E+00  0.00000000000E+00  0.24425035002E+03  0.24425035002E+03  0.00000000000E+00 0.  1.
         21   -1    0    0  502  503 -0.00000000000E+00 -0.00000000000E+00 -0.15991942492E+02  0.15991942492E+02  0.00000000000E+00 0.  1.
         25    2    1    2    0    0  0.00000000000E+00  0.00000000000E+00  0.22825840753E+03  0.26024229251E+03  0.12499660077E+03 0.  0.
          4    1    3    3  501    0 -0.41670289691E+02 -0.35607739565E+02  0.51693271631E+02  0.75358615909E+02  0.15500000000E+01 0. -1.
         -4    1    3    3    0  501  0.41670289691E+02  0.35607739565E+02  0.17656513589E+03  0.18488367660E+03  0.15500000000E+01 0. -1.
<mgrwt>
<rscale>  2 0.12499660E+03</rscale>
<asrwt>0</asrwt>
<pdfrwt beam="1">  1       21 0.37576974E-01 0.12499660E+03</pdfrwt>
<pdfrwt beam="2">  1       21 0.24602990E-02 0.12499660E+03</pdfrwt>
<totfact> 0.58932118E+06</totfact>
</mgrwt>
</event>
<event>
 5    0  0.1472226E+000  0.1249809E+03  0.7546771E-02  0.1235099E+00
         21   -1    0    0  503  502  0.00000000000E+00  0.00000000000E+00  0.20524820915E+02  0.20524820915E+02  0.00000000000E+00 0.  1.
         21   -1    0    0  502  503 -0.00000000000E+00 -0.00000000000E+00 -0.19026028232E+03  0.19026028232E+03  0.00000000000E+00 0.  1.
         25    2    1    2    0    0  0.00000000000E+00  0.00000000000E+00 -0.16973546140E+03  0.21078510323E+03  0.12498093009E+03 0.  0.
          4    1    3    3  501    0 -0.22708285100E+02  0.29053215564E+02 -0.16991508705E+03  0.17387724076E+03  0.15500000000E+01 0. -1.
         -4    1    3    3    0  501  0.22708285100E+02 -0.29053215564E+02  0.17962564972E+00  0.36907862471E+02  0.15500000000E+01 0. -1.
<mgrwt>
<rscale>  2 0.12498093E+03</rscale>
<asrwt>0</asrwt>
<pdfrwt beam="1">  1       21 0.31576648E-02 0.12498093E+03</pdfrwt>
<pdfrwt beam="2">  1       21 0.29270812E-01 0.12498093E+03</pdfrwt>
<totfact> 0.63807800E+06</totfact>
</mgrwt>
</event>
<event>
 4    0  0.1572934E+000  0.1251555E+03  0.7546771E-02  0.1234826E+00
         21   -1    0    0  503  502  0.00000000000E+00  0.00000000000E+00  0.77313662348E+02  0.77313662348E+02  0.00000000000E+00 0.  1.
         21   -1    0    0  502  503 -0.00000000000E+00 -0.00000000000E+00 -0.50650483965E+02  0.50650483965E+02  0.00000000000E+00 0.  1.
          4    1    1    2  501    0 -0.59412827244E+02  0.18536027685E+02  0.19806440554E+02  0.65331201970E+02  0.15500000000E+01 0. -1.
         -4    1    1    2    0  501  0.59412827244E+02 -0.18536027685E+02  0.68567378293E+01  0.62632944343E+02  0.15500000000E+01 0. -1.
<mgrwt>
<rscale>  2 0.12515549E+03</rscale>
<asrwt>0</asrwt>
<pdfrwt beam="1">  1       21 0.11894410E-01 0.12515549E+03</pdfrwt>
<pdfrwt beam="2">  1       21 0.77923821E-02 0.12515549E+03</pdfrwt>
<totfact> 0.73346825E+06</totfact>
</mgrwt>
</event>
<event>
 5    0  0.1477218E+000  0.1249986E+03  0.7546771E-02  0.1235071E+00
         21   -1    0    0  503  502  0.00000000000E+00  0.00000000000E+00  0.18769089358E+03  0.18769089358E+03  0.00000000000E+00 0.  1.
         21   -1    0    0  502  503 -0.00000000000E+00 -0.00000000000E+00 -0.20811683804E+02  0.20811683804E+02  0.00000000000E+00 0.  1.
         25    2    1    2    0    0  0.00000000000E+00  0.00000000000E+00  0.16687920978E+03  0.20850257738E+03  0.12499861647E+03 0.  0.
          4    1    3    3  501    0 -0.22967584777E+01 -0.54222412264E+02  0.31799961375E+02  0.62920466740E+02  0.15500000000E+01 0.  1.
         -4    1    3    3    0  501  0.22967584777E+01  0.54222412264E+02  0.13507924840E+03  0.14558211065E+03  0.15500000000E+01 0.  1.
<mgrwt>
<rscale>  2 0.12499862E+03</rscale>
<asrwt>0</asrwt>
<pdfrwt beam="1">  1       21 0.28875521E-01 0.12499862E+03</pdfrwt>
<pdfrwt beam="2">  1       21 0.32017976E-02 0.12499862E+03</pdfrwt>
<totfact> 0.64019668E+06</totfact>
</mgrwt>
</event>
<event>
 5    0  0.1464784E+000  0.1250104E+03  0.7546771E-02  0.1235053E+00
         21   -1    0    0  503  502  0.00000000000E+00  0.00000000000E+00  0.33109834525E+03  0.33109834525E+03  0.00000000000E+00 0.  1.
         21   -1    0    0  502  503 -0.00000000000E+00 -0.00000000000E+00 -0.11799816704E+02  0.11799816704E+02  0.00000000000E+00 0.  1.
         25    2    1    2    0    0  0.00000000000E+00  0.00000000000E+00  0.31929852854E+03  0.34289816195E+03  0.12501039613E+03 0.  0.
          4    1    3    3  501    0  0.10611784584E+02  0.57979767898E+02  0.21654389760E+03  0.22442799635E+03  0.15500000000E+01 0.  1.
         -4    1    3    3    0  501 -0.10611784584E+02 -0.57979767898E+02  0.10275463094E+03  0.11847016560E+03  0.15500000000E+01 0.  1.
<mgrwt>
<rscale>  2 0.12501040E+03</rscale>
<asrwt>0</asrwt>
<pdfrwt beam="1">  1       21 0.50938200E-01 0.12501040E+03</pdfrwt>
<pdfrwt beam="2">  1       21 0.18153567E-02 0.12501040E+03</pdfrwt>
<totfact> 0.52053678E+06</totfact>
</mgrwt>
</event>
<event>
 5    0  0.1411597E+000  0.1250021E+03  0.7546771E-02  0.1235066E+00
         21   -1    0    0  503  502  0.00000000000E+00  0.00000000000E+00  0.11483621191E+02  0.11483621191E+02  0.00000000000E+00 0. -1.
         21   -1    0    0  502  503 -0.00000000000E+00 -0.00000000000E+00 -0.34016983236E+03  0.34016983236E+03  0.00000000000E+00 0. -1.
         25    2    1    2    0    0  0.00000000000E+00  0.00000000000E+00 -0.32868621116E+03  0.35165345355E+03  0.12500210391E+03 0.  0.
          4    1    3    3  501    0  0.48853029099E+02 -0.12919947342E+02 -0.26772262000E+03  0.27245430305E+03  0.15500000000E+01 0.  1.
         -4    1    3    3    0  501 -0.48853029099E+02  0.12919947342E+02 -0.60963591165E+02  0.79199150496E+02  0.15500000000E+01 0.  1.
<mgrwt>
<rscale>  2 0.12500210E+03</rscale>
<asrwt>0</asrwt>
<pdfrwt beam="1">  1       21 0.17667111E-02 0.12500210E+03</pdfrwt>
<pdfrwt beam="2">  1       21 0.52333816E-01 0.12500210E+03</pdfrwt>
<totfact> 0.51413844E+06</totfact>
</mgrwt>
</event>
<event>
 5    0  0.1222151E+000  0.1250057E+03  0.7546771E-02  0.1235060E+00
         21   -1    0    0  503  502  0.00000000000E+00  0.00000000000E+00  0.30175461288E+01  0.30175461288E+01  0.00000000000E+00 0. -1.
         21   -1    0    0  502  503 -0.00000000000E+00 -0.00000000000E+00 -0.12946297744E+04  0.12946297744E+04  0.00000000000E+00 0. -1.
         25    2    1    2    0    0  0.00000000000E+00  0.00000000000E+00 -0.12916122283E+04  0.12976473206E+04  0.12500568090E+03 0.  0.
          4    1    3    3  501    0 -0.22585643753E+02 -0.51644244163E+02 -0.92569339897E+03  0.92740924659E+03  0.15500000000E+01 0. -1.
         -4    1    3    3    0  501  0.22585643753E+02  0.51644244163E+02 -0.36591882933E+03  0.37023807397E+03  0.15500000000E+01 0. -1.
<mgrwt>
<rscale>  2 0.12500568E+03</rscale>
<asrwt>0</asrwt>
<pdfrwt beam="1">  1       21 0.46423765E-03 0.12500568E+03</pdfrwt>
<pdfrwt beam="2">  1       21 0.19917390E+00 0.12500568E+03</pdfrwt>
<totfact> 0.17292187E+06</totfact>
</mgrwt>
</event>
<event>
 5    0  0.1503718E+000  0.1249988E+03  0.7546771E-02  0.1235071E+00
         21   -1    0    0  503  502  0.00000000000E+00  0.00000000000E+00  0.15157968725E+02  0.15157968725E+02  0.00000000000E+00 0.  1.
         21   -1    0    0  502  503 -0.00000000000E+00 -0.00000000000E+00 -0.25769783159E+03  0.25769783159E+03  0.00000000000E+00 0.  1.
         25    2    1    2    0    0  0.00000000000E+00  0.00000000000E+00 -0.24253986287E+03  0.27285580032E+03  0.12499881074E+03 0.  0.
          4    1    3    3  501    0 -0.14138218692E+02  0.58257717336E+02 -0.15969845798E+03  0.17058678389E+03  0.15500000000E+01 0. -1.
         -4    1    3    3    0  501  0.14138218692E+02 -0.58257717336E+02 -0.82841404885E+02  0.10226901642E+03  0.15500000000E+01 0. -1.
<mgrwt>
<rscale>  2 0.12499881E+03</rscale>
<asrwt>0</asrwt>
<pdfrwt beam="1">  1       21 0.23319953E-02 0.12499881E+03</pdfrwt>
<pdfrwt beam="2">  1       21 0.39645818E-01 0.12499881E+03</pdfrwt>
<totfact> 0.57791924E+06</totfact>
</mgrwt>
</event>
<event>
 5    0  0.1348571E+000  0.1249881E+03  0.7546771E-02  0.1235088E+00
         21   -1    0    0  503  502  0.00000000000E+00  0.00000000000E+00  0.46692442817E+03  0.46692442817E+03  0.00000000000E+00 0.  1.
         21   -1    0    0  502  503 -0.00000000000E+00 -0.00000000000E+00 -0.83643207562E+01  0.83643207562E+01  0.00000000000E+00 0.  1.
         25    2    1    2    0    0  0.00000000000E+00  0.00000000000E+00  0.45856010741E+03  0.47528874892E+03  0.12498809041E+03 0.  0.
          4    1    3    3  501    0  0.46730906861E+02 -0.20722001723E+02  0.92705122042E+02  0.10587644291E+03  0.15500000000E+01 0. -1.
         -4    1    3    3    0  501 -0.46730906861E+02  0.20722001723E+02  0.36585498537E+03  0.36941230601E+03  0.15500000000E+01 0. -1.
<mgrwt>
<rscale>  2 0.12498809E+03</rscale>
<asrwt>0</asrwt>
<pdfrwt beam="1">  1       21 0.71834507E-01 0.12498809E+03</pdfrwt>
<pdfrwt beam="2">  1       21 0.12868189E-02 0.12498809E+03</pdfrwt>
<totfact> 0.43429617E+06</totfact>
</mgrwt>
</event>
<event>
 5    0  0.1557942E+000  0.1250021E+03  0.7546771E-02  0.1235066E+00
         21   -1    0    0  503  502  0.00000000000E+00  0.00000000000E+00  0.72151754212E+02  0.72151754212E+02  0.00000000000E+00 0.  1.
         21   -1    0    0  502  503 -0.00000000000E+00 -0.00000000000E+00 -0.54141211392E+02  0.54141211392E+02  0.00000000000E+00 0.  1.
         25    2    1    2    0    0  0.00000000000E+00  0.00000000000E+00  0.18010542820E+02  0.12629296560E+03  0.12500213402E+03 0.  0.
          4    1    3    3  501    0 -0.44160173605E+02 -0.44166722434E+02  0.72091127450E+01  0.62890333994E+02  0.15500000000E+01 0.  1.
         -4    1    3    3    0  501  0.44160173605E+02  0.44166722434E+02  0.10801430075E+02  0.63402631609E+02  0.15500000000E+01 0.  1.
<mgrwt>
<rscale>  2 0.12500213E+03</rscale>
<asrwt>0</asrwt>
<pdfrwt beam="1">  1       21 0.11100270E-01 0.12500213E+03</pdfrwt>
<pdfrwt beam="2">  1       21 0.83294171E-02 0.12500213E+03</pdfrwt>
<totfact> 0.73861722E+06</totfact>
</mgrwt>
</event>
<event>
 5    0  0.1584042E+000  0.1250145E+03  0.7546771E-02  0.1235047E+00
         21   -1    0    0  503  502  0.00000000000E+00  0.00000000000E+00  0.12580114141E+03  0.12580114141E+03  0.00000000000E+00 0.  1.
         21   -1    0    0  502  503 -0.00000000000E+00 -0.00000000000E+00 -0.31058211656E+02  0.31058211656E+02  0.00000000000E+00 0.  1.
         25    2    1    2    0    0  0.00000000000E+00  0.00000000000E+00  0.94742929749E+02  0.15685935306E+03  0.12501453478E+03 0.  0.
          4    1    3    3  501    0 -0.26315457127E+02 -0.46426610682E+02  0.65817247272E+01  0.53792704557E+02  0.15500000000E+01 0. -1.
         -4    1    3    3    0  501  0.26315457127E+02  0.46426610682E+02  0.88161205022E+02  0.10306664850E+03  0.15500000000E+01 0. -1.
<mgrwt>
<rscale>  2 0.12501453E+03</rscale>
<asrwt>0</asrwt>
<pdfrwt beam="1">  1       21 0.19354021E-01 0.12501453E+03</pdfrwt>
<pdfrwt beam="2">  1       21 0.47781865E-02 0.12501453E+03</pdfrwt>
<totfact> 0.69879465E+06</totfact>
</mgrwt>
</event>
<event>
 5    0  0.1503185E+000  0.1249983E+03  0.7546771E-02  0.1235072E+00
         21   -1    0    0  503  502  0.00000000000E+00  0.00000000000E+00  0.22840171415E+02  0.22840171415E+02  0.00000000000E+00 0. -1.
         21   -1    0    0  502  503 -0.00000000000E+00 -0.00000000000E+00 -0.17102067090E+03  0.17102067090E+03  0.00000000000E+00 0. -1.
         25    2    1    2    0    0  0.00000000000E+00  0.00000000000E+00 -0.14818049948E+03  0.19386084231E+03  0.12499826301E+03 0.  0.
          4    1    3    3  501    0 -0.47977834379E+02 -0.15899288358E+02 -0.13105481727E+03  0.14047215949E+03  0.15500000000E+01 0. -1.
         -4    1    3    3    0  501  0.47977834379E+02  0.15899288358E+02 -0.17125682207E+02  0.53388682818E+02  0.15500000000E+01 0. -1.
<mgrwt>
<rscale>  2 0.12499826E+03</rscale>
<asrwt>0</asrwt>
<pdfrwt beam="1">  1       21 0.35138727E-02 0.12499826E+03</pdfrwt>
<pdfrwt beam="2">  1       21 0.26310871E-01 0.12499826E+03</pdfrwt>
<totfact> 0.65598803E+06</totfact>
</mgrwt>
</event>
<event>
 5    0  0.1341034E+000  0.1249998E+03  0.7546771E-02  0.1235070E+00
         21   -1    0    0  503  502  0.00000000000E+00  0.00000000000E+00  0.10106595450E+02  0.10106595450E+02  0.00000000000E+00 0.  1.
         21   -1    0    0  502  503 -0.00000000000E+00 -0.00000000000E+00 -0.38650408917E+03  0.38650408917E+03  0.00000000000E+00 0.  1.
         25    2    1    2    0    0  0.00000000000E+00  0.00000000000E+00 -0.37639749372E+03  0.39661068462E+03  0.12499984751E+03 0.  0.
          4    1    3    3  501    0  0.32542814277E+02 -0.53247642729E+01 -0.35658473766E+03  0.35810957193E+03  0.15500000000E+01 0. -1.
         -4    1    3    3    0  501 -0.32542814277E+02  0.53247642729E+01 -0.19812756057E+02  0.38501112688E+02  0.15500000000E+01 0. -1.
<mgrwt>
<rscale>  2 0.12499985E+03</rscale>
<asrwt>0</asrwt>
<pdfrwt beam="1">  1       21 0.15548612E-02 0.12499985E+03</pdfrwt>
<pdfrwt beam="2">  1       21 0.59462154E-01 0.12499985E+03</pdfrwt>
<totfact> 0.48267165E+06</totfact>
</mgrwt>
</event>
<event>
 5    0  0.1478489E+000  0.1250001E+03  0.7546771E-02  0.1235069E+00
         21   -1    0    0  503  502  0.00000000000E+00  0.00000000000E+00  0.31773246142E+03  0.31773246142E+03  0.00000000000E+00 0. -1.
         21   -1    0    0  502  503 -0.00000000000E+00 -0.00000000000E+00 -0.12294167904E+02  0.12294167904E+02  0.00000000000E+00 0. -1.
         25    2    1    2    0    0  0.00000000000E+00  0.00000000000E+00  0.30543829352E+03  0.33002662932E+03  0.12500009967E+03 0.  0.
          4    1    3    3  501    0  0.51648011136E+02 -0.28959755341E+02  0.20536929850E+03  0.21374081442E+03  0.15500000000E+01 0.  1.
         -4    1    3    3    0  501 -0.51648011136E+02  0.28959755341E+02  0.10006899501E+03  0.11628581490E+03  0.15500000000E+01 0.  1.
<mgrwt>
<rscale>  2 0.12500010E+03</rscale>
<asrwt>0</asrwt>
<pdfrwt beam="1">  1       21 0.48881911E-01 0.12500010E+03</pdfrwt>
<pdfrwt beam="2">  1       21 0.18914107E-02 0.12500010E+03</pdfrwt>
<totfact> 0.53048097E+06</totfact>
</mgrwt>
</event>
<event>
 5    0  0.1548461E+000  0.1249999E+03  0.7546771E-02  0.1235069E+00
         21   -1    0    0  503  502  0.00000000000E+00  0.00000000000E+00  0.21874693129E+02  0.21874693129E+02  0.00000000000E+00 0. -1.
         21   -1    0    0  502  503 -0.00000000000E+00 -0.00000000000E+00 -0.17857367722E+03  0.17857367722E+03  0.00000000000E+00 0. -1.
         25    2    1    2    0    0  0.00000000000E+00  0.00000000000E+00 -0.15669898409E+03  0.20044837035E+03  0.12499991024E+03 0.  0.
          4    1    3    3  501    0 -0.44928432588E+02  0.33716797414E+02 -0.34478667819E+02  0.65928503071E+02  0.15500000000E+01 0.  1.
         -4    1    3    3    0  501  0.44928432588E+02 -0.33716797414E+02 -0.12222031627E+03  0.13451986728E+03  0.15500000000E+01 0.  1.
<mgrwt>
<rscale>  2 0.12499991E+03</rscale>
<asrwt>0</asrwt>
<pdfrwt beam="1">  1       21 0.33653374E-02 0.12499991E+03</pdfrwt>
<pdfrwt beam="2">  1       21 0.27472873E-01 0.12499991E+03</pdfrwt>
<totfact> 0.64878848E+06</totfact>
</mgrwt>
</event>
<event>
 5    0  0.1559178E+000  0.1250331E+03  0.7546771E-02  0.1235018E+00
         21   -1    0    0  503  502  0.00000000000E+00  0.00000000000E+00  0.11650631626E+03  0.11650631626E+03  0.00000000000E+00 0.  1.
         21   -1    0    0  502  503 -0.00000000000E+00 -0.00000000000E+00 -0.33545962260E+02  0.33545962260E+02  0.00000000000E+00 0.  1.
         25    2    1    2    0    0  0.00000000000E+00  0.00000000000E+00  0.82960354004E+02  0.15005227852E+03  0.12503305944E+03 0.  0.
          4    1    3    3  501    0  0.33093138852E+02  0.52937433832E+02  0.44955551439E+02  0.76947591548E+02  0.15500000000E+01 0. -1.
         -4    1    3    3    0  501 -0.33093138852E+02 -0.52937433832E+02  0.38004802565E+02  0.73104686976E+02  0.15500000000E+01 0. -1.
<mgrwt>
<rscale>  2 0.12503306E+03</rscale>
<asrwt>0</asrwt>
<pdfrwt beam="1">  1       21 0.17924048E-01 0.12503306E+03</pdfrwt>
<pdfrwt beam="2">  1       21 0.51609173E-02 0.12503306E+03</pdfrwt>
<totfact> 0.70693126E+06</totfact>
</mgrwt>
</event>
<event>
 5    0  0.1653315E+000  0.1249988E+03  0.7546771E-02  0.1235071E+00
         21   -1    0    0  503  502  0.00000000000E+00  0.00000000000E+00  0.53491640745E+02  0.53491640745E+02  0.00000000000E+00 0.  1.
         21   -1    0    0  502  503 -0.00000000000E+00 -0.00000000000E+00 -0.73023977243E+02  0.73023977243E+02  0.00000000000E+00 0.  1.
         25    2    1    2    0    0  0.00000000000E+00  0.00000000000E+00 -0.19532336499E+02  0.12651561799E+03  0.12499875770E+03 0.  0.
          4    1    3    3  501    0  0.25546156195E+01  0.61741839156E+02 -0.42437090205E+00  0.61815559158E+02  0.15500000000E+01 0. -1.
         -4    1    3    3    0  501 -0.25546156195E+01 -0.61741839156E+02 -0.19107965597E+02  0.64700058830E+02  0.15500000000E+01 0. -1.
<mgrwt>
<rscale>  2 0.12499876E+03</rscale>
<asrwt>0</asrwt>
<pdfrwt beam="1">  1       21 0.82294832E-02 0.12499876E+03</pdfrwt>
<pdfrwt beam="2">  1       21 0.11234458E-01 0.12499876E+03</pdfrwt>
<totfact> 0.73837577E+06</totfact>
</mgrwt>
</event>
<event>
 5    0  0.1631486E+000  0.1250011E+03  0.7546771E-02  0.1235068E+00
         21   -1    0    0  503  502  0.00000000000E+00  0.00000000000E+00  0.76545401738E+02  0.76545401738E+02  0.00000000000E+00 0.  1.
         21   -1    0    0  502  503 -0.00000000000E+00 -0.00000000000E+00 -0.51032706298E+02  0.51032706298E+02  0.00000000000E+00 0.  1.
         25    2    1    2    0    0  0.00000000000E+00  0.00000000000E+00  0.25512695440E+02  0.12757810804E+03  0.12500110408E+03 0.  0.
          4    1    3    3  501    0  0.52733748970E+02 -0.33231472289E+02  0.17174267595E+02  0.64672536663E+02  0.15500000000E+01 0. -1.
         -4    1    3    3    0  501 -0.52733748970E+02  0.33231472289E+02  0.83384278449E+01  0.62905571374E+02  0.15500000000E+01 0. -1.
<mgrwt>
<rscale>  2 0.12500110E+03</rscale>
<asrwt>0</asrwt>
<pdfrwt beam="1">  1       21 0.11776216E-01 0.12500110E+03</pdfrwt>
<pdfrwt beam="2">  1       21 0.78511856E-02 0.12500110E+03</pdfrwt>
<totfact> 0.73688556E+06</totfact>
</mgrwt>
</event>
<event>
 5    0  0.1599183E+000  0.1249999E+03  0.7546771E-02  0.1235069E+00
         21   -1    0    0  503  502  0.00000000000E+00  0.00000000000E+00  0.32553695747E+02  0.32553695747E+02  0.00000000000E+00 0. -1.
         21   -1    0    0  502  503 -0.00000000000E+00 -0.00000000000E+00 -0.11999379143E+03  0.11999379143E+03  0.00000000000E+00 0. -1.
         25    2    1    2    0    0  0.00000000000E+00  0.00000000000E+00 -0.87440095679E+02  0.15254748717E+03  0.12499986204E+03 0.  0.
          4    1    3    3  501    0  0.19570158542E+02 -0.52339130458E+02 -0.96047011688E+01  0.56718854599E+02  0.15500000000E+01 0. -1.
         -4    1    3    3    0  501 -0.19570158542E+02  0.52339130458E+02 -0.77835394510E+02  0.95828632574E+02  0.15500000000E+01 0. -1.
<mgrwt>
<rscale>  2 0.12499986E+03</rscale>
<asrwt>0</asrwt>
<pdfrwt beam="1">  1       21 0.50082610E-02 0.12499986E+03</pdfrwt>
<pdfrwt beam="2">  1       21 0.18460583E-01 0.12499986E+03</pdfrwt>
<totfact> 0.70440886E+06</totfact>
</mgrwt>
</event>
<event>
 5    0  0.1550182E+000  0.1249926E+03  0.7546771E-02  0.1235081E+00
         21   -1    0    0  503  502  0.00000000000E+00  0.00000000000E+00  0.81132879298E+02  0.81132879298E+02  0.00000000000E+00 0.  1.
         21   -1    0    0  502  503 -0.00000000000E+00 -0.00000000000E+00 -0.48140602371E+02  0.48140602371E+02  0.00000000000E+00 0.  1.
         25    2    1    2    0    0  0.00000000000E+00  0.00000000000E+00  0.32992276927E+02  0.12927348167E+03  0.12499257068E+03 0.  0.
          4    1    3    3  501    0  0.27478233313E+01  0.56007822509E+02  0.44988843239E+02  0.71908450347E+02  0.15500000000E+01 0. -1.
         -4    1    3    3    0  501 -0.27478233313E+01 -0.56007822509E+02 -0.11996566312E+02  0.57365031322E+02  0.15500000000E+01 0. -1.
<mgrwt>
<rscale>  2 0.12499257E+03</rscale>
<asrwt>0</asrwt>
<pdfrwt beam="1">  1       21 0.12481981E-01 0.12499257E+03</pdfrwt>
<pdfrwt beam="2">  1       21 0.74062465E-02 0.12499257E+03</pdfrwt>
<totfact> 0.73476114E+06</totfact>
</mgrwt>
</event>
<event>
 5    0  0.1253239E+000  0.1250475E+03  0.7546771E-02  0.1234995E+00
         21   -1    0    0  503  502  0.00000000000E+00  0.00000000000E+00  0.70746189674E+03  0.70746189674E+03  0.00000000000E+00 0. -1.
         21   -1    0    0  502  503 -0.00000000000E+00 -0.00000000000E+00 -0.55256945266E+01  0.55256945266E+01  0.00000000000E+00 0. -1.
         25    2    1    2    0    0  0.00000000000E+00  0.00000000000E+00  0.70193620222E+03  0.71298759127E+03  0.12504748427E+03 0.  0.
          4    1    3    3  501    0 -0.50135277768E+02  0.14138251335E+02  0.15399980958E+03  0.16257853511E+03  0.15500000000E+01 0.  1.
         -4    1    3    3    0  501  0.50135277768E+02 -0.14138251335E+02  0.54793639263E+03  0.55040905616E+03  0.15500000000E+01 0.  1.
<mgrwt>
<rscale>  2 0.12504748E+03</rscale>
<asrwt>0</asrwt>
<pdfrwt beam="1">  1       21 0.10884022E+00 0.12504748E+03</pdfrwt>
<pdfrwt beam="2">  1       21 0.85010741E-03 0.12504748E+03</pdfrwt>
<totfact> 0.32377297E+06</totfact>
</mgrwt>
</event>
<event>
 5    0  0.1607284E+000  0.1249951E+03  0.7546771E-02  0.1235077E+00
         21   -1    0    0  503  502  0.00000000000E+00  0.00000000000E+00  0.11099961588E+03  0.11099961588E+03  0.00000000000E+00 0. -1.
         21   -1    0    0  502  503 -0.00000000000E+00 -0.00000000000E+00 -0.35188783496E+02  0.35188783496E+02  0.00000000000E+00 0. -1.
         25    2    1    2    0    0  0.00000000000E+00  0.00000000000E+00  0.75810832382E+02  0.14618839938E+03  0.12499506312E+03 0.  0.
          4    1    3    3  501    0 -0.17995862718E+02  0.57571616859E+02  0.18859397879E+02  0.63217256592E+02  0.15500000000E+01 0.  1.
         -4    1    3    3    0  501  0.17995862718E+02 -0.57571616859E+02  0.56951434504E+02  0.82971142783E+02  0.15500000000E+01 0.  1.
<mgrwt>
<rscale>  2 0.12499506E+03</rscale>
<asrwt>0</asrwt>
<pdfrwt beam="1">  1       21 0.17076864E-01 0.12499506E+03</pdfrwt>
<pdfrwt beam="2">  1       21 0.54136591E-02 0.12499506E+03</pdfrwt>
<totfact> 0.71250315E+06</totfact>
</mgrwt>
</event>
<event>
 5    0  0.1505197E+000  0.1249966E+03  0.7546771E-02  0.1235075E+00
         21   -1    0    0  503  502  0.00000000000E+00  0.00000000000E+00  0.12447232177E+03  0.12447232177E+03  0.00000000000E+00 0. -1.
         21   -1    0    0  502  503 -0.00000000000E+00 -0.00000000000E+00 -0.31380791812E+02  0.31380791812E+02  0.00000000000E+00 0. -1.
         25    2    1    2    0    0  0.00000000000E+00  0.00000000000E+00  0.93091529959E+02  0.15585311358E+03  0.12499664021E+03 0.  0.
          4    1    3    3  501    0  0.39909922362E+01  0.46874656466E+02 -0.47193171974E+01  0.47305770183E+02  0.15500000000E+01 0. -1.
         -4    1    3    3    0  501 -0.39909922362E+01 -0.46874656466E+02  0.97810847156E+02  0.10854734340E+03  0.15500000000E+01 0. -1.
<mgrwt>
<rscale>  2 0.12499664E+03</rscale>
<asrwt>0</asrwt>
<pdfrwt beam="1">  1       21 0.19149588E-01 0.12499664E+03</pdfrwt>
<pdfrwt beam="2">  1       21 0.48278142E-02 0.12499664E+03</pdfrwt>
<totfact> 0.70035768E+06</totfact>
</mgrwt>
</event>
<event>
 5    0  0.1496070E+000  0.1250004E+03  0.7546771E-02  0.1235069E+00
         21   -1    0    0  503  502  0.00000000000E+00  0.00000000000E+00  0.12873182199E+03  0.12873182199E+03  0.00000000000E+00 0.  1.
         21   -1    0    0  502  503 -0.00000000000E+00 -0.00000000000E+00 -0.30344297614E+02  0.30344297614E+02  0.00000000000E+00 0.  1.
         25    2    1    2    0    0  0.00000000000E+00  0.00000000000E+00  0.98387524376E+02  0.15907611960E+03  0.12500042750E+03 0.  0.
          4    1    3    3  501    0 -0.15839741810E+02  0.52643668052E+02  0.11407454513E+02  0.56167479248E+02  0.15500000000E+01 0. -1.
         -4    1    3    3    0  501  0.15839741810E+02 -0.52643668052E+02  0.86980069862E+02  0.10290864036E+03  0.15500000000E+01 0. -1.
<mgrwt>
<rscale>  2 0.12500043E+03</rscale>
<asrwt>0</asrwt>
<pdfrwt beam="1">  1       21 0.19804895E-01 0.12500043E+03</pdfrwt>
<pdfrwt beam="2">  1       21 0.46683535E-02 0.12500043E+03</pdfrwt>
<totfact> 0.69631804E+06</totfact>
</mgrwt>
</event>
<event>
 5    0  0.1492477E+000  0.1250142E+03  0.7546771E-02  0.1235047E+00
         21   -1    0    0  503  502  0.00000000000E+00  0.00000000000E+00  0.23124941003E+03  0.23124941003E+03  0.00000000000E+00 0.  1.
         21   -1    0    0  502  503 -0.00000000000E+00 -0.00000000000E+00 -0.16895780555E+02  0.16895780555E+02  0.00000000000E+00 0.  1.
         25    2    1    2    0    0  0.00000000000E+00  0.00000000000E+00  0.21435362948E+03  0.24814519059E+03  0.12501422776E+03 0.  0.
          4    1    3    3  501    0 -0.51239589717E+02 -0.20091039419E+02  0.48441790117E+02  0.73335904911E+02  0.15500000000E+01 0. -1.
         -4    1    3    3    0  501  0.51239589717E+02  0.20091039419E+02  0.16591183936E+03  0.17480928568E+03  0.15500000000E+01 0. -1.
<mgrwt>
<rscale>  2 0.12501423E+03</rscale>
<asrwt>0</asrwt>
<pdfrwt beam="1">  1       21 0.35576830E-01 0.12501423E+03</pdfrwt>
<pdfrwt beam="2">  1       21 0.25993510E-02 0.12501423E+03</pdfrwt>
<totfact> 0.60031723E+06</totfact>
</mgrwt>
</event>
<event>
 5    0  0.1222151E+000  0.1249993E+03  0.7546771E-02  0.1235070E+00
         21   -1    0    0  503  502  0.00000000000E+00  0.00000000000E+00  0.10495087439E+04  0.10495087439E+04  0.00000000000E+00 0.  1.
         21   -1    0    0  502  503 -0.00000000000E+00 -0.00000000000E+00 -0.37219361496E+01  0.37219361496E+01  0.00000000000E+00 0.  1.
         25    2    1    2    0    0  0.00000000000E+00  0.00000000000E+00  0.10457868078E+04  0.10532306801E+04  0.12499927253E+03 0.  0.
          4    1    3    3  501    0 -0.91932660234E+01 -0.58190832888E+02  0.34753904904E+03  0.35250032948E+03  0.15500000000E+01 0.  1.
         -4    1    3    3    0  501  0.91932660234E+01  0.58190832888E+02  0.69824775871E+03  0.70073035058E+03  0.15500000000E+01 0.  1.
<mgrwt>
<rscale>  2 0.12499927E+03</rscale>
<asrwt>0</asrwt>
<pdfrwt beam="1">  1       21 0.16146265E+00 0.12499927E+03</pdfrwt>
<pdfrwt beam="2">  1       21 0.57260640E-03 0.12499927E+03</pdfrwt>
<totfact> 0.22323083E+06</totfact>
</mgrwt>
</event>
<event>
 5    0  0.1413275E+000  0.1249703E+03  0.7546771E-02  0.1235116E+00
         21   -1    0    0  503  502  0.00000000000E+00  0.00000000000E+00  0.18092823124E+02  0.18092823124E+02  0.00000000000E+00 0.  1.
         21   -1    0    0  502  503 -0.00000000000E+00 -0.00000000000E+00 -0.21579777844E+03  0.21579777844E+03  0.00000000000E+00 0.  1.
         25    2    1    2    0    0  0.00000000000E+00  0.00000000000E+00 -0.19770495532E+03  0.23389060157E+03  0.12497025304E+03 0.  0.
          4    1    3    3  501    0  0.28736474204E+02  0.15612506318E+02  0.75398005918E+00  0.32749141807E+02  0.15500000000E+01 0. -1.
         -4    1    3    3    0  501 -0.28736474204E+02 -0.15612506318E+02 -0.19845893538E+03  0.20114145976E+03  0.15500000000E+01 0. -1.
<mgrwt>
<rscale>  2 0.12497025E+03</rscale>
<asrwt>0</asrwt>
<pdfrwt beam="1">  1       21 0.27835114E-02 0.12497025E+03</pdfrwt>
<pdfrwt beam="2">  1       21 0.33199657E-01 0.12497025E+03</pdfrwt>
<totfact> 0.61475054E+06</totfact>
</mgrwt>
</event>
<event>
 5    0  0.1437414E+000  0.1250051E+03  0.7546771E-02  0.1235061E+00
         21   -1    0    0  503  502  0.00000000000E+00  0.00000000000E+00  0.13195874057E+03  0.13195874057E+03  0.00000000000E+00 0. -1.
         21   -1    0    0  502  503 -0.00000000000E+00 -0.00000000000E+00 -0.29604463381E+02  0.29604463381E+02  0.00000000000E+00 0. -1.
         25    2    1    2    0    0  0.00000000000E+00  0.00000000000E+00  0.10235427719E+03  0.16156320395E+03  0.12500508315E+03 0.  0.
          4    1    3    3  501    0  0.28331474924E+02  0.14005188842E+02  0.12084200680E+03  0.12491601536E+03  0.15500000000E+01 0. -1.
         -4    1    3    3    0  501 -0.28331474924E+02 -0.14005188842E+02 -0.18487729607E+02  0.36647188595E+02  0.15500000000E+01 0. -1.
<mgrwt>
<rscale>  2 0.12500508E+03</rscale>
<asrwt>0</asrwt>
<pdfrwt beam="1">  1       21 0.20301344E-01 0.12500508E+03</pdfrwt>
<pdfrwt beam="2">  1       21 0.45545329E-02 0.12500508E+03</pdfrwt>
<totfact> 0.69320034E+06</totfact>
</mgrwt>
</event>
<event>
 5    0  0.1501875E+000  0.1249992E+03  0.7546771E-02  0.1235070E+00
         21   -1    0    0  503  502  0.00000000000E+00  0.00000000000E+00  0.26203571832E+03  0.26203571832E+03  0.00000000000E+00 0. -1.
         21   -1    0    0  502  503 -0.00000000000E+00 -0.00000000000E+00 -0.14907133351E+02  0.14907133351E+02  0.00000000000E+00 0. -1.
         25    2    1    2    0    0  0.00000000000E+00  0.00000000000E+00  0.24712858497E+03  0.27694285167E+03  0.12499922233E+03 0.  0.
          4    1    3    3  501    0 -0.39237763100E+02  0.33089234436E+02  0.44630151450E+02  0.68034935196E+02  0.15500000000E+01 0. -1.
         -4    1    3    3    0  501  0.39237763100E+02 -0.33089234436E+02  0.20249843352E+03  0.20890791647E+03  0.15500000000E+01 0. -1.
<mgrwt>
<rscale>  2 0.12499922E+03</rscale>
<asrwt>0</asrwt>
<pdfrwt beam="1">  1       21 0.40313184E-01 0.12499922E+03</pdfrwt>
<pdfrwt beam="2">  1       21 0.22934053E-02 0.12499922E+03</pdfrwt>
<totfact> 0.57429574E+06</totfact>
</mgrwt>
</event>
<event>
 5    0  0.1579668E+000  0.1249986E+03  0.7546771E-02  0.1235071E+00
         21   -1    0    0  503  502  0.00000000000E+00  0.00000000000E+00  0.34825733688E+02  0.34825733688E+02  0.00000000000E+00 0.  1.
         21   -1    0    0  502  503 -0.00000000000E+00 -0.00000000000E+00 -0.11216314961E+03  0.11216314961E+03  0.00000000000E+00 0.  1.
         25    2    1    2    0    0  0.00000000000E+00  0.00000000000E+00 -0.77337415919E+02  0.14698888330E+03  0.12499862364E+03 0.  0.
          4    1    3    3  501    0 -0.58341325238E+02  0.39601001739E+00 -0.12377023863E+02  0.59661212477E+02  0.15500000000E+01 0.  1.
         -4    1    3    3    0  501  0.58341325238E+02 -0.39601001739E+00 -0.64960392057E+02  0.87327670819E+02  0.15500000000E+01 0.  1.
<mgrwt>
<rscale>  2 0.12499862E+03</rscale>
<asrwt>0</asrwt>
<pdfrwt beam="1">  1       21 0.53578053E-02 0.12499862E+03</pdfrwt>
<pdfrwt beam="2">  1       21 0.17255869E-01 0.12499862E+03</pdfrwt>
<totfact> 0.71142027E+06</totfact>
</mgrwt>
</event>
<event>
 5    0  0.1547702E+000  0.1250048E+03  0.7546771E-02  0.1235062E+00
         21   -1    0    0  503  502  0.00000000000E+00  0.00000000000E+00  0.40897420398E+02  0.40897420398E+02  0.00000000000E+00 0. -1.
         21   -1    0    0  502  503 -0.00000000000E+00 -0.00000000000E+00 -0.95520655366E+02  0.95520655366E+02  0.00000000000E+00 0. -1.
         25    2    1    2    0    0  0.00000000000E+00  0.00000000000E+00 -0.54623234968E+02  0.13641807576E+03  0.12500477430E+03 0.  0.
          4    1    3    3  501    0  0.86130538407E+01  0.60323636992E+02 -0.42394514484E+02  0.74248388769E+02  0.15500000000E+01 0. -1.
         -4    1    3    3    0  501 -0.86130538407E+01 -0.60323636992E+02 -0.12228720484E+02  0.62169686996E+02  0.15500000000E+01 0. -1.
<mgrwt>
<rscale>  2 0.12500477E+03</rscale>
<asrwt>0</asrwt>
<pdfrwt beam="1">  1       21 0.62919109E-02 0.12500477E+03</pdfrwt>
<pdfrwt beam="2">  1       21 0.14695485E-01 0.12500477E+03</pdfrwt>
<totfact> 0.72500422E+06</totfact>
</mgrwt>
</event>
<event>
 5    0  0.1490282E+000  0.1250224E+03  0.7546771E-02  0.1235034E+00
         21   -1    0    0  503  502  0.00000000000E+00  0.00000000000E+00  0.24606243288E+03  0.24606243288E+03  0.00000000000E+00 0.  1.
         21   -1    0    0  502  503 -0.00000000000E+00 -0.00000000000E+00 -0.15880724440E+02  0.15880724440E+02  0.00000000000E+00 0.  1.
         25    2    1    2    0    0  0.00000000000E+00  0.00000000000E+00  0.23018170844E+03  0.26194315732E+03  0.12502239306E+03 0.  0.
          4    1    3    3  501    0  0.59958190331E+02 -0.17459223121E+02  0.11997674908E+03  0.13526504308E+03  0.15500000000E+01 0. -1.
         -4    1    3    3    0  501 -0.59958190331E+02  0.17459223121E+02  0.11020495936E+03  0.12667811424E+03  0.15500000000E+01 0. -1.
<mgrwt>
<rscale>  2 0.12502239E+03</rscale>
<asrwt>0</asrwt>
<pdfrwt beam="1">  1       21 0.37855756E-01 0.12502239E+03</pdfrwt>
<pdfrwt beam="2">  1       21 0.24431886E-02 0.12502239E+03</pdfrwt>
<totfact> 0.58738492E+06</totfact>
</mgrwt>
</event>
<event>
 5    0  0.1222151E+000  0.1249953E+03  0.7546771E-02  0.1235077E+00
         21   -1    0    0  503  502  0.00000000000E+00  0.00000000000E+00  0.67460858281E+03  0.67460858281E+03  0.00000000000E+00 0. -1.
         21   -1    0    0  502  503 -0.00000000000E+00 -0.00000000000E+00 -0.57899574839E+01  0.57899574839E+01  0.00000000000E+00 0. -1.
         25    2    1    2    0    0  0.00000000000E+00  0.00000000000E+00  0.66881862533E+03  0.68039854030E+03  0.12499528012E+03 0.  0.
          4    1    3    3  501    0 -0.11950143452E+02  0.22026041950E+02  0.22868323635E+02  0.33960494378E+02  0.15500000000E+01 0. -1.
         -4    1    3    3    0  501  0.11950143452E+02 -0.22026041950E+02  0.64595030170E+03  0.64643804592E+03  0.15500000000E+01 0. -1.
<mgrwt>
<rscale>  2 0.12499528E+03</rscale>
<asrwt>0</asrwt>
<pdfrwt beam="1">  1       21 0.10378587E+00 0.12499528E+03</pdfrwt>
<pdfrwt beam="2">  1       21 0.89076323E-03 0.12499528E+03</pdfrwt>
<totfact> 0.33683592E+06</totfact>
</mgrwt>
</event>
<event>
 5    0  0.1368947E+000  0.1249982E+03  0.7546771E-02  0.1235072E+00
         21   -1    0    0  503  502  0.00000000000E+00  0.00000000000E+00  0.16505810541E+03  0.16505810541E+03  0.00000000000E+00 0.  1.
         21   -1    0    0  502  503 -0.00000000000E+00 -0.00000000000E+00 -0.23665208824E+02  0.23665208824E+02  0.00000000000E+00 0.  1.
         25    2    1    2    0    0  0.00000000000E+00  0.00000000000E+00  0.14139289658E+03  0.18872331423E+03  0.12499815251E+03 0.  0.
          4    1    3    3  501    0  0.10587784921E+02  0.21076085324E+02 -0.16656522249E+02  0.28916168411E+02  0.15500000000E+01 0.  1.
         -4    1    3    3    0  501 -0.10587784921E+02 -0.21076085324E+02  0.15804941883E+03  0.15980714582E+03  0.15500000000E+01 0.  1.
<mgrwt>
<rscale>  2 0.12499815E+03</rscale>
<asrwt>0</asrwt>
<pdfrwt beam="1">  1       21 0.25393554E-01 0.12499815E+03</pdfrwt>
<pdfrwt beam="2">  1       21 0.36408015E-02 0.12499815E+03</pdfrwt>
<totfact> 0.66167736E+06</totfact>
</mgrwt>
</event>
<event>
 5    0  0.1222151E+000  0.1249288E+03  0.7546771E-02  0.1235181E+00
         21   -1    0    0  503  502  0.00000000000E+00  0.00000000000E+00  0.16950469481E+04  0.16950469481E+04  0.00000000000E+00 0. -1.
         21   -1    0    0  502  503 -0.00000000000E+00 -0.00000000000E+00 -0.23018826340E+01  0.23018826340E+01  0.00000000000E+00 0. -1.
         25    2    1    2    0    0  0.00000000000E+00  0.00000000000E+00  0.16927450655E+04  0.16973488307E+04  0.12492876584E+03 0.  0.
          4    1    3    3  501    0  0.59259700082E+02 -0.18752170850E+02  0.76480730128E+03  0.76733041550E+03  0.15500000000E+01 0.  1.
         -4    1    3    3    0  501 -0.59259700082E+02  0.18752170850E+02  0.92793776417E+03  0.93001841522E+03  0.15500000000E+01 0.  1.
<mgrwt>
<rscale>  2 0.12492877E+03</rscale>
<asrwt>0</asrwt>
<pdfrwt beam="1">  1       21 0.26077546E+00 0.12492877E+03</pdfrwt>
<pdfrwt beam="2">  1       21 0.35413714E-03 0.12492877E+03</pdfrwt>
<totfact> 0.11323110E+06</totfact>
</mgrwt>
</event>
<event>
 5    0  0.1592301E+000  0.1250131E+03  0.7546771E-02  0.1235049E+00
         21   -1    0    0  503  502  0.00000000000E+00  0.00000000000E+00  0.27448480733E+02  0.27448480733E+02  0.00000000000E+00 0. -1.
         21   -1    0    0  502  503 -0.00000000000E+00 -0.00000000000E+00 -0.14234189958E+03  0.14234189958E+03  0.00000000000E+00 0. -1.
         25    2    1    2    0    0  0.00000000000E+00  0.00000000000E+00 -0.11489341885E+03  0.16979038032E+03  0.12501310152E+03 0.  0.
          4    1    3    3  501    0  0.51757740342E+02  0.32562850039E+02 -0.39976075865E+02  0.73073196383E+02  0.15500000000E+01 0. -1.
         -4    1    3    3    0  501 -0.51757740342E+02 -0.32562850039E+02 -0.74917342985E+02  0.96717183933E+02  0.15500000000E+01 0. -1.
<mgrwt>
<rscale>  2 0.12501310E+03</rscale>
<asrwt>0</asrwt>
<pdfrwt beam="1">  1       21 0.42228431E-02 0.12501310E+03</pdfrwt>
<pdfrwt beam="2">  1       21 0.21898754E-01 0.12501310E+03</pdfrwt>
<totfact> 0.68319766E+06</totfact>
</mgrwt>
</event>
<event>
 5    0  0.1570056E+000  0.1249978E+03  0.7546771E-02  0.1235073E+00
         21   -1    0    0  503  502  0.00000000000E+00  0.00000000000E+00  0.79105867507E+02  0.79105867507E+02  0.00000000000E+00 0. -1.
         21   -1    0    0  502  503 -0.00000000000E+00 -0.00000000000E+00 -0.49378266101E+02  0.49378266101E+02  0.00000000000E+00 0. -1.
         25    2    1    2    0    0  0.00000000000E+00  0.00000000000E+00  0.29727601406E+02  0.12848413361E+03  0.12499776919E+03 0.  0.
          4    1    3    3  501    0  0.25796499164E+02  0.53659032513E+02 -0.46107933275E+01  0.59736195514E+02  0.15500000000E+01 0. -1.
         -4    1    3    3    0  501 -0.25796499164E+02 -0.53659032513E+02  0.34338394733E+02  0.68747938094E+02  0.15500000000E+01 0. -1.
<mgrwt>
<rscale>  2 0.12499777E+03</rscale>
<asrwt>0</asrwt>
<pdfrwt beam="1">  1       21 0.12170134E-01 0.12499777E+03</pdfrwt>
<pdfrwt beam="2">  1       21 0.75966563E-02 0.12499777E+03</pdfrwt>
<totfact> 0.73572449E+06</totfact>
</mgrwt>
</event>
<event>
 5    0  0.1574131E+000  0.1249836E+03  0.7546771E-02  0.1235095E+00
         21   -1    0    0  503  502  0.00000000000E+00  0.00000000000E+00  0.24508362475E+02  0.24508362475E+02  0.00000000000E+00 0. -1.
         21   -1    0    0  502  503 -0.00000000000E+00 -0.00000000000E+00 -0.15934256112E+03  0.15934256112E+03  0.00000000000E+00 0. -1.
         25    2    1    2    0    0  0.00000000000E+00  0.00000000000E+00 -0.13483419865E+03  0.18385092360E+03  0.12498360285E+03 0.  0.
          4    1    3    3  501    0  0.42265729580E+01  0.62090644038E+02 -0.75435164468E+02  0.97805820555E+02  0.15500000000E+01 0. -1.
         -4    1    3    3    0  501 -0.42265729580E+01 -0.62090644038E+02 -0.59399034178E+02  0.86045103041E+02  0.15500000000E+01 0. -1.
<mgrwt>
<rscale>  2 0.12498360E+03</rscale>
<asrwt>0</asrwt>
<pdfrwt beam="1">  1       21 0.37705173E-02 0.12498360E+03</pdfrwt>
<pdfrwt beam="2">  1       21 0.24514240E-01 0.12498360E+03</pdfrwt>
<totfact> 0.66740236E+06</totfact>
</mgrwt>
</event>
<event>
 5    0  0.1496616E+000  0.1250029E+03  0.7546771E-02  0.1235065E+00
         21   -1    0    0  503  502  0.00000000000E+00  0.00000000000E+00  0.27933385845E+03  0.27933385845E+03  0.00000000000E+00 0. -1.
         21   -1    0    0  502  503 -0.00000000000E+00 -0.00000000000E+00 -0.13984812817E+02  0.13984812817E+02  0.00000000000E+00 0. -1.
         25    2    1    2    0    0  0.00000000000E+00  0.00000000000E+00  0.26534904564E+03  0.29331867127E+03  0.12500290755E+03 0.  0.
          4    1    3    3  501    0 -0.29625583555E+02 -0.51849115647E+02  0.17581578705E+03  0.18568683171E+03  0.15500000000E+01 0.  1.
         -4    1    3    3    0  501  0.29625583555E+02  0.51849115647E+02  0.89533258588E+02  0.10763183956E+03  0.15500000000E+01 0.  1.
<mgrwt>
<rscale>  2 0.12500291E+03</rscale>
<asrwt>0</asrwt>
<pdfrwt beam="1">  1       21 0.42974436E-01 0.12500291E+03</pdfrwt>
<pdfrwt beam="2">  1       21 0.21515099E-02 0.12500291E+03</pdfrwt>
<totfact> 0.56011937E+06</totfact>
</mgrwt>
</event>
<event>
 5    0  0.1399914E+000  0.1250025E+03  0.7546771E-02  0.1235065E+00
         21   -1    0    0  503  502  0.00000000000E+00  0.00000000000E+00  0.30541537793E+03  0.30541537793E+03  0.00000000000E+00 0. -1.
         21   -1    0    0  502  503 -0.00000000000E+00 -0.00000000000E+00 -0.12790476260E+02  0.12790476260E+02  0.00000000000E+00 0. -1.
         25    2    1    2    0    0  0.00000000000E+00  0.00000000000E+00  0.29262490167E+03  0.31820585419E+03  0.12500253023E+03 0.  0.
          4    1    3    3  501    0 -0.19927840487E+02  0.58918032289E+02  0.13113415109E+03  0.14514482918E+03  0.15500000000E+01 0. -1.
         -4    1    3    3    0  501  0.19927840487E+02 -0.58918032289E+02  0.16149075058E+03  0.17306102501E+03  0.15500000000E+01 0. -1.
<mgrwt>
<rscale>  2 0.12500253E+03</rscale>
<asrwt>0</asrwt>
<pdfrwt beam="1">  1       21 0.46986976E-01 0.12500253E+03</pdfrwt>
<pdfrwt beam="2">  1       21 0.19677658E-02 0.12500253E+03</pdfrwt>
<totfact> 0.53972402E+06</totfact>
</mgrwt>
</event>
<event>
 5    0  0.1448286E+000  0.1249986E+03  0.7546771E-02  0.1235072E+00
         21   -1    0    0  503  502  0.00000000000E+00  0.00000000000E+00  0.31598993770E+03  0.31598993770E+03  0.00000000000E+00 0. -1.
         21   -1    0    0  502  503 -0.00000000000E+00 -0.00000000000E+00 -0.12361659217E+02  0.12361659217E+02  0.00000000000E+00 0. -1.
         25    2    1    2    0    0  0.00000000000E+00  0.00000000000E+00  0.30362827849E+03  0.32835159692E+03  0.12499855880E+03 0.  0.
          4    1    3    3  501    0  0.36695466694E+02 -0.15373953258E+02  0.25265672499E+02  0.47155831257E+02  0.15500000000E+01 0.  1.
         -4    1    3    3    0  501 -0.36695466694E+02  0.15373953258E+02  0.27836260599E+03  0.28119576566E+03  0.15500000000E+01 0.  1.
<mgrwt>
<rscale>  2 0.12499856E+03</rscale>
<asrwt>0</asrwt>
<pdfrwt beam="1">  1       21 0.48613831E-01 0.12499856E+03</pdfrwt>
<pdfrwt beam="2">  1       21 0.19017940E-02 0.12499856E+03</pdfrwt>
<totfact> 0.53180012E+06</totfact>
</mgrwt>
</event>
<event>
 5    0  0.1222151E+000  0.1250002E+03  0.7546771E-02  0.1235069E+00
         21   -1    0    0  503  502  0.00000000000E+00  0.00000000000E+00  0.11250211250E+04  0.11250211250E+04  0.00000000000E+00 0.  1.
         21   -1    0    0  502  503 -0.00000000000E+00 -0.00000000000E+00 -0.34721654923E+01  0.34721654923E+01  0.00000000000E+00 0.  1.
         25    2    1    2    0    0  0.00000000000E+00  0.00000000000E+00  0.11215489595E+04  0.11284932905E+04  0.12500015245E+03 0.  0.
          4    1    3    3  501    0 -0.26572866715E+02 -0.48203176346E+02  0.82770131860E+03  0.82953091489E+03  0.15500000000E+01 0. -1.
         -4    1    3    3    0  501  0.26572866715E+02  0.48203176346E+02  0.29384764089E+03  0.29896237558E+03  0.15500000000E+01 0. -1.
<mgrwt>
<rscale>  2 0.12500015E+03</rscale>
<asrwt>0</asrwt>
<pdfrwt beam="1">  1       21 0.17307988E+00 0.12500015E+03</pdfrwt>
<pdfrwt beam="2">  1       21 0.53418020E-03 0.12500015E+03</pdfrwt>
<totfact> 0.20628568E+06</totfact>
</mgrwt>
</event>
<event>
 5    0  0.1495567E+000  0.1249964E+03  0.7546771E-02  0.1235075E+00
         21   -1    0    0  503  502  0.00000000000E+00  0.00000000000E+00  0.94135379370E+02  0.94135379370E+02  0.00000000000E+00 0.  1.
         21   -1    0    0  502  503 -0.00000000000E+00 -0.00000000000E+00 -0.41493711644E+02  0.41493711644E+02  0.00000000000E+00 0.  1.
         25    2    1    2    0    0  0.00000000000E+00  0.00000000000E+00  0.52641667726E+02  0.13562909101E+03  0.12499642054E+03 0.  0.
          4    1    3    3  501    0  0.80109578143E+01 -0.33080756791E+02 -0.30529798345E+02  0.45749131161E+02  0.15500000000E+01 0.  1.
         -4    1    3    3    0  501 -0.80109578143E+01  0.33080756791E+02  0.83171466071E+02  0.89879959854E+02  0.15500000000E+01 0.  1.
<mgrwt>
<rscale>  2 0.12499642E+03</rscale>
<asrwt>0</asrwt>
<pdfrwt beam="1">  1       21 0.14482366E-01 0.12499642E+03</pdfrwt>
<pdfrwt beam="2">  1       21 0.63836480E-02 0.12499642E+03</pdfrwt>
<totfact> 0.72619913E+06</totfact>
</mgrwt>
</event>
<event>
 5    0  0.1557310E+000  0.1249987E+03  0.7546771E-02  0.1235071E+00
         21   -1    0    0  503  502  0.00000000000E+00  0.00000000000E+00  0.12120507776E+03  0.12120507776E+03  0.00000000000E+00 0. -1.
         21   -1    0    0  502  503 -0.00000000000E+00 -0.00000000000E+00 -0.32227755150E+02  0.32227755150E+02  0.00000000000E+00 0. -1.
         25    2    1    2    0    0  0.00000000000E+00  0.00000000000E+00  0.88977322608E+02  0.15343283291E+03  0.12499868110E+03 0.  0.
          4    1    3    3  501    0 -0.44954856836E+02  0.35724780091E+02  0.14257703595E+02  0.59185164336E+02  0.15500000000E+01 0. -1.
         -4    1    3    3    0  501  0.44954856836E+02 -0.35724780091E+02  0.74719619013E+02  0.94247668571E+02  0.15500000000E+01 0. -1.
<mgrwt>
<rscale>  2 0.12499868E+03</rscale>
<asrwt>0</asrwt>
<pdfrwt beam="1">  1       21 0.18646935E-01 0.12499868E+03</pdfrwt>
<pdfrwt beam="2">  1       21 0.49581163E-02 0.12499868E+03</pdfrwt>
<totfact> 0.70332952E+06</totfact>
</mgrwt>
</event>
<event>
 5    0  0.1224625E+000  0.1249208E+03  0.7546771E-02  0.1235193E+00
         21   -1    0    0  503  502  0.00000000000E+00  0.00000000000E+00  0.11308508161E+02  0.11308508161E+02  0.00000000000E+00 0.  1.
         21   -1    0    0  502  503 -0.00000000000E+00 -0.00000000000E+00 -0.34498838933E+03  0.34498838933E+03  0.00000000000E+00 0.  1.
         25    2    1    2    0    0  0.00000000000E+00  0.00000000000E+00 -0.33367988116E+03  0.35629689749E+03  0.12492083919E+03 0.  0.
          4    1    3    3  501    0 -0.58205641156E+02 -0.21736281604E+02 -0.14913367830E+03  0.16156614467E+03  0.15500000000E+01 0.  1.
         -4    1    3    3    0  501  0.58205641156E+02  0.21736281604E+02 -0.18454620287E+03  0.19473075282E+03  0.15500000000E+01 0.  1.
<mgrwt>
<rscale>  2 0.12492084E+03</rscale>
<asrwt>0</asrwt>
<pdfrwt beam="1">  1       21 0.17397708E-02 0.12492084E+03</pdfrwt>
<pdfrwt beam="2">  1       21 0.53075128E-01 0.12492084E+03</pdfrwt>
<totfact> 0.51178114E+06</totfact>
</mgrwt>
</event>
<event>
 5    0  0.1313592E+000  0.1250002E+03  0.7546771E-02  0.1235069E+00
         21   -1    0    0  503  502  0.00000000000E+00  0.00000000000E+00  0.54508587681E+03  0.54508587681E+03  0.00000000000E+00 0.  1.
         21   -1    0    0  502  503 -0.00000000000E+00 -0.00000000000E+00 -0.71663243630E+01  0.71663243630E+01  0.00000000000E+00 0.  1.
         25    2    1    2    0    0  0.00000000000E+00  0.00000000000E+00  0.53791955245E+03  0.55225220117E+03  0.12500019518E+03 0.  0.
          4    1    3    3  501    0  0.84782735512E+01  0.61762522867E+02  0.28737251926E+03  0.29406097613E+03  0.15500000000E+01 0.  1.
         -4    1    3    3    0  501 -0.84782735512E+01 -0.61762522867E+02  0.25054703318E+03  0.25819122505E+03  0.15500000000E+01 0.  1.
<mgrwt>
<rscale>  2 0.12500020E+03</rscale>
<asrwt>0</asrwt>
<pdfrwt beam="1">  1       21 0.83859333E-01 0.12500020E+03</pdfrwt>
<pdfrwt beam="2">  1       21 0.11025119E-02 0.12500020E+03</pdfrwt>
<totfact> 0.39344837E+06</totfact>
</mgrwt>
</event>
<event>
 5    0  0.1619700E+000  0.1250021E+03  0.7546771E-02  0.1235066E+00
         21   -1    0    0  503  502  0.00000000000E+00  0.00000000000E+00  0.18238990868E+02  0.18238990868E+02  0.00000000000E+00 0. -1.
         21   -1    0    0  502  503 -0.00000000000E+00 -0.00000000000E+00 -0.21417754010E+03  0.21417754010E+03  0.00000000000E+00 0. -1.
         25    2    1    2    0    0  0.00000000000E+00  0.00000000000E+00 -0.19593854923E+03  0.23241653097E+03  0.12500211515E+03 0.  0.
          4    1    3    3  501    0  0.55309416150E+02 -0.27426662100E+02 -0.80074879593E+02  0.10112241171E+03  0.15500000000E+01 0.  1.
         -4    1    3    3    0  501 -0.55309416150E+02  0.27426662100E+02 -0.11586366964E+03  0.13129411926E+03  0.15500000000E+01 0.  1.
<mgrwt>
<rscale>  2 0.12500212E+03</rscale>
<asrwt>0</asrwt>
<pdfrwt beam="1">  1       21 0.28059984E-02 0.12500212E+03</pdfrwt>
<pdfrwt beam="2">  1       21 0.32950393E-01 0.12500212E+03</pdfrwt>
<totfact> 0.61571023E+06</totfact>
</mgrwt>
</event>
<event>
 5    0  0.1222151E+000  0.1250158E+03  0.7546771E-02  0.1235045E+00
         21   -1    0    0  503  502  0.00000000000E+00  0.00000000000E+00  0.10306294834E+04  0.10306294834E+04  0.00000000000E+00 0. -1.
         21   -1    0    0  502  503 -0.00000000000E+00 -0.00000000000E+00 -0.37911204178E+01  0.37911204178E+01  0.00000000000E+00 0. -1.
         25    2    1    2    0    0  0.00000000000E+00  0.00000000000E+00  0.10268383630E+04  0.10344206038E+04  0.12501584664E+03 0.  0.
          4    1    3    3  501    0 -0.38147493741E+02 -0.49042495669E+02  0.45825963677E+03  0.46245507333E+03  0.15500000000E+01 0.  1.
         -4    1    3    3    0  501  0.38147493741E+02  0.49042495669E+02  0.56857872624E+03  0.57196553051E+03  0.15500000000E+01 0.  1.
<mgrwt>
<rscale>  2 0.12501585E+03</rscale>
<asrwt>0</asrwt>
<pdfrwt beam="1">  1       21 0.15855816E+00 0.12501585E+03</pdfrwt>
<pdfrwt beam="2">  1       21 0.58325011E-03 0.12501585E+03</pdfrwt>
<totfact> 0.22762869E+06</totfact>
</mgrwt>
</event>
<event>
 5    0  0.1395228E+000  0.1250059E+03  0.7546771E-02  0.1235060E+00
         21   -1    0    0  503  502  0.00000000000E+00  0.00000000000E+00  0.10989995242E+02  0.10989995242E+02  0.00000000000E+00 0.  1.
         21   -1    0    0  502  503 -0.00000000000E+00 -0.00000000000E+00 -0.35547041965E+03  0.35547041965E+03  0.00000000000E+00 0.  1.
         25    2    1    2    0    0  0.00000000000E+00  0.00000000000E+00 -0.34448042441E+03  0.36646041489E+03  0.12500589139E+03 0.  0.
          4    1    3    3  501    0 -0.44419889294E+02 -0.40766385473E+02 -0.12414223278E+03  0.13801710477E+03  0.15500000000E+01 0.  1.
         -4    1    3    3    0  501  0.44419889294E+02  0.40766385473E+02 -0.22033819163E+03  0.22844331013E+03  0.15500000000E+01 0.  1.
<mgrwt>
<rscale>  2 0.12500589E+03</rscale>
<asrwt>0</asrwt>
<pdfrwt beam="1">  1       21 0.16907687E-02 0.12500589E+03</pdfrwt>
<pdfrwt beam="2">  1       21 0.54687750E-01 0.12500589E+03</pdfrwt>
<totfact> 0.50337867E+06</totfact>
</mgrwt>
</event>
<event>
 5    0  0.1485980E+000  0.1250025E+03  0.7546771E-02  0.1235065E+00
         21   -1    0    0  503  502  0.00000000000E+00  0.00000000000E+00  0.16511980634E+02  0.16511980634E+02  0.00000000000E+00 0. -1.
         21   -1    0    0  502  503 -0.00000000000E+00 -0.00000000000E+00 -0.23658017510E+03  0.23658017510E+03  0.00000000000E+00 0. -1.
         25    2    1    2    0    0  0.00000000000E+00  0.00000000000E+00 -0.22006819447E+03  0.25309215574E+03  0.12500251629E+03 0.  0.
          4    1    3    3  501    0  0.50873979466E+02  0.34505909090E+02 -0.87380537297E+02  0.10684839890E+03  0.15500000000E+01 0. -1.
         -4    1    3    3    0  501 -0.50873979466E+02 -0.34505909090E+02 -0.13268765717E+03  0.14624375684E+03  0.15500000000E+01 0. -1.
<mgrwt>
<rscale>  2 0.12500252E+03</rscale>
<asrwt>0</asrwt>
<pdfrwt beam="1">  1       21 0.25403047E-02 0.12500252E+03</pdfrwt>
<pdfrwt beam="2">  1       21 0.36396950E-01 0.12500252E+03</pdfrwt>
<totfact> 0.59584504E+06</totfact>
</mgrwt>
</event>
<event>
 5    0  0.1464824E+000  0.1249965E+03  0.7546771E-02  0.1235075E+00
         21   -1    0    0  503  502  0.00000000000E+00  0.00000000000E+00  0.12249325759E+03  0.12249325759E+03  0.00000000000E+00 0. -1.
         21   -1    0    0  502  503 -0.00000000000E+00 -0.00000000000E+00 -0.31887728707E+02  0.31887728707E+02  0.00000000000E+00 0. -1.
         25    2    1    2    0    0  0.00000000000E+00  0.00000000000E+00  0.90605528882E+02  0.15438098630E+03  0.12499650821E+03 0.  0.
          4    1    3    3  501    0 -0.49775803504E+02 -0.10153661874E+02  0.90224831741E+02  0.10355505891E+03  0.15500000000E+01 0. -1.
         -4    1    3    3    0  501  0.49775803504E+02  0.10153661874E+02  0.38069714078E+00  0.50825927382E+02  0.15500000000E+01 0. -1.
<mgrwt>
<rscale>  2 0.12499651E+03</rscale>
<asrwt>0</asrwt>
<pdfrwt beam="1">  1       21 0.18845116E-01 0.12499651E+03</pdfrwt>
<pdfrwt beam="2">  1       21 0.49058045E-02 0.12499651E+03</pdfrwt>
<totfact> 0.70218913E+06</totfact>
</mgrwt>
</event>
<event>
 5    0  0.1222151E+000  0.1250135E+03  0.7546771E-02  0.1235048E+00
         21   -1    0    0  503  502  0.00000000000E+00  0.00000000000E+00  0.10229770204E+04  0.10229770204E+04  0.00000000000E+00 0.  1.
         21   -1    0    0  502  503 -0.00000000000E+00 -0.00000000000E+00 -0.38193368025E+01  0.38193368025E+01  0.00000000000E+00 0.  1.
         25    2    1    2    0    0  0.00000000000E+00  0.00000000000E+00  0.10191576836E+04  0.10267963572E+04  0.12501349979E+03 0.  0.
          4    1    3    3  501    0 -0.10539389227E+02  0.50443651312E+02  0.79985904726E+03  0.80151889477E+03  0.15500000000E+01 0.  1.
         -4    1    3    3    0  501  0.10539389227E+02 -0.50443651312E+02  0.21929863638E+03  0.22527746248E+03  0.15500000000E+01 0.  1.
<mgrwt>
<rscale>  2 0.12501350E+03</rscale>
<asrwt>0</asrwt>
<pdfrwt beam="1">  1       21 0.15738086E+00 0.12501350E+03</pdfrwt>
<pdfrwt beam="2">  1       21 0.58759109E-03 0.12501350E+03</pdfrwt>
<totfact> 0.22949262E+06</totfact>
</mgrwt>
</event>
<event>
 5    0  0.1434815E+000  0.1249988E+03  0.7546771E-02  0.1235071E+00
         21   -1    0    0  503  502  0.00000000000E+00  0.00000000000E+00  0.98711388517E+01  0.98711388517E+01  0.00000000000E+00 0. -1.
         21   -1    0    0  502  503 -0.00000000000E+00 -0.00000000000E+00 -0.39571693783E+03  0.39571693783E+03  0.00000000000E+00 0. -1.
         25    2    1    2    0    0  0.00000000000E+00  0.00000000000E+00 -0.38584579898E+03  0.40558807668E+03  0.12499882942E+03 0.  0.
          4    1    3    3  501    0 -0.28859057772E+02 -0.53244060690E+02 -0.14307642701E+03  0.15537387709E+03  0.15500000000E+01 0.  1.
         -4    1    3    3    0  501  0.28859057772E+02  0.53244060690E+02 -0.24276937196E+03  0.25021419959E+03  0.15500000000E+01 0.  1.
<mgrwt>
<rscale>  2 0.12499883E+03</rscale>
<asrwt>0</asrwt>
<pdfrwt beam="1">  1       21 0.15186368E-02 0.12499883E+03</pdfrwt>
<pdfrwt beam="2">  1       21 0.60879529E-01 0.12499883E+03</pdfrwt>
<totfact> 0.47674290E+06</totfact>
</mgrwt>
</event>
<event>
 5    0  0.1315023E+000  0.1250028E+03  0.7546771E-02  0.1235065E+00
         21   -1    0    0  503  502  0.00000000000E+00  0.00000000000E+00  0.51116681376E+03  0.51116681376E+03  0.00000000000E+00 0. -1.
         21   -1    0    0  502  503 -0.00000000000E+00 -0.00000000000E+00 -0.76421725709E+01  0.76421725709E+01  0.00000000000E+00 0. -1.
         25    2    1    2    0    0  0.00000000000E+00  0.00000000000E+00  0.50352464119E+03  0.51880898633E+03  0.12500280002E+03 0.  0.
          4    1    3    3  501    0 -0.10343449549E+02 -0.61599858299E+02  0.25831546823E+03  0.26576458213E+03  0.15500000000E+01 0. -1.
         -4    1    3    3    0  501  0.10343449549E+02  0.61599858299E+02  0.24520917296E+03  0.25304440420E+03  0.15500000000E+01 0. -1.
<mgrwt>
<rscale>  2 0.12500280E+03</rscale>
<asrwt>0</asrwt>
<pdfrwt beam="1">  1       21 0.78641021E-01 0.12500280E+03</pdfrwt>
<pdfrwt beam="2">  1       21 0.11757193E-02 0.12500280E+03</pdfrwt>
<totfact> 0.41039198E+06</totfact>
</mgrwt>
</event>
<event>
 5    0  0.1321654E+000  0.1250105E+03  0.7546771E-02  0.1235053E+00
         21   -1    0    0  503  502  0.00000000000E+00  0.00000000000E+00  0.68100859123E+01  0.68100859123E+01  0.00000000000E+00 0. -1.
         21   -1    0    0  502  503 -0.00000000000E+00 -0.00000000000E+00 -0.57369395425E+03  0.57369395425E+03  0.00000000000E+00 0. -1.
         25    2    1    2    0    0  0.00000000000E+00  0.00000000000E+00 -0.56688386833E+03  0.58050404016E+03  0.12501048141E+03 0.  0.
          4    1    3    3  501    0  0.36218284650E+02  0.16595513828E+02 -0.50698052909E+03  0.50854580383E+03  0.15500000000E+01 0.  1.
         -4    1    3    3    0  501 -0.36218284650E+02 -0.16595513828E+02 -0.59903339247E+02  0.71958236326E+02  0.15500000000E+01 0.  1.
<mgrwt>
<rscale>  2 0.12501048E+03</rscale>
<asrwt>0</asrwt>
<pdfrwt beam="1">  1       21 0.10477057E-02 0.12501048E+03</pdfrwt>
<pdfrwt beam="2">  1       21 0.88260593E-01 0.12501048E+03</pdfrwt>
<totfact> 0.37979530E+06</totfact>
</mgrwt>
</event>
<event>
 5    0  0.1594548E+000  0.1249985E+03  0.7546771E-02  0.1235072E+00
         21   -1    0    0  503  502  0.00000000000E+00  0.00000000000E+00  0.24387492572E+02  0.24387492572E+02  0.00000000000E+00 0. -1.
         21   -1    0    0  502  503 -0.00000000000E+00 -0.00000000000E+00 -0.16017044488E+03  0.16017044488E+03  0.00000000000E+00 0. -1.
         25    2    1    2    0    0  0.00000000000E+00  0.00000000000E+00 -0.13578295231E+03  0.18455793745E+03  0.12499848855E+03 0.  0.
          4    1    3    3  501    0  0.59425625992E+02 -0.18486608411E+02 -0.59724876432E+02  0.86270638573E+02  0.15500000000E+01 0.  1.
         -4    1    3    3    0  501 -0.59425625992E+02  0.18486608411E+02 -0.76058075875E+02  0.98287298879E+02  0.15500000000E+01 0.  1.
<mgrwt>
<rscale>  2 0.12499849E+03</rscale>
<asrwt>0</asrwt>
<pdfrwt beam="1">  1       21 0.37519218E-02 0.12499849E+03</pdfrwt>
<pdfrwt beam="2">  1       21 0.24641608E-01 0.12499849E+03</pdfrwt>
<totfact> 0.66635025E+06</totfact>
</mgrwt>
</event>
<event>
 5    0  0.1561594E+000  0.1250031E+03  0.7546771E-02  0.1235064E+00
         21   -1    0    0  503  502  0.00000000000E+00  0.00000000000E+00  0.13163714774E+03  0.13163714774E+03  0.00000000000E+00 0.  1.
         21   -1    0    0  502  503 -0.00000000000E+00 -0.00000000000E+00 -0.29675851047E+02  0.29675851047E+02  0.00000000000E+00 0.  1.
         25    2    1    2    0    0  0.00000000000E+00  0.00000000000E+00  0.10196129669E+03  0.16131299879E+03  0.12500311018E+03 0.  0.
          4    1    3    3  501    0  0.18924351071E+02 -0.57811048753E+02  0.32558355781E+02  0.69012299285E+02  0.15500000000E+01 0. -1.
         -4    1    3    3    0  501 -0.18924351071E+02  0.57811048753E+02  0.69402940913E+02  0.92300699503E+02  0.15500000000E+01 0. -1.
<mgrwt>
<rscale>  2 0.12500311E+03</rscale>
<asrwt>0</asrwt>
<pdfrwt beam="1">  1       21 0.20251869E-01 0.12500311E+03</pdfrwt>
<pdfrwt beam="2">  1       21 0.45655156E-02 0.12500311E+03</pdfrwt>
<totfact> 0.69353933E+06</totfact>
</mgrwt>
</event>
<event>
 5    0  0.1378956E+000  0.1250001E+03  0.7546771E-02  0.1235069E+00
         21   -1    0    0  503  502  0.00000000000E+00  0.00000000000E+00  0.33026983771E+03  0.33026983771E+03  0.00000000000E+00 0.  1.
         21   -1    0    0  502  503 -0.00000000000E+00 -0.00000000000E+00 -0.11827469662E+02  0.11827469662E+02  0.00000000000E+00 0.  1.
         25    2    1    2    0    0  0.00000000000E+00  0.00000000000E+00  0.31844236805E+03  0.34209730738E+03  0.12500010377E+03 0.  0.
          4    1    3    3  501    0  0.59031384209E+02 -0.16734853811E+02  0.12694412183E+03  0.14100344755E+03  0.15500000000E+01 0.  1.
         -4    1    3    3    0  501 -0.59031384209E+02  0.16734853811E+02  0.19149824623E+03  0.20109385983E+03  0.15500000000E+01 0.  1.
<mgrwt>
<rscale>  2 0.12500010E+03</rscale>
<asrwt>0</asrwt>
<pdfrwt beam="1">  1       21 0.50810737E-01 0.12500010E+03</pdfrwt>
<pdfrwt beam="2">  1       21 0.18196110E-02 0.12500010E+03</pdfrwt>
<totfact> 0.52127283E+06</totfact>
</mgrwt>
</event>
<event>
 5    0  0.1463061E+000  0.1249970E+03  0.7546771E-02  0.1235074E+00
         21   -1    0    0  503  502  0.00000000000E+00  0.00000000000E+00  0.42514019111E+03  0.42514019111E+03  0.00000000000E+00 0. -1.
         21   -1    0    0  502  503 -0.00000000000E+00 -0.00000000000E+00 -0.91877107801E+01  0.91877107801E+01  0.00000000000E+00 0. -1.
         25    2    1    2    0    0  0.00000000000E+00  0.00000000000E+00  0.41595248033E+03  0.43432790189E+03  0.12499704184E+03 0.  0.
          4    1    3    3  501    0 -0.44054205060E+02  0.44183969744E+02  0.19662801437E+03  0.20629584267E+03  0.15500000000E+01 0. -1.
         -4    1    3    3    0  501  0.44054205060E+02 -0.44183969744E+02  0.21932446596E+03  0.22803205922E+03  0.15500000000E+01 0. -1.
<mgrwt>
<rscale>  2 0.12499704E+03</rscale>
<asrwt>0</asrwt>
<pdfrwt beam="1">  1       21 0.65406168E-01 0.12499704E+03</pdfrwt>
<pdfrwt beam="2">  1       21 0.14134943E-02 0.12499704E+03</pdfrwt>
<totfact> 0.45848147E+06</totfact>
</mgrwt>
</event>
<event>
 5    0  0.1222151E+000  0.1250006E+03  0.7546771E-02  0.1235068E+00
         21   -1    0    0  503  502  0.00000000000E+00  0.00000000000E+00  0.94090752327E+03  0.94090752327E+03  0.00000000000E+00 0.  1.
         21   -1    0    0  502  503 -0.00000000000E+00 -0.00000000000E+00 -0.41516157599E+01  0.41516157599E+01  0.00000000000E+00 0.  1.
         25    2    1    2    0    0  0.00000000000E+00  0.00000000000E+00  0.93675590751E+03  0.94505913903E+03  0.12500058403E+03 0.  0.
          4    1    3    3  501    0  0.49988496878E+02  0.24971706497E+02  0.67972539871E+03  0.68202012880E+03  0.15500000000E+01 0.  1.
         -4    1    3    3    0  501 -0.49988496878E+02 -0.24971706497E+02  0.25703050880E+03  0.26303901023E+03  0.15500000000E+01 0.  1.
<mgrwt>
<rscale>  2 0.12500058E+03</rscale>
<asrwt>0</asrwt>
<pdfrwt beam="1">  1       21 0.14475483E+00 0.12500058E+03</pdfrwt>
<pdfrwt beam="2">  1       21 0.63871087E-03 0.12500058E+03</pdfrwt>
<totfact> 0.25043826E+06</totfact>
</mgrwt>
</event>
<event>
 5    0  0.1222151E+000  0.1249994E+03  0.7546771E-02  0.1235070E+00
         21   -1    0    0  503  502  0.00000000000E+00  0.00000000000E+00  0.35566216444E+01  0.35566216444E+01  0.00000000000E+00 0.  1.
         21   -1    0    0  502  503 -0.00000000000E+00 -0.00000000000E+00 -0.10982926153E+04  0.10982926153E+04  0.00000000000E+00 0.  1.
         25    2    1    2    0    0  0.00000000000E+00  0.00000000000E+00 -0.10947359937E+04  0.11018492370E+04  0.12499938060E+03 0.  0.
          4    1    3    3  501    0 -0.53593305075E+02 -0.31770618769E+02 -0.50584064149E+03  0.50966535261E+03  0.15500000000E+01 0. -1.
         -4    1    3    3    0  501  0.53593305075E+02  0.31770618769E+02 -0.58889535221E+03  0.59218388438E+03  0.15500000000E+01 0. -1.
<mgrwt>
<rscale>  2 0.12499938E+03</rscale>
<asrwt>0</asrwt>
<pdfrwt beam="1">  1       21 0.54717242E-03 0.12499938E+03</pdfrwt>
<pdfrwt beam="2">  1       21 0.16896814E+00 0.12499938E+03</pdfrwt>
<totfact> 0.21210645E+06</totfact>
</mgrwt>
</event>
<event>
 5    0  0.1512065E+000  0.1250004E+03  0.7546771E-02  0.1235069E+00
         21   -1    0    0  503  502  0.00000000000E+00  0.00000000000E+00  0.46953923215E+02  0.46953923215E+02  0.00000000000E+00 0. -1.
         21   -1    0    0  502  503 -0.00000000000E+00 -0.00000000000E+00 -0.83193777568E+02  0.83193777568E+02  0.00000000000E+00 0. -1.
         25    2    1    2    0    0  0.00000000000E+00  0.00000000000E+00 -0.36239854353E+02  0.13014770078E+03  0.12500038790E+03 0.  0.
          4    1    3    3  501    0 -0.42434141298E+02  0.25612095849E+02 -0.57729012118E+02  0.76103069200E+02  0.15500000000E+01 0. -1.
         -4    1    3    3    0  501  0.42434141298E+02 -0.25612095849E+02  0.21489157765E+02  0.54044631583E+02  0.15500000000E+01 0. -1.
<mgrwt>
<rscale>  2 0.12500039E+03</rscale>
<asrwt>0</asrwt>
<pdfrwt beam="1">  1       21 0.72236806E-02 0.12500039E+03</pdfrwt>
<pdfrwt beam="2">  1       21 0.12799043E-01 0.12500039E+03</pdfrwt>
<totfact> 0.73344455E+06</totfact>
</mgrwt>
</event>
<event>
 5    0  0.1416951E+000  0.1249924E+03  0.7546771E-02  0.1235081E+00
         21   -1    0    0  503  502  0.00000000000E+00  0.00000000000E+00  0.19222576548E+02  0.19222576548E+02  0.00000000000E+00 0. -1.
         21   -1    0    0  502  503 -0.00000000000E+00 -0.00000000000E+00 -0.20318700269E+03  0.20318700269E+03  0.00000000000E+00 0. -1.
         25    2    1    2    0    0  0.00000000000E+00  0.00000000000E+00 -0.18396442615E+03  0.22240957924E+03  0.12499244318E+03 0.  0.
          4    1    3    3  501    0 -0.30034099959E+02 -0.31882272851E+02 -0.12707726442E+02  0.45633488732E+02  0.15500000000E+01 0.  1.
         -4    1    3    3    0  501  0.30034099959E+02  0.31882272851E+02 -0.17125669971E+03  0.17677609051E+03  0.15500000000E+01 0.  1.
<mgrwt>
<rscale>  2 0.12499244E+03</rscale>
<asrwt>0</asrwt>
<pdfrwt beam="1">  1       21 0.29573195E-02 0.12499244E+03</pdfrwt>
<pdfrwt beam="2">  1       21 0.31259538E-01 0.12499244E+03</pdfrwt>
<totfact> 0.62589041E+06</totfact>
</mgrwt>
</event>
<event>
 5    0  0.1222151E+000  0.1250023E+03  0.7546771E-02  0.1235066E+00
         21   -1    0    0  503  502  0.00000000000E+00  0.00000000000E+00  0.37446427743E+01  0.37446427743E+01  0.00000000000E+00 0. -1.
         21   -1    0    0  502  503 -0.00000000000E+00 -0.00000000000E+00 -0.10431950627E+04  0.10431950627E+04  0.00000000000E+00 0. -1.
         25    2    1    2    0    0  0.00000000000E+00  0.00000000000E+00 -0.10394504199E+04  0.10469397055E+04  0.12500228564E+03 0.  0.
          4    1    3    3  501    0 -0.14396954200E+02  0.48153050071E+02 -0.83063085988E+03  0.83215143839E+03  0.15500000000E+01 0.  1.
         -4    1    3    3    0  501  0.14396954200E+02 -0.48153050071E+02 -0.20881956003E+03  0.21478826707E+03  0.15500000000E+01 0.  1.
<mgrwt>
<rscale>  2 0.12500229E+03</rscale>
<asrwt>0</asrwt>
<pdfrwt beam="1">  1       21 0.57609923E-03 0.12500229E+03</pdfrwt>
<pdfrwt beam="2">  1       21 0.16049145E+00 0.12500229E+03</pdfrwt>
<totfact> 0.22470396E+06</totfact>
</mgrwt>
</event>
<event>
 5    0  0.1222151E+000  0.1250047E+03  0.7546771E-02  0.1235062E+00
         21   -1    0    0  503  502  0.00000000000E+00  0.00000000000E+00  0.28022940099E+02  0.28022940099E+02  0.00000000000E+00 0. -1.
         21   -1    0    0  502  503 -0.00000000000E+00 -0.00000000000E+00 -0.13940520200E+03  0.13940520200E+03  0.00000000000E+00 0. -1.
         25    2    1    2    0    0  0.00000000000E+00  0.00000000000E+00 -0.11138226190E+03  0.16742814210E+03  0.12500469791E+03 0.  0.
          4    1    3    3  501    0  0.57117217442E+01 -0.19276838567E+02 -0.13492871672E+03  0.13642720171E+03  0.15500000000E+01 0.  1.
         -4    1    3    3    0  501 -0.57117217442E+01  0.19276838567E+02  0.23546454820E+02  0.31000940389E+02  0.15500000000E+01 0.  1.
<mgrwt>
<rscale>  2 0.12500470E+03</rscale>
<asrwt>0</asrwt>
<pdfrwt beam="1">  1       21 0.43112215E-02 0.12500470E+03</pdfrwt>
<pdfrwt beam="2">  1       21 0.21446954E-01 0.12500470E+03</pdfrwt>
<totfact> 0.68614866E+06</totfact>
</mgrwt>
</event>
<event>
 5    0  0.1462708E+000  0.1249988E+03  0.7546771E-02  0.1235071E+00
         21   -1    0    0  503  502  0.00000000000E+00  0.00000000000E+00  0.37571446504E+02  0.37571446504E+02  0.00000000000E+00 0.  1.
         21   -1    0    0  502  503 -0.00000000000E+00 -0.00000000000E+00 -0.10396657507E+03  0.10396657507E+03  0.00000000000E+00 0.  1.
         25    2    1    2    0    0  0.00000000000E+00  0.00000000000E+00 -0.66395128564E+02  0.14153802157E+03  0.12499879381E+03 0.  0.
          4    1    3    3  501    0  0.93986532055E+01 -0.23468573662E+02  0.31499788212E+02  0.40419646079E+02  0.15500000000E+01 0.  1.
         -4    1    3    3    0  501 -0.93986532055E+01  0.23468573662E+02 -0.97894916776E+02  0.10111837549E+03  0.15500000000E+01 0.  1.
<mgrwt>
<rscale>  2 0.12499879E+03</rscale>
<asrwt>0</asrwt>
<pdfrwt beam="1">  1       21 0.57802227E-02 0.12499879E+03</pdfrwt>
<pdfrwt beam="2">  1       21 0.15994857E-01 0.12499879E+03</pdfrwt>
<totfact> 0.71841361E+06</totfact>
</mgrwt>
</event>
<event>
 5    0  0.1517878E+000  0.1250159E+03  0.7546771E-02  0.1235044E+00
         21   -1    0    0  503  502  0.00000000000E+00  0.00000000000E+00  0.16884384178E+03  0.16884384178E+03  0.00000000000E+00 0. -1.
         21   -1    0    0  502  503 -0.00000000000E+00 -0.00000000000E+00 -0.23141160419E+02  0.23141160419E+02  0.00000000000E+00 0. -1.
         25    2    1    2    0    0  0.00000000000E+00  0.00000000000E+00  0.14570268136E+03  0.19198500220E+03  0.12501587785E+03 0.  0.
          4    1    3    3  501    0 -0.30720119225E+02  0.30306845164E+02  0.34456972150E+01  0.43318655546E+02  0.15500000000E+01 0. -1.
         -4    1    3    3    0  501  0.30720119225E+02 -0.30306845164E+02  0.14225698415E+03  0.14866634666E+03  0.15500000000E+01 0. -1.
<mgrwt>
<rscale>  2 0.12501588E+03</rscale>
<asrwt>0</asrwt>
<pdfrwt beam="1">  1       21 0.25975975E-01 0.12501588E+03</pdfrwt>
<pdfrwt beam="2">  1       21 0.35601786E-02 0.12501588E+03</pdfrwt>
<totfact> 0.65776062E+06</totfact>
</mgrwt>
</event>
<event>
 5    0  0.1397584E+000  0.1250008E+03  0.7546771E-02  0.1235068E+00
         21   -1    0    0  503  502  0.00000000000E+00  0.00000000000E+00  0.29831161303E+03  0.29831161303E+03  0.00000000000E+00 0.  1.
         21   -1    0    0  502  503 -0.00000000000E+00 -0.00000000000E+00 -0.13094697952E+02  0.13094697952E+02  0.00000000000E+00 0.  1.
         25    2    1    2    0    0  0.00000000000E+00  0.00000000000E+00  0.28521691508E+03  0.31140631099E+03  0.12500080749E+03 0.  0.
          4    1    3    3  501    0 -0.24434079565E+02  0.47437441627E+02  0.22358556521E+03  0.22987005587E+03  0.15500000000E+01 0.  1.
         -4    1    3    3    0  501  0.24434079565E+02 -0.47437441627E+02  0.61631349871E+02  0.81536255121E+02  0.15500000000E+01 0.  1.
<mgrwt>
<rscale>  2 0.12500081E+03</rscale>
<asrwt>0</asrwt>
<pdfrwt beam="1">  1       21 0.45894089E-01 0.12500081E+03</pdfrwt>
<pdfrwt beam="2">  1       21 0.20145692E-02 0.12500081E+03</pdfrwt>
<totfact> 0.54520284E+06</totfact>
</mgrwt>
</event>
<event>
 5    0  0.1222151E+000  0.1250034E+03  0.7546771E-02  0.1235064E+00
         21   -1    0    0  503  502  0.00000000000E+00  0.00000000000E+00  0.29042646722E+01  0.29042646722E+01  0.00000000000E+00 0.  1.
         21   -1    0    0  502  503 -0.00000000000E+00 -0.00000000000E+00 -0.13450785164E+04  0.13450785164E+04  0.00000000000E+00 0.  1.
         25    2    1    2    0    0  0.00000000000E+00  0.00000000000E+00 -0.13421742518E+04  0.13479827811E+04  0.12500342422E+03 0.  0.
          4    1    3    3  501    0 -0.50900735490E+02 -0.34776845668E+02 -0.56124939158E+03  0.56462695288E+03  0.15500000000E+01 0. -1.
         -4    1    3    3    0  501  0.50900735490E+02  0.34776845668E+02 -0.78092486019E+03  0.78335582823E+03  0.15500000000E+01 0. -1.
<mgrwt>
<rscale>  2 0.12500342E+03</rscale>
<asrwt>0</asrwt>
<pdfrwt beam="1">  1       21 0.44681144E-03 0.12500342E+03</pdfrwt>
<pdfrwt beam="2">  1       21 0.20693446E+00 0.12500342E+03</pdfrwt>
<totfact> 0.16410883E+06</totfact>
</mgrwt>
</event>
<event>
 5    0  0.1335104E+000  0.1249968E+03  0.7546771E-02  0.1235074E+00
         21   -1    0    0  503  502  0.00000000000E+00  0.00000000000E+00  0.33672293786E+02  0.33672293786E+02  0.00000000000E+00 0. -1.
         21   -1    0    0  502  503 -0.00000000000E+00 -0.00000000000E+00 -0.11600193517E+03  0.11600193517E+03  0.00000000000E+00 0. -1.
         25    2    1    2    0    0  0.00000000000E+00  0.00000000000E+00 -0.82329641388E+02  0.14967422896E+03  0.12499681981E+03 0.  0.
          4    1    3    3  501    0  0.19275131371E+02  0.15528381894E+02 -0.10985761389E+03  0.11262219658E+03  0.15500000000E+01 0. -1.
         -4    1    3    3    0  501 -0.19275131371E+02 -0.15528381894E+02  0.27527972499E+02  0.37052032380E+02  0.15500000000E+01 0. -1.
<mgrwt>
<rscale>  2 0.12499682E+03</rscale>
<asrwt>0</asrwt>
<pdfrwt beam="1">  1       21 0.51803528E-02 0.12499682E+03</pdfrwt>
<pdfrwt beam="2">  1       21 0.17846452E-01 0.12499682E+03</pdfrwt>
<totfact> 0.70805879E+06</totfact>
</mgrwt>
</event>
<event>
 5    0  0.1438049E+000  0.1250015E+03  0.7546771E-02  0.1235067E+00
         21   -1    0    0  503  502  0.00000000000E+00  0.00000000000E+00  0.14906426647E+02  0.14906426647E+02  0.00000000000E+00 0.  1.
         21   -1    0    0  502  503 -0.00000000000E+00 -0.00000000000E+00 -0.26205753137E+03  0.26205753137E+03  0.00000000000E+00 0.  1.
         25    2    1    2    0    0  0.00000000000E+00  0.00000000000E+00 -0.24715110472E+03  0.27696395802E+03  0.12500146189E+03 0.  0.
          4    1    3    3  501    0  0.22066267904E+02 -0.50900413679E+02 -0.18726125952E+03  0.19531245252E+03  0.15500000000E+01 0. -1.
         -4    1    3    3    0  501 -0.22066267904E+02  0.50900413679E+02 -0.59889845206E+02  0.81651505502E+02  0.15500000000E+01 0. -1.
<mgrwt>
<rscale>  2 0.12500146E+03</rscale>
<asrwt>0</asrwt>
<pdfrwt beam="1">  1       21 0.22932964E-02 0.12500146E+03</pdfrwt>
<pdfrwt beam="2">  1       21 0.40316544E-01 0.12500146E+03</pdfrwt>
<totfact> 0.57424478E+06</totfact>
</mgrwt>
</event>
<event>
 4    0  0.1272567E+000  0.1254675E+03  0.7546771E-02  0.1234341E+00
         21   -1    0    0  503  502  0.00000000000E+00  0.00000000000E+00  0.62388264069E+01  0.62388264069E+01  0.00000000000E+00 0.  1.
         21   -1    0    0  502  503 -0.00000000000E+00 -0.00000000000E+00 -0.63081106803E+03  0.63081106803E+03  0.00000000000E+00 0.  1.
          4    1    1    2  501    0  0.57092183100E+02  0.21926705793E+02 -0.38279095511E+03  0.38764883027E+03  0.15500000000E+01 0.  1.
         -4    1    1    2    0  501 -0.57092183100E+02 -0.21926705793E+02 -0.24178128651E+03  0.24940106416E+03  0.15500000000E+01 0.  1.
<mgrwt>
<rscale>  2 0.12546746E+03</rscale>
<asrwt>0</asrwt>
<pdfrwt beam="1">  1       21 0.95981975E-03 0.12546746E+03</pdfrwt>
<pdfrwt beam="2">  1       21 0.97047826E-01 0.12546746E+03</pdfrwt>
<totfact> 0.35060480E+06</totfact>
</mgrwt>
</event>
<event>
 5    0  0.1227800E+000  0.1250111E+03  0.7546771E-02  0.1235052E+00
         21   -1    0    0  503  502  0.00000000000E+00  0.00000000000E+00  0.59632190298E+01  0.59632190298E+01  0.00000000000E+00 0.  1.
         21   -1    0    0  502  503 -0.00000000000E+00 -0.00000000000E+00 -0.65517335631E+03  0.65517335631E+03  0.00000000000E+00 0.  1.
         25    2    1    2    0    0  0.00000000000E+00  0.00000000000E+00 -0.64921013728E+03  0.66113657534E+03  0.12501107513E+03 0.  0.
          4    1    3    3  501    0 -0.16322580600E+01  0.27275774659E+02 -0.62180068631E+03  0.62240270577E+03  0.15500000000E+01 0. -1.
         -4    1    3    3    0  501  0.16322580600E+01 -0.27275774659E+02 -0.27409450969E+02  0.38733869572E+02  0.15500000000E+01 0. -1.
<mgrwt>
<rscale>  2 0.12501108E+03</rscale>
<asrwt>0</asrwt>
<pdfrwt beam="1">  1       21 0.91741911E-03 0.12501108E+03</pdfrwt>
<pdfrwt beam="2">  1       21 0.10079581E+00 0.12501108E+03</pdfrwt>
<totfact> 0.34453405E+06</totfact>
</mgrwt>
</event>
<event>
 5    0  0.1439993E+000  0.1249814E+03  0.7546771E-02  0.1235098E+00
         21   -1    0    0  503  502  0.00000000000E+00  0.00000000000E+00  0.13307097981E+02  0.13307097981E+02  0.00000000000E+00 0.  1.
         21   -1    0    0  502  503 -0.00000000000E+00 -0.00000000000E+00 -0.29345888805E+03  0.29345888805E+03  0.00000000000E+00 0.  1.
         25    2    1    2    0    0  0.00000000000E+00  0.00000000000E+00 -0.28015179007E+03  0.30676598603E+03  0.12498137744E+03 0.  0.
          4    1    3    3  501    0 -0.33003880638E+02  0.40609680311E+02 -0.22382706400E+03  0.22986813470E+03  0.15500000000E+01 0. -1.
         -4    1    3    3    0  501  0.33003880638E+02 -0.40609680311E+02 -0.56324726065E+02  0.76897851325E+02  0.15500000000E+01 0. -1.
<mgrwt>
<rscale>  2 0.12498138E+03</rscale>
<asrwt>0</asrwt>
<pdfrwt beam="1">  1       21 0.20472461E-02 0.12498138E+03</pdfrwt>
<pdfrwt beam="2">  1       21 0.45147516E-01 0.12498138E+03</pdfrwt>
<totfact> 0.54924227E+06</totfact>
</mgrwt>
</event>
<event>
 5    0  0.1441485E+000  0.1249880E+03  0.7546771E-02  0.1235088E+00
         21   -1    0    0  503  502  0.00000000000E+00  0.00000000000E+00  0.15551401671E+02  0.15551401671E+02  0.00000000000E+00 0. -1.
         21   -1    0    0  502  503 -0.00000000000E+00 -0.00000000000E+00 -0.25113501930E+03  0.25113501930E+03  0.00000000000E+00 0. -1.
         25    2    1    2    0    0  0.00000000000E+00  0.00000000000E+00 -0.23558361763E+03  0.26668642097E+03  0.12498802437E+03 0.  0.
          4    1    3    3  501    0  0.26002993813E+02  0.44321582351E+02 -0.41976799122E+02  0.66370268297E+02  0.15500000000E+01 0. -1.
         -4    1    3    3    0  501 -0.26002993813E+02 -0.44321582351E+02 -0.19360681851E+03  0.20031615268E+03  0.15500000000E+01 0. -1.
<mgrwt>
<rscale>  2 0.12498802E+03</rscale>
<asrwt>0</asrwt>
<pdfrwt beam="1">  1       21 0.23925234E-02 0.12498802E+03</pdfrwt>
<pdfrwt beam="2">  1       21 0.38636156E-01 0.12498802E+03</pdfrwt>
<totfact> 0.58359390E+06</totfact>
</mgrwt>
</event>
<event>
 5    0  0.1222151E+000  0.1249984E+03  0.7546771E-02  0.1235072E+00
         21   -1    0    0  503  502  0.00000000000E+00  0.00000000000E+00  0.37889707607E+01  0.37889707607E+01  0.00000000000E+00 0. -1.
         21   -1    0    0  502  503 -0.00000000000E+00 -0.00000000000E+00 -0.10309260463E+04  0.10309260463E+04  0.00000000000E+00 0. -1.
         25    2    1    2    0    0  0.00000000000E+00  0.00000000000E+00 -0.10271370756E+04  0.10347150171E+04  0.12499837833E+03 0.  0.
          4    1    3    3  501    0 -0.40653420348E+02  0.23778237529E+02 -0.17370942922E+03  0.17998742585E+03  0.15500000000E+01 0. -1.
         -4    1    3    3    0  501  0.40653420348E+02 -0.23778237529E+02 -0.85342764636E+03  0.85472759125E+03  0.15500000000E+01 0. -1.
<mgrwt>
<rscale>  2 0.12499838E+03</rscale>
<asrwt>0</asrwt>
<pdfrwt beam="1">  1       21 0.58291842E-03 0.12499838E+03</pdfrwt>
<pdfrwt beam="2">  1       21 0.15860405E+00 0.12499838E+03</pdfrwt>
<totfact> 0.22765557E+06</totfact>
</mgrwt>
</event>
<event>
 5    0  0.1593402E+000  0.1249995E+03  0.7546771E-02  0.1235070E+00
         21   -1    0    0  503  502  0.00000000000E+00  0.00000000000E+00  0.15270867204E+03  0.15270867204E+03  0.00000000000E+00 0. -1.
         21   -1    0    0  502  503 -0.00000000000E+00 -0.00000000000E+00 -0.25579540555E+02  0.25579540555E+02  0.00000000000E+00 0. -1.
         25    2    1    2    0    0  0.00000000000E+00  0.00000000000E+00  0.12712913149E+03  0.17828821260E+03  0.12499948271E+03 0.  0.
          4    1    3    3  501    0  0.66109237044E+01 -0.50116570088E+02  0.11188813854E+02  0.51797364461E+02  0.15500000000E+01 0.  1.
         -4    1    3    3    0  501 -0.66109237044E+01  0.50116570088E+02  0.11594031763E+03  0.12649084814E+03  0.15500000000E+01 0.  1.
<mgrwt>
<rscale>  2 0.12499948E+03</rscale>
<asrwt>0</asrwt>
<pdfrwt beam="1">  1       21 0.23493641E-01 0.12499948E+03</pdfrwt>
<pdfrwt beam="2">  1       21 0.39353140E-02 0.12499948E+03</pdfrwt>
<totfact> 0.67349336E+06</totfact>
</mgrwt>
</event>
<event>
 5    0  0.1271901E+000  0.1250008E+03  0.7546771E-02  0.1235068E+00
         21   -1    0    0  503  502  0.00000000000E+00  0.00000000000E+00  0.55772788207E+03  0.55772788207E+03  0.00000000000E+00 0.  1.
         21   -1    0    0  502  503 -0.00000000000E+00 -0.00000000000E+00 -0.70039523711E+01  0.70039523711E+01  0.00000000000E+00 0.  1.
         25    2    1    2    0    0  0.00000000000E+00  0.00000000000E+00  0.55072392970E+03  0.56473183444E+03  0.12500079235E+03 0.  0.
          4    1    3    3  501    0  0.53006702247E+02 -0.17490522803E+02  0.14851896809E+03  0.15866920071E+03  0.15500000000E+01 0. -1.
         -4    1    3    3    0  501 -0.53006702247E+02  0.17490522803E+02  0.40220496161E+03  0.40606263373E+03  0.15500000000E+01 0. -1.
<mgrwt>
<rscale>  2 0.12500079E+03</rscale>
<asrwt>0</asrwt>
<pdfrwt beam="1">  1       21 0.85804254E-01 0.12500079E+03</pdfrwt>
<pdfrwt beam="2">  1       21 0.10775316E-02 0.12500079E+03</pdfrwt>
<totfact> 0.38737010E+06</totfact>
</mgrwt>
</event>
<event>
 5    0  0.1503091E+000  0.1249965E+03  0.7546771E-02  0.1235075E+00
         21   -1    0    0  503  502  0.00000000000E+00  0.00000000000E+00  0.28170675416E+02  0.28170675416E+02  0.00000000000E+00 0.  1.
         21   -1    0    0  502  503 -0.00000000000E+00 -0.00000000000E+00 -0.13865599300E+03  0.13865599300E+03  0.00000000000E+00 0.  1.
         25    2    1    2    0    0  0.00000000000E+00  0.00000000000E+00 -0.11048531758E+03  0.16682666841E+03  0.12499652752E+03 0.  0.
          4    1    3    3  501    0 -0.27259806504E+02 -0.20109295573E+02 -0.12531053053E+03  0.12981761198E+03  0.15500000000E+01 0.  1.
         -4    1    3    3    0  501  0.27259806504E+02  0.20109295573E+02  0.14825212947E+02  0.37009056433E+02  0.15500000000E+01 0.  1.
<mgrwt>
<rscale>  2 0.12499653E+03</rscale>
<asrwt>0</asrwt>
<pdfrwt beam="1">  1       21 0.43339501E-02 0.12499653E+03</pdfrwt>
<pdfrwt beam="2">  1       21 0.21331691E-01 0.12499653E+03</pdfrwt>
<totfact> 0.68700884E+06</totfact>
</mgrwt>
</event>
<event>
 5    0  0.1435703E+000  0.1249976E+03  0.7546771E-02  0.1235073E+00
         21   -1    0    0  503  502  0.00000000000E+00  0.00000000000E+00  0.88942903834E+01  0.88942903834E+01  0.00000000000E+00 0. -1.
         21   -1    0    0  502  503 -0.00000000000E+00 -0.00000000000E+00 -0.43916909928E+03  0.43916909928E+03  0.00000000000E+00 0. -1.
         25    2    1    2    0    0  0.00000000000E+00  0.00000000000E+00 -0.43027480890E+03  0.44806338966E+03  0.12499755992E+03 0.  0.
          4    1    3    3  501    0  0.36364773369E+02 -0.49389908943E+02 -0.17243199368E+03  0.18302173311E+03  0.15500000000E+01 0.  1.
         -4    1    3    3    0  501 -0.36364773369E+02  0.49389908943E+02 -0.25784281522E+03  0.26504165656E+03  0.15500000000E+01 0.  1.
<mgrwt>
<rscale>  2 0.12499756E+03</rscale>
<asrwt>0</asrwt>
<pdfrwt beam="1">  1       21 0.13683526E-02 0.12499756E+03</pdfrwt>
<pdfrwt beam="2">  1       21 0.67564467E-01 0.12499756E+03</pdfrwt>
<totfact> 0.45011121E+06</totfact>
</mgrwt>
</event>
<event>
 5    0  0.1543714E+000  0.1250216E+03  0.7546771E-02  0.1235036E+00
         21   -1    0    0  503  502  0.00000000000E+00  0.00000000000E+00  0.31615168416E+02  0.31615168416E+02  0.00000000000E+00 0. -1.
         21   -1    0    0  502  503 -0.00000000000E+00 -0.00000000000E+00 -0.12359883402E+03  0.12359883402E+03  0.00000000000E+00 0. -1.
         25    2    1    2    0    0  0.00000000000E+00  0.00000000000E+00 -0.91983665603E+02  0.15521400243E+03  0.12502156539E+03 0.  0.
          4    1    3    3  501    0  0.41409245986E+02  0.42289645130E+02 -0.21098153774E+02  0.62854389910E+02  0.15500000000E+01 0. -1.
         -4    1    3    3    0  501 -0.41409245986E+02 -0.42289645130E+02 -0.70885511828E+02  0.92359612523E+02  0.15500000000E+01 0. -1.
<mgrwt>
<rscale>  2 0.12502157E+03</rscale>
<asrwt>0</asrwt>
<pdfrwt beam="1">  1       21 0.48638721E-02 0.12502157E+03</pdfrwt>
<pdfrwt beam="2">  1       21 0.19015205E-01 0.12502157E+03</pdfrwt>
<totfact> 0.70070627E+06</totfact>
</mgrwt>
</event>
<event>
 5    0  0.1622704E+000  0.1249998E+03  0.7546771E-02  0.1235070E+00
         21   -1    0    0  503  502  0.00000000000E+00  0.00000000000E+00  0.86090410519E+02  0.86090410519E+02  0.00000000000E+00 0.  1.
         21   -1    0    0  502  503 -0.00000000000E+00 -0.00000000000E+00 -0.45373639072E+02  0.45373639072E+02  0.00000000000E+00 0.  1.
         25    2    1    2    0    0  0.00000000000E+00  0.00000000000E+00  0.40716771447E+02  0.13146404959E+03  0.12499976343E+03 0.  0.
          4    1    3    3  501    0 -0.15292877314E+02 -0.60514095968E+02  0.17382794626E+02  0.64810430922E+02  0.15500000000E+01 0. -1.
         -4    1    3    3    0  501  0.15292877314E+02  0.60514095968E+02  0.23333976821E+02  0.66653618668E+02  0.15500000000E+01 0. -1.
<mgrwt>
<rscale>  2 0.12499976E+03</rscale>
<asrwt>0</asrwt>
<pdfrwt beam="1">  1       21 0.13244679E-01 0.12499976E+03</pdfrwt>
<pdfrwt beam="2">  1       21 0.69805598E-02 0.12499976E+03</pdfrwt>
<totfact> 0.73168647E+06</totfact>
</mgrwt>
</event>
<event>
 5    0  0.1222151E+000  0.1250059E+03  0.7546771E-02  0.1235060E+00
         21   -1    0    0  503  502  0.00000000000E+00  0.00000000000E+00  0.39566544850E+01  0.39566544850E+01  0.00000000000E+00 0.  1.
         21   -1    0    0  502  503 -0.00000000000E+00 -0.00000000000E+00 -0.98735453635E+03  0.98735453635E+03  0.00000000000E+00 0.  1.
         25    2    1    2    0    0  0.00000000000E+00  0.00000000000E+00 -0.98339788186E+03  0.99131119083E+03  0.12500593193E+03 0.  0.
          4    1    3    3  501    0  0.10157973616E+02  0.19564178781E+02 -0.95534118199E+03  0.95559673399E+03  0.15500000000E+01 0. -1.
         -4    1    3    3    0  501 -0.10157973616E+02 -0.19564178781E+02 -0.28056699872E+02  0.35714456835E+02  0.15500000000E+01 0. -1.
<mgrwt>
<rscale>  2 0.12500593E+03</rscale>
<asrwt>0</asrwt>
<pdfrwt beam="1">  1       21 0.60871579E-03 0.12500593E+03</pdfrwt>
<pdfrwt beam="2">  1       21 0.15190077E+00 0.12500593E+03</pdfrwt>
<totfact> 0.23833466E+06</totfact>
</mgrwt>
</event>
<event>
 5    0  0.1453463E+000  0.1250064E+03  0.7546771E-02  0.1235059E+00
         21   -1    0    0  503  502  0.00000000000E+00  0.00000000000E+00  0.11116432913E+03  0.11116432913E+03  0.00000000000E+00 0.  1.
         21   -1    0    0  502  503 -0.00000000000E+00 -0.00000000000E+00 -0.35143003452E+02  0.35143003452E+02  0.00000000000E+00 0.  1.
         25    2    1    2    0    0  0.00000000000E+00  0.00000000000E+00  0.76021325681E+02  0.14630733259E+03  0.12500637428E+03 0.  0.
          4    1    3    3  501    0  0.20321137408E+02  0.42185609408E+02 -0.10411497400E+02  0.47993500027E+02  0.15500000000E+01 0.  1.
         -4    1    3    3    0  501 -0.20321137408E+02 -0.42185609408E+02  0.86432823081E+02  0.98313832559E+02  0.15500000000E+01 0.  1.
<mgrwt>
<rscale>  2 0.12500637E+03</rscale>
<asrwt>0</asrwt>
<pdfrwt beam="1">  1       21 0.17102204E-01 0.12500637E+03</pdfrwt>
<pdfrwt beam="2">  1       21 0.54066159E-02 0.12500637E+03</pdfrwt>
<totfact> 0.71214650E+06</totfact>
</mgrwt>
</event>
<event>
 5    0  0.1649701E+000  0.1249995E+03  0.7546771E-02  0.1235070E+00
         21   -1    0    0  503  502  0.00000000000E+00  0.00000000000E+00  0.44556920469E+02  0.44556920469E+02  0.00000000000E+00 0.  1.
         21   -1    0    0  502  503 -0.00000000000E+00 -0.00000000000E+00 -0.87668023012E+02  0.87668023012E+02  0.00000000000E+00 0.  1.
         25    2    1    2    0    0  0.00000000000E+00  0.00000000000E+00 -0.43111102542E+02  0.13222494348E+03  0.12499947406E+03 0.  0.
          4    1    3    3  501    0 -0.97314551297E+01  0.54489968140E+02 -0.52212835118E+02  0.76108084314E+02  0.15500000000E+01 0. -1.
         -4    1    3    3    0  501  0.97314551297E+01 -0.54489968140E+02  0.91017325757E+01  0.56116859167E+02  0.15500000000E+01 0. -1.
<mgrwt>
<rscale>  2 0.12499947E+03</rscale>
<asrwt>0</asrwt>
<pdfrwt beam="1">  1       21 0.68549110E-02 0.12499947E+03</pdfrwt>
<pdfrwt beam="2">  1       21 0.13487388E-01 0.12499947E+03</pdfrwt>
<totfact> 0.73067053E+06</totfact>
</mgrwt>
</event>
<event>
 5    0  0.1579118E+000  0.1250023E+03  0.7546771E-02  0.1235066E+00
         21   -1    0    0  503  502  0.00000000000E+00  0.00000000000E+00  0.17882667069E+03  0.17882667069E+03  0.00000000000E+00 0.  1.
         21   -1    0    0  502  503 -0.00000000000E+00 -0.00000000000E+00 -0.21844595920E+02  0.21844595920E+02  0.00000000000E+00 0.  1.
         25    2    1    2    0    0  0.00000000000E+00  0.00000000000E+00  0.15698207477E+03  0.20067126661E+03  0.12500234175E+03 0.  0.
          4    1    3    3  501    0  0.23091781161E+02 -0.58057797113E+02  0.78869904902E+02  0.10063201559E+03  0.15500000000E+01 0. -1.
         -4    1    3    3    0  501 -0.23091781161E+02  0.58057797113E+02  0.78112169867E+02  0.10003925102E+03  0.15500000000E+01 0. -1.
<mgrwt>
<rscale>  2 0.12500234E+03</rscale>
<asrwt>0</asrwt>
<pdfrwt beam="1">  1       21 0.27511794E-01 0.12500234E+03</pdfrwt>
<pdfrwt beam="2">  1       21 0.33607072E-02 0.12500234E+03</pdfrwt>
<totfact> 0.64850745E+06</totfact>
</mgrwt>
</event>
<event>
 5    0  0.1285098E+000  0.1250051E+03  0.7546771E-02  0.1235061E+00
         21   -1    0    0  503  502  0.00000000000E+00  0.00000000000E+00  0.69666204011E+01  0.69666204011E+01  0.00000000000E+00 0.  1.
         21   -1    0    0  502  503 -0.00000000000E+00 -0.00000000000E+00 -0.56075541209E+03  0.56075541209E+03  0.00000000000E+00 0.  1.
         25    2    1    2    0    0  0.00000000000E+00  0.00000000000E+00 -0.55378879169E+03  0.56772203249E+03  0.12500512140E+03 0.  0.
          4    1    3    3  501    0  0.49542476684E+01 -0.60145825640E+02 -0.20336793275E+03  0.21213906637E+03  0.15500000000E+01 0. -1.
         -4    1    3    3    0  501 -0.49542476684E+01  0.60145825640E+02 -0.35042085894E+03  0.35558296612E+03  0.15500000000E+01 0. -1.
<mgrwt>
<rscale>  2 0.12500512E+03</rscale>
<asrwt>0</asrwt>
<pdfrwt beam="1">  1       21 0.10717879E-02 0.12500512E+03</pdfrwt>
<pdfrwt beam="2">  1       21 0.86270051E-01 0.12500512E+03</pdfrwt>
<totfact> 0.38589360E+06</totfact>
</mgrwt>
</event>
<event>
 5    0  0.1406287E+000  0.1250008E+03  0.7546771E-02  0.1235068E+00
         21   -1    0    0  503  502  0.00000000000E+00  0.00000000000E+00  0.21123602110E+02  0.21123602110E+02  0.00000000000E+00 0. -1.
         21   -1    0    0  502  503 -0.00000000000E+00 -0.00000000000E+00 -0.18492587242E+03  0.18492587242E+03  0.00000000000E+00 0. -1.
         25    2    1    2    0    0  0.00000000000E+00  0.00000000000E+00 -0.16380227031E+03  0.20604947453E+03  0.12500080878E+03 0.  0.
          4    1    3    3  501    0  0.51490513658E+02 -0.62728929578E+01 -0.24484403454E+02  0.57380403408E+02  0.15500000000E+01 0. -1.
         -4    1    3    3    0  501 -0.51490513658E+02  0.62728929578E+01 -0.13931786686E+03  0.14866907113E+03  0.15500000000E+01 0. -1.
<mgrwt>
<rscale>  2 0.12500081E+03</rscale>
<asrwt>0</asrwt>
<pdfrwt beam="1">  1       21 0.32497850E-02 0.12500081E+03</pdfrwt>
<pdfrwt beam="2">  1       21 0.28450134E-01 0.12500081E+03</pdfrwt>
<totfact> 0.64276273E+06</totfact>
</mgrwt>
</event>
<event>
 5    0  0.1550379E+000  0.1250030E+03  0.7546771E-02  0.1235065E+00
         21   -1    0    0  503  502  0.00000000000E+00  0.00000000000E+00  0.45423325103E+02  0.45423325103E+02  0.00000000000E+00 0. -1.
         21   -1    0    0  502  503 -0.00000000000E+00 -0.00000000000E+00 -0.86000743983E+02  0.86000743983E+02  0.00000000000E+00 0. -1.
         25    2    1    2    0    0  0.00000000000E+00  0.00000000000E+00 -0.40577418880E+02  0.13142406909E+03  0.12500303601E+03 0.  0.
          4    1    3    3  501    0  0.41803759769E+02 -0.46324799947E+02 -0.16882567159E+02  0.64660381957E+02  0.15500000000E+01 0. -1.
         -4    1    3    3    0  501 -0.41803759769E+02  0.46324799947E+02 -0.23694851721E+02  0.66763687129E+02  0.15500000000E+01 0. -1.
<mgrwt>
<rscale>  2 0.12500304E+03</rscale>
<asrwt>0</asrwt>
<pdfrwt beam="1">  1       21 0.69882040E-02 0.12500304E+03</pdfrwt>
<pdfrwt beam="2">  1       21 0.13230883E-01 0.12500304E+03</pdfrwt>
<totfact> 0.73167915E+06</totfact>
</mgrwt>
</event>
<event>
 5    0  0.1265768E+000  0.1250016E+03  0.7546771E-02  0.1235067E+00
         21   -1    0    0  503  502  0.00000000000E+00  0.00000000000E+00  0.90992339505E+01  0.90992339505E+01  0.00000000000E+00 0.  1.
         21   -1    0    0  502  503 -0.00000000000E+00 -0.00000000000E+00 -0.42930527232E+03  0.42930527232E+03  0.00000000000E+00 0.  1.
         25    2    1    2    0    0  0.00000000000E+00  0.00000000000E+00 -0.42020603837E+03  0.43840450627E+03  0.12500158573E+03 0.  0.
          4    1    3    3  501    0 -0.26046377397E+02  0.38261490585E+02 -0.62901582165E+02  0.78111247437E+02  0.15500000000E+01 0.  1.
         -4    1    3    3    0  501  0.26046377397E+02 -0.38261490585E+02 -0.35730445621E+03  0.36029325884E+03  0.15500000000E+01 0.  1.
<mgrwt>
<rscale>  2 0.12500159E+03</rscale>
<asrwt>0</asrwt>
<pdfrwt beam="1">  1       21 0.13998821E-02 0.12500159E+03</pdfrwt>
<pdfrwt beam="2">  1       21 0.66046969E-01 0.12500159E+03</pdfrwt>
<totfact> 0.45592336E+06</totfact>
</mgrwt>
</event>
<event>
 5    0  0.1529211E+000  0.1249973E+03  0.7546771E-02  0.1235074E+00
         21   -1    0    0  503  502  0.00000000000E+00  0.00000000000E+00  0.24313610421E+03  0.24313610421E+03  0.00000000000E+00 0.  1.
         21   -1    0    0  502  503 -0.00000000000E+00 -0.00000000000E+00 -0.16065409035E+02  0.16065409035E+02  0.00000000000E+00 0.  1.
         25    2    1    2    0    0  0.00000000000E+00  0.00000000000E+00  0.22707069517E+03  0.25920151324E+03  0.12499729541E+03 0.  0.
          4    1    3    3  501    0 -0.28705454464E+02  0.54015909051E+02  0.87145512927E+02  0.10648222607E+03  0.15500000000E+01 0. -1.
         -4    1    3    3    0  501  0.28705454464E+02 -0.54015909051E+02  0.13992518225E+03  0.15271928717E+03  0.15500000000E+01 0. -1.
<mgrwt>
<rscale>  2 0.12499730E+03</rscale>
<asrwt>0</asrwt>
<pdfrwt beam="1">  1       21 0.37405552E-01 0.12499730E+03</pdfrwt>
<pdfrwt beam="2">  1       21 0.24716016E-02 0.12499730E+03</pdfrwt>
<totfact> 0.59026558E+06</totfact>
</mgrwt>
</event>
<event>
 5    0  0.1298719E+000  0.1250026E+03  0.7546771E-02  0.1235065E+00
         21   -1    0    0  503  502  0.00000000000E+00  0.00000000000E+00  0.87819223018E+01  0.87819223018E+01  0.00000000000E+00 0. -1.
         21   -1    0    0  502  503 -0.00000000000E+00 -0.00000000000E+00 -0.44482426241E+03  0.44482426241E+03  0.00000000000E+00 0. -1.
         25    2    1    2    0    0  0.00000000000E+00  0.00000000000E+00 -0.43604234011E+03  0.45360618472E+03  0.12500259374E+03 0.  0.
          4    1    3    3  501    0  0.25377301172E+02 -0.21209229081E+01 -0.42506822222E+03  0.42583318538E+03  0.15500000000E+01 0.  1.
         -4    1    3    3    0  501 -0.25377301172E+02  0.21209229081E+01 -0.10974117895E+02  0.27772999339E+02  0.15500000000E+01 0.  1.
<mgrwt>
<rscale>  2 0.12500259E+03</rscale>
<asrwt>0</asrwt>
<pdfrwt beam="1">  1       21 0.13510643E-02 0.12500259E+03</pdfrwt>
<pdfrwt beam="2">  1       21 0.68434534E-01 0.12500259E+03</pdfrwt>
<totfact> 0.44674365E+06</totfact>
</mgrwt>
</event>
<event>
 5    0  0.1336894E+000  0.1249991E+03  0.7546771E-02  0.1235071E+00
         21   -1    0    0  503  502  0.00000000000E+00  0.00000000000E+00  0.97708685737E+01  0.97708685737E+01  0.00000000000E+00 0. -1.
         21   -1    0    0  502  503 -0.00000000000E+00 -0.00000000000E+00 -0.39977981081E+03  0.39977981081E+03  0.00000000000E+00 0. -1.
         25    2    1    2    0    0  0.00000000000E+00  0.00000000000E+00 -0.39000894224E+03  0.40955067938E+03  0.12499913583E+03 0.  0.
          4    1    3    3  501    0  0.39349779352E+02  0.34648898614E+02 -0.83661717156E+02  0.98745312434E+02  0.15500000000E+01 0. -1.
         -4    1    3    3    0  501 -0.39349779352E+02 -0.34648898614E+02 -0.30634722508E+03  0.31080536695E+03  0.15500000000E+01 0. -1.
<mgrwt>
<rscale>  2 0.12499914E+03</rscale>
<asrwt>0</asrwt>
<pdfrwt beam="1">  1       21 0.15032110E-02 0.12499914E+03</pdfrwt>
<pdfrwt beam="2">  1       21 0.61504569E-01 0.12499914E+03</pdfrwt>
<totfact> 0.47415281E+06</totfact>
</mgrwt>
</event>
<event>
 5    0  0.1222151E+000  0.1249944E+03  0.7546771E-02  0.1235078E+00
         21   -1    0    0  503  502  0.00000000000E+00  0.00000000000E+00  0.12908112935E+04  0.12908112935E+04  0.00000000000E+00 0. -1.
         21   -1    0    0  502  503 -0.00000000000E+00 -0.00000000000E+00 -0.30259270880E+01  0.30259270880E+01  0.00000000000E+00 0. -1.
         25    2    1    2    0    0  0.00000000000E+00  0.00000000000E+00  0.12877853664E+04  0.12938372206E+04  0.12499441361E+03 0.  0.
          4    1    3    3  501    0 -0.41064174461E+02  0.46700379196E+02  0.58152188063E+03  0.58483954380E+03  0.15500000000E+01 0.  1.
         -4    1    3    3    0  501  0.41064174461E+02 -0.46700379196E+02  0.70626348576E+03  0.70899767677E+03  0.15500000000E+01 0.  1.
<mgrwt>
<rscale>  2 0.12499441E+03</rscale>
<asrwt>0</asrwt>
<pdfrwt beam="1">  1       21 0.19858591E+00 0.12499441E+03</pdfrwt>
<pdfrwt beam="2">  1       21 0.46552827E-03 0.12499441E+03</pdfrwt>
<totfact> 0.17365817E+06</totfact>
</mgrwt>
</event>
<event>
 5    0  0.1526848E+000  0.1250082E+03  0.7546771E-02  0.1235056E+00
         21   -1    0    0  503  502  0.00000000000E+00  0.00000000000E+00  0.10741150348E+03  0.10741150348E+03  0.00000000000E+00 0.  1.
         21   -1    0    0  502  503 -0.00000000000E+00 -0.00000000000E+00 -0.36371935425E+02  0.36371935425E+02  0.00000000000E+00 0.  1.
         25    2    1    2    0    0  0.00000000000E+00  0.00000000000E+00  0.71039568051E+02  0.14378343890E+03  0.12500822802E+03 0.  0.
          4    1    3    3  501    0  0.50779356307E+02 -0.20690285949E+02  0.69982010509E+02  0.88918587789E+02  0.15500000000E+01 0.  1.
         -4    1    3    3    0  501 -0.50779356307E+02  0.20690285949E+02  0.10575575419E+01  0.54864851112E+02  0.15500000000E+01 0.  1.
<mgrwt>
<rscale>  2 0.12500823E+03</rscale>
<asrwt>0</asrwt>
<pdfrwt beam="1">  1       21 0.16524847E-01 0.12500823E+03</pdfrwt>
<pdfrwt beam="2">  1       21 0.55956824E-02 0.12500823E+03</pdfrwt>
<totfact> 0.71534162E+06</totfact>
</mgrwt>
</event>
<event>
 5    0  0.1222151E+000  0.1250015E+03  0.7546771E-02  0.1235067E+00
         21   -1    0    0  503  502  0.00000000000E+00  0.00000000000E+00  0.77499542336E+03  0.77499542336E+03  0.00000000000E+00 0.  1.
         21   -1    0    0  502  503 -0.00000000000E+00 -0.00000000000E+00 -0.50404762876E+01  0.50404762876E+01  0.00000000000E+00 0.  1.
         25    2    1    2    0    0  0.00000000000E+00  0.00000000000E+00  0.76995494707E+03  0.78003589965E+03  0.12500153686E+03 0.  0.
          4    1    3    3  501    0  0.60068781281E+02 -0.56997689871E+01  0.28374023605E+03  0.29008907237E+03  0.15500000000E+01 0.  1.
         -4    1    3    3    0  501 -0.60068781281E+02  0.56997689871E+01  0.48621471102E+03  0.48994682728E+03  0.15500000000E+01 0.  1.
<mgrwt>
<rscale>  2 0.12500154E+03</rscale>
<asrwt>0</asrwt>
<pdfrwt beam="1">  1       21 0.11922997E+00 0.12500154E+03</pdfrwt>
<pdfrwt beam="2">  1       21 0.77545851E-03 0.12500154E+03</pdfrwt>
<totfact> 0.30033897E+06</totfact>
</mgrwt>
</event>
<event>
 5    0  0.1413797E+000  0.1249982E+03  0.7546771E-02  0.1235072E+00
         21   -1    0    0  503  502  0.00000000000E+00  0.00000000000E+00  0.24451770736E+03  0.24451770736E+03  0.00000000000E+00 0.  1.
         21   -1    0    0  502  503 -0.00000000000E+00 -0.00000000000E+00 -0.15974866060E+02  0.15974866060E+02  0.00000000000E+00 0.  1.
         25    2    1    2    0    0  0.00000000000E+00  0.00000000000E+00  0.22854284130E+03  0.26049257342E+03  0.12499820198E+03 0.  0.
          4    1    3    3  501    0 -0.42076643284E+02 -0.71557309388E+01  0.19180076092E+02  0.46818011644E+02  0.15500000000E+01 0.  1.
         -4    1    3    3    0  501  0.42076643284E+02  0.71557309388E+01  0.20936276521E+03  0.21367456178E+03  0.15500000000E+01 0.  1.
<mgrwt>
<rscale>  2 0.12499820E+03</rscale>
<asrwt>0</asrwt>
<pdfrwt beam="1">  1       21 0.37618106E-01 0.12499820E+03</pdfrwt>
<pdfrwt beam="2">  1       21 0.24576719E-02 0.12499820E+03</pdfrwt>
<totfact> 0.58906823E+06</totfact>
</mgrwt>
</event>
<event>
 5    0  0.1267341E+000  0.1249881E+03  0.7546771E-02  0.1235088E+00
         21   -1    0    0  503  502  0.00000000000E+00  0.00000000000E+00  0.76464125105E+01  0.76464125105E+01  0.00000000000E+00 0. -1.
         21   -1    0    0  502  503 -0.00000000000E+00 -0.00000000000E+00 -0.51076314345E+03  0.51076314345E+03  0.00000000000E+00 0. -1.
         25    2    1    2    0    0  0.00000000000E+00  0.00000000000E+00 -0.50311673094E+03  0.51840955596E+03  0.12498809047E+03 0.  0.
          4    1    3    3  501    0  0.21827238066E+02 -0.13097233844E+02 -0.14917893216E+02  0.29545082399E+02  0.15500000000E+01 0.  1.
         -4    1    3    3    0  501 -0.21827238066E+02  0.13097233844E+02 -0.48819883772E+03  0.48886447356E+03  0.15500000000E+01 0.  1.
<mgrwt>
<rscale>  2 0.12498809E+03</rscale>
<asrwt>0</asrwt>
<pdfrwt beam="1">  1       21 0.11763711E-02 0.12498809E+03</pdfrwt>
<pdfrwt beam="2">  1       21 0.78578948E-01 0.12498809E+03</pdfrwt>
<totfact> 0.41075132E+06</totfact>
</mgrwt>
</event>
<event>
 5    0  0.1474124E+000  0.1249998E+03  0.7546771E-02  0.1235070E+00
         21   -1    0    0  503  502  0.00000000000E+00  0.00000000000E+00  0.24761509348E+02  0.24761509348E+02  0.00000000000E+00 0. -1.
         21   -1    0    0  502  503 -0.00000000000E+00 -0.00000000000E+00 -0.15775441759E+03  0.15775441759E+03  0.00000000000E+00 0. -1.
         25    2    1    2    0    0  0.00000000000E+00  0.00000000000E+00 -0.13299290824E+03  0.18251592694E+03  0.12499979977E+03 0.  0.
          4    1    3    3  501    0  0.23939843598E+02 -0.29975188093E+02 -0.13850627252E+03  0.14372897426E+03  0.15500000000E+01 0. -1.
         -4    1    3    3    0  501 -0.23939843598E+02  0.29975188093E+02  0.55133642793E+01  0.38786952682E+02  0.15500000000E+01 0. -1.
<mgrwt>
<rscale>  2 0.12499980E+03</rscale>
<asrwt>0</asrwt>
<pdfrwt beam="1">  1       21 0.38094632E-02 0.12499980E+03</pdfrwt>
<pdfrwt beam="2">  1       21 0.24269909E-01 0.12499980E+03</pdfrwt>
<totfact> 0.66864423E+06</totfact>
</mgrwt>
</event>
<event>
 5    0  0.1368037E+000  0.1250341E+03  0.7546771E-02  0.1235016E+00
         21   -1    0    0  503  502  0.00000000000E+00  0.00000000000E+00  0.93586389206E+01  0.93586389206E+01  0.00000000000E+00 0. -1.
         21   -1    0    0  502  503 -0.00000000000E+00 -0.00000000000E+00 -0.41762268988E+03  0.41762268988E+03  0.00000000000E+00 0. -1.
         25    2    1    2    0    0  0.00000000000E+00  0.00000000000E+00 -0.40826405096E+03  0.42698132880E+03  0.12503407471E+03 0.  0.
          4    1    3    3  501    0 -0.15340378342E+02 -0.30865873222E+02 -0.38216525968E+03  0.38371958191E+03  0.15500000000E+01 0.  1.
         -4    1    3    3    0  501  0.15340378342E+02  0.30865873222E+02 -0.26098791277E+02  0.43261746885E+02  0.15500000000E+01 0.  1.
<mgrwt>
<rscale>  2 0.12503407E+03</rscale>
<asrwt>0</asrwt>
<pdfrwt beam="1">  1       21 0.14397902E-02 0.12503407E+03</pdfrwt>
<pdfrwt beam="2">  1       21 0.64249662E-01 0.12503407E+03</pdfrwt>
<totfact> 0.46262351E+06</totfact>
</mgrwt>
</event>
<event>
 5    0  0.1557266E+000  0.1249681E+03  0.7546771E-02  0.1235119E+00
         21   -1    0    0  503  502  0.00000000000E+00  0.00000000000E+00  0.13411689092E+03  0.13411689092E+03  0.00000000000E+00 0. -1.
         21   -1    0    0  502  503 -0.00000000000E+00 -0.00000000000E+00 -0.29110831937E+02  0.29110831937E+02  0.00000000000E+00 0. -1.
         25    2    1    2    0    0  0.00000000000E+00  0.00000000000E+00  0.10500605898E+03  0.16322772286E+03  0.12496806426E+03 0.  0.
          4    1    3    3  501    0  0.20625354628E+02 -0.56158718160E+02  0.29041448380E+02  0.66520786999E+02  0.15500000000E+01 0. -1.
         -4    1    3    3    0  501 -0.20625354628E+02  0.56158718160E+02  0.75964610603E+02  0.96706935858E+02  0.15500000000E+01 0. -1.
<mgrwt>
<rscale>  2 0.12496806E+03</rscale>
<asrwt>0</asrwt>
<pdfrwt beam="1">  1       21 0.20633368E-01 0.12496806E+03</pdfrwt>
<pdfrwt beam="2">  1       21 0.44785896E-02 0.12496806E+03</pdfrwt>
<totfact> 0.69183377E+06</totfact>
</mgrwt>
</event>
<event>
 5    0  0.1407089E+000  0.1249981E+03  0.7546771E-02  0.1235072E+00
         21   -1    0    0  503  502  0.00000000000E+00  0.00000000000E+00  0.14783115504E+02  0.14783115504E+02  0.00000000000E+00 0.  1.
         21   -1    0    0  502  503 -0.00000000000E+00 -0.00000000000E+00 -0.26422933788E+03  0.26422933788E+03  0.00000000000E+00 0.  1.
         25    2    1    2    0    0  0.00000000000E+00  0.00000000000E+00 -0.24944622237E+03  0.27901245338E+03  0.12499812513E+03 0.  0.
          4    1    3    3  501    0 -0.19198516794E+01 -0.30997794569E+02 -0.24573645771E+03  0.24769610058E+03  0.15500000000E+01 0. -1.
         -4    1    3    3    0  501  0.19198516794E+01  0.30997794569E+02 -0.37097646661E+01  0.31316352796E+02  0.15500000000E+01 0. -1.
<mgrwt>
<rscale>  2 0.12499813E+03</rscale>
<asrwt>0</asrwt>
<pdfrwt beam="1">  1       21 0.22743256E-02 0.12499813E+03</pdfrwt>
<pdfrwt beam="2">  1       21 0.40650665E-01 0.12499813E+03</pdfrwt>
<totfact> 0.57249404E+06</totfact>
</mgrwt>
</event>
<event>
 5    0  0.1475856E+000  0.1249967E+03  0.7546771E-02  0.1235074E+00
         21   -1    0    0  503  502  0.00000000000E+00  0.00000000000E+00  0.57832864660E+02  0.57832864660E+02  0.00000000000E+00 0. -1.
         21   -1    0    0  502  503 -0.00000000000E+00 -0.00000000000E+00 -0.67540177122E+02  0.67540177122E+02  0.00000000000E+00 0. -1.
         25    2    1    2    0    0  0.00000000000E+00  0.00000000000E+00 -0.97073124626E+01  0.12537304178E+03  0.12499667072E+03 0.  0.
          4    1    3    3  501    0 -0.33433109004E+02 -0.35692594432E+02  0.34146650132E+02  0.59666827386E+02  0.15500000000E+01 0. -1.
         -4    1    3    3    0  501  0.33433109004E+02  0.35692594432E+02 -0.43853962595E+02  0.65706214396E+02  0.15500000000E+01 0. -1.
<mgrwt>
<rscale>  2 0.12499667E+03</rscale>
<asrwt>0</asrwt>
<pdfrwt beam="1">  1       21 0.88973639E-02 0.12499667E+03</pdfrwt>
<pdfrwt beam="2">  1       21 0.10390796E-01 0.12499667E+03</pdfrwt>
<totfact> 0.73999480E+06</totfact>
</mgrwt>
</event>
<event>
 5    0  0.1232846E+000  0.1250001E+03  0.7546771E-02  0.1235069E+00
         21   -1    0    0  503  502  0.00000000000E+00  0.00000000000E+00  0.54218957936E+03  0.54218957936E+03  0.00000000000E+00 0.  1.
         21   -1    0    0  502  503 -0.00000000000E+00 -0.00000000000E+00 -0.72045902698E+01  0.72045902698E+01  0.00000000000E+00 0.  1.
         25    2    1    2    0    0  0.00000000000E+00  0.00000000000E+00  0.53498498909E+03  0.54939416963E+03  0.12500006029E+03 0.  0.
          4    1    3    3  501    0  0.23831595221E+02 -0.15991645248E+02  0.23564625259E+02  0.37166809281E+02  0.15500000000E+01 0. -1.
         -4    1    3    3    0  501 -0.23831595221E+02  0.15991645248E+02  0.51142036383E+03  0.51222736035E+03  0.15500000000E+01 0. -1.
<mgrwt>
<rscale>  2 0.12500006E+03</rscale>
<asrwt>0</asrwt>
<pdfrwt beam="1">  1       21 0.83413749E-01 0.12500006E+03</pdfrwt>
<pdfrwt beam="2">  1       21 0.11083989E-02 0.12500006E+03</pdfrwt>
<totfact> 0.39485978E+06</totfact>
</mgrwt>
</event>
<event>
 5    0  0.1353842E+000  0.1250018E+03  0.7546771E-02  0.1235066E+00
         21   -1    0    0  503  502  0.00000000000E+00  0.00000000000E+00  0.11663457206E+02  0.11663457206E+02  0.00000000000E+00 0. -1.
         21   -1    0    0  502  503 -0.00000000000E+00 -0.00000000000E+00 -0.33492312046E+03  0.33492312046E+03  0.00000000000E+00 0. -1.
         25    2    1    2    0    0  0.00000000000E+00  0.00000000000E+00 -0.32325966325E+03  0.34658657766E+03  0.12500178371E+03 0.  0.
          4    1    3    3  501    0  0.18349149045E+02  0.28679098136E+02 -0.16368819533E+02  0.37809029259E+02  0.15500000000E+01 0. -1.
         -4    1    3    3    0  501 -0.18349149045E+02 -0.28679098136E+02 -0.30689084372E+03  0.30877754840E+03  0.15500000000E+01 0. -1.
<mgrwt>
<rscale>  2 0.12500178E+03</rscale>
<asrwt>0</asrwt>
<pdfrwt beam="1">  1       21 0.17943780E-02 0.12500178E+03</pdfrwt>
<pdfrwt beam="2">  1       21 0.51526634E-01 0.12500178E+03</pdfrwt>
<totfact> 0.51789199E+06</totfact>
</mgrwt>
</event>
<event>
 5    0  0.1399788E+000  0.1250015E+03  0.7546771E-02  0.1235067E+00
         21   -1    0    0  503  502  0.00000000000E+00  0.00000000000E+00  0.17364033230E+02  0.17364033230E+02  0.00000000000E+00 0. -1.
         21   -1    0    0  502  503 -0.00000000000E+00 -0.00000000000E+00 -0.22496740482E+03  0.22496740482E+03  0.00000000000E+00 0. -1.
         25    2    1    2    0    0  0.00000000000E+00  0.00000000000E+00 -0.20760337159E+03  0.24233143805E+03  0.12500146388E+03 0.  0.
          4    1    3    3  501    0 -0.30159523412E+02 -0.33045881525E+02 -0.19247420999E+02  0.48728768231E+02  0.15500000000E+01 0. -1.
         -4    1    3    3    0  501  0.30159523412E+02  0.33045881525E+02 -0.18835595059E+03  0.19360266982E+03  0.15500000000E+01 0. -1.
<mgrwt>
<rscale>  2 0.12500146E+03</rscale>
<asrwt>0</asrwt>
<pdfrwt beam="1">  1       21 0.26713900E-02 0.12500146E+03</pdfrwt>
<pdfrwt beam="2">  1       21 0.34610367E-01 0.12500146E+03</pdfrwt>
<totfact> 0.60605545E+06</totfact>
</mgrwt>
</event>
<event>
 5    0  0.1222151E+000  0.1250022E+03  0.7546771E-02  0.1235066E+00
         21   -1    0    0  503  502  0.00000000000E+00  0.00000000000E+00  0.71992328130E+03  0.71992328130E+03  0.00000000000E+00 0. -1.
         21   -1    0    0  502  503 -0.00000000000E+00 -0.00000000000E+00 -0.54261167141E+01  0.54261167141E+01  0.00000000000E+00 0. -1.
         25    2    1    2    0    0  0.00000000000E+00  0.00000000000E+00  0.71449716459E+03  0.72534939802E+03  0.12500220397E+03 0.  0.
          4    1    3    3  501    0 -0.39099596202E+02 -0.20755563776E+02  0.61312124416E+03  0.61471915083E+03  0.15500000000E+01 0. -1.
         -4    1    3    3    0  501  0.39099596202E+02  0.20755563776E+02  0.10137592042E+03  0.11063024719E+03  0.15500000000E+01 0. -1.
<mgrwt>
<rscale>  2 0.12500220E+03</rscale>
<asrwt>0</asrwt>
<pdfrwt beam="1">  1       21 0.11075735E+00 0.12500220E+03</pdfrwt>
<pdfrwt beam="2">  1       21 0.83478776E-03 0.12500220E+03</pdfrwt>
<totfact> 0.31953722E+06</totfact>
</mgrwt>
</event>
<event>
 5    0  0.1222151E+000  0.1250251E+03  0.7546771E-02  0.1235030E+00
         21   -1    0    0  503  502  0.00000000000E+00  0.00000000000E+00  0.37002008777E+01  0.37002008777E+01  0.00000000000E+00 0. -1.
         21   -1    0    0  502  503 -0.00000000000E+00 -0.00000000000E+00 -0.10561107262E+04  0.10561107262E+04  0.00000000000E+00 0. -1.
         25    2    1    2    0    0  0.00000000000E+00  0.00000000000E+00 -0.10524105253E+04  0.10598109271E+04  0.12502514685E+03 0.  0.
          4    1    3    3  501    0  0.48648594181E+02  0.38055503193E+02 -0.44555889470E+03  0.44982222954E+03  0.15500000000E+01 0. -1.
         -4    1    3    3    0  501 -0.48648594181E+02 -0.38055503193E+02 -0.60685163065E+03  0.60998869757E+03  0.15500000000E+01 0. -1.
<mgrwt>
<rscale>  2 0.12502515E+03</rscale>
<asrwt>0</asrwt>
<pdfrwt beam="1">  1       21 0.56926205E-03 0.12502515E+03</pdfrwt>
<pdfrwt beam="2">  1       21 0.16247847E+00 0.12502515E+03</pdfrwt>
<totfact> 0.22154285E+06</totfact>
</mgrwt>
</event>
<event>
 5    0  0.1401465E+000  0.1249992E+03  0.7546771E-02  0.1235071E+00
         21   -1    0    0  503  502  0.00000000000E+00  0.00000000000E+00  0.92250393378E+01  0.92250393378E+01  0.00000000000E+00 0.  1.
         21   -1    0    0  502  503 -0.00000000000E+00 -0.00000000000E+00 -0.42343432545E+03  0.42343432545E+03  0.00000000000E+00 0.  1.
         25    2    1    2    0    0  0.00000000000E+00  0.00000000000E+00 -0.41420928611E+03  0.43265936478E+03  0.12499917295E+03 0.  0.
          4    1    3    3  501    0  0.30223643100E+02  0.54638802250E+02 -0.21478879878E+03  0.22368615937E+03  0.15500000000E+01 0. -1.
         -4    1    3    3    0  501 -0.30223643100E+02 -0.54638802250E+02 -0.19942048733E+03  0.20897320541E+03  0.15500000000E+01 0. -1.
<mgrwt>
<rscale>  2 0.12499917E+03</rscale>
<asrwt>0</asrwt>
<pdfrwt beam="1">  1       21 0.14192371E-02 0.12499917E+03</pdfrwt>
<pdfrwt beam="2">  1       21 0.65143729E-01 0.12499917E+03</pdfrwt>
<totfact> 0.45948891E+06</totfact>
</mgrwt>
</event>
<event>
 5    0  0.1432101E+000  0.1250027E+03  0.7546771E-02  0.1235065E+00
         21   -1    0    0  503  502  0.00000000000E+00  0.00000000000E+00  0.24507261857E+03  0.24507261857E+03  0.00000000000E+00 0.  1.
         21   -1    0    0  502  503 -0.00000000000E+00 -0.00000000000E+00 -0.15939849556E+02  0.15939849556E+02  0.00000000000E+00 0.  1.
         25    2    1    2    0    0  0.00000000000E+00  0.00000000000E+00  0.22913276901E+03  0.26101246812E+03  0.12500273070E+03 0.  0.
          4    1    3    3  501    0 -0.57914843859E+02 -0.20752627086E+02  0.91767596598E+02  0.11049205834E+03  0.15500000000E+01 0. -1.
         -4    1    3    3    0  501  0.57914843859E+02  0.20752627086E+02  0.13736517241E+03  0.15052040979E+03  0.15500000000E+01 0. -1.
<mgrwt>
<rscale>  2 0.12500273E+03</rscale>
<asrwt>0</asrwt>
<pdfrwt beam="1">  1       21 0.37703477E-01 0.12500273E+03</pdfrwt>
<pdfrwt beam="2">  1       21 0.24522847E-02 0.12500273E+03</pdfrwt>
<totfact> 0.58852550E+06</totfact>
</mgrwt>
</event>
<event>
 5    0  0.1586621E+000  0.1250032E+03  0.7546771E-02  0.1235064E+00
         21   -1    0    0  503  502  0.00000000000E+00  0.00000000000E+00  0.27451656455E+02  0.27451656455E+02  0.00000000000E+00 0. -1.
         21   -1    0    0  502  503 -0.00000000000E+00 -0.00000000000E+00 -0.14230294957E+03  0.14230294957E+03  0.00000000000E+00 0. -1.
         25    2    1    2    0    0  0.00000000000E+00  0.00000000000E+00 -0.11485129312E+03  0.16975460603E+03  0.12500322690E+03 0.  0.
          4    1    3    3  501    0 -0.26552065192E+02 -0.48116784653E+02 -0.97797650098E+02  0.11219188917E+03  0.15500000000E+01 0.  1.
         -4    1    3    3    0  501  0.26552065192E+02  0.48116784653E+02 -0.17053643018E+02  0.57562716853E+02  0.15500000000E+01 0.  1.
<mgrwt>
<rscale>  2 0.12500323E+03</rscale>
<asrwt>0</asrwt>
<pdfrwt beam="1">  1       21 0.42233316E-02 0.12500323E+03</pdfrwt>
<pdfrwt beam="2">  1       21 0.21892762E-01 0.12500323E+03</pdfrwt>
<totfact> 0.68341137E+06</totfact>
</mgrwt>
</event>
<event>
 5    0  0.1222151E+000  0.1249994E+03  0.7546771E-02  0.1235070E+00
         21   -1    0    0  503  502  0.00000000000E+00  0.00000000000E+00  0.10317431669E+04  0.10317431669E+04  0.00000000000E+00 0. -1.
         21   -1    0    0  502  503 -0.00000000000E+00 -0.00000000000E+00 -0.37860319680E+01  0.37860319680E+01  0.00000000000E+00 0. -1.
         25    2    1    2    0    0  0.00000000000E+00  0.00000000000E+00  0.10279571349E+04  0.10355291988E+04  0.12499940180E+03 0.  0.
          4    1    3    3  501    0 -0.35735271893E+02 -0.26088238438E+02  0.87944595193E+03  0.88055958952E+03  0.15500000000E+01 0. -1.
         -4    1    3    3    0  501  0.35735271893E+02  0.26088238438E+02  0.14851118296E+03  0.15496960930E+03  0.15500000000E+01 0. -1.
<mgrwt>
<rscale>  2 0.12499940E+03</rscale>
<asrwt>0</asrwt>
<pdfrwt beam="1">  1       21 0.15872949E+00 0.12499940E+03</pdfrwt>
<pdfrwt beam="2">  1       21 0.58246728E-03 0.12499940E+03</pdfrwt>
<totfact> 0.22745366E+06</totfact>
</mgrwt>
</event>
<event>
 5    0  0.1449386E+000  0.1250022E+03  0.7546771E-02  0.1235066E+00
         21   -1    0    0  503  502  0.00000000000E+00  0.00000000000E+00  0.20307001235E+02  0.20307001235E+02  0.00000000000E+00 0. -1.
         21   -1    0    0  502  503 -0.00000000000E+00 -0.00000000000E+00 -0.19236663042E+03  0.19236663042E+03  0.00000000000E+00 0. -1.
         25    2    1    2    0    0  0.00000000000E+00  0.00000000000E+00 -0.17205962919E+03  0.21267363166E+03  0.12500223040E+03 0.  0.
          4    1    3    3  501    0 -0.27843326196E+02 -0.22416198294E+02 -0.17321926287E+03  0.17687581036E+03  0.15500000000E+01 0. -1.
         -4    1    3    3    0  501  0.27843326196E+02  0.22416198294E+02  0.11596336832E+01  0.35797821301E+02  0.15500000000E+01 0. -1.
<mgrwt>
<rscale>  2 0.12500223E+03</rscale>
<asrwt>0</asrwt>
<pdfrwt beam="1">  1       21 0.31241542E-02 0.12500223E+03</pdfrwt>
<pdfrwt beam="2">  1       21 0.29594865E-01 0.12500223E+03</pdfrwt>
<totfact> 0.63575747E+06</totfact>
</mgrwt>
</event>
<event>
 5    0  0.1222151E+000  0.1249743E+03  0.7546771E-02  0.1235109E+00
         21   -1    0    0  503  502  0.00000000000E+00  0.00000000000E+00  0.24286416161E+01  0.24286416161E+01  0.00000000000E+00 0.  1.
         21   -1    0    0  502  503 -0.00000000000E+00 -0.00000000000E+00 -0.16077493711E+04  0.16077493711E+04  0.00000000000E+00 0.  1.
         25    2    1    2    0    0  0.00000000000E+00  0.00000000000E+00 -0.16053207295E+04  0.16101780128E+04  0.12497434986E+03 0.  0.
          4    1    3    3  501    0 -0.27417276591E+02 -0.44172159206E+02 -0.12488581318E+04  0.12499407676E+04  0.15500000000E+01 0.  1.
         -4    1    3    3    0  501  0.27417276591E+02  0.44172159206E+02 -0.35646259774E+03  0.36023724515E+03  0.15500000000E+01 0.  1.
<mgrwt>
<rscale>  2 0.12497435E+03</rscale>
<asrwt>0</asrwt>
<pdfrwt beam="1">  1       21 0.37363556E-03 0.12497435E+03</pdfrwt>
<pdfrwt beam="2">  1       21 0.24734712E+00 0.12497435E+03</pdfrwt>
<totfact> 0.12443960E+06</totfact>
</mgrwt>
</event>
<event>
 5    0  0.1324095E+000  0.1250039E+03  0.7546771E-02  0.1235063E+00
         21   -1    0    0  503  502  0.00000000000E+00  0.00000000000E+00  0.58847469323E+03  0.58847469323E+03  0.00000000000E+00 0.  1.
         21   -1    0    0  502  503 -0.00000000000E+00 -0.00000000000E+00 -0.66383355719E+01  0.66383355719E+01  0.00000000000E+00 0.  1.
         25    2    1    2    0    0  0.00000000000E+00  0.00000000000E+00  0.58183635766E+03  0.59511302880E+03  0.12500387977E+03 0.  0.
          4    1    3    3  501    0  0.12405875030E+01  0.62458448856E+02  0.28510089599E+03  0.29186901220E+03  0.15500000000E+01 0.  1.
         -4    1    3    3    0  501 -0.12405875030E+01 -0.62458448856E+02  0.29673546167E+03  0.30324401660E+03  0.15500000000E+01 0.  1.
<mgrwt>
<rscale>  2 0.12500388E+03</rscale>
<asrwt>0</asrwt>
<pdfrwt beam="1">  1       21 0.90534527E-01 0.12500388E+03</pdfrwt>
<pdfrwt beam="2">  1       21 0.10212829E-02 0.12500388E+03</pdfrwt>
<totfact> 0.37310990E+06</totfact>
</mgrwt>
</event>
<event>
 5    0  0.1433530E+000  0.1249996E+03  0.7546771E-02  0.1235070E+00
         21   -1    0    0  503  502  0.00000000000E+00  0.00000000000E+00  0.91185928488E+01  0.91185928488E+01  0.00000000000E+00 0. -1.
         21   -1    0    0  502  503 -0.00000000000E+00 -0.00000000000E+00 -0.42837998812E+03  0.42837998812E+03  0.00000000000E+00 0. -1.
         25    2    1    2    0    0  0.00000000000E+00  0.00000000000E+00 -0.41926139527E+03  0.43749858097E+03  0.12499956314E+03 0.  0.
          4    1    3    3  501    0  0.44576121579E+02 -0.42216791111E+02 -0.16903489225E+03  0.17984572657E+03  0.15500000000E+01 0. -1.
         -4    1    3    3    0  501 -0.44576121579E+02  0.42216791111E+02 -0.25022650302E+03  0.25765285440E+03  0.15500000000E+01 0. -1.
<mgrwt>
<rscale>  2 0.12499956E+03</rscale>
<asrwt>0</asrwt>
<pdfrwt beam="1">  1       21 0.14028604E-02 0.12499956E+03</pdfrwt>
<pdfrwt beam="2">  1       21 0.65904617E-01 0.12499956E+03</pdfrwt>
<totfact> 0.45650151E+06</totfact>
</mgrwt>
</event>
<event>
 5    0  0.1311817E+000  0.1250014E+03  0.7546771E-02  0.1235067E+00
         21   -1    0    0  503  502  0.00000000000E+00  0.00000000000E+00  0.11384380213E+02  0.11384380213E+02  0.00000000000E+00 0. -1.
         21   -1    0    0  502  503 -0.00000000000E+00 -0.00000000000E+00 -0.34313137717E+03  0.34313137717E+03  0.00000000000E+00 0. -1.
         25    2    1    2    0    0  0.00000000000E+00  0.00000000000E+00 -0.33174699696E+03  0.35451575738E+03  0.12500140897E+03 0.  0.
          4    1    3    3  501    0 -0.29734864165E+02  0.42483063887E+02 -0.67017709405E+02  0.84751098743E+02  0.15500000000E+01 0. -1.
         -4    1    3    3    0  501  0.29734864165E+02 -0.42483063887E+02 -0.26472928755E+03  0.26976465864E+03  0.15500000000E+01 0. -1.
<mgrwt>
<rscale>  2 0.12500141E+03</rscale>
<asrwt>0</asrwt>
<pdfrwt beam="1">  1       21 0.17514429E-02 0.12500141E+03</pdfrwt>
<pdfrwt beam="2">  1       21 0.52789448E-01 0.12500141E+03</pdfrwt>
<totfact> 0.51204841E+06</totfact>
</mgrwt>
</event>
<event>
 5    0  0.1575386E+000  0.1249987E+03  0.7546771E-02  0.1235071E+00
         21   -1    0    0  503  502  0.00000000000E+00  0.00000000000E+00  0.62284494653E+02  0.62284494653E+02  0.00000000000E+00 0. -1.
         21   -1    0    0  502  503 -0.00000000000E+00 -0.00000000000E+00 -0.62714947583E+02  0.62714947583E+02  0.00000000000E+00 0. -1.
         25    2    1    2    0    0  0.00000000000E+00  0.00000000000E+00 -0.43045292972E+00  0.12499944224E+03  0.12499870107E+03 0.  0.
          4    1    3    3  501    0  0.37221111284E+02 -0.49038975371E+02 -0.10870527172E+02  0.62536414125E+02  0.15500000000E+01 0.  1.
         -4    1    3    3    0  501 -0.37221111284E+02  0.49038975371E+02  0.10440074242E+02  0.62463028111E+02  0.15500000000E+01 0.  1.
<mgrwt>
<rscale>  2 0.12499870E+03</rscale>
<asrwt>0</asrwt>
<pdfrwt beam="1">  1       21 0.95822300E-02 0.12499870E+03</pdfrwt>
<pdfrwt beam="2">  1       21 0.96484535E-02 0.12499870E+03</pdfrwt>
<totfact> 0.74046116E+06</totfact>
</mgrwt>
</event>
<event>
 5    0  0.1536746E+000  0.1250037E+03  0.7546771E-02  0.1235064E+00
         21   -1    0    0  503  502  0.00000000000E+00  0.00000000000E+00  0.19076552733E+03  0.19076552733E+03  0.00000000000E+00 0.  1.
         21   -1    0    0  502  503 -0.00000000000E+00 -0.00000000000E+00 -0.20477918273E+02  0.20477918273E+02  0.00000000000E+00 0.  1.
         25    2    1    2    0    0  0.00000000000E+00  0.00000000000E+00  0.17028760906E+03  0.21124344561E+03  0.12500369399E+03 0.  0.
          4    1    3    3  501    0  0.11063144752E+02 -0.60679249830E+02  0.68269024129E+02  0.92018621416E+02  0.15500000000E+01 0.  1.
         -4    1    3    3    0  501 -0.11063144752E+02  0.60679249830E+02  0.10201858493E+03  0.11922482419E+03  0.15500000000E+01 0.  1.
<mgrwt>
<rscale>  2 0.12500369E+03</rscale>
<asrwt>0</asrwt>
<pdfrwt beam="1">  1       21 0.29348541E-01 0.12500369E+03</pdfrwt>
<pdfrwt beam="2">  1       21 0.31504491E-02 0.12500369E+03</pdfrwt>
<totfact> 0.63722995E+06</totfact>
</mgrwt>
</event>
<event>
 5    0  0.1538139E+000  0.1250095E+03  0.7546771E-02  0.1235054E+00
         21   -1    0    0  503  502  0.00000000000E+00  0.00000000000E+00  0.25446387339E+02  0.25446387339E+02  0.00000000000E+00 0. -1.
         21   -1    0    0  502  503 -0.00000000000E+00 -0.00000000000E+00 -0.15353230368E+03  0.15353230368E+03  0.00000000000E+00 0. -1.
         25    2    1    2    0    0  0.00000000000E+00  0.00000000000E+00 -0.12808591634E+03  0.17897869102E+03  0.12500947914E+03 0.  0.
          4    1    3    3  501    0 -0.42013649107E+02 -0.37171016088E+02 -0.24635275905E+02  0.61287278185E+02  0.15500000000E+01 0.  1.
         -4    1    3    3    0  501  0.42013649107E+02  0.37171016088E+02 -0.10345064044E+03  0.11769141283E+03  0.15500000000E+01 0.  1.
<mgrwt>
<rscale>  2 0.12500948E+03</rscale>
<asrwt>0</asrwt>
<pdfrwt beam="1">  1       21 0.39148289E-02 0.12500948E+03</pdfrwt>
<pdfrwt beam="2">  1       21 0.23620354E-01 0.12500948E+03</pdfrwt>
<totfact> 0.67252719E+06</totfact>
</mgrwt>
</event>
<event>
 5    0  0.1346052E+000  0.1249947E+03  0.7546771E-02  0.1235078E+00
         21   -1    0    0  503  502  0.00000000000E+00  0.00000000000E+00  0.57123959015E+03  0.57123959015E+03  0.00000000000E+00 0.  1.
         21   -1    0    0  502  503 -0.00000000000E+00 -0.00000000000E+00 -0.68376172080E+01  0.68376172080E+01  0.00000000000E+00 0.  1.
         25    2    1    2    0    0  0.00000000000E+00  0.00000000000E+00  0.56440197295E+03  0.57807720736E+03  0.12499468231E+03 0.  0.
          4    1    3    3  501    0  0.38773090440E+01 -0.60077053474E+02  0.20491962204E+03  0.21358543929E+03  0.15500000000E+01 0. -1.
         -4    1    3    3    0  501 -0.38773090440E+01  0.60077053474E+02  0.35948235090E+03  0.36449176807E+03  0.15500000000E+01 0. -1.
<mgrwt>
<rscale>  2 0.12499468E+03</rscale>
<asrwt>0</asrwt>
<pdfrwt beam="1">  1       21 0.87882976E-01 0.12499468E+03</pdfrwt>
<pdfrwt beam="2">  1       21 0.10519416E-02 0.12499468E+03</pdfrwt>
<totfact> 0.38108254E+06</totfact>
</mgrwt>
</event>
<event>
 5    0  0.1222151E+000  0.1250025E+03  0.7546771E-02  0.1235065E+00
         21   -1    0    0  503  502  0.00000000000E+00  0.00000000000E+00  0.60474001552E+03  0.60474001552E+03  0.00000000000E+00 0.  1.
         21   -1    0    0  502  503 -0.00000000000E+00 -0.00000000000E+00 -0.64596486627E+01  0.64596486627E+01  0.00000000000E+00 0.  1.
         25    2    1    2    0    0  0.00000000000E+00  0.00000000000E+00  0.59828036685E+03  0.61119966418E+03  0.12500252849E+03 0.  0.
          4    1    3    3  501    0 -0.48828306449E+02  0.18845336190E+02  0.46600432463E+03  0.46893686492E+03  0.15500000000E+01 0. -1.
         -4    1    3    3    0  501  0.48828306449E+02 -0.18845336190E+02  0.13227604222E+03  0.14226279926E+03  0.15500000000E+01 0. -1.
<mgrwt>
<rscale>  2 0.12500253E+03</rscale>
<asrwt>0</asrwt>
<pdfrwt beam="1">  1       21 0.93036881E-01 0.12500253E+03</pdfrwt>
<pdfrwt beam="2">  1       21 0.99379258E-03 0.12500253E+03</pdfrwt>
<totfact> 0.36588704E+06</totfact>
</mgrwt>
</event>
<event>
 5    0  0.1502719E+000  0.1250016E+03  0.7546771E-02  0.1235067E+00
         21   -1    0    0  503  502  0.00000000000E+00  0.00000000000E+00  0.14681661486E+03  0.14681661486E+03  0.00000000000E+00 0.  1.
         21   -1    0    0  502  503 -0.00000000000E+00 -0.00000000000E+00 -0.26606986564E+02  0.26606986564E+02  0.00000000000E+00 0.  1.
         25    2    1    2    0    0  0.00000000000E+00  0.00000000000E+00  0.12020962830E+03  0.17342360143E+03  0.12500156317E+03 0.  0.
          4    1    3    3  501    0 -0.50296542198E+02 -0.28393968221E+02  0.93169273326E+02  0.10963063249E+03  0.15500000000E+01 0. -1.
         -4    1    3    3    0  501  0.50296542198E+02  0.28393968221E+02  0.27040354972E+02  0.63792968934E+02  0.15500000000E+01 0. -1.
<mgrwt>
<rscale>  2 0.12500156E+03</rscale>
<asrwt>0</asrwt>
<pdfrwt beam="1">  1       21 0.22587171E-01 0.12500156E+03</pdfrwt>
<pdfrwt beam="2">  1       21 0.40933826E-02 0.12500156E+03</pdfrwt>
<totfact> 0.67911392E+06</totfact>
</mgrwt>
</event>
<event>
 5    0  0.1529140E+000  0.1250002E+03  0.7546771E-02  0.1235069E+00
         21   -1    0    0  503  502  0.00000000000E+00  0.00000000000E+00  0.66760617128E+02  0.66760617128E+02  0.00000000000E+00 0. -1.
         21   -1    0    0  502  503 -0.00000000000E+00 -0.00000000000E+00 -0.58511454441E+02  0.58511454441E+02  0.00000000000E+00 0. -1.
         25    2    1    2    0    0  0.00000000000E+00  0.00000000000E+00  0.82491626864E+01  0.12527207157E+03  0.12500017292E+03 0.  0.
          4    1    3    3  501    0 -0.12988534048E+02 -0.37856226349E+02  0.52208758971E+02  0.65802377643E+02  0.15500000000E+01 0.  1.
         -4    1    3    3    0  501  0.12988534048E+02  0.37856226349E+02 -0.43959596285E+02  0.59469693926E+02  0.15500000000E+01 0.  1.
<mgrwt>
<rscale>  2 0.12500017E+03</rscale>
<asrwt>0</asrwt>
<pdfrwt beam="1">  1       21 0.10270864E-01 0.12500017E+03</pdfrwt>
<pdfrwt beam="2">  1       21 0.90017622E-02 0.12500017E+03</pdfrwt>
<totfact> 0.74006515E+06</totfact>
</mgrwt>
</event>
<event>
 5    0  0.1222151E+000  0.1250198E+03  0.7546771E-02  0.1235038E+00
         21   -1    0    0  503  502  0.00000000000E+00  0.00000000000E+00  0.14800232858E+04  0.14800232858E+04  0.00000000000E+00 0. -1.
         21   -1    0    0  502  503 -0.00000000000E+00 -0.00000000000E+00 -0.26401546812E+01  0.26401546812E+01  0.00000000000E+00 0. -1.
         25    2    1    2    0    0  0.00000000000E+00  0.00000000000E+00  0.14773831311E+04  0.14826634405E+04  0.12501984492E+03 0.  0.
          4    1    3    3  501    0  0.27248562842E+02  0.44756479990E+01  0.73868218673E+02  0.78876053602E+02  0.15500000000E+01 0.  1.
         -4    1    3    3    0  501 -0.27248562842E+02 -0.44756479990E+01  0.14035149124E+04  0.14037873869E+04  0.15500000000E+01 0.  1.
<mgrwt>
<rscale>  2 0.12501984E+03</rscale>
<asrwt>0</asrwt>
<pdfrwt beam="1">  1       21 0.22769523E+00 0.12501984E+03</pdfrwt>
<pdfrwt beam="2">  1       21 0.40617883E-03 0.12501984E+03</pdfrwt>
<totfact> 0.14245213E+06</totfact>
</mgrwt>
</event>
<event>
 5    0  0.1481942E+000  0.1250099E+03  0.7546771E-02  0.1235054E+00
         21   -1    0    0  503  502  0.00000000000E+00  0.00000000000E+00  0.16496786072E+02  0.16496786072E+02  0.00000000000E+00 0. -1.
         21   -1    0    0  502  503 -0.00000000000E+00 -0.00000000000E+00 -0.23682602050E+03  0.23682602050E+03  0.00000000000E+00 0. -1.
         25    2    1    2    0    0  0.00000000000E+00  0.00000000000E+00 -0.22032923443E+03  0.25332280657E+03  0.12500989075E+03 0.  0.
          4    1    3    3  501    0  0.24163612266E+01  0.43103860466E+02 -0.18623163169E+02  0.47042600853E+02  0.15500000000E+01 0.  1.
         -4    1    3    3    0  501 -0.24163612266E+01 -0.43103860466E+02 -0.20170607126E+03  0.20628020572E+03  0.15500000000E+01 0.  1.
<mgrwt>
<rscale>  2 0.12500989E+03</rscale>
<asrwt>0</asrwt>
<pdfrwt beam="1">  1       21 0.25379671E-02 0.12500989E+03</pdfrwt>
<pdfrwt beam="2">  1       21 0.36434772E-01 0.12500989E+03</pdfrwt>
<totfact> 0.59551909E+06</totfact>
</mgrwt>
</event>
<event>
 5    0  0.1430799E+000  0.1250033E+03  0.7546771E-02  0.1235064E+00
         21   -1    0    0  503  502  0.00000000000E+00  0.00000000000E+00  0.94887510128E+01  0.94887510128E+01  0.00000000000E+00 0.  1.
         21   -1    0    0  502  503 -0.00000000000E+00 -0.00000000000E+00 -0.41169341395E+03  0.41169341395E+03  0.00000000000E+00 0.  1.
         25    2    1    2    0    0  0.00000000000E+00  0.00000000000E+00 -0.40220466294E+03  0.42118216497E+03  0.12500330073E+03 0.  0.
          4    1    3    3  501    0  0.13518349469E+02 -0.60909288807E+02 -0.18974273041E+03  0.19974331899E+03  0.15500000000E+01 0. -1.
         -4    1    3    3    0  501 -0.13518349469E+02  0.60909288807E+02 -0.21246193253E+03  0.22143884598E+03  0.15500000000E+01 0. -1.
<mgrwt>
<rscale>  2 0.12500330E+03</rscale>
<asrwt>0</asrwt>
<pdfrwt beam="1">  1       21 0.14598083E-02 0.12500330E+03</pdfrwt>
<pdfrwt beam="2">  1       21 0.63337430E-01 0.12500330E+03</pdfrwt>
<totfact> 0.46663541E+06</totfact>
</mgrwt>
</event>
<event>
 5    0  0.1534229E+000  0.1250024E+03  0.7546771E-02  0.1235065E+00
         21   -1    0    0  503  502  0.00000000000E+00  0.00000000000E+00  0.36122696169E+02  0.36122696169E+02  0.00000000000E+00 0. -1.
         21   -1    0    0  502  503 -0.00000000000E+00 -0.00000000000E+00 -0.10814258577E+03  0.10814258577E+03  0.00000000000E+00 0. -1.
         25    2    1    2    0    0  0.00000000000E+00  0.00000000000E+00 -0.72019889604E+02  0.14426528194E+03  0.12500242828E+03 0.  0.
          4    1    3    3  501    0  0.61992875014E+02  0.21570523532E+01 -0.44664142438E+02  0.76452976051E+02  0.15500000000E+01 0.  1.
         -4    1    3    3    0  501 -0.61992875014E+02 -0.21570523532E+01 -0.27355747166E+02  0.67812305891E+02  0.15500000000E+01 0.  1.
<mgrwt>
<rscale>  2 0.12500243E+03</rscale>
<asrwt>0</asrwt>
<pdfrwt beam="1">  1       21 0.55573379E-02 0.12500243E+03</pdfrwt>
<pdfrwt beam="2">  1       21 0.16637321E-01 0.12500243E+03</pdfrwt>
<totfact> 0.71482836E+06</totfact>
</mgrwt>
</event>
<event>
 5    0  0.1222151E+000  0.1249997E+03  0.7546771E-02  0.1235070E+00
         21   -1    0    0  503  502  0.00000000000E+00  0.00000000000E+00  0.39316735695E+01  0.39316735695E+01  0.00000000000E+00 0. -1.
         21   -1    0    0  502  503 -0.00000000000E+00 -0.00000000000E+00 -0.99352947799E+03  0.99352947799E+03  0.00000000000E+00 0. -1.
         25    2    1    2    0    0  0.00000000000E+00  0.00000000000E+00 -0.98959780442E+03  0.99746115156E+03  0.12499973743E+03 0.  0.
          4    1    3    3  501    0  0.29102628788E+02  0.47801633435E+02 -0.27310205728E+03  0.27878144729E+03  0.15500000000E+01 0.  1.
         -4    1    3    3    0  501 -0.29102628788E+02 -0.47801633435E+02 -0.71649574714E+03  0.71867970427E+03  0.15500000000E+01 0.  1.
<mgrwt>
<rscale>  2 0.12499974E+03</rscale>
<asrwt>0</asrwt>
<pdfrwt beam="1">  1       21 0.60487275E-03 0.12499974E+03</pdfrwt>
<pdfrwt beam="2">  1       21 0.15285072E+00 0.12499974E+03</pdfrwt>
<totfact> 0.23682360E+06</totfact>
</mgrwt>
</event>
<event>
 5    0  0.1222151E+000  0.1249947E+03  0.7546771E-02  0.1235078E+00
         21   -1    0    0  503  502  0.00000000000E+00  0.00000000000E+00  0.48929946556E+01  0.48929946556E+01  0.00000000000E+00 0.  1.
         21   -1    0    0  502  503 -0.00000000000E+00 -0.00000000000E+00 -0.79826728208E+03  0.79826728208E+03  0.00000000000E+00 0.  1.
         25    2    1    2    0    0  0.00000000000E+00  0.00000000000E+00 -0.79337428743E+03  0.80316027674E+03  0.12499468061E+03 0.  0.
          4    1    3    3  501    0 -0.58486252980E+02 -0.52249006863E+01 -0.53383530756E+03  0.53705724041E+03  0.15500000000E+01 0. -1.
         -4    1    3    3    0  501  0.58486252980E+02  0.52249006863E+01 -0.25953897986E+03  0.26610303633E+03  0.15500000000E+01 0. -1.
<mgrwt>
<rscale>  2 0.12499468E+03</rscale>
<asrwt>0</asrwt>
<pdfrwt beam="1">  1       21 0.75276786E-03 0.12499468E+03</pdfrwt>
<pdfrwt beam="2">  1       21 0.12281044E+00 0.12499468E+03</pdfrwt>
<totfact> 0.29262208E+06</totfact>
</mgrwt>
</event>
<event>
 5    0  0.1508169E+000  0.1249966E+03  0.7546771E-02  0.1235075E+00
         21   -1    0    0  503  502  0.00000000000E+00  0.00000000000E+00  0.21489143416E+03  0.21489143416E+03  0.00000000000E+00 0.  1.
         21   -1    0    0  502  503 -0.00000000000E+00 -0.00000000000E+00 -0.18176793304E+02  0.18176793304E+02  0.00000000000E+00 0.  1.
         25    2    1    2    0    0  0.00000000000E+00  0.00000000000E+00  0.19671464085E+03  0.23306822746E+03  0.12499659486E+03 0.  0.
          4    1    3    3  501    0 -0.60016229189E+02  0.16215312580E+02  0.86750217240E+02  0.10673746680E+03  0.15500000000E+01 0. -1.
         -4    1    3    3    0  501  0.60016229189E+02 -0.16215312580E+02  0.10996442361E+03  0.12633076066E+03  0.15500000000E+01 0. -1.
<mgrwt>
<rscale>  2 0.12499659E+03</rscale>
<asrwt>0</asrwt>
<pdfrwt beam="1">  1       21 0.33060219E-01 0.12499659E+03</pdfrwt>
<pdfrwt beam="2">  1       21 0.27964299E-02 0.12499659E+03</pdfrwt>
<totfact> 0.61515244E+06</totfact>
</mgrwt>
</event>
<event>
 5    0  0.1468237E+000  0.1250278E+03  0.7546771E-02  0.1235026E+00
         21   -1    0    0  503  502  0.00000000000E+00  0.00000000000E+00  0.38122039194E+02  0.38122039194E+02  0.00000000000E+00 0. -1.
         21   -1    0    0  502  503 -0.00000000000E+00 -0.00000000000E+00 -0.10251250768E+03  0.10251250768E+03  0.00000000000E+00 0. -1.
         25    2    1    2    0    0  0.00000000000E+00  0.00000000000E+00 -0.64390468486E+02  0.14063454687E+03  0.12502777028E+03 0.  0.
          4    1    3    3  501    0 -0.30545591086E+02  0.43017302653E+02 -0.69873762866E+02  0.87568639931E+02  0.15500000000E+01 0. -1.
         -4    1    3    3    0  501  0.30545591086E+02 -0.43017302653E+02  0.54832943802E+01  0.53065906942E+02  0.15500000000E+01 0. -1.
<mgrwt>
<rscale>  2 0.12502777E+03</rscale>
<asrwt>0</asrwt>
<pdfrwt beam="1">  1       21 0.58649292E-02 0.12502777E+03</pdfrwt>
<pdfrwt beam="2">  1       21 0.15771155E-01 0.12502777E+03</pdfrwt>
<totfact> 0.71905693E+06</totfact>
</mgrwt>
</event>
<event>
 5    0  0.1385749E+000  0.1250758E+03  0.7546771E-02  0.1234951E+00
         21   -1    0    0  503  502  0.00000000000E+00  0.00000000000E+00  0.31555112765E+03  0.31555112765E+03  0.00000000000E+00 0.  1.
         21   -1    0    0  502  503 -0.00000000000E+00 -0.00000000000E+00 -0.12394149566E+02  0.12394149566E+02  0.00000000000E+00 0.  1.
         25    2    1    2    0    0  0.00000000000E+00  0.00000000000E+00  0.30315697808E+03  0.32794527722E+03  0.12507578298E+03 0.  0.
          4    1    3    3  501    0  0.17314215848E+02  0.53595051430E+02  0.22272888216E+03  0.22974500877E+03  0.15500000000E+01 0.  1.
         -4    1    3    3    0  501 -0.17314215848E+02 -0.53595051430E+02  0.80428095927E+02  0.98200268445E+02  0.15500000000E+01 0.  1.
<mgrwt>
<rscale>  2 0.12507578E+03</rscale>
<asrwt>0</asrwt>
<pdfrwt beam="1">  1       21 0.48546321E-01 0.12507578E+03</pdfrwt>
<pdfrwt beam="2">  1       21 0.19067925E-02 0.12507578E+03</pdfrwt>
<totfact> 0.53108666E+06</totfact>
</mgrwt>
</event>
<event>
 5    0  0.1589127E+000  0.1249997E+03  0.7546771E-02  0.1235070E+00
         21   -1    0    0  503  502  0.00000000000E+00  0.00000000000E+00  0.11683746491E+03  0.11683746491E+03  0.00000000000E+00 0. -1.
         21   -1    0    0  502  503 -0.00000000000E+00 -0.00000000000E+00 -0.33433045589E+02  0.33433045589E+02  0.00000000000E+00 0. -1.
         25    2    1    2    0    0  0.00000000000E+00  0.00000000000E+00  0.83404419324E+02  0.15027051050E+03  0.12499971665E+03 0.  0.
          4    1    3    3  501    0  0.17319130519E+02  0.35555358068E+02 -0.16447060192E+02  0.42860751956E+02  0.15500000000E+01 0.  1.
         -4    1    3    3    0  501 -0.17319130519E+02 -0.35555358068E+02  0.99851479515E+02  0.10740975854E+03  0.15500000000E+01 0.  1.
<mgrwt>
<rscale>  2 0.12499972E+03</rscale>
<asrwt>0</asrwt>
<pdfrwt beam="1">  1       21 0.17974994E-01 0.12499972E+03</pdfrwt>
<pdfrwt beam="2">  1       21 0.51435455E-02 0.12499972E+03</pdfrwt>
<totfact> 0.70725747E+06</totfact>
</mgrwt>
</event>
<event>
 5    0  0.1353407E+000  0.1250036E+03  0.7546771E-02  0.1235064E+00
         21   -1    0    0  503  502  0.00000000000E+00  0.00000000000E+00  0.65221082890E+02  0.65221082890E+02  0.00000000000E+00 0. -1.
         21   -1    0    0  502  503 -0.00000000000E+00 -0.00000000000E+00 -0.59895906922E+02  0.59895906922E+02  0.00000000000E+00 0. -1.
         25    2    1    2    0    0  0.00000000000E+00  0.00000000000E+00  0.53251759683E+01  0.12511698981E+03  0.12500361451E+03 0.  0.
          4    1    3    3  501    0 -0.29721796922E+02 -0.32174158337E+01  0.57578883530E+02  0.64895818860E+02  0.15500000000E+01 0.  1.
         -4    1    3    3    0  501  0.29721796922E+02  0.32174158337E+01 -0.52253707562E+02  0.60221170952E+02  0.15500000000E+01 0.  1.
<mgrwt>
<rscale>  2 0.12500361E+03</rscale>
<asrwt>0</asrwt>
<pdfrwt beam="1">  1       21 0.10034013E-01 0.12500361E+03</pdfrwt>
<pdfrwt beam="2">  1       21 0.92147549E-02 0.12500361E+03</pdfrwt>
<totfact> 0.74020940E+06</totfact>
</mgrwt>
</event>
<event>
 5    0  0.1275514E+000  0.1250104E+03  0.7546771E-02  0.1235053E+00
         21   -1    0    0  503  502  0.00000000000E+00  0.00000000000E+00  0.50384223685E+03  0.50384223685E+03  0.00000000000E+00 0. -1.
         21   -1    0    0  502  503 -0.00000000000E+00 -0.00000000000E+00 -0.77542091877E+01  0.77542091877E+01  0.00000000000E+00 0. -1.
         25    2    1    2    0    0  0.00000000000E+00  0.00000000000E+00  0.49608802766E+03  0.51159644604E+03  0.12501036920E+03 0.  0.
          4    1    3    3  501    0 -0.93889820277E+01 -0.49511869337E+02  0.39923805259E+03  0.40240900006E+03  0.15500000000E+01 0. -1.
         -4    1    3    3    0  501  0.93889820277E+01  0.49511869337E+02  0.96849975069E+02  0.10918744598E+03  0.15500000000E+01 0. -1.
<mgrwt>
<rscale>  2 0.12501037E+03</rscale>
<asrwt>0</asrwt>
<pdfrwt beam="1">  1       21 0.77514165E-01 0.12501037E+03</pdfrwt>
<pdfrwt beam="2">  1       21 0.11929557E-02 0.12501037E+03</pdfrwt>
<totfact> 0.41411391E+06</totfact>
</mgrwt>
</event>
<event>
 5    0  0.1554080E+000  0.1250107E+03  0.7546771E-02  0.1235053E+00
         21   -1    0    0  503  502  0.00000000000E+00  0.00000000000E+00  0.46256362093E+02  0.46256362093E+02  0.00000000000E+00 0.  1.
         21   -1    0    0  502  503 -0.00000000000E+00 -0.00000000000E+00 -0.84462253503E+02  0.84462253503E+02  0.00000000000E+00 0.  1.
         25    2    1    2    0    0  0.00000000000E+00  0.00000000000E+00 -0.38205891410E+02  0.13071861560E+03  0.12501066485E+03 0.  0.
          4    1    3    3  501    0 -0.41964194185E+02 -0.36292438125E+02 -0.49162332861E+02  0.74144940023E+02  0.15500000000E+01 0.  1.
         -4    1    3    3    0  501  0.41964194185E+02  0.36292438125E+02  0.10956441451E+02  0.56573675574E+02  0.15500000000E+01 0.  1.
<mgrwt>
<rscale>  2 0.12501066E+03</rscale>
<asrwt>0</asrwt>
<pdfrwt beam="1">  1       21 0.71163635E-02 0.12501066E+03</pdfrwt>
<pdfrwt beam="2">  1       21 0.12994193E-01 0.12501066E+03</pdfrwt>
<totfact> 0.73248684E+06</totfact>
</mgrwt>
</event>
<event>
 5    0  0.1481928E+000  0.1250067E+03  0.7546771E-02  0.1235059E+00
         21   -1    0    0  503  502  0.00000000000E+00  0.00000000000E+00  0.12588257804E+03  0.12588257804E+03  0.00000000000E+00 0.  1.
         21   -1    0    0  502  503 -0.00000000000E+00 -0.00000000000E+00 -0.31034221106E+02  0.31034221106E+02  0.00000000000E+00 0.  1.
         25    2    1    2    0    0  0.00000000000E+00  0.00000000000E+00  0.94848356938E+02  0.15691679915E+03  0.12500668399E+03 0.  0.
          4    1    3    3  501    0 -0.40127096954E+02 -0.45108892282E+02  0.27212068189E+02  0.66241189814E+02  0.15500000000E+01 0. -1.
         -4    1    3    3    0  501  0.40127096954E+02  0.45108892282E+02  0.67636288749E+02  0.90675609337E+02  0.15500000000E+01 0. -1.
<mgrwt>
<rscale>  2 0.12500668E+03</rscale>
<asrwt>0</asrwt>
<pdfrwt beam="1">  1       21 0.19366550E-01 0.12500668E+03</pdfrwt>
<pdfrwt beam="2">  1       21 0.47744956E-02 0.12500668E+03</pdfrwt>
<totfact> 0.69886325E+06</totfact>
</mgrwt>
</event>
<event>
 5    0  0.1429943E+000  0.1249984E+03  0.7546771E-02  0.1235072E+00
         21   -1    0    0  503  502  0.00000000000E+00  0.00000000000E+00  0.26937651944E+03  0.26937651944E+03  0.00000000000E+00 0. -1.
         21   -1    0    0  502  503 -0.00000000000E+00 -0.00000000000E+00 -0.14500703141E+02  0.14500703141E+02  0.00000000000E+00 0. -1.
         25    2    1    2    0    0  0.00000000000E+00  0.00000000000E+00  0.25487581630E+03  0.28387722258E+03  0.12499838305E+03 0.  0.
          4    1    3    3  501    0 -0.41677054223E+02 -0.17435413351E+02  0.29419766593E+02  0.53934178902E+02  0.15500000000E+01 0. -1.
         -4    1    3    3    0  501  0.41677054223E+02  0.17435413351E+02  0.22545604971E+03  0.22994304368E+03  0.15500000000E+01 0. -1.
<mgrwt>
<rscale>  2 0.12499838E+03</rscale>
<asrwt>0</asrwt>
<pdfrwt beam="1">  1       21 0.41442538E-01 0.12499838E+03</pdfrwt>
<pdfrwt beam="2">  1       21 0.22308776E-02 0.12499838E+03</pdfrwt>
<totfact> 0.56825545E+06</totfact>
</mgrwt>
</event>
<event>
 4    0  0.1533044E+000  0.1251698E+03  0.7546771E-02  0.1234804E+00
         21   -1    0    0  503  502  0.00000000000E+00  0.00000000000E+00  0.11879995948E+03  0.11879995948E+03  0.00000000000E+00 0.  1.
         21   -1    0    0  502  503 -0.00000000000E+00 -0.00000000000E+00 -0.32970299387E+02  0.32970299387E+02  0.00000000000E+00 0.  1.
          4    1    1    2  501    0  0.54112459940E+02  0.28146283183E+02  0.26022266861E+02  0.66331986630E+02  0.15500000000E+01 0. -1.
         -4    1    1    2    0  501 -0.54112459940E+02 -0.28146283183E+02  0.59807393232E+02  0.85438272237E+02  0.15500000000E+01 0. -1.
<mgrwt>
<rscale>  2 0.12516981E+03</rscale>
<asrwt>0</asrwt>
<pdfrwt beam="1">  1       21 0.18276917E-01 0.12516981E+03</pdfrwt>
<pdfrwt beam="2">  1       21 0.50723538E-02 0.12516981E+03</pdfrwt>
<totfact> 0.70233520E+06</totfact>
</mgrwt>
</event>
<event>
 5    0  0.1535436E+000  0.1249931E+03  0.7546771E-02  0.1235080E+00
         21   -1    0    0  503  502  0.00000000000E+00  0.00000000000E+00  0.13339364147E+03  0.13339364147E+03  0.00000000000E+00 0.  1.
         21   -1    0    0  502  503 -0.00000000000E+00 -0.00000000000E+00 -0.29280379887E+02  0.29280379887E+02  0.00000000000E+00 0.  1.
         25    2    1    2    0    0  0.00000000000E+00  0.00000000000E+00  0.10411326159E+03  0.16267402136E+03  0.12499306376E+03 0.  0.
          4    1    3    3  501    0 -0.40577775923E+02  0.36833638052E+02  0.91103625251E+02  0.10632754029E+03  0.15500000000E+01 0.  1.
         -4    1    3    3    0  501  0.40577775923E+02 -0.36833638052E+02  0.13009636334E+02  0.56346481066E+02  0.15500000000E+01 0.  1.
<mgrwt>
<rscale>  2 0.12499306E+03</rscale>
<asrwt>0</asrwt>
<pdfrwt beam="1">  1       21 0.20522098E-01 0.12499306E+03</pdfrwt>
<pdfrwt beam="2">  1       21 0.45046739E-02 0.12499306E+03</pdfrwt>
<totfact> 0.69206427E+06</totfact>
</mgrwt>
</event>
<event>
 5    0  0.1548115E+000  0.1250076E+03  0.7546771E-02  0.1235057E+00
         21   -1    0    0  503  502  0.00000000000E+00  0.00000000000E+00  0.66747758752E+02  0.66747758752E+02  0.00000000000E+00 0.  1.
         21   -1    0    0  502  503 -0.00000000000E+00 -0.00000000000E+00 -0.58529659270E+02  0.58529659270E+02  0.00000000000E+00 0.  1.
         25    2    1    2    0    0  0.00000000000E+00  0.00000000000E+00  0.82180994823E+01  0.12527741802E+03  0.12500757700E+03 0.  0.
          4    1    3    3  501    0  0.50969692086E+02  0.35699510491E+02  0.97742617951E+01  0.63010342439E+02  0.15500000000E+01 0. -1.
         -4    1    3    3    0  501 -0.50969692086E+02 -0.35699510491E+02 -0.15561623129E+01  0.62267075584E+02  0.15500000000E+01 0. -1.
<mgrwt>
<rscale>  2 0.12500758E+03</rscale>
<asrwt>0</asrwt>
<pdfrwt beam="1">  1       21 0.10268886E-01 0.12500758E+03</pdfrwt>
<pdfrwt beam="2">  1       21 0.90045630E-02 0.12500758E+03</pdfrwt>
<totfact> 0.73991786E+06</totfact>
</mgrwt>
</event>
<event>
 5    0  0.1222151E+000  0.1249996E+03  0.7546771E-02  0.1235070E+00
         21   -1    0    0  503  502  0.00000000000E+00  0.00000000000E+00  0.31956999683E+01  0.31956999683E+01  0.00000000000E+00 0. -1.
         21   -1    0    0  502  503 -0.00000000000E+00 -0.00000000000E+00 -0.12223381325E+04  0.12223381325E+04  0.00000000000E+00 0. -1.
         25    2    1    2    0    0  0.00000000000E+00  0.00000000000E+00 -0.12191424325E+04  0.12255338324E+04  0.12499961490E+03 0.  0.
          4    1    3    3  501    0 -0.40207995966E+02 -0.46359622279E+02 -0.72471475289E+03  0.72730995667E+03  0.15500000000E+01 0. -1.
         -4    1    3    3    0  501  0.40207995966E+02  0.46359622279E+02 -0.49442767960E+03  0.49822387575E+03  0.15500000000E+01 0. -1.
<mgrwt>
<rscale>  2 0.12499961E+03</rscale>
<asrwt>0</asrwt>
<pdfrwt beam="1">  1       21 0.49164549E-03 0.12499961E+03</pdfrwt>
<pdfrwt beam="2">  1       21 0.18805227E+00 0.12499961E+03</pdfrwt>
<totfact> 0.18642001E+06</totfact>
</mgrwt>
</event>
<event>
 5    0  0.1409111E+000  0.1249974E+03  0.7546771E-02  0.1235073E+00
         21   -1    0    0  503  502  0.00000000000E+00  0.00000000000E+00  0.15354866485E+02  0.15354866485E+02  0.00000000000E+00 0. -1.
         21   -1    0    0  502  503 -0.00000000000E+00 -0.00000000000E+00 -0.25438757142E+03  0.25438757142E+03  0.00000000000E+00 0. -1.
         25    2    1    2    0    0  0.00000000000E+00  0.00000000000E+00 -0.23903270493E+03  0.26974243790E+03  0.12499739509E+03 0.  0.
          4    1    3    3  501    0 -0.19933342957E+02 -0.26317509779E+02 -0.50468148499E+01  0.33433849950E+02  0.15500000000E+01 0. -1.
         -4    1    3    3    0  501  0.19933342957E+02  0.26317509779E+02 -0.23398589008E+03  0.23630858795E+03  0.15500000000E+01 0. -1.
<mgrwt>
<rscale>  2 0.12499740E+03</rscale>
<asrwt>0</asrwt>
<pdfrwt beam="1">  1       21 0.23622874E-02 0.12499740E+03</pdfrwt>
<pdfrwt beam="2">  1       21 0.39136546E-01 0.12499740E+03</pdfrwt>
<totfact> 0.58071478E+06</totfact>
</mgrwt>
</event>
<event>
 5    0  0.1419748E+000  0.1250017E+03  0.7546771E-02  0.1235067E+00
         21   -1    0    0  503  502  0.00000000000E+00  0.00000000000E+00  0.22571618751E+03  0.22571618751E+03  0.00000000000E+00 0.  1.
         21   -1    0    0  502  503 -0.00000000000E+00 -0.00000000000E+00 -0.17306498372E+02  0.17306498372E+02  0.00000000000E+00 0.  1.
         25    2    1    2    0    0  0.00000000000E+00  0.00000000000E+00  0.20840968914E+03  0.24302268588E+03  0.12500170929E+03 0.  0.
          4    1    3    3  501    0 -0.41006342380E+02  0.72915765099E+01  0.19475462099E+03  0.19916438462E+03  0.15500000000E+01 0. -1.
         -4    1    3    3    0  501  0.41006342380E+02 -0.72915765099E+01  0.13655068146E+02  0.43858301261E+02  0.15500000000E+01 0. -1.
<mgrwt>
<rscale>  2 0.12500171E+03</rscale>
<asrwt>0</asrwt>
<pdfrwt beam="1">  1       21 0.34725565E-01 0.12500171E+03</pdfrwt>
<pdfrwt beam="2">  1       21 0.26625384E-02 0.12500171E+03</pdfrwt>
<totfact> 0.60538775E+06</totfact>
</mgrwt>
</event>
<event>
 5    0  0.1473353E+000  0.1250004E+03  0.7546771E-02  0.1235069E+00
         21   -1    0    0  503  502  0.00000000000E+00  0.00000000000E+00  0.32985813363E+02  0.32985813363E+02  0.00000000000E+00 0. -1.
         21   -1    0    0  502  503 -0.00000000000E+00 -0.00000000000E+00 -0.11842294608E+03  0.11842294608E+03  0.00000000000E+00 0. -1.
         25    2    1    2    0    0  0.00000000000E+00  0.00000000000E+00 -0.85437132713E+02  0.15140875944E+03  0.12500043515E+03 0.  0.
          4    1    3    3  501    0 -0.38480664240E+02 -0.23077251927E+02 -0.95385007910E+02  0.10542306821E+03  0.15500000000E+01 0. -1.
         -4    1    3    3    0  501  0.38480664240E+02  0.23077251927E+02  0.99478751965E+01  0.45985691229E+02  0.15500000000E+01 0. -1.
<mgrwt>
<rscale>  2 0.12500044E+03</rscale>
<asrwt>0</asrwt>
<pdfrwt beam="1">  1       21 0.50747406E-02 0.12500044E+03</pdfrwt>
<pdfrwt beam="2">  1       21 0.18218915E-01 0.12500044E+03</pdfrwt>
<totfact> 0.70581899E+06</totfact>
</mgrwt>
</event>
<event>
 5    0  0.1444619E+000  0.1250003E+03  0.7546771E-02  0.1235069E+00
         21   -1    0    0  503  502  0.00000000000E+00  0.00000000000E+00  0.55952376686E+02  0.55952376686E+02  0.00000000000E+00 0.  1.
         21   -1    0    0  502  503 -0.00000000000E+00 -0.00000000000E+00 -0.69814159906E+02  0.69814159906E+02  0.00000000000E+00 0.  1.
         25    2    1    2    0    0  0.00000000000E+00  0.00000000000E+00 -0.13861783220E+02  0.12576653659E+03  0.12500029077E+03 0.  0.
          4    1    3    3  501    0  0.14314098659E+02  0.29526714258E+02  0.46565950956E+02  0.56986933271E+02  0.15500000000E+01 0. -1.
         -4    1    3    3    0  501 -0.14314098659E+02 -0.29526714258E+02 -0.60427734176E+02  0.68779603320E+02  0.15500000000E+01 0. -1.
<mgrwt>
<rscale>  2 0.12500029E+03</rscale>
<asrwt>0</asrwt>
<pdfrwt beam="1">  1       21 0.86080580E-02 0.12500029E+03</pdfrwt>
<pdfrwt beam="2">  1       21 0.10740640E-01 0.12500029E+03</pdfrwt>
<totfact> 0.73937759E+06</totfact>
</mgrwt>
</event>
<event>
 5    0  0.1462784E+000  0.1249932E+03  0.7546771E-02  0.1235080E+00
         21   -1    0    0  503  502  0.00000000000E+00  0.00000000000E+00  0.32939806501E+02  0.32939806501E+02  0.00000000000E+00 0.  1.
         21   -1    0    0  502  503 -0.00000000000E+00 -0.00000000000E+00 -0.11857464167E+03  0.11857464167E+03  0.00000000000E+00 0.  1.
         25    2    1    2    0    0  0.00000000000E+00  0.00000000000E+00 -0.85634835173E+02  0.15151444817E+03  0.12499321186E+03 0.  0.
          4    1    3    3  501    0 -0.35309609352E+02 -0.32155650660E+02 -0.91646950822E+02  0.10335531180E+03  0.15500000000E+01 0.  1.
         -4    1    3    3    0  501  0.35309609352E+02  0.32155650660E+02  0.60121156496E+01  0.48159136376E+02  0.15500000000E+01 0.  1.
<mgrwt>
<rscale>  2 0.12499321E+03</rscale>
<asrwt>0</asrwt>
<pdfrwt beam="1">  1       21 0.50676625E-02 0.12499321E+03</pdfrwt>
<pdfrwt beam="2">  1       21 0.18242253E-01 0.12499321E+03</pdfrwt>
<totfact> 0.70581667E+06</totfact>
</mgrwt>
</event>
<event>
 5    0  0.1427891E+000  0.1249795E+03  0.7546771E-02  0.1235101E+00
         21   -1    0    0  503  502  0.00000000000E+00  0.00000000000E+00  0.20025589350E+02  0.20025589350E+02  0.00000000000E+00 0.  1.
         21   -1    0    0  502  503 -0.00000000000E+00 -0.00000000000E+00 -0.19499898767E+03  0.19499898767E+03  0.00000000000E+00 0.  1.
         25    2    1    2    0    0  0.00000000000E+00  0.00000000000E+00 -0.17497339832E+03  0.21502457702E+03  0.12497951273E+03 0.  0.
          4    1    3    3  501    0  0.12075399387E+02  0.43427684132E+02 -0.16190188624E+03  0.16806666025E+03  0.15500000000E+01 0. -1.
         -4    1    3    3    0  501 -0.12075399387E+02 -0.43427684132E+02 -0.13071512082E+02  0.46957916772E+02  0.15500000000E+01 0. -1.
<mgrwt>
<rscale>  2 0.12497951E+03</rscale>
<asrwt>0</asrwt>
<pdfrwt beam="1">  1       21 0.30808600E-02 0.12497951E+03</pdfrwt>
<pdfrwt beam="2">  1       21 0.29999844E-01 0.12497951E+03</pdfrwt>
<totfact> 0.63367558E+06</totfact>
</mgrwt>
</event>
<event>
 5    0  0.1536014E+000  0.1250008E+03  0.7546771E-02  0.1235068E+00
         21   -1    0    0  503  502  0.00000000000E+00  0.00000000000E+00  0.50133686094E+02  0.50133686094E+02  0.00000000000E+00 0.  1.
         21   -1    0    0  502  503 -0.00000000000E+00 -0.00000000000E+00 -0.77917720575E+02  0.77917720575E+02  0.00000000000E+00 0.  1.
         25    2    1    2    0    0  0.00000000000E+00  0.00000000000E+00 -0.27784034481E+02  0.12805140667E+03  0.12500084071E+03 0.  0.
          4    1    3    3  501    0 -0.50170744175E+02 -0.17513133261E+02 -0.47558730195E+02  0.71330559548E+02  0.15500000000E+01 0.  1.
         -4    1    3    3    0  501  0.50170744175E+02  0.17513133261E+02  0.19774695714E+02  0.56720847122E+02  0.15500000000E+01 0.  1.
<mgrwt>
<rscale>  2 0.12500084E+03</rscale>
<asrwt>0</asrwt>
<pdfrwt beam="1">  1       21 0.77128748E-02 0.12500084E+03</pdfrwt>
<pdfrwt beam="2">  1       21 0.11987342E-01 0.12500084E+03</pdfrwt>
<totfact> 0.73625036E+06</totfact>
</mgrwt>
</event>
<event>
 5    0  0.1623474E+000  0.1249965E+03  0.7546771E-02  0.1235075E+00
         21   -1    0    0  503  502  0.00000000000E+00  0.00000000000E+00  0.44540274148E+02  0.44540274148E+02  0.00000000000E+00 0. -1.
         21   -1    0    0  502  503 -0.00000000000E+00 -0.00000000000E+00 -0.87696656381E+02  0.87696656381E+02  0.00000000000E+00 0. -1.
         25    2    1    2    0    0  0.00000000000E+00  0.00000000000E+00 -0.43156382233E+02  0.13223693053E+03  0.12499652983E+03 0.  0.
          4    1    3    3  501    0 -0.14592035010E+01 -0.62012336848E+02 -0.13663427114E+02  0.63535430562E+02  0.15500000000E+01 0.  1.
         -4    1    3    3    0  501  0.14592035010E+01  0.62012336848E+02 -0.29492955119E+02  0.68701499968E+02  0.15500000000E+01 0.  1.
<mgrwt>
<rscale>  2 0.12499653E+03</rscale>
<asrwt>0</asrwt>
<pdfrwt beam="1">  1       21 0.68523499E-02 0.12499653E+03</pdfrwt>
<pdfrwt beam="2">  1       21 0.13491793E-01 0.12499653E+03</pdfrwt>
<totfact> 0.73070934E+06</totfact>
</mgrwt>
</event>
<event>
 5    0  0.1518517E+000  0.1249984E+03  0.7546771E-02  0.1235072E+00
         21   -1    0    0  503  502  0.00000000000E+00  0.00000000000E+00  0.16773566585E+02  0.16773566585E+02  0.00000000000E+00 0. -1.
         21   -1    0    0  502  503 -0.00000000000E+00 -0.00000000000E+00 -0.23287531923E+03  0.23287531923E+03  0.00000000000E+00 0. -1.
         25    2    1    2    0    0  0.00000000000E+00  0.00000000000E+00 -0.21610175264E+03  0.24964888581E+03  0.12499839476E+03 0.  0.
          4    1    3    3  501    0 -0.66444870411E+01  0.34069218579E+02 -0.42938559257E+01  0.35010006588E+02  0.15500000000E+01 0.  1.
         -4    1    3    3    0  501  0.66444870411E+01 -0.34069218579E+02 -0.21180789672E+03  0.21463887922E+03  0.15500000000E+01 0.  1.
<mgrwt>
<rscale>  2 0.12499839E+03</rscale>
<asrwt>0</asrwt>
<pdfrwt beam="1">  1       21 0.25805488E-02 0.12499839E+03</pdfrwt>
<pdfrwt beam="2">  1       21 0.35826972E-01 0.12499839E+03</pdfrwt>
<totfact> 0.59913686E+06</totfact>
</mgrwt>
</event>
<event>
 5    0  0.1520338E+000  0.1250015E+03  0.7546771E-02  0.1235067E+00
         21   -1    0    0  503  502  0.00000000000E+00  0.00000000000E+00  0.27403812169E+03  0.27403812169E+03  0.00000000000E+00 0. -1.
         21   -1    0    0  502  503 -0.00000000000E+00 -0.00000000000E+00 -0.14254753274E+02  0.14254753274E+02  0.00000000000E+00 0. -1.
         25    2    1    2    0    0  0.00000000000E+00  0.00000000000E+00  0.25978336841E+03  0.28829287496E+03  0.12500153299E+03 0.  0.
          4    1    3    3  501    0 -0.57361178469E+02  0.23992185066E+02  0.14411130169E+03  0.15695986594E+03  0.15500000000E+01 0.  1.
         -4    1    3    3    0  501  0.57361178469E+02 -0.23992185066E+02  0.11567206672E+03  0.13133300902E+03  0.15500000000E+01 0.  1.
<mgrwt>
<rscale>  2 0.12500153E+03</rscale>
<asrwt>0</asrwt>
<pdfrwt beam="1">  1       21 0.42159707E-01 0.12500153E+03</pdfrwt>
<pdfrwt beam="2">  1       21 0.21930392E-02 0.12500153E+03</pdfrwt>
<totfact> 0.56441161E+06</totfact>
</mgrwt>
</event>
<event>
 5    0  0.1222151E+000  0.1250437E+03  0.7546771E-02  0.1235001E+00
         21   -1    0    0  503  502  0.00000000000E+00  0.00000000000E+00  0.39435268054E+01  0.39435268054E+01  0.00000000000E+00 0.  1.
         21   -1    0    0  502  503 -0.00000000000E+00 -0.00000000000E+00 -0.99124077105E+03  0.99124077105E+03  0.00000000000E+00 0.  1.
         25    2    1    2    0    0  0.00000000000E+00  0.00000000000E+00 -0.98729724425E+03  0.99518429786E+03  0.12504374516E+03 0.  0.
          4    1    3    3  501    0  0.20369488729E+02  0.22793624819E+02 -0.92753345358E+03  0.92803834803E+03  0.15500000000E+01 0. -1.
         -4    1    3    3    0  501 -0.20369488729E+02 -0.22793624819E+02 -0.59763790669E+02  0.67145949830E+02  0.15500000000E+01 0. -1.
<mgrwt>
<rscale>  2 0.12504375E+03</rscale>
<asrwt>0</asrwt>
<pdfrwt beam="1">  1       21 0.60669615E-03 0.12504375E+03</pdfrwt>
<pdfrwt beam="2">  1       21 0.15249865E+00 0.12504375E+03</pdfrwt>
<totfact> 0.23713665E+06</totfact>
</mgrwt>
</event>
<event>
 5    0  0.1497156E+000  0.1250005E+03  0.7546771E-02  0.1235069E+00
         21   -1    0    0  503  502  0.00000000000E+00  0.00000000000E+00  0.11261379714E+03  0.11261379714E+03  0.00000000000E+00 0. -1.
         21   -1    0    0  502  503 -0.00000000000E+00 -0.00000000000E+00 -0.34687407580E+02  0.34687407580E+02  0.00000000000E+00 0. -1.
         25    2    1    2    0    0  0.00000000000E+00  0.00000000000E+00  0.77926389556E+02  0.14730120472E+03  0.12500049088E+03 0.  0.
          4    1    3    3  501    0 -0.56432782105E+02  0.21374811748E+02  0.19876790808E+02  0.63553369590E+02  0.15500000000E+01 0. -1.
         -4    1    3    3    0  501  0.56432782105E+02 -0.21374811748E+02  0.58049598748E+02  0.83747835126E+02  0.15500000000E+01 0. -1.
<mgrwt>
<rscale>  2 0.12500049E+03</rscale>
<asrwt>0</asrwt>
<pdfrwt beam="1">  1       21 0.17325199E-01 0.12500049E+03</pdfrwt>
<pdfrwt beam="2">  1       21 0.53365243E-02 0.12500049E+03</pdfrwt>
<totfact> 0.71098999E+06</totfact>
</mgrwt>
</event>
<event>
 5    0  0.1357874E+000  0.1250009E+03  0.7546771E-02  0.1235068E+00
         21   -1    0    0  503  502  0.00000000000E+00  0.00000000000E+00  0.52351290952E+03  0.52351290952E+03  0.00000000000E+00 0.  1.
         21   -1    0    0  502  503 -0.00000000000E+00 -0.00000000000E+00 -0.74617220021E+01  0.74617220021E+01  0.00000000000E+00 0.  1.
         25    2    1    2    0    0  0.00000000000E+00  0.00000000000E+00  0.51605118752E+03  0.53097463153E+03  0.12500092472E+03 0.  0.
          4    1    3    3  501    0 -0.44354402265E+02 -0.33086279430E+02  0.38127599088E+03  0.38527366716E+03  0.15500000000E+01 0. -1.
         -4    1    3    3    0  501  0.44354402265E+02  0.33086279430E+02  0.13477519664E+03  0.14570096436E+03  0.15500000000E+01 0. -1.
<mgrwt>
<rscale>  2 0.12500092E+03</rscale>
<asrwt>0</asrwt>
<pdfrwt beam="1">  1       21 0.80540419E-01 0.12500092E+03</pdfrwt>
<pdfrwt beam="2">  1       21 0.11479576E-02 0.12500092E+03</pdfrwt>
<totfact> 0.40411651E+06</totfact>
</mgrwt>
</event>
<event>
 5    0  0.1620992E+000  0.1250011E+03  0.7546771E-02  0.1235068E+00
         21   -1    0    0  503  502  0.00000000000E+00  0.00000000000E+00  0.33192121340E+02  0.33192121340E+02  0.00000000000E+00 0.  1.
         21   -1    0    0  502  503 -0.00000000000E+00 -0.00000000000E+00 -0.11768806864E+03  0.11768806864E+03  0.00000000000E+00 0.  1.
         25    2    1    2    0    0  0.00000000000E+00  0.00000000000E+00 -0.84495947297E+02  0.15088018998E+03  0.12500106647E+03 0.  0.
          4    1    3    3  501    0  0.24198919632E+02  0.56985396315E+02 -0.32077988850E+02  0.69744698531E+02  0.15500000000E+01 0. -1.
         -4    1    3    3    0  501 -0.24198919632E+02 -0.56985396315E+02 -0.52417958447E+02  0.81135491446E+02  0.15500000000E+01 0. -1.
<mgrwt>
<rscale>  2 0.12500107E+03</rscale>
<asrwt>0</asrwt>
<pdfrwt beam="1">  1       21 0.51064801E-02 0.12500107E+03</pdfrwt>
<pdfrwt beam="2">  1       21 0.18105857E-01 0.12500107E+03</pdfrwt>
<totfact> 0.70646890E+06</totfact>
</mgrwt>
</event>
<event>
 5    0  0.1459964E+000  0.1249999E+03  0.7546771E-02  0.1235069E+00
         21   -1    0    0  503  502  0.00000000000E+00  0.00000000000E+00  0.49340592807E+02  0.49340592807E+02  0.00000000000E+00 0. -1.
         21   -1    0    0  502  503 -0.00000000000E+00 -0.00000000000E+00 -0.79168965387E+02  0.79168965387E+02  0.00000000000E+00 0. -1.
         25    2    1    2    0    0  0.00000000000E+00  0.00000000000E+00 -0.29828372580E+02  0.12850955819E+03  0.12499989895E+03 0.  0.
          4    1    3    3  501    0  0.31525501076E+02 -0.32614681381E+02 -0.59088820936E+02  0.74508160086E+02  0.15500000000E+01 0. -1.
         -4    1    3    3    0  501 -0.31525501076E+02  0.32614681381E+02  0.29260448356E+02  0.54001398109E+02  0.15500000000E+01 0. -1.
<mgrwt>
<rscale>  2 0.12499990E+03</rscale>
<asrwt>0</asrwt>
<pdfrwt beam="1">  1       21 0.75908605E-02 0.12499990E+03</pdfrwt>
<pdfrwt beam="2">  1       21 0.12179841E-01 0.12499990E+03</pdfrwt>
<totfact> 0.73565025E+06</totfact>
</mgrwt>
</event>
<event>
 5    0  0.1303719E+000  0.1250014E+03  0.7546771E-02  0.1235067E+00
         21   -1    0    0  503  502  0.00000000000E+00  0.00000000000E+00  0.46629787241E+03  0.46629787241E+03  0.00000000000E+00 0.  1.
         21   -1    0    0  502  503 -0.00000000000E+00 -0.00000000000E+00 -0.83773415531E+01  0.83773415531E+01  0.00000000000E+00 0.  1.
         25    2    1    2    0    0  0.00000000000E+00  0.00000000000E+00  0.45792053086E+03  0.47467521397E+03  0.12500138468E+03 0.  0.
          4    1    3    3  501    0  0.62146814422E+02  0.95618804479E+00  0.20470669725E+03  0.21394012068E+03  0.15500000000E+01 0.  1.
         -4    1    3    3    0  501 -0.62146814422E+02 -0.95618804479E+00  0.25321383361E+03  0.26073509329E+03  0.15500000000E+01 0.  1.
<mgrwt>
<rscale>  2 0.12500138E+03</rscale>
<asrwt>0</asrwt>
<pdfrwt beam="1">  1       21 0.71738114E-01 0.12500138E+03</pdfrwt>
<pdfrwt beam="2">  1       21 0.12888221E-02 0.12500138E+03</pdfrwt>
<totfact> 0.43450160E+06</totfact>
</mgrwt>
</event>
<event>
 5    0  0.1222151E+000  0.1249966E+03  0.7546771E-02  0.1235075E+00
         21   -1    0    0  503  502  0.00000000000E+00  0.00000000000E+00  0.12394679582E+04  0.12394679582E+04  0.00000000000E+00 0. -1.
         21   -1    0    0  502  503 -0.00000000000E+00 -0.00000000000E+00 -0.31513811617E+01  0.31513811617E+01  0.00000000000E+00 0. -1.
         25    2    1    2    0    0  0.00000000000E+00  0.00000000000E+00  0.12363165770E+04  0.12426193394E+04  0.12499657554E+03 0.  0.
          4    1    3    3  501    0  0.13803835472E+02 -0.30136126178E+02  0.91657773106E+02  0.97479648365E+02  0.15500000000E+01 0. -1.
         -4    1    3    3    0  501 -0.13803835472E+02  0.30136126178E+02  0.11446588039E+04  0.11451396910E+04  0.15500000000E+01 0. -1.
<mgrwt>
<rscale>  2 0.12499658E+03</rscale>
<asrwt>0</asrwt>
<pdfrwt beam="1">  1       21 0.19068699E+00 0.12499658E+03</pdfrwt>
<pdfrwt beam="2">  1       21 0.48482886E-03 0.12499658E+03</pdfrwt>
<totfact> 0.18315829E+06</totfact>
</mgrwt>
</event>
<event>
 5    0  0.1470156E+000  0.1250022E+03  0.7546771E-02  0.1235066E+00
         21   -1    0    0  503  502  0.00000000000E+00  0.00000000000E+00  0.23252325339E+03  0.23252325339E+03  0.00000000000E+00 0. -1.
         21   -1    0    0  502  503 -0.00000000000E+00 -0.00000000000E+00 -0.16799995638E+02  0.16799995638E+02  0.00000000000E+00 0. -1.
         25    2    1    2    0    0  0.00000000000E+00  0.00000000000E+00  0.21572325775E+03  0.24932324902E+03  0.12500223426E+03 0.  0.
          4    1    3    3  501    0  0.22597451527E+02  0.12591222087E+02 -0.55790850946E+01  0.26508722709E+02  0.15500000000E+01 0.  1.
         -4    1    3    3    0  501 -0.22597451527E+02 -0.12591222087E+02  0.22130234284E+03  0.22281452632E+03  0.15500000000E+01 0.  1.
<mgrwt>
<rscale>  2 0.12500223E+03</rscale>
<asrwt>0</asrwt>
<pdfrwt beam="1">  1       21 0.35772806E-01 0.12500223E+03</pdfrwt>
<pdfrwt beam="2">  1       21 0.25846149E-02 0.12500223E+03</pdfrwt>
<totfact> 0.59938588E+06</totfact>
</mgrwt>
</event>
<event>
 5    0  0.1471770E+000  0.1250014E+03  0.7546771E-02  0.1235067E+00
         21   -1    0    0  503  502  0.00000000000E+00  0.00000000000E+00  0.33267359565E+02  0.33267359565E+02  0.00000000000E+00 0. -1.
         21   -1    0    0  502  503 -0.00000000000E+00 -0.00000000000E+00 -0.11742258039E+03  0.11742258039E+03  0.00000000000E+00 0. -1.
         25    2    1    2    0    0  0.00000000000E+00  0.00000000000E+00 -0.84155220824E+02  0.15068993995E+03  0.12500142724E+03 0.  0.
          4    1    3    3  501    0 -0.15671522731E+02  0.38773649023E+02 -0.98038847255E+02  0.10659742283E+03  0.15500000000E+01 0.  1.
         -4    1    3    3    0  501  0.15671522731E+02 -0.38773649023E+02  0.13883626431E+02  0.44092517122E+02  0.15500000000E+01 0.  1.
<mgrwt>
<rscale>  2 0.12500143E+03</rscale>
<asrwt>0</asrwt>
<pdfrwt beam="1">  1       21 0.51180553E-02 0.12500143E+03</pdfrwt>
<pdfrwt beam="2">  1       21 0.18065012E-01 0.12500143E+03</pdfrwt>
<totfact> 0.70670072E+06</totfact>
</mgrwt>
</event>
<event>
 5    0  0.1416665E+000  0.1250008E+03  0.7546771E-02  0.1235068E+00
         21   -1    0    0  503  502  0.00000000000E+00  0.00000000000E+00  0.32770206643E+03  0.32770206643E+03  0.00000000000E+00 0. -1.
         21   -1    0    0  502  503 -0.00000000000E+00 -0.00000000000E+00 -0.11920287132E+02  0.11920287132E+02  0.00000000000E+00 0. -1.
         25    2    1    2    0    0  0.00000000000E+00  0.00000000000E+00  0.31578177930E+03  0.33962235356E+03  0.12500084361E+03 0.  0.
          4    1    3    3  501    0  0.52170263887E+02  0.16691119402E+02  0.76220561062E+02  0.93873885238E+02  0.15500000000E+01 0. -1.
         -4    1    3    3    0  501 -0.52170263887E+02 -0.16691119402E+02  0.23956121824E+03  0.24574846833E+03  0.15500000000E+01 0. -1.
<mgrwt>
<rscale>  2 0.12500084E+03</rscale>
<asrwt>0</asrwt>
<pdfrwt beam="1">  1       21 0.50415696E-01 0.12500084E+03</pdfrwt>
<pdfrwt beam="2">  1       21 0.18338906E-02 0.12500084E+03</pdfrwt>
<totfact> 0.52313000E+06</totfact>
</mgrwt>
</event>
<event>
 5    0  0.1563414E+000  0.1249794E+03  0.7546771E-02  0.1235102E+00
         21   -1    0    0  503  502  0.00000000000E+00  0.00000000000E+00  0.75625681701E+02  0.75625681701E+02  0.00000000000E+00 0.  1.
         21   -1    0    0  502  503 -0.00000000000E+00 -0.00000000000E+00 -0.51635387732E+02  0.51635387732E+02  0.00000000000E+00 0.  1.
         25    2    1    2    0    0  0.00000000000E+00  0.00000000000E+00  0.23990293969E+02  0.12726106943E+03  0.12497938065E+03 0.  0.
          4    1    3    3  501    0 -0.37508084960E+02  0.49954211293E+02  0.11457073937E+02  0.63529101257E+02  0.15500000000E+01 0. -1.
         -4    1    3    3    0  501  0.37508084960E+02 -0.49954211293E+02  0.12533220032E+02  0.63731968177E+02  0.15500000000E+01 0. -1.
<mgrwt>
<rscale>  2 0.12497938E+03</rscale>
<asrwt>0</asrwt>
<pdfrwt beam="1">  1       21 0.11634720E-01 0.12497938E+03</pdfrwt>
<pdfrwt beam="2">  1       21 0.79439058E-02 0.12497938E+03</pdfrwt>
<totfact> 0.73772461E+06</totfact>
</mgrwt>
</event>
<event>
 5    0  0.1524225E+000  0.1250021E+03  0.7546771E-02  0.1235066E+00
         21   -1    0    0  503  502  0.00000000000E+00  0.00000000000E+00  0.82572075096E+02  0.82572075096E+02  0.00000000000E+00 0.  1.
         21   -1    0    0  502  503 -0.00000000000E+00 -0.00000000000E+00 -0.47308720369E+02  0.47308720369E+02  0.00000000000E+00 0.  1.
         25    2    1    2    0    0  0.00000000000E+00  0.00000000000E+00  0.35263354727E+02  0.12988079546E+03  0.12500206736E+03 0.  0.
          4    1    3    3  501    0 -0.62643206975E+01  0.37865180028E+02 -0.33597446786E+02  0.51031407024E+02  0.15500000000E+01 0.  1.
         -4    1    3    3    0  501  0.62643206975E+01 -0.37865180028E+02  0.68860801513E+02  0.78849388440E+02  0.15500000000E+01 0.  1.
<mgrwt>
<rscale>  2 0.12500207E+03</rscale>
<asrwt>0</asrwt>
<pdfrwt beam="1">  1       21 0.12703396E-01 0.12500207E+03</pdfrwt>
<pdfrwt beam="2">  1       21 0.72782647E-02 0.12500207E+03</pdfrwt>
<totfact> 0.73376978E+06</totfact>
</mgrwt>
</event>
<event>
 5    0  0.1271877E+000  0.1249985E+03  0.7546771E-02  0.1235072E+00
         21   -1    0    0  503  502  0.00000000000E+00  0.00000000000E+00  0.48719248293E+03  0.48719248293E+03  0.00000000000E+00 0. -1.
         21   -1    0    0  502  503 -0.00000000000E+00 -0.00000000000E+00 -0.80176863535E+01  0.80176863535E+01  0.00000000000E+00 0. -1.
         25    2    1    2    0    0  0.00000000000E+00  0.00000000000E+00  0.47917479657E+03  0.49521016928E+03  0.12499850434E+03 0.  0.
          4    1    3    3  501    0  0.10342044948E+02  0.28074346245E+02  0.22282794418E+02  0.37337008958E+02  0.15500000000E+01 0. -1.
         -4    1    3    3    0  501 -0.10342044948E+02 -0.28074346245E+02  0.45689200216E+03  0.45787316032E+03  0.15500000000E+01 0. -1.
<mgrwt>
<rscale>  2 0.12499850E+03</rscale>
<asrwt>0</asrwt>
<pdfrwt beam="1">  1       21 0.74952667E-01 0.12499850E+03</pdfrwt>
<pdfrwt beam="2">  1       21 0.12334906E-02 0.12499850E+03</pdfrwt>
<totfact> 0.42306614E+06</totfact>
</mgrwt>
</event>
<event>
 5    0  0.1544746E+000  0.1250090E+03  0.7546771E-02  0.1235055E+00
         21   -1    0    0  503  502  0.00000000000E+00  0.00000000000E+00  0.12127123602E+03  0.12127123602E+03  0.00000000000E+00 0. -1.
         21   -1    0    0  502  503 -0.00000000000E+00 -0.00000000000E+00 -0.32215478699E+02  0.32215478699E+02  0.00000000000E+00 0. -1.
         25    2    1    2    0    0  0.00000000000E+00  0.00000000000E+00  0.89055757324E+02  0.15348671472E+03  0.12500897441E+03 0.  0.
          4    1    3    3  501    0  0.42162769751E+02  0.38341129376E+02  0.75991029765E+02  0.94998844517E+02  0.15500000000E+01 0.  1.
         -4    1    3    3    0  501 -0.42162769751E+02 -0.38341129376E+02  0.13064727559E+02  0.58487870205E+02  0.15500000000E+01 0.  1.
<mgrwt>
<rscale>  2 0.12500897E+03</rscale>
<asrwt>0</asrwt>
<pdfrwt beam="1">  1       21 0.18657113E-01 0.12500897E+03</pdfrwt>
<pdfrwt beam="2">  1       21 0.49562275E-02 0.12500897E+03</pdfrwt>
<totfact> 0.70307847E+06</totfact>
</mgrwt>
</event>
<event>
 5    0  0.1517742E+000  0.1249971E+03  0.7546771E-02  0.1235074E+00
         21   -1    0    0  503  502  0.00000000000E+00  0.00000000000E+00  0.27121516659E+03  0.27121516659E+03  0.00000000000E+00 0.  1.
         21   -1    0    0  502  503 -0.00000000000E+00 -0.00000000000E+00 -0.14402094215E+02  0.14402094215E+02  0.00000000000E+00 0.  1.
         25    2    1    2    0    0  0.00000000000E+00  0.00000000000E+00  0.25681307238E+03  0.28561726081E+03  0.12499706207E+03 0.  0.
          4    1    3    3  501    0 -0.38178791412E+02  0.47599188552E+02  0.15909364564E+03  0.17040097843E+03  0.15500000000E+01 0.  1.
         -4    1    3    3    0  501  0.38178791412E+02 -0.47599188552E+02  0.97719426734E+02  0.11521628238E+03  0.15500000000E+01 0.  1.
<mgrwt>
<rscale>  2 0.12499706E+03</rscale>
<asrwt>0</asrwt>
<pdfrwt beam="1">  1       21 0.41725406E-01 0.12499706E+03</pdfrwt>
<pdfrwt beam="2">  1       21 0.22157070E-02 0.12499706E+03</pdfrwt>
<totfact> 0.56677214E+06</totfact>
</mgrwt>
</event>
<event>
 5    0  0.1562613E+000  0.1249967E+03  0.7546771E-02  0.1235074E+00
         21   -1    0    0  503  502  0.00000000000E+00  0.00000000000E+00  0.28059583467E+02  0.28059583467E+02  0.00000000000E+00 0.  1.
         21   -1    0    0  502  503 -0.00000000000E+00 -0.00000000000E+00 -0.13920530067E+03  0.13920530067E+03  0.00000000000E+00 0.  1.
         25    2    1    2    0    0  0.00000000000E+00  0.00000000000E+00 -0.11114571721E+03  0.16726488414E+03  0.12499668401E+03 0.  0.
          4    1    3    3  501    0  0.15023940490E+02 -0.56143307887E+02 -0.24887061793E+02  0.63242060000E+02  0.15500000000E+01 0. -1.
         -4    1    3    3    0  501 -0.15023940490E+02  0.56143307887E+02 -0.86258655413E+02  0.10402282414E+03  0.15500000000E+01 0. -1.
<mgrwt>
<rscale>  2 0.12499668E+03</rscale>
<asrwt>0</asrwt>
<pdfrwt beam="1">  1       21 0.43168590E-02 0.12499668E+03</pdfrwt>
<pdfrwt beam="2">  1       21 0.21416200E-01 0.12499668E+03</pdfrwt>
<totfact> 0.68648304E+06</totfact>
</mgrwt>
</event>
<event>
 5    0  0.1565973E+000  0.1249975E+03  0.7546771E-02  0.1235073E+00
         21   -1    0    0  503  502  0.00000000000E+00  0.00000000000E+00  0.16744422665E+02  0.16744422665E+02  0.00000000000E+00 0. -1.
         21   -1    0    0  502  503 -0.00000000000E+00 -0.00000000000E+00 -0.23327744410E+03  0.23327744410E+03  0.00000000000E+00 0. -1.
         25    2    1    2    0    0  0.00000000000E+00  0.00000000000E+00 -0.21653302143E+03  0.25002186676E+03  0.12499753793E+03 0.  0.
          4    1    3    3  501    0  0.50939240903E+02 -0.36165999892E+02 -0.11017229641E+03  0.12666145115E+03  0.15500000000E+01 0.  1.
         -4    1    3    3    0  501 -0.50939240903E+02  0.36165999892E+02 -0.10636072502E+03  0.12336041561E+03  0.15500000000E+01 0.  1.
<mgrwt>
<rscale>  2 0.12499754E+03</rscale>
<asrwt>0</asrwt>
<pdfrwt beam="1">  1       21 0.25760653E-02 0.12499754E+03</pdfrwt>
<pdfrwt beam="2">  1       21 0.35888834E-01 0.12499754E+03</pdfrwt>
<totfact> 0.59879848E+06</totfact>
</mgrwt>
</event>
<event>
 5    0  0.1471521E+000  0.1250201E+03  0.7546771E-02  0.1235038E+00
         21   -1    0    0  503  502  0.00000000000E+00  0.00000000000E+00  0.17319726291E+03  0.17319726291E+03  0.00000000000E+00 0.  1.
         21   -1    0    0  502  503 -0.00000000000E+00 -0.00000000000E+00 -0.22561014571E+02  0.22561014571E+02  0.00000000000E+00 0.  1.
         25    2    1    2    0    0  0.00000000000E+00  0.00000000000E+00  0.15063624834E+03  0.19575827748E+03  0.12502009394E+03 0.  0.
          4    1    3    3  501    0 -0.47805650701E+01  0.20621932596E+02  0.16738196665E+03  0.16872238490E+03  0.15500000000E+01 0. -1.
         -4    1    3    3    0  501  0.47805650701E+01 -0.20621932596E+02 -0.16745718306E+02  0.27035892587E+02  0.15500000000E+01 0. -1.
<mgrwt>
<rscale>  2 0.12502009E+03</rscale>
<asrwt>0</asrwt>
<pdfrwt beam="1">  1       21 0.26645732E-01 0.12502009E+03</pdfrwt>
<pdfrwt beam="2">  1       21 0.34709254E-02 0.12502009E+03</pdfrwt>
<totfact> 0.65354859E+06</totfact>
</mgrwt>
</event>
<event>
 5    0  0.1575557E+000  0.1250076E+03  0.7546771E-02  0.1235057E+00
         21   -1    0    0  503  502  0.00000000000E+00  0.00000000000E+00  0.33630560845E+02  0.33630560845E+02  0.00000000000E+00 0. -1.
         21   -1    0    0  502  503 -0.00000000000E+00 -0.00000000000E+00 -0.11616583458E+03  0.11616583458E+03  0.00000000000E+00 0. -1.
         25    2    1    2    0    0  0.00000000000E+00  0.00000000000E+00 -0.82535273733E+02  0.14979639542E+03  0.12500755446E+03 0.  0.
          4    1    3    3  501    0  0.36543044082E+02  0.50106690754E+02 -0.50412873471E+02  0.79937068001E+02  0.15500000000E+01 0.  1.
         -4    1    3    3    0  501 -0.36543044082E+02 -0.50106690754E+02 -0.32122400263E+02  0.69859327421E+02  0.15500000000E+01 0.  1.
<mgrwt>
<rscale>  2 0.12500755E+03</rscale>
<asrwt>0</asrwt>
<pdfrwt beam="1">  1       21 0.51739324E-02 0.12500755E+03</pdfrwt>
<pdfrwt beam="2">  1       21 0.17871667E-01 0.12500755E+03</pdfrwt>
<totfact> 0.70771176E+06</totfact>
</mgrwt>
</event>
<event>
 5    0  0.1393167E+000  0.1250030E+03  0.7546771E-02  0.1235065E+00
         21   -1    0    0  503  502  0.00000000000E+00  0.00000000000E+00  0.10319287559E+02  0.10319287559E+02  0.00000000000E+00 0. -1.
         21   -1    0    0  502  503 -0.00000000000E+00 -0.00000000000E+00 -0.37855665775E+03  0.37855665775E+03  0.00000000000E+00 0. -1.
         25    2    1    2    0    0  0.00000000000E+00  0.00000000000E+00 -0.36823737019E+03  0.38887594531E+03  0.12500296011E+03 0.  0.
          4    1    3    3  501    0  0.56349007743E+02  0.11017282093E+02 -0.26079177252E+03  0.26704183622E+03  0.15500000000E+01 0.  1.
         -4    1    3    3    0  501 -0.56349007743E+02 -0.11017282093E+02 -0.10744559767E+03  0.12183410909E+03  0.15500000000E+01 0.  1.
<mgrwt>
<rscale>  2 0.12500296E+03</rscale>
<asrwt>0</asrwt>
<pdfrwt beam="1">  1       21 0.15875829E-02 0.12500296E+03</pdfrwt>
<pdfrwt beam="2">  1       21 0.58239478E-01 0.12500296E+03</pdfrwt>
<totfact> 0.48784448E+06</totfact>
</mgrwt>
</event>
<event>
 5    0  0.1366075E+000  0.1250004E+03  0.7546771E-02  0.1235069E+00
         21   -1    0    0  503  502  0.00000000000E+00  0.00000000000E+00  0.21093204512E+02  0.21093204512E+02  0.00000000000E+00 0.  1.
         21   -1    0    0  502  503 -0.00000000000E+00 -0.00000000000E+00 -0.18519105488E+03  0.18519105488E+03  0.00000000000E+00 0.  1.
         25    2    1    2    0    0  0.00000000000E+00  0.00000000000E+00 -0.16409785037E+03  0.20628425939E+03  0.12500036471E+03 0.  0.
          4    1    3    3  501    0 -0.60597574279E+02 -0.56551186954E+01 -0.58720869377E+02  0.84584805825E+02  0.15500000000E+01 0.  1.
         -4    1    3    3    0  501  0.60597574279E+02  0.56551186954E+01 -0.10537698099E+03  0.12169945357E+03  0.15500000000E+01 0.  1.
<mgrwt>
<rscale>  2 0.12500036E+03</rscale>
<asrwt>0</asrwt>
<pdfrwt beam="1">  1       21 0.32451084E-02 0.12500036E+03</pdfrwt>
<pdfrwt beam="2">  1       21 0.28490932E-01 0.12500036E+03</pdfrwt>
<totfact> 0.64252014E+06</totfact>
</mgrwt>
</event>
<event>
 5    0  0.1222151E+000  0.1250063E+03  0.7546771E-02  0.1235059E+00
         21   -1    0    0  503  502  0.00000000000E+00  0.00000000000E+00  0.17892225221E+01  0.17892225221E+01  0.00000000000E+00 0.  1.
         21   -1    0    0  502  503 -0.00000000000E+00 -0.00000000000E+00 -0.21834319072E+04  0.21834319072E+04  0.00000000000E+00 0.  1.
         25    2    1    2    0    0  0.00000000000E+00  0.00000000000E+00 -0.21816426847E+04  0.21852211297E+04  0.12500632854E+03 0.  0.
          4    1    3    3  501    0 -0.67216646240E-01 -0.56737287791E+02 -0.15483794992E+04  0.15494194397E+04  0.15500000000E+01 0. -1.
         -4    1    3    3    0  501  0.67216646240E-01  0.56737287791E+02 -0.63326318552E+03  0.63580168998E+03  0.15500000000E+01 0. -1.
<mgrwt>
<rscale>  2 0.12500633E+03</rscale>
<asrwt>0</asrwt>
<pdfrwt beam="1">  1       21 0.27526472E-03 0.12500633E+03</pdfrwt>
<pdfrwt beam="2">  1       21 0.33591295E+00 0.12500633E+03</pdfrwt>
<totfact> 0.62779621E+05</totfact>
</mgrwt>
</event>
<event>
 5    0  0.1471454E+000  0.1250127E+03  0.7546771E-02  0.1235049E+00
         21   -1    0    0  503  502  0.00000000000E+00  0.00000000000E+00  0.12678081335E+02  0.12678081335E+02  0.00000000000E+00 0. -1.
         21   -1    0    0  502  503 -0.00000000000E+00 -0.00000000000E+00 -0.30817310244E+03  0.30817310244E+03  0.00000000000E+00 0. -1.
         25    2    1    2    0    0  0.00000000000E+00  0.00000000000E+00 -0.29549502110E+03  0.32085118377E+03  0.12501269788E+03 0.  0.
          4    1    3    3  501    0 -0.15062815348E+02 -0.55633346453E+02 -0.20970101585E+03  0.21748304806E+03  0.15500000000E+01 0.  1.
         -4    1    3    3    0  501  0.15062815348E+02  0.55633346453E+02 -0.85794005250E+02  0.10336813571E+03  0.15500000000E+01 0.  1.
<mgrwt>
<rscale>  2 0.12501270E+03</rscale>
<asrwt>0</asrwt>
<pdfrwt beam="1">  1       21 0.19504740E-02 0.12501270E+03</pdfrwt>
<pdfrwt beam="2">  1       21 0.47411247E-01 0.12501270E+03</pdfrwt>
<totfact> 0.53748835E+06</totfact>
</mgrwt>
</event>
<event>
 5    0  0.1436724E+000  0.1250075E+03  0.7546771E-02  0.1235058E+00
         21   -1    0    0  503  502  0.00000000000E+00  0.00000000000E+00  0.14234890837E+02  0.14234890837E+02  0.00000000000E+00 0. -1.
         21   -1    0    0  502  503 -0.00000000000E+00 -0.00000000000E+00 -0.27444653136E+03  0.27444653136E+03  0.00000000000E+00 0. -1.
         25    2    1    2    0    0  0.00000000000E+00  0.00000000000E+00 -0.26021164053E+03  0.28868142220E+03  0.12500746241E+03 0.  0.
          4    1    3    3  501    0 -0.40459351925E+02 -0.45943860597E+02 -0.15899683950E+03  0.17038249604E+03  0.15500000000E+01 0.  1.
         -4    1    3    3    0  501  0.40459351925E+02  0.45943860597E+02 -0.10121480103E+03  0.11829892617E+03  0.15500000000E+01 0.  1.
<mgrwt>
<rscale>  2 0.12500746E+03</rscale>
<asrwt>0</asrwt>
<pdfrwt beam="1">  1       21 0.21899833E-02 0.12500746E+03</pdfrwt>
<pdfrwt beam="2">  1       21 0.42222541E-01 0.12500746E+03</pdfrwt>
<totfact> 0.56399526E+06</totfact>
</mgrwt>
</event>
<event>
 5    0  0.1400170E+000  0.1250134E+03  0.7546771E-02  0.1235048E+00
         21   -1    0    0  503  502  0.00000000000E+00  0.00000000000E+00  0.56794352805E+03  0.56794352805E+03  0.00000000000E+00 0.  1.
         21   -1    0    0  502  503 -0.00000000000E+00 -0.00000000000E+00 -0.68793626919E+01  0.68793626919E+01  0.00000000000E+00 0.  1.
         25    2    1    2    0    0  0.00000000000E+00  0.00000000000E+00  0.56106416535E+03  0.57482289074E+03  0.12501343157E+03 0.  0.
          4    1    3    3  501    0 -0.14065547454E+02  0.59523529951E+02  0.33937985822E+03  0.34485066465E+03  0.15500000000E+01 0. -1.
         -4    1    3    3    0  501  0.14065547454E+02 -0.59523529951E+02  0.22168430713E+03  0.22997222608E+03  0.15500000000E+01 0. -1.
<mgrwt>
<rscale>  2 0.12501343E+03</rscale>
<asrwt>0</asrwt>
<pdfrwt beam="1">  1       21 0.87375891E-01 0.12501343E+03</pdfrwt>
<pdfrwt beam="2">  1       21 0.10583639E-02 0.12501343E+03</pdfrwt>
<totfact> 0.38243806E+06</totfact>
</mgrwt>
</event>
<event>
 5    0  0.1494759E+000  0.1250029E+03  0.7546771E-02  0.1235065E+00
         21   -1    0    0  503  502  0.00000000000E+00  0.00000000000E+00  0.12518797517E+03  0.12518797517E+03  0.00000000000E+00 0.  1.
         21   -1    0    0  502  503 -0.00000000000E+00 -0.00000000000E+00 -0.31204514911E+02  0.31204514911E+02  0.00000000000E+00 0.  1.
         25    2    1    2    0    0  0.00000000000E+00  0.00000000000E+00  0.93983460254E+02  0.15639249008E+03  0.12500288057E+03 0.  0.
          4    1    3    3  501    0 -0.26408935230E+02 -0.26849664032E+02 -0.15384548704E+02  0.40711462236E+02  0.15500000000E+01 0. -1.
         -4    1    3    3    0  501  0.26408935230E+02  0.26849664032E+02  0.10936800896E+03  0.11568102784E+03  0.15500000000E+01 0. -1.
<mgrwt>
<rscale>  2 0.12500288E+03</rscale>
<asrwt>0</asrwt>
<pdfrwt beam="1">  1       21 0.19259688E-01 0.12500288E+03</pdfrwt>
<pdfrwt beam="2">  1       21 0.48006947E-02 0.12500288E+03</pdfrwt>
<totfact> 0.69957877E+06</totfact>
</mgrwt>
</event>
<event>
 5    0  0.1222151E+000  0.1249987E+03  0.7546771E-02  0.1235071E+00
         21   -1    0    0  503  502  0.00000000000E+00  0.00000000000E+00  0.10448091878E+04  0.10448091878E+04  0.00000000000E+00 0. -1.
         21   -1    0    0  502  503 -0.00000000000E+00 -0.00000000000E+00 -0.37386428552E+01  0.37386428552E+01  0.00000000000E+00 0. -1.
         25    2    1    2    0    0  0.00000000000E+00  0.00000000000E+00  0.10410705449E+04  0.10485478306E+04  0.12499869447E+03 0.  0.
          4    1    3    3  501    0  0.52282871762E+01  0.54995280273E+02  0.76537948298E+03  0.76737212050E+03  0.15500000000E+01 0.  1.
         -4    1    3    3    0  501 -0.52282871762E+01 -0.54995280273E+02  0.27569106193E+03  0.28117571013E+03  0.15500000000E+01 0.  1.
<mgrwt>
<rscale>  2 0.12499869E+03</rscale>
<asrwt>0</asrwt>
<pdfrwt beam="1">  1       21 0.16073964E+00 0.12499869E+03</pdfrwt>
<pdfrwt beam="2">  1       21 0.57517665E-03 0.12499869E+03</pdfrwt>
<totfact> 0.22434209E+06</totfact>
</mgrwt>
</event>
<event>
 5    0  0.1427460E+000  0.1250028E+03  0.7546771E-02  0.1235065E+00
         21   -1    0    0  503  502  0.00000000000E+00  0.00000000000E+00  0.18471236080E+02  0.18471236080E+02  0.00000000000E+00 0.  1.
         21   -1    0    0  502  503 -0.00000000000E+00 -0.00000000000E+00 -0.21148687238E+03  0.21148687238E+03  0.00000000000E+00 0.  1.
         25    2    1    2    0    0  0.00000000000E+00  0.00000000000E+00 -0.19301563630E+03  0.22995810846E+03  0.12500278313E+03 0.  0.
          4    1    3    3  501    0 -0.32461182738E+02 -0.29390559731E+02 -0.14515715307E+02  0.46158876469E+02  0.15500000000E+01 0. -1.
         -4    1    3    3    0  501  0.32461182738E+02  0.29390559731E+02 -0.17849992100E+03  0.18379923199E+03  0.15500000000E+01 0. -1.
<mgrwt>
<rscale>  2 0.12500278E+03</rscale>
<asrwt>0</asrwt>
<pdfrwt beam="1">  1       21 0.28417286E-02 0.12500278E+03</pdfrwt>
<pdfrwt beam="2">  1       21 0.32536442E-01 0.12500278E+03</pdfrwt>
<totfact> 0.61813805E+06</totfact>
</mgrwt>
</event>
<event>
 5    0  0.1555200E+000  0.1250010E+03  0.7546771E-02  0.1235068E+00
         21   -1    0    0  503  502  0.00000000000E+00  0.00000000000E+00  0.51658735753E+02  0.51658735753E+02  0.00000000000E+00 0.  1.
         21   -1    0    0  502  503 -0.00000000000E+00 -0.00000000000E+00 -0.75617604312E+02  0.75617604312E+02  0.00000000000E+00 0.  1.
         25    2    1    2    0    0  0.00000000000E+00  0.00000000000E+00 -0.23958868559E+02  0.12727634006E+03  0.12500095743E+03 0.  0.
          4    1    3    3  501    0 -0.39808061019E+02 -0.45062518333E+02 -0.29276752863E+02  0.66894267608E+02  0.15500000000E+01 0. -1.
         -4    1    3    3    0  501  0.39808061019E+02  0.45062518333E+02  0.53178843038E+01  0.60382072456E+02  0.15500000000E+01 0. -1.
<mgrwt>
<rscale>  2 0.12500096E+03</rscale>
<asrwt>0</asrwt>
<pdfrwt beam="1">  1       21 0.79474978E-02 0.12500096E+03</pdfrwt>
<pdfrwt beam="2">  1       21 0.11633478E-01 0.12500096E+03</pdfrwt>
<totfact> 0.73729762E+06</totfact>
</mgrwt>
</event>
<event>
 5    0  0.1244070E+000  0.1250092E+03  0.7546771E-02  0.1235055E+00
         21   -1    0    0  503  502  0.00000000000E+00  0.00000000000E+00  0.11447580908E+02  0.11447580908E+02  0.00000000000E+00 0. -1.
         21   -1    0    0  502  503 -0.00000000000E+00 -0.00000000000E+00 -0.34127978883E+03  0.34127978883E+03  0.00000000000E+00 0. -1.
         25    2    1    2    0    0  0.00000000000E+00  0.00000000000E+00 -0.32983220792E+03  0.35272736974E+03  0.12500924757E+03 0.  0.
          4    1    3    3  501    0 -0.49680247201E+02 -0.36173459775E+01 -0.27136275972E+03  0.27590100040E+03  0.15500000000E+01 0. -1.
         -4    1    3    3    0  501  0.49680247201E+02  0.36173459775E+01 -0.58469448200E+02  0.76826369344E+02  0.15500000000E+01 0. -1.
<mgrwt>
<rscale>  2 0.12500925E+03</rscale>
<asrwt>0</asrwt>
<pdfrwt beam="1">  1       21 0.17611665E-02 0.12500925E+03</pdfrwt>
<pdfrwt beam="2">  1       21 0.52504576E-01 0.12500925E+03</pdfrwt>
<totfact> 0.51325750E+06</totfact>
</mgrwt>
</event>
<event>
 5    0  0.1290365E+000  0.1249477E+03  0.7546771E-02  0.1235151E+00
         21   -1    0    0  503  502  0.00000000000E+00  0.00000000000E+00  0.83944588428E+02  0.83944588428E+02  0.00000000000E+00 0. -1.
         21   -1    0    0  502  503 -0.00000000000E+00 -0.00000000000E+00 -0.46494717757E+02  0.46494717757E+02  0.00000000000E+00 0. -1.
         25    2    1    2    0    0  0.00000000000E+00  0.00000000000E+00  0.37449870671E+02  0.13043930619E+03  0.12494766819E+03 0.  0.
          4    1    3    3  501    0  0.23068872169E+02  0.44386602175E+02  0.57761381578E+02  0.76427240023E+02  0.15500000000E+01 0. -1.
         -4    1    3    3    0  501 -0.23068872169E+02 -0.44386602175E+02 -0.20311510907E+02  0.54012066162E+02  0.15500000000E+01 0. -1.
<mgrwt>
<rscale>  2 0.12494767E+03</rscale>
<asrwt>0</asrwt>
<pdfrwt beam="1">  1       21 0.12914552E-01 0.12494767E+03</pdfrwt>
<pdfrwt beam="2">  1       21 0.71530335E-02 0.12494767E+03</pdfrwt>
<totfact> 0.73404281E+06</totfact>
</mgrwt>
</event>
<event>
 5    0  0.1540279E+000  0.1250004E+03  0.7546771E-02  0.1235069E+00
         21   -1    0    0  503  502  0.00000000000E+00  0.00000000000E+00  0.16564125768E+03  0.16564125768E+03  0.00000000000E+00 0.  1.
         21   -1    0    0  502  503 -0.00000000000E+00 -0.00000000000E+00 -0.23582748503E+02  0.23582748503E+02  0.00000000000E+00 0.  1.
         25    2    1    2    0    0  0.00000000000E+00  0.00000000000E+00  0.14205850918E+03  0.18922400618E+03  0.12500041794E+03 0.  0.
          4    1    3    3  501    0 -0.11227873226E+02  0.61422009549E+02  0.67595517400E+02  0.92034150547E+02  0.15500000000E+01 0.  1.
         -4    1    3    3    0  501  0.11227873226E+02 -0.61422009549E+02  0.74462991776E+02  0.97189855636E+02  0.15500000000E+01 0.  1.
<mgrwt>
<rscale>  2 0.12500042E+03</rscale>
<asrwt>0</asrwt>
<pdfrwt beam="1">  1       21 0.25483270E-01 0.12500042E+03</pdfrwt>
<pdfrwt beam="2">  1       21 0.36281153E-02 0.12500042E+03</pdfrwt>
<totfact> 0.66108112E+06</totfact>
</mgrwt>
</event>
<event>
 5    0  0.1550768E+000  0.1250002E+03  0.7546771E-02  0.1235069E+00
         21   -1    0    0  503  502  0.00000000000E+00  0.00000000000E+00  0.56660235258E+02  0.56660235258E+02  0.00000000000E+00 0.  1.
         21   -1    0    0  502  503 -0.00000000000E+00 -0.00000000000E+00 -0.68941862569E+02  0.68941862569E+02  0.00000000000E+00 0.  1.
         25    2    1    2    0    0  0.00000000000E+00  0.00000000000E+00 -0.12281627311E+02  0.12560209783E+03  0.12500019444E+03 0.  0.
          4    1    3    3  501    0  0.16331611135E+02 -0.59543559253E+02 -0.15763076640E+02  0.63741933261E+02  0.15500000000E+01 0.  1.
         -4    1    3    3    0  501 -0.16331611135E+02  0.59543559253E+02  0.34814493296E+01  0.61860164566E+02  0.15500000000E+01 0.  1.
<mgrwt>
<rscale>  2 0.12500019E+03</rscale>
<asrwt>0</asrwt>
<pdfrwt beam="1">  1       21 0.87169593E-02 0.12500019E+03</pdfrwt>
<pdfrwt beam="2">  1       21 0.10606440E-01 0.12500019E+03</pdfrwt>
<totfact> 0.73960784E+06</totfact>
</mgrwt>
</event>
<event>
 5    0  0.1448380E+000  0.1249985E+03  0.7546771E-02  0.1235072E+00
         21   -1    0    0  503  502  0.00000000000E+00  0.00000000000E+00  0.35608070359E+03  0.35608070359E+03  0.00000000000E+00 0. -1.
         21   -1    0    0  502  503 -0.00000000000E+00 -0.00000000000E+00 -0.10969855013E+02  0.10969855013E+02  0.00000000000E+00 0. -1.
         25    2    1    2    0    0  0.00000000000E+00  0.00000000000E+00  0.34511084858E+03  0.36705055860E+03  0.12499845905E+03 0.  0.
          4    1    3    3  501    0  0.57194703100E+02 -0.19472997732E+02  0.12581899477E+03  0.13958242600E+03  0.15500000000E+01 0. -1.
         -4    1    3    3    0  501 -0.57194703100E+02  0.19472997732E+02  0.21929185381E+03  0.22746813261E+03  0.15500000000E+01 0. -1.
<mgrwt>
<rscale>  2 0.12499846E+03</rscale>
<asrwt>0</asrwt>
<pdfrwt beam="1">  1       21 0.54781638E-01 0.12499846E+03</pdfrwt>
<pdfrwt beam="2">  1       21 0.16876703E-02 0.12499846E+03</pdfrwt>
<totfact> 0.50305272E+06</totfact>
</mgrwt>
</event>
<event>
 5    0  0.1342249E+000  0.1250000E+03  0.7546771E-02  0.1235069E+00
         21   -1    0    0  503  502  0.00000000000E+00  0.00000000000E+00  0.37331551562E+03  0.37331551562E+03  0.00000000000E+00 0. -1.
         21   -1    0    0  502  503 -0.00000000000E+00 -0.00000000000E+00 -0.10463668156E+02  0.10463668156E+02  0.00000000000E+00 0. -1.
         25    2    1    2    0    0  0.00000000000E+00  0.00000000000E+00  0.36285184747E+03  0.38377918378E+03  0.12499999476E+03 0.  0.
          4    1    3    3  501    0 -0.43413411655E+02  0.13229431623E+02  0.49580748202E+02  0.67233884796E+02  0.15500000000E+01 0.  1.
         -4    1    3    3    0  501  0.43413411655E+02 -0.13229431623E+02  0.31327109927E+03  0.31654529898E+03  0.15500000000E+01 0.  1.
<mgrwt>
<rscale>  2 0.12499999E+03</rscale>
<asrwt>0</asrwt>
<pdfrwt beam="1">  1       21 0.57433146E-01 0.12499999E+03</pdfrwt>
<pdfrwt beam="2">  1       21 0.16097954E-02 0.12499999E+03</pdfrwt>
<totfact> 0.49136213E+06</totfact>
</mgrwt>
</event>
<event>
 5    0  0.1272310E+000  0.1249449E+03  0.7546771E-02  0.1235155E+00
         21   -1    0    0  503  502  0.00000000000E+00  0.00000000000E+00  0.15314345835E+03  0.15314345835E+03  0.00000000000E+00 0.  1.
         21   -1    0    0  502  503 -0.00000000000E+00 -0.00000000000E+00 -0.25484651112E+02  0.25484651112E+02  0.00000000000E+00 0.  1.
         25    2    1    2    0    0  0.00000000000E+00  0.00000000000E+00  0.12765880724E+03  0.17862810946E+03  0.12494490956E+03 0.  0.
          4    1    3    3  501    0 -0.38706043710E+02 -0.11602800621E+02  0.13190894083E+03  0.13796794545E+03  0.15500000000E+01 0. -1.
         -4    1    3    3    0  501  0.38706043710E+02  0.11602800621E+02 -0.42501335887E+01  0.40660164011E+02  0.15500000000E+01 0. -1.
<mgrwt>
<rscale>  2 0.12494491E+03</rscale>
<asrwt>0</asrwt>
<pdfrwt beam="1">  1       21 0.23560531E-01 0.12494491E+03</pdfrwt>
<pdfrwt beam="2">  1       21 0.39207157E-02 0.12494491E+03</pdfrwt>
<totfact> 0.67403412E+06</totfact>
</mgrwt>
</event>
<event>
 5    0  0.1509448E+000  0.1249885E+03  0.7546771E-02  0.1235087E+00
         21   -1    0    0  503  502  0.00000000000E+00  0.00000000000E+00  0.23235868115E+03  0.23235868115E+03  0.00000000000E+00 0.  1.
         21   -1    0    0  502  503 -0.00000000000E+00 -0.00000000000E+00 -0.16808204667E+02  0.16808204667E+02  0.00000000000E+00 0.  1.
         25    2    1    2    0    0  0.00000000000E+00  0.00000000000E+00  0.21555047648E+03  0.24916688582E+03  0.12498851577E+03 0.  0.
          4    1    3    3  501    0 -0.57971224304E+01  0.61277769744E+02  0.86438252443E+02  0.10612514160E+03  0.15500000000E+01 0. -1.
         -4    1    3    3    0  501  0.57971224304E+01 -0.61277769744E+02  0.12911222404E+03  0.14304174422E+03  0.15500000000E+01 0. -1.
<mgrwt>
<rscale>  2 0.12498852E+03</rscale>
<asrwt>0</asrwt>
<pdfrwt beam="1">  1       21 0.35747487E-01 0.12498852E+03</pdfrwt>
<pdfrwt beam="2">  1       21 0.25858778E-02 0.12498852E+03</pdfrwt>
<totfact> 0.59974076E+06</totfact>
</mgrwt>
</event>
<event>
 5    0  0.1492504E+000  0.1249966E+03  0.7546771E-02  0.1235075E+00
         21   -1    0    0  503  502  0.00000000000E+00  0.00000000000E+00  0.25761046889E+02  0.25761046889E+02  0.00000000000E+00 0. -1.
         21   -1    0    0  502  503 -0.00000000000E+00 -0.00000000000E+00 -0.15162564917E+03  0.15162564917E+03  0.00000000000E+00 0. -1.
         25    2    1    2    0    0  0.00000000000E+00  0.00000000000E+00 -0.12586460228E+03  0.17738669606E+03  0.12499656728E+03 0.  0.
          4    1    3    3  501    0  0.47174338747E+02  0.83501263157E+01 -0.11984801092E+03  0.12907784886E+03  0.15500000000E+01 0.  1.
         -4    1    3    3    0  501 -0.47174338747E+02 -0.83501263157E+01 -0.60165913600E+01  0.48308847195E+02  0.15500000000E+01 0.  1.
<mgrwt>
<rscale>  2 0.12499657E+03</rscale>
<asrwt>0</asrwt>
<pdfrwt beam="1">  1       21 0.39632379E-02 0.12499657E+03</pdfrwt>
<pdfrwt beam="2">  1       21 0.23327024E-01 0.12499657E+03</pdfrwt>
<totfact> 0.67458472E+06</totfact>
</mgrwt>
</event>
<event>
 5    0  0.1398769E+000  0.1249650E+03  0.7546771E-02  0.1235124E+00
         21   -1    0    0  503  502  0.00000000000E+00  0.00000000000E+00  0.94939853859E+01  0.94939853859E+01  0.00000000000E+00 0.  1.
         21   -1    0    0  502  503 -0.00000000000E+00 -0.00000000000E+00 -0.41121439818E+03  0.41121439818E+03  0.00000000000E+00 0.  1.
         25    2    1    2    0    0  0.00000000000E+00  0.00000000000E+00 -0.40172041279E+03  0.42070838356E+03  0.12496501089E+03 0.  0.
          4    1    3    3  501    0 -0.70940863515E+01 -0.59664540958E+02 -0.14338305494E+03  0.15547117564E+03  0.15500000000E+01 0. -1.
         -4    1    3    3    0  501  0.70940863515E+01  0.59664540958E+02 -0.25833735785E+03  0.26523720793E+03  0.15500000000E+01 0. -1.
<mgrwt>
<rscale>  2 0.12496501E+03</rscale>
<asrwt>0</asrwt>
<pdfrwt beam="1">  1       21 0.14606130E-02 0.12496501E+03</pdfrwt>
<pdfrwt beam="2">  1       21 0.63263757E-01 0.12496501E+03</pdfrwt>
<totfact> 0.46738274E+06</totfact>
</mgrwt>
</event>
<event>
 5    0  0.1473969E+000  0.1250034E+03  0.7546771E-02  0.1235064E+00
         21   -1    0    0  503  502  0.00000000000E+00  0.00000000000E+00  0.30933045476E+02  0.30933045476E+02  0.00000000000E+00 0. -1.
         21   -1    0    0  502  503 -0.00000000000E+00 -0.00000000000E+00 -0.12628777299E+03  0.12628777299E+03  0.00000000000E+00 0. -1.
         25    2    1    2    0    0  0.00000000000E+00  0.00000000000E+00 -0.95354727519E+02  0.15722081847E+03  0.12500344675E+03 0.  0.
          4    1    3    3  501    0 -0.33212104307E+02  0.48372313873E+02 -0.74686062662E+02  0.94991236848E+02  0.15500000000E+01 0. -1.
         -4    1    3    3    0  501  0.33212104307E+02 -0.48372313873E+02 -0.20668664857E+02  0.62229581622E+02  0.15500000000E+01 0. -1.
<mgrwt>
<rscale>  2 0.12500345E+03</rscale>
<asrwt>0</asrwt>
<pdfrwt beam="1">  1       21 0.47589301E-02 0.12500345E+03</pdfrwt>
<pdfrwt beam="2">  1       21 0.19428888E-01 0.12500345E+03</pdfrwt>
<totfact> 0.69854563E+06</totfact>
</mgrwt>
</event>
<event>
 4    0  0.1400328E+000  0.1251402E+03  0.7546771E-02  0.1234850E+00
         21   -1    0    0  503  502  0.00000000000E+00  0.00000000000E+00  0.38704817443E+03  0.38704817443E+03  0.00000000000E+00 0. -1.
         21   -1    0    0  502  503 -0.00000000000E+00 -0.00000000000E+00 -0.10115071523E+02  0.10115071523E+02  0.00000000000E+00 0. -1.
          4    1    1    2  501    0  0.28749062088E+02  0.38437169984E+02  0.31576075620E+03  0.31939189449E+03  0.15500000000E+01 0.  1.
         -4    1    1    2    0  501 -0.28749062088E+02 -0.38437169984E+02  0.61172346706E+02  0.77771351466E+02  0.15500000000E+01 0.  1.
<mgrwt>
<rscale>  2 0.12514024E+03</rscale>
<asrwt>0</asrwt>
<pdfrwt beam="1">  1       21 0.59545862E-01 0.12514024E+03</pdfrwt>
<pdfrwt beam="2">  1       21 0.15561651E-02 0.12514024E+03</pdfrwt>
<totfact> 0.48061391E+06</totfact>
</mgrwt>
</event>
<event>
 5    0  0.1396526E+000  0.1249790E+03  0.7546771E-02  0.1235102E+00
         21   -1    0    0  503  502  0.00000000000E+00  0.00000000000E+00  0.97913463690E+01  0.97913463690E+01  0.00000000000E+00 0. -1.
         21   -1    0    0  502  503 -0.00000000000E+00 -0.00000000000E+00 -0.39881502896E+03  0.39881502896E+03  0.00000000000E+00 0. -1.
         25    2    1    2    0    0  0.00000000000E+00  0.00000000000E+00 -0.38902368259E+03  0.40860637533E+03  0.12497897560E+03 0.  0.
          4    1    3    3  501    0  0.19455283154E+02  0.50244255761E+02 -0.29787560954E+03  0.30271318857E+03  0.15500000000E+01 0.  1.
         -4    1    3    3    0  501 -0.19455283154E+02 -0.50244255761E+02 -0.91148073052E+02  0.10589318675E+03  0.15500000000E+01 0.  1.
<mgrwt>
<rscale>  2 0.12497898E+03</rscale>
<asrwt>0</asrwt>
<pdfrwt beam="1">  1       21 0.15063611E-02 0.12497898E+03</pdfrwt>
<pdfrwt beam="2">  1       21 0.61356153E-01 0.12497898E+03</pdfrwt>
<totfact> 0.47500639E+06</totfact>
</mgrwt>
</event>
<event>
 5    0  0.1222151E+000  0.1249954E+03  0.7546771E-02  0.1235076E+00
         21   -1    0    0  503  502  0.00000000000E+00  0.00000000000E+00  0.54436649035E+01  0.54436649035E+01  0.00000000000E+00 0. -1.
         21   -1    0    0  502  503 -0.00000000000E+00 -0.00000000000E+00 -0.71752436742E+03  0.71752436742E+03  0.00000000000E+00 0. -1.
         25    2    1    2    0    0  0.00000000000E+00  0.00000000000E+00 -0.71208070252E+03  0.72296803232E+03  0.12499539538E+03 0.  0.
          4    1    3    3  501    0 -0.37769389507E+02  0.16485495960E+02 -0.84424498787E+02  0.93958484748E+02  0.15500000000E+01 0. -1.
         -4    1    3    3    0  501  0.37769389507E+02 -0.16485495960E+02 -0.62765620373E+03  0.62900954757E+03  0.15500000000E+01 0. -1.
<mgrwt>
<rscale>  2 0.12499540E+03</rscale>
<asrwt>0</asrwt>
<pdfrwt beam="1">  1       21 0.83748650E-03 0.12499540E+03</pdfrwt>
<pdfrwt beam="2">  1       21 0.11038842E+00 0.12499540E+03</pdfrwt>
<totfact> 0.32046881E+06</totfact>
</mgrwt>
</event>
<event>
 5    0  0.1483405E+000  0.1250008E+03  0.7546771E-02  0.1235068E+00
         21   -1    0    0  503  502  0.00000000000E+00  0.00000000000E+00  0.25181192523E+03  0.25181192523E+03  0.00000000000E+00 0.  1.
         21   -1    0    0  502  503 -0.00000000000E+00 -0.00000000000E+00 -0.15512775923E+02  0.15512775923E+02  0.00000000000E+00 0.  1.
         25    2    1    2    0    0  0.00000000000E+00  0.00000000000E+00  0.23629914930E+03  0.26732470115E+03  0.12500083153E+03 0.  0.
          4    1    3    3  501    0 -0.71100898821E+01  0.46419457273E+02  0.20628879431E+03  0.21157218283E+03  0.15500000000E+01 0. -1.
         -4    1    3    3    0  501  0.71100898821E+01 -0.46419457273E+02  0.30010354993E+02  0.55752518315E+02  0.15500000000E+01 0. -1.
<mgrwt>
<rscale>  2 0.12500083E+03</rscale>
<asrwt>0</asrwt>
<pdfrwt beam="1">  1       21 0.38740293E-01 0.12500083E+03</pdfrwt>
<pdfrwt beam="2">  1       21 0.23865811E-02 0.12500083E+03</pdfrwt>
<totfact> 0.58283141E+06</totfact>
</mgrwt>
</event>
<event>
 5    0  0.1460266E+000  0.1250054E+03  0.7546771E-02  0.1235061E+00
         21   -1    0    0  503  502  0.00000000000E+00  0.00000000000E+00  0.21362741547E+03  0.21362741547E+03  0.00000000000E+00 0.  1.
         21   -1    0    0  502  503 -0.00000000000E+00 -0.00000000000E+00 -0.18286908147E+02  0.18286908147E+02  0.00000000000E+00 0.  1.
         25    2    1    2    0    0  0.00000000000E+00  0.00000000000E+00  0.19534050733E+03  0.23191432362E+03  0.12500535868E+03 0.  0.
          4    1    3    3  501    0  0.57363561741E+02 -0.16166040627E+02  0.13249056628E+03  0.14528617188E+03  0.15500000000E+01 0. -1.
         -4    1    3    3    0  501 -0.57363561741E+02  0.16166040627E+02  0.62849941047E+02  0.86628151745E+02  0.15500000000E+01 0. -1.
<mgrwt>
<rscale>  2 0.12500536E+03</rscale>
<asrwt>0</asrwt>
<pdfrwt beam="1">  1       21 0.32865754E-01 0.12500536E+03</pdfrwt>
<pdfrwt beam="2">  1       21 0.28133706E-02 0.12500536E+03</pdfrwt>
<totfact> 0.61615652E+06</totfact>
</mgrwt>
</event>
<event>
 5    0  0.1533689E+000  0.1250016E+03  0.7546771E-02  0.1235067E+00
         21   -1    0    0  503  502  0.00000000000E+00  0.00000000000E+00  0.46034505211E+02  0.46034505211E+02  0.00000000000E+00 0. -1.
         21   -1    0    0  502  503 -0.00000000000E+00 -0.00000000000E+00 -0.84857006089E+02  0.84857006089E+02  0.00000000000E+00 0. -1.
         25    2    1    2    0    0  0.00000000000E+00  0.00000000000E+00 -0.38822500878E+02  0.13089151130E+03  0.12500160461E+03 0.  0.
          4    1    3    3  501    0 -0.30440430603E+02  0.54182750949E+02 -0.26161509831E+02  0.67447886641E+02  0.15500000000E+01 0.  1.
         -4    1    3    3    0  501  0.30440430603E+02 -0.54182750949E+02 -0.12660991046E+02  0.63443624660E+02  0.15500000000E+01 0.  1.
<mgrwt>
<rscale>  2 0.12500160E+03</rscale>
<asrwt>0</asrwt>
<pdfrwt beam="1">  1       21 0.70822317E-02 0.12500160E+03</pdfrwt>
<pdfrwt beam="2">  1       21 0.13054924E-01 0.12500160E+03</pdfrwt>
<totfact> 0.73242296E+06</totfact>
</mgrwt>
</event>
<event>
 5    0  0.1472430E+000  0.1249819E+03  0.7546771E-02  0.1235098E+00
         21   -1    0    0  503  502  0.00000000000E+00  0.00000000000E+00  0.13591821087E+03  0.13591821087E+03  0.00000000000E+00 0.  1.
         21   -1    0    0  502  503 -0.00000000000E+00 -0.00000000000E+00 -0.28731405185E+02  0.28731405185E+02  0.00000000000E+00 0.  1.
         25    2    1    2    0    0  0.00000000000E+00  0.00000000000E+00  0.10718680569E+03  0.16464961606E+03  0.12498193771E+03 0.  0.
          4    1    3    3  501    0  0.11397346174E+02  0.42847113348E+02  0.11157257479E+03  0.12006921574E+03  0.15500000000E+01 0. -1.
         -4    1    3    3    0  501 -0.11397346174E+02 -0.42847113348E+02 -0.43857691048E+01  0.44580400320E+02  0.15500000000E+01 0. -1.
<mgrwt>
<rscale>  2 0.12498194E+03</rscale>
<asrwt>0</asrwt>
<pdfrwt beam="1">  1       21 0.20910494E-01 0.12498194E+03</pdfrwt>
<pdfrwt beam="2">  1       21 0.44202163E-02 0.12498194E+03</pdfrwt>
<totfact> 0.68987440E+06</totfact>
</mgrwt>
</event>
<event>
 5    0  0.1469287E+000  0.1249961E+03  0.7546771E-02  0.1235075E+00
         21   -1    0    0  503  502  0.00000000000E+00  0.00000000000E+00  0.13788487965E+03  0.13788487965E+03  0.00000000000E+00 0.  1.
         21   -1    0    0  502  503 -0.00000000000E+00 -0.00000000000E+00 -0.28328002370E+02  0.28328002370E+02  0.00000000000E+00 0.  1.
         25    2    1    2    0    0  0.00000000000E+00  0.00000000000E+00  0.10955687728E+03  0.16621288202E+03  0.12499605110E+03 0.  0.
          4    1    3    3  501    0 -0.10163740194E+02 -0.43021998170E+02 -0.39325806773E+01  0.44407900559E+02  0.15500000000E+01 0.  1.
         -4    1    3    3    0  501  0.10163740194E+02  0.43021998170E+02  0.11348945796E+03  0.12180498146E+03  0.15500000000E+01 0.  1.
<mgrwt>
<rscale>  2 0.12499605E+03</rscale>
<asrwt>0</asrwt>
<pdfrwt beam="1">  1       21 0.21213058E-01 0.12499605E+03</pdfrwt>
<pdfrwt beam="2">  1       21 0.43581543E-02 0.12499605E+03</pdfrwt>
<totfact> 0.68775106E+06</totfact>
</mgrwt>
</event>
<event>
 5    0  0.1371771E+000  0.1249986E+03  0.7546771E-02  0.1235071E+00
         21   -1    0    0  503  502  0.00000000000E+00  0.00000000000E+00  0.14129257159E+02  0.14129257159E+02  0.00000000000E+00 0.  1.
         21   -1    0    0  502  503 -0.00000000000E+00 -0.00000000000E+00 -0.27645930638E+03  0.27645930638E+03  0.00000000000E+00 0.  1.
         25    2    1    2    0    0  0.00000000000E+00  0.00000000000E+00 -0.26233004922E+03  0.29058856353E+03  0.12499863413E+03 0.  0.
          4    1    3    3  501    0 -0.28660878723E+02 -0.14748536581E+02 -0.67364389642E+01  0.32965852186E+02  0.15500000000E+01 0. -1.
         -4    1    3    3    0  501  0.28660878723E+02  0.14748536581E+02 -0.25559361025E+03  0.25762271135E+03  0.15500000000E+01 0. -1.
<mgrwt>
<rscale>  2 0.12499863E+03</rscale>
<asrwt>0</asrwt>
<pdfrwt beam="1">  1       21 0.21737320E-02 0.12499863E+03</pdfrwt>
<pdfrwt beam="2">  1       21 0.42532198E-01 0.12499863E+03</pdfrwt>
<totfact> 0.56249416E+06</totfact>
</mgrwt>
</event>
<event>
 5    0  0.1581923E+000  0.1249977E+03  0.7546771E-02  0.1235073E+00
         21   -1    0    0  503  502  0.00000000000E+00  0.00000000000E+00  0.21016606672E+02  0.21016606672E+02  0.00000000000E+00 0. -1.
         21   -1    0    0  502  503 -0.00000000000E+00 -0.00000000000E+00 -0.18585797214E+03  0.18585797214E+03  0.00000000000E+00 0. -1.
         25    2    1    2    0    0  0.00000000000E+00  0.00000000000E+00 -0.16484136547E+03  0.20687457881E+03  0.12499766233E+03 0.  0.
          4    1    3    3  501    0  0.61937270802E+02 -0.34048810248E+01 -0.70048571882E+02  0.93578970137E+02  0.15500000000E+01 0.  1.
         -4    1    3    3    0  501 -0.61937270802E+02  0.34048810248E+01 -0.94792793584E+02  0.11329560867E+03  0.15500000000E+01 0.  1.
<mgrwt>
<rscale>  2 0.12499766E+03</rscale>
<asrwt>0</asrwt>
<pdfrwt beam="1">  1       21 0.32333242E-02 0.12499766E+03</pdfrwt>
<pdfrwt beam="2">  1       21 0.28593533E-01 0.12499766E+03</pdfrwt>
<totfact> 0.64193670E+06</totfact>
</mgrwt>
</event>
<event>
 5    0  0.1335348E+000  0.1249999E+03  0.7546771E-02  0.1235069E+00
         21   -1    0    0  503  502  0.00000000000E+00  0.00000000000E+00  0.46062287577E+03  0.46062287577E+03  0.00000000000E+00 0. -1.
         21   -1    0    0  502  503 -0.00000000000E+00 -0.00000000000E+00 -0.84803486434E+01  0.84803486434E+01  0.00000000000E+00 0. -1.
         25    2    1    2    0    0  0.00000000000E+00  0.00000000000E+00  0.45214252712E+03  0.46910322441E+03  0.12499988127E+03 0.  0.
          4    1    3    3  501    0 -0.31127707255E+02 -0.26552759702E+02  0.40328497108E+03  0.40535805605E+03  0.15500000000E+01 0.  1.
         -4    1    3    3    0  501  0.31127707255E+02  0.26552759702E+02  0.48857556049E+02  0.63745168364E+02  0.15500000000E+01 0.  1.
<mgrwt>
<rscale>  2 0.12499988E+03</rscale>
<asrwt>0</asrwt>
<pdfrwt beam="1">  1       21 0.70865038E-01 0.12499988E+03</pdfrwt>
<pdfrwt beam="2">  1       21 0.13046694E-02 0.12499988E+03</pdfrwt>
<totfact> 0.43770946E+06</totfact>
</mgrwt>
</event>
<event>
 5    0  0.1222151E+000  0.1250044E+03  0.7546771E-02  0.1235062E+00
         21   -1    0    0  503  502  0.00000000000E+00  0.00000000000E+00  0.44940885468E+01  0.44940885468E+01  0.00000000000E+00 0.  1.
         21   -1    0    0  502  503 -0.00000000000E+00 -0.00000000000E+00 -0.86925920579E+03  0.86925920579E+03  0.00000000000E+00 0.  1.
         25    2    1    2    0    0  0.00000000000E+00  0.00000000000E+00 -0.86476511725E+03  0.87375329434E+03  0.12500444538E+03 0.  0.
          4    1    3    3  501    0  0.26964509066E+01 -0.44897331939E+02 -0.73553946907E+03  0.73691502517E+03  0.15500000000E+01 0. -1.
         -4    1    3    3    0  501 -0.26964509066E+01  0.44897331939E+02 -0.12922564818E+03  0.13683826917E+03  0.15500000000E+01 0. -1.
<mgrwt>
<rscale>  2 0.12500445E+03</rscale>
<asrwt>0</asrwt>
<pdfrwt beam="1">  1       21 0.69139827E-03 0.12500445E+03</pdfrwt>
<pdfrwt beam="2">  1       21 0.13373218E+00 0.12500445E+03</pdfrwt>
<totfact> 0.27056577E+06</totfact>
</mgrwt>
</event>
<event>
 5    0  0.1425208E+000  0.1250686E+03  0.7546771E-02  0.1234962E+00
         21   -1    0    0  503  502  0.00000000000E+00  0.00000000000E+00  0.19870581636E+03  0.19870581636E+03  0.00000000000E+00 0.  1.
         21   -1    0    0  502  503 -0.00000000000E+00 -0.00000000000E+00 -0.19680044889E+02  0.19680044889E+02  0.00000000000E+00 0.  1.
         25    2    1    2    0    0  0.00000000000E+00  0.00000000000E+00  0.17902577147E+03  0.21838586125E+03  0.12506861134E+03 0.  0.
          4    1    3    3  501    0 -0.46603062081E+02 -0.10888689806E+02  0.19281872987E+02  0.51619783872E+02  0.15500000000E+01 0.  1.
         -4    1    3    3    0  501  0.46603062081E+02  0.10888689806E+02  0.15974389848E+03  0.16676607738E+03  0.15500000000E+01 0.  1.
<mgrwt>
<rscale>  2 0.12506861E+03</rscale>
<asrwt>0</asrwt>
<pdfrwt beam="1">  1       21 0.30570124E-01 0.12506861E+03</pdfrwt>
<pdfrwt beam="2">  1       21 0.30276994E-02 0.12506861E+03</pdfrwt>
<totfact> 0.62878787E+06</totfact>
</mgrwt>
</event>
<event>
 5    0  0.1490760E+000  0.1249992E+03  0.7546771E-02  0.1235071E+00
         21   -1    0    0  503  502  0.00000000000E+00  0.00000000000E+00  0.17535028237E+03  0.17535028237E+03  0.00000000000E+00 0. -1.
         21   -1    0    0  502  503 -0.00000000000E+00 -0.00000000000E+00 -0.22276558355E+02  0.22276558355E+02  0.00000000000E+00 0. -1.
         25    2    1    2    0    0  0.00000000000E+00  0.00000000000E+00  0.15307372401E+03  0.19762684072E+03  0.12499921276E+03 0.  0.
          4    1    3    3  501    0 -0.21465816150E+02  0.49726507627E+02  0.27288730506E+02  0.60667817963E+02  0.15500000000E+01 0. -1.
         -4    1    3    3    0  501  0.21465816150E+02 -0.49726507627E+02  0.12578499351E+03  0.13695902276E+03  0.15500000000E+01 0. -1.
<mgrwt>
<rscale>  2 0.12499921E+03</rscale>
<asrwt>0</asrwt>
<pdfrwt beam="1">  1       21 0.26976966E-01 0.12499921E+03</pdfrwt>
<pdfrwt beam="2">  1       21 0.34271629E-02 0.12499921E+03</pdfrwt>
<totfact> 0.65185964E+06</totfact>
</mgrwt>
</event>
<event>
 5    0  0.1497322E+000  0.1250046E+03  0.7546771E-02  0.1235062E+00
         21   -1    0    0  503  502  0.00000000000E+00  0.00000000000E+00  0.27299897087E+03  0.27299897087E+03  0.00000000000E+00 0. -1.
         21   -1    0    0  502  503 -0.00000000000E+00 -0.00000000000E+00 -0.14309706857E+02  0.14309706857E+02  0.00000000000E+00 0. -1.
         25    2    1    2    0    0  0.00000000000E+00  0.00000000000E+00  0.25868926401E+03  0.28730867772E+03  0.12500456384E+03 0.  0.
          4    1    3    3  501    0 -0.61015500862E+02  0.35194550832E+01  0.15921080839E+03  0.17054548343E+03  0.15500000000E+01 0.  1.
         -4    1    3    3    0  501  0.61015500862E+02 -0.35194550832E+01  0.99478455617E+02  0.11676319429E+03  0.15500000000E+01 0.  1.
<mgrwt>
<rscale>  2 0.12500456E+03</rscale>
<asrwt>0</asrwt>
<pdfrwt beam="1">  1       21 0.41999838E-01 0.12500456E+03</pdfrwt>
<pdfrwt beam="2">  1       21 0.22014936E-02 0.12500456E+03</pdfrwt>
<totfact> 0.56521160E+06</totfact>
</mgrwt>
</event>
<event>
 5    0  0.1523454E+000  0.1249967E+03  0.7546771E-02  0.1235074E+00
         21   -1    0    0  503  502  0.00000000000E+00  0.00000000000E+00  0.18853133467E+03  0.18853133467E+03  0.00000000000E+00 0. -1.
         21   -1    0    0  502  503 -0.00000000000E+00 -0.00000000000E+00 -0.20718285510E+02  0.20718285510E+02  0.00000000000E+00 0. -1.
         25    2    1    2    0    0  0.00000000000E+00  0.00000000000E+00  0.16781304916E+03  0.20924962018E+03  0.12499673627E+03 0.  0.
          4    1    3    3  501    0 -0.38729012634E+02  0.41845011285E+02  0.41138073701E+02  0.70325564320E+02  0.15500000000E+01 0.  1.
         -4    1    3    3    0  501  0.38729012634E+02 -0.41845011285E+02  0.12667497546E+03  0.13892405586E+03  0.15500000000E+01 0.  1.
<mgrwt>
<rscale>  2 0.12499674E+03</rscale>
<asrwt>0</asrwt>
<pdfrwt beam="1">  1       21 0.29004820E-01 0.12499674E+03</pdfrwt>
<pdfrwt beam="2">  1       21 0.31874287E-02 0.12499674E+03</pdfrwt>
<totfact> 0.63943850E+06</totfact>
</mgrwt>
</event>
<event>
 5    0  0.1436190E+000  0.1249986E+03  0.7546771E-02  0.1235071E+00
         21   -1    0    0  503  502  0.00000000000E+00  0.00000000000E+00  0.33412516854E+03  0.33412516854E+03  0.00000000000E+00 0.  1.
         21   -1    0    0  502  503 -0.00000000000E+00 -0.00000000000E+00 -0.11690715119E+02  0.11690715119E+02  0.00000000000E+00 0.  1.
         25    2    1    2    0    0  0.00000000000E+00  0.00000000000E+00  0.32243445342E+03  0.34581588366E+03  0.12499859454E+03 0.  0.
          4    1    3    3  501    0  0.60992103971E+02  0.78905590726E+01  0.19170740777E+03  0.20133660960E+03  0.15500000000E+01 0.  1.
         -4    1    3    3    0  501 -0.60992103971E+02 -0.78905590726E+01  0.13072704564E+03  0.14447927406E+03  0.15500000000E+01 0.  1.
<mgrwt>
<rscale>  2 0.12499859E+03</rscale>
<asrwt>0</asrwt>
<pdfrwt beam="1">  1       21 0.51403865E-01 0.12499859E+03</pdfrwt>
<pdfrwt beam="2">  1       21 0.17985718E-02 0.12499859E+03</pdfrwt>
<totfact> 0.51850761E+06</totfact>
</mgrwt>
</event>
<event>
 5    0  0.1468883E+000  0.1250006E+03  0.7546771E-02  0.1235068E+00
         21   -1    0    0  503  502  0.00000000000E+00  0.00000000000E+00  0.38137056936E+02  0.38137056936E+02  0.00000000000E+00 0. -1.
         21   -1    0    0  502  503 -0.00000000000E+00 -0.00000000000E+00 -0.10242764245E+03  0.10242764245E+03  0.00000000000E+00 0. -1.
         25    2    1    2    0    0  0.00000000000E+00  0.00000000000E+00 -0.64290585517E+02  0.14056469939E+03  0.12500062131E+03 0.  0.
          4    1    3    3  501    0  0.45463275819E+02 -0.87539081756E+01  0.15035269524E+02  0.48703205092E+02  0.15500000000E+01 0. -1.
         -4    1    3    3    0  501 -0.45463275819E+02  0.87539081756E+01 -0.79325855041E+02  0.91861494298E+02  0.15500000000E+01 0. -1.
<mgrwt>
<rscale>  2 0.12500062E+03</rscale>
<asrwt>0</asrwt>
<pdfrwt beam="1">  1       21 0.58672396E-02 0.12500062E+03</pdfrwt>
<pdfrwt beam="2">  1       21 0.15758099E-01 0.12500062E+03</pdfrwt>
<totfact> 0.71964535E+06</totfact>
</mgrwt>
</event>
<event>
 5    0  0.1222151E+000  0.1250004E+03  0.7546771E-02  0.1235069E+00
         21   -1    0    0  503  502  0.00000000000E+00  0.00000000000E+00  0.19329721037E+01  0.19329721037E+01  0.00000000000E+00 0.  1.
         21   -1    0    0  502  503 -0.00000000000E+00 -0.00000000000E+00 -0.20208643027E+04  0.20208643027E+04  0.00000000000E+00 0.  1.
         25    2    1    2    0    0  0.00000000000E+00  0.00000000000E+00 -0.20189313306E+04  0.20227972748E+04  0.12500038916E+03 0.  0.
          4    1    3    3  501    0 -0.25732030474E+02  0.55815423770E+02 -0.11913804387E+04  0.11929657376E+04  0.15500000000E+01 0.  1.
         -4    1    3    3    0  501  0.25732030474E+02 -0.55815423770E+02 -0.82755089191E+03  0.82983153719E+03  0.15500000000E+01 0.  1.
<mgrwt>
<rscale>  2 0.12500039E+03</rscale>
<asrwt>0</asrwt>
<pdfrwt beam="1">  1       21 0.29737935E-03 0.12500039E+03</pdfrwt>
<pdfrwt beam="2">  1       21 0.31090322E+00 0.12500039E+03</pdfrwt>
<totfact> 0.77276213E+05</totfact>
</mgrwt>
</event>
<event>
 5    0  0.1585313E+000  0.1249976E+03  0.7546771E-02  0.1235073E+00
         21   -1    0    0  503  502  0.00000000000E+00  0.00000000000E+00  0.12217857617E+03  0.12217857617E+03  0.00000000000E+00 0.  1.
         21   -1    0    0  502  503 -0.00000000000E+00 -0.00000000000E+00 -0.31970414265E+02  0.31970414265E+02  0.00000000000E+00 0.  1.
         25    2    1    2    0    0  0.00000000000E+00  0.00000000000E+00  0.90208161905E+02  0.15414899044E+03  0.12499759509E+03 0.  0.
          4    1    3    3  501    0 -0.24169748833E+02  0.56459620844E+02  0.59263612037E+02  0.85360668672E+02  0.15500000000E+01 0. -1.
         -4    1    3    3    0  501  0.24169748833E+02 -0.56459620844E+02  0.30944549868E+02  0.68788321763E+02  0.15500000000E+01 0. -1.
<mgrwt>
<rscale>  2 0.12499760E+03</rscale>
<asrwt>0</asrwt>
<pdfrwt beam="1">  1       21 0.18796704E-01 0.12499760E+03</pdfrwt>
<pdfrwt beam="2">  1       21 0.49185253E-02 0.12499760E+03</pdfrwt>
<totfact> 0.70245880E+06</totfact>
</mgrwt>
</event>
<event>
 5    0  0.1468221E+000  0.1249950E+03  0.7546771E-02  0.1235077E+00
         21   -1    0    0  503  502  0.00000000000E+00  0.00000000000E+00  0.14292912388E+03  0.14292912388E+03  0.00000000000E+00 0.  1.
         21   -1    0    0  502  503 -0.00000000000E+00 -0.00000000000E+00 -0.27327787613E+02  0.27327787613E+02  0.00000000000E+00 0.  1.
         25    2    1    2    0    0  0.00000000000E+00  0.00000000000E+00  0.11560133626E+03  0.17025691149E+03  0.12499498775E+03 0.  0.
          4    1    3    3  501    0  0.27361812303E+02  0.28028927321E+02 -0.84998788882E+01  0.40111594089E+02  0.15500000000E+01 0. -1.
         -4    1    3    3    0  501 -0.27361812303E+02 -0.28028927321E+02  0.12410121515E+03  0.13014531740E+03  0.15500000000E+01 0. -1.
<mgrwt>
<rscale>  2 0.12499499E+03</rscale>
<asrwt>0</asrwt>
<pdfrwt beam="1">  1       21 0.21989096E-01 0.12499499E+03</pdfrwt>
<pdfrwt beam="2">  1       21 0.42042751E-02 0.12499499E+03</pdfrwt>
<totfact> 0.68295883E+06</totfact>
</mgrwt>
</event>
<event>
 5    0  0.1504741E+000  0.1249967E+03  0.7546771E-02  0.1235075E+00
         21   -1    0    0  503  502  0.00000000000E+00  0.00000000000E+00  0.38552281031E+02  0.38552281031E+02  0.00000000000E+00 0. -1.
         21   -1    0    0  502  503 -0.00000000000E+00 -0.00000000000E+00 -0.10131801773E+03  0.10131801773E+03  0.00000000000E+00 0. -1.
         25    2    1    2    0    0  0.00000000000E+00  0.00000000000E+00 -0.62765736700E+02  0.13987029876E+03  0.12499665104E+03 0.  0.
          4    1    3    3  501    0  0.61248418041E+02  0.10295005025E+02 -0.38995500345E+02  0.73351260304E+02  0.15500000000E+01 0. -1.
         -4    1    3    3    0  501 -0.61248418041E+02 -0.10295005025E+02 -0.23770236355E+02  0.66519038458E+02  0.15500000000E+01 0. -1.
<mgrwt>
<rscale>  2 0.12499665E+03</rscale>
<asrwt>0</asrwt>
<pdfrwt beam="1">  1       21 0.59311202E-02 0.12499665E+03</pdfrwt>
<pdfrwt beam="2">  1       21 0.15587387E-01 0.12499665E+03</pdfrwt>
<totfact> 0.72062393E+06</totfact>
</mgrwt>
</event>
<event>
 5    0  0.1365122E+000  0.1249997E+03  0.7546771E-02  0.1235070E+00
         21   -1    0    0  503  502  0.00000000000E+00  0.00000000000E+00  0.53981465089E+03  0.53981465089E+03  0.00000000000E+00 0.  1.
         21   -1    0    0  502  503 -0.00000000000E+00 -0.00000000000E+00 -0.72362417288E+01  0.72362417288E+01  0.00000000000E+00 0.  1.
         25    2    1    2    0    0  0.00000000000E+00  0.00000000000E+00  0.53257840916E+03  0.54705089261E+03  0.12499966884E+03 0.  0.
          4    1    3    3  501    0 -0.89611104880E+01  0.44056857761E+02  0.45617326276E+03  0.45838603423E+03  0.15500000000E+01 0.  1.
         -4    1    3    3    0  501  0.89611104880E+01 -0.44056857761E+02  0.76405146396E+02  0.88664858387E+02  0.15500000000E+01 0.  1.
<mgrwt>
<rscale>  2 0.12499967E+03</rscale>
<asrwt>0</asrwt>
<pdfrwt beam="1">  1       21 0.83048376E-01 0.12499967E+03</pdfrwt>
<pdfrwt beam="2">  1       21 0.11132684E-02 0.12499967E+03</pdfrwt>
<totfact> 0.39602523E+06</totfact>
</mgrwt>
</event>
