<event>
 5    0  0.1550093E+000  0.1249948E+03  0.7546771E-02  0.1235077E+00
         21   -1    0    0  503  502  0.00000000000E+00  0.00000000000E+00  0.32223878816E+02  0.32223878816E+02  0.00000000000E+00 0.  1.
         21   -1    0    0  502  503 -0.00000000000E+00 -0.00000000000E+00 -0.12121203820E+03  0.12121203820E+03  0.00000000000E+00 0.  1.
         25    2    1    2    0    0  0.00000000000E+00  0.00000000000E+00 -0.88988159385E+02  0.15343591702E+03  0.12499475237E+03 0.  0.
          4    1    3    3  501    0 -0.55845868358E+02 -0.20094010112E+02 -0.68454345292E+02  0.90614182910E+02  0.15500000000E+01 0.  1.
         -4    1    3    3    0  501  0.55845868358E+02  0.20094010112E+02 -0.20533814093E+02  0.62821734107E+02  0.15500000000E+01 0.  1.
<mgrwt>
<rscale>  2 0.12499475E+03</rscale>
<asrwt>0</asrwt>
<pdfrwt beam="1">  1       21 0.49575198E-02 0.12499475E+03</pdfrwt>
<pdfrwt beam="2">  1       21 0.18648006E-01 0.12499475E+03</pdfrwt>
<totfact> 0.70339601E+06</totfact>
</mgrwt>
</event>
<event>
 5    0  0.1222151E+000  0.1250028E+03  0.7546771E-02  0.1235065E+00
         21   -1    0    0  503  502  0.00000000000E+00  0.00000000000E+00  0.15796026548E+01  0.15796026548E+01  0.00000000000E+00 0.  1.
         21   -1    0    0  502  503 -0.00000000000E+00 -0.00000000000E+00 -0.24730415048E+04  0.24730415048E+04  0.00000000000E+00 0.  1.
         25    2    1    2    0    0  0.00000000000E+00  0.00000000000E+00 -0.24714619021E+04  0.24746211074E+04  0.12500276679E+03 0.  0.
          4    1    3    3  501    0  0.33775258062E+02  0.46730088812E+02 -0.75915186479E+03  0.76133988834E+03  0.15500000000E+01 0.  1.
         -4    1    3    3    0  501 -0.33775258062E+02 -0.46730088812E+02 -0.17123100373E+04  0.17132812191E+04  0.15500000000E+01 0.  1.
<mgrwt>
<rscale>  2 0.12500277E+03</rscale>
<asrwt>0</asrwt>
<pdfrwt beam="1">  1       21 0.24301605E-03 0.12500277E+03</pdfrwt>
<pdfrwt beam="2">  1       21 0.38046752E+00 0.12500277E+03</pdfrwt>
<totfact> 0.41785215E+05</totfact>
</mgrwt>
</event>
<event>
 5    0  0.1527659E+000  0.1249984E+03  0.7546771E-02  0.1235072E+00
         21   -1    0    0  503  502  0.00000000000E+00  0.00000000000E+00  0.30047124095E+02  0.30047124095E+02  0.00000000000E+00 0. -1.
         21   -1    0    0  502  503 -0.00000000000E+00 -0.00000000000E+00 -0.13000074403E+03  0.13000074403E+03  0.00000000000E+00 0. -1.
         25    2    1    2    0    0  0.00000000000E+00  0.00000000000E+00 -0.99953619936E+02  0.16004786813E+03  0.12499837580E+03 0.  0.
          4    1    3    3  501    0  0.29330832169E+02  0.16719562983E+02 -0.11729106427E+03  0.12206325311E+03  0.15500000000E+01 0. -1.
         -4    1    3    3    0  501 -0.29330832169E+02 -0.16719562983E+02  0.17337444333E+02  0.37984615018E+02  0.15500000000E+01 0. -1.
<mgrwt>
<rscale>  2 0.12499838E+03</rscale>
<asrwt>0</asrwt>
<pdfrwt beam="1">  1       21 0.46226345E-02 0.12499838E+03</pdfrwt>
<pdfrwt beam="2">  1       21 0.20000114E-01 0.12499838E+03</pdfrwt>
<totfact> 0.69516518E+06</totfact>
</mgrwt>
</event>
<event>
 5    0  0.1452113E+000  0.1249923E+03  0.7546771E-02  0.1235081E+00
         21   -1    0    0  503  502  0.00000000000E+00  0.00000000000E+00  0.21866616021E+02  0.21866616021E+02  0.00000000000E+00 0. -1.
         21   -1    0    0  502  503 -0.00000000000E+00 -0.00000000000E+00 -0.17861799148E+03  0.17861799148E+03  0.00000000000E+00 0. -1.
         25    2    1    2    0    0  0.00000000000E+00  0.00000000000E+00 -0.15675137546E+03  0.20048460750E+03  0.12499233631E+03 0.  0.
          4    1    3    3  501    0  0.58309505743E+02 -0.97399300952E+01 -0.11079439690E+03  0.12558927336E+03  0.15500000000E+01 0. -1.
         -4    1    3    3    0  501 -0.58309505743E+02  0.97399300952E+01 -0.45956978558E+02  0.74895334143E+02  0.15500000000E+01 0. -1.
<mgrwt>
<rscale>  2 0.12499234E+03</rscale>
<asrwt>0</asrwt>
<pdfrwt beam="1">  1       21 0.33640948E-02 0.12499234E+03</pdfrwt>
<pdfrwt beam="2">  1       21 0.27479690E-01 0.12499234E+03</pdfrwt>
<totfact> 0.64887368E+06</totfact>
</mgrwt>
</event>
<event>
 5    0  0.1519347E+000  0.1250013E+03  0.7546771E-02  0.1235067E+00
         21   -1    0    0  503  502  0.00000000000E+00  0.00000000000E+00  0.68718857518E+02  0.68718857518E+02  0.00000000000E+00 0.  1.
         21   -1    0    0  502  503 -0.00000000000E+00 -0.00000000000E+00 -0.56845155458E+02  0.56845155458E+02  0.00000000000E+00 0.  1.
         25    2    1    2    0    0  0.00000000000E+00  0.00000000000E+00  0.11873702060E+02  0.12556401298E+03  0.12500134621E+03 0.  0.
          4    1    3    3  501    0  0.10555733385E+02 -0.46094950666E+02 -0.35085235790E+02  0.58902837408E+02  0.15500000000E+01 0. -1.
         -4    1    3    3    0  501 -0.10555733385E+02  0.46094950666E+02  0.46958937850E+02  0.66661175569E+02  0.15500000000E+01 0. -1.
<mgrwt>
<rscale>  2 0.12500135E+03</rscale>
<asrwt>0</asrwt>
<pdfrwt beam="1">  1       21 0.10572132E-01 0.12500135E+03</pdfrwt>
<pdfrwt beam="2">  1       21 0.87454085E-02 0.12500135E+03</pdfrwt>
<totfact> 0.73963919E+06</totfact>
</mgrwt>
</event>
<event>
 5    0  0.1512433E+000  0.1249971E+03  0.7546771E-02  0.1235074E+00
         21   -1    0    0  503  502  0.00000000000E+00  0.00000000000E+00  0.83535689159E+02  0.83535689159E+02  0.00000000000E+00 0.  1.
         21   -1    0    0  502  503 -0.00000000000E+00 -0.00000000000E+00 -0.46759303418E+02  0.46759303418E+02  0.00000000000E+00 0.  1.
         25    2    1    2    0    0  0.00000000000E+00  0.00000000000E+00  0.36776385741E+02  0.13029499258E+03  0.12499713014E+03 0.  0.
          4    1    3    3  501    0 -0.25629290595E+02  0.16110196347E+02  0.75360638434E+02  0.81228241935E+02  0.15500000000E+01 0. -1.
         -4    1    3    3    0  501  0.25629290595E+02 -0.16110196347E+02 -0.38584252693E+02  0.49066750642E+02  0.15500000000E+01 0. -1.
<mgrwt>
<rscale>  2 0.12499713E+03</rscale>
<asrwt>0</asrwt>
<pdfrwt beam="1">  1       21 0.12851645E-01 0.12499713E+03</pdfrwt>
<pdfrwt beam="2">  1       21 0.71937390E-02 0.12499713E+03</pdfrwt>
<totfact> 0.73330888E+06</totfact>
</mgrwt>
</event>
<event>
 5    0  0.1287558E+000  0.1250061E+03  0.7546771E-02  0.1235060E+00
         21   -1    0    0  503  502  0.00000000000E+00  0.00000000000E+00  0.12947732670E+02  0.12947732670E+02  0.00000000000E+00 0.  1.
         21   -1    0    0  502  503 -0.00000000000E+00 -0.00000000000E+00 -0.30172300116E+03  0.30172300116E+03  0.00000000000E+00 0.  1.
         25    2    1    2    0    0  0.00000000000E+00  0.00000000000E+00 -0.28877526849E+03  0.31467073383E+03  0.12500606001E+03 0.  0.
          4    1    3    3  501    0 -0.19981004258E+02  0.29444820612E+02 -0.15098592779E+02  0.38686018094E+02  0.15500000000E+01 0. -1.
         -4    1    3    3    0  501  0.19981004258E+02 -0.29444820612E+02 -0.27367667571E+03  0.27598471573E+03  0.15500000000E+01 0. -1.
<mgrwt>
<rscale>  2 0.12500606E+03</rscale>
<asrwt>0</asrwt>
<pdfrwt beam="1">  1       21 0.19919592E-02 0.12500606E+03</pdfrwt>
<pdfrwt beam="2">  1       21 0.46418916E-01 0.12500606E+03</pdfrwt>
<totfact> 0.54250132E+06</totfact>
</mgrwt>
</event>
<event>
 5    0  0.1534157E+000  0.1249983E+03  0.7546771E-02  0.1235072E+00
         21   -1    0    0  503  502  0.00000000000E+00  0.00000000000E+00  0.59415344982E+02  0.59415344982E+02  0.00000000000E+00 0.  1.
         21   -1    0    0  502  503 -0.00000000000E+00 -0.00000000000E+00 -0.65742974763E+02  0.65742974763E+02  0.00000000000E+00 0.  1.
         25    2    1    2    0    0  0.00000000000E+00  0.00000000000E+00 -0.63276297813E+01  0.12515831975E+03  0.12499826440E+03 0.  0.
          4    1    3    3  501    0  0.25027029101E+02  0.13357150442E+02 -0.58903519586E+02  0.65397192395E+02  0.15500000000E+01 0. -1.
         -4    1    3    3    0  501 -0.25027029101E+02 -0.13357150442E+02  0.52575889804E+02  0.59761127351E+02  0.15500000000E+01 0. -1.
<mgrwt>
<rscale>  2 0.12499826E+03</rscale>
<asrwt>0</asrwt>
<pdfrwt beam="1">  1       21 0.91408224E-02 0.12499826E+03</pdfrwt>
<pdfrwt beam="2">  1       21 0.10114304E-01 0.12499826E+03</pdfrwt>
<totfact> 0.74025484E+06</totfact>
</mgrwt>
</event>
<event>
 5    0  0.1361334E+000  0.1250036E+03  0.7546771E-02  0.1235064E+00
         21   -1    0    0  503  502  0.00000000000E+00  0.00000000000E+00  0.41177588233E+02  0.41177588233E+02  0.00000000000E+00 0. -1.
         21   -1    0    0  502  503 -0.00000000000E+00 -0.00000000000E+00 -0.94868975711E+02  0.94868975711E+02  0.00000000000E+00 0. -1.
         25    2    1    2    0    0  0.00000000000E+00  0.00000000000E+00 -0.53691387478E+02  0.13604656394E+03  0.12500360983E+03 0.  0.
          4    1    3    3  501    0 -0.20050951543E+02 -0.13203074421E+01  0.37544093465E+02  0.42611563262E+02  0.15500000000E+01 0.  1.
         -4    1    3    3    0  501  0.20050951543E+02  0.13203074421E+01 -0.91235480943E+02  0.93435000681E+02  0.15500000000E+01 0.  1.
<mgrwt>
<rscale>  2 0.12500361E+03</rscale>
<asrwt>0</asrwt>
<pdfrwt beam="1">  1       21 0.63350136E-02 0.12500361E+03</pdfrwt>
<pdfrwt beam="2">  1       21 0.14595227E-01 0.12500361E+03</pdfrwt>
<totfact> 0.72551516E+06</totfact>
</mgrwt>
</event>
<event>
 5    0  0.1547937E+000  0.1250125E+03  0.7546771E-02  0.1235050E+00
         21   -1    0    0  503  502  0.00000000000E+00  0.00000000000E+00  0.35973712561E+02  0.35973712561E+02  0.00000000000E+00 0.  1.
         21   -1    0    0  502  503 -0.00000000000E+00 -0.00000000000E+00 -0.10860794563E+03  0.10860794563E+03  0.00000000000E+00 0.  1.
         25    2    1    2    0    0  0.00000000000E+00  0.00000000000E+00 -0.72634233069E+02  0.14458165819E+03  0.12501249566E+03 0.  0.
          4    1    3    3  501    0  0.41925743292E+02 -0.18008135976E+02 -0.85691490211E+02  0.97095287767E+02  0.15500000000E+01 0. -1.
         -4    1    3    3    0  501 -0.41925743292E+02  0.18008135976E+02  0.13057257142E+02  0.47486370424E+02  0.15500000000E+01 0. -1.
<mgrwt>
<rscale>  2 0.12501250E+03</rscale>
<asrwt>0</asrwt>
<pdfrwt beam="1">  1       21 0.55344173E-02 0.12501250E+03</pdfrwt>
<pdfrwt beam="2">  1       21 0.16708915E-01 0.12501250E+03</pdfrwt>
<totfact> 0.71423946E+06</totfact>
</mgrwt>
</event>
<event>
 5    0  0.1609116E+000  0.1249994E+03  0.7546771E-02  0.1235070E+00
         21   -1    0    0  503  502  0.00000000000E+00  0.00000000000E+00  0.86937279348E+02  0.86937279348E+02  0.00000000000E+00 0.  1.
         21   -1    0    0  502  503 -0.00000000000E+00 -0.00000000000E+00 -0.44931354952E+02  0.44931354952E+02  0.00000000000E+00 0.  1.
         25    2    1    2    0    0  0.00000000000E+00  0.00000000000E+00  0.42005924396E+02  0.13186863430E+03  0.12499935611E+03 0.  0.
          4    1    3    3  501    0 -0.37915588037E+02 -0.47789354564E+02  0.35250435534E+02  0.70472760207E+02  0.15500000000E+01 0. -1.
         -4    1    3    3    0  501  0.37915588037E+02  0.47789354564E+02  0.67554888622E+01  0.61395874093E+02  0.15500000000E+01 0. -1.
<mgrwt>
<rscale>  2 0.12499936E+03</rscale>
<asrwt>0</asrwt>
<pdfrwt beam="1">  1       21 0.13374966E-01 0.12499936E+03</pdfrwt>
<pdfrwt beam="2">  1       21 0.69125161E-02 0.12499936E+03</pdfrwt>
<totfact> 0.73115055E+06</totfact>
</mgrwt>
</event>
<event>
 5    0  0.1222151E+000  0.1249995E+03  0.7546771E-02  0.1235070E+00
         21   -1    0    0  503  502  0.00000000000E+00  0.00000000000E+00  0.91781077596E+03  0.91781077596E+03  0.00000000000E+00 0.  1.
         21   -1    0    0  502  503 -0.00000000000E+00 -0.00000000000E+00 -0.42560168347E+01  0.42560168347E+01  0.00000000000E+00 0.  1.
         25    2    1    2    0    0  0.00000000000E+00  0.00000000000E+00  0.91355475913E+03  0.92206679280E+03  0.12499948982E+03 0.  0.
          4    1    3    3  501    0  0.33397914351E+01 -0.33170048541E+02  0.66975725138E+02  0.74830184985E+02  0.15500000000E+01 0.  1.
         -4    1    3    3    0  501 -0.33397914351E+01  0.33170048541E+02  0.84657903399E+03  0.84723660781E+03  0.15500000000E+01 0.  1.
<mgrwt>
<rscale>  2 0.12499949E+03</rscale>
<asrwt>0</asrwt>
<pdfrwt beam="1">  1       21 0.14120150E+00 0.12499949E+03</pdfrwt>
<pdfrwt beam="2">  1       21 0.65477255E-03 0.12499949E+03</pdfrwt>
<totfact> 0.25674822E+06</totfact>
</mgrwt>
</event>
<event>
 5    0  0.1603833E+000  0.1250021E+03  0.7546771E-02  0.1235066E+00
         21   -1    0    0  503  502  0.00000000000E+00  0.00000000000E+00  0.76474681612E+02  0.76474681612E+02  0.00000000000E+00 0. -1.
         21   -1    0    0  502  503 -0.00000000000E+00 -0.00000000000E+00 -0.51080701685E+02  0.51080701685E+02  0.00000000000E+00 0. -1.
         25    2    1    2    0    0  0.00000000000E+00  0.00000000000E+00  0.25393979927E+02  0.12755538330E+03  0.12500208635E+03 0.  0.
          4    1    3    3  501    0 -0.52249000882E+02  0.33761601306E+02  0.18662257952E+02  0.64965269089E+02  0.15500000000E+01 0. -1.
         -4    1    3    3    0  501  0.52249000882E+02 -0.33761601306E+02  0.67317219747E+01  0.62590114209E+02  0.15500000000E+01 0. -1.
<mgrwt>
<rscale>  2 0.12500209E+03</rscale>
<asrwt>0</asrwt>
<pdfrwt beam="1">  1       21 0.11765336E-01 0.12500209E+03</pdfrwt>
<pdfrwt beam="2">  1       21 0.78585695E-02 0.12500209E+03</pdfrwt>
<totfact> 0.73689787E+06</totfact>
</mgrwt>
</event>
<event>
 5    0  0.1500899E+000  0.1250023E+03  0.7546771E-02  0.1235066E+00
         21   -1    0    0  503  502  0.00000000000E+00  0.00000000000E+00  0.29061840007E+02  0.29061840007E+02  0.00000000000E+00 0.  1.
         21   -1    0    0  502  503 -0.00000000000E+00 -0.00000000000E+00 -0.13441670121E+03  0.13441670121E+03  0.00000000000E+00 0.  1.
         25    2    1    2    0    0  0.00000000000E+00  0.00000000000E+00 -0.10535486120E+03  0.16347854122E+03  0.12500234662E+03 0.  0.
          4    1    3    3  501    0 -0.25788745491E+02  0.32115093929E+02  0.87692468279E+01  0.42139540125E+02  0.15500000000E+01 0.  1.
         -4    1    3    3    0  501  0.25788745491E+02 -0.32115093929E+02 -0.11412410803E+03  0.12133900109E+03  0.15500000000E+01 0.  1.
<mgrwt>
<rscale>  2 0.12500235E+03</rscale>
<asrwt>0</asrwt>
<pdfrwt beam="1">  1       21 0.44710524E-02 0.12500235E+03</pdfrwt>
<pdfrwt beam="2">  1       21 0.20679492E-01 0.12500235E+03</pdfrwt>
<totfact> 0.69092814E+06</totfact>
</mgrwt>
</event>
<event>
 5    0  0.1405111E+000  0.1249945E+03  0.7546771E-02  0.1235078E+00
         21   -1    0    0  503  502  0.00000000000E+00  0.00000000000E+00  0.83263873172E+01  0.83263873172E+01  0.00000000000E+00 0. -1.
         21   -1    0    0  502  503 -0.00000000000E+00 -0.00000000000E+00 -0.46909981203E+03  0.46909981203E+03  0.00000000000E+00 0. -1.
         25    2    1    2    0    0  0.00000000000E+00  0.00000000000E+00 -0.46077342472E+03  0.47742619935E+03  0.12499450749E+03 0.  0.
          4    1    3    3  501    0 -0.61640020796E+02  0.95374933521E+01 -0.24418394504E+03  0.25202908058E+03  0.15500000000E+01 0.  1.
         -4    1    3    3    0  501  0.61640020796E+02 -0.95374933521E+01 -0.21658947968E+03  0.22539711877E+03  0.15500000000E+01 0.  1.
<mgrwt>
<rscale>  2 0.12499451E+03</rscale>
<asrwt>0</asrwt>
<pdfrwt beam="1">  1       21 0.12809824E-02 0.12499451E+03</pdfrwt>
<pdfrwt beam="2">  1       21 0.72169216E-01 0.12499451E+03</pdfrwt>
<totfact> 0.43301286E+06</totfact>
</mgrwt>
</event>
<event>
 5    0  0.1401780E+000  0.1249945E+03  0.7546771E-02  0.1235078E+00
         21   -1    0    0  503  502  0.00000000000E+00  0.00000000000E+00  0.43499195979E+03  0.43499195979E+03  0.00000000000E+00 0. -1.
         21   -1    0    0  502  503 -0.00000000000E+00 -0.00000000000E+00 -0.89792665982E+01  0.89792665982E+01  0.00000000000E+00 0. -1.
         25    2    1    2    0    0  0.00000000000E+00  0.00000000000E+00  0.42601269320E+03  0.44397122639E+03  0.12499454028E+03 0.  0.
          4    1    3    3  501    0 -0.52376165199E+01 -0.53673868881E+02  0.32505758536E+03  0.32950440532E+03  0.15500000000E+01 0.  1.
         -4    1    3    3    0  501  0.52376165199E+01  0.53673868881E+02  0.10095510784E+03  0.11446682107E+03  0.15500000000E+01 0.  1.
<mgrwt>
<rscale>  2 0.12499454E+03</rscale>
<asrwt>0</asrwt>
<pdfrwt beam="1">  1       21 0.66921823E-01 0.12499454E+03</pdfrwt>
<pdfrwt beam="2">  1       21 0.13814260E-02 0.12499454E+03</pdfrwt>
<totfact> 0.45261397E+06</totfact>
</mgrwt>
</event>
<event>
 5    0  0.1287327E+000  0.1250040E+03  0.7546771E-02  0.1235063E+00
         21   -1    0    0  503  502  0.00000000000E+00  0.00000000000E+00  0.68975207774E+01  0.68975207774E+01  0.00000000000E+00 0. -1.
         21   -1    0    0  502  503 -0.00000000000E+00 -0.00000000000E+00 -0.56636295757E+03  0.56636295757E+03  0.00000000000E+00 0. -1.
         25    2    1    2    0    0  0.00000000000E+00  0.00000000000E+00 -0.55946543679E+03  0.57326047835E+03  0.12500400421E+03 0.  0.
          4    1    3    3  501    0 -0.20448421325E+02  0.40393524552E+02 -0.82253786200E+02  0.93903474934E+02  0.15500000000E+01 0. -1.
         -4    1    3    3    0  501  0.20448421325E+02 -0.40393524552E+02 -0.47721165059E+03  0.47935700341E+03  0.15500000000E+01 0. -1.
<mgrwt>
<rscale>  2 0.12500400E+03</rscale>
<asrwt>0</asrwt>
<pdfrwt beam="1">  1       21 0.10611573E-02 0.12500400E+03</pdfrwt>
<pdfrwt beam="2">  1       21 0.87132740E-01 0.12500400E+03</pdfrwt>
<totfact> 0.38326696E+06</totfact>
</mgrwt>
</event>
<event>
 5    0  0.1523565E+000  0.1250003E+03  0.7546771E-02  0.1235069E+00
         21   -1    0    0  503  502  0.00000000000E+00  0.00000000000E+00  0.75576980351E+02  0.75576980351E+02  0.00000000000E+00 0.  1.
         21   -1    0    0  502  503 -0.00000000000E+00 -0.00000000000E+00 -0.51685973943E+02  0.51685973943E+02  0.00000000000E+00 0.  1.
         25    2    1    2    0    0  0.00000000000E+00  0.00000000000E+00  0.23891006408E+02  0.12726295429E+03  0.12500031739E+03 0.  0.
          4    1    3    3  501    0 -0.43522948500E+02 -0.44611356185E+02  0.16435223820E+02  0.64474329999E+02  0.15500000000E+01 0. -1.
         -4    1    3    3    0  501  0.43522948500E+02  0.44611356185E+02  0.74557825881E+01  0.62788624295E+02  0.15500000000E+01 0. -1.
<mgrwt>
<rscale>  2 0.12500032E+03</rscale>
<asrwt>0</asrwt>
<pdfrwt beam="1">  1       21 0.11627228E-01 0.12500032E+03</pdfrwt>
<pdfrwt beam="2">  1       21 0.79516883E-02 0.12500032E+03</pdfrwt>
<totfact> 0.73732785E+06</totfact>
</mgrwt>
</event>
<event>
 5    0  0.1550822E+000  0.1249945E+03  0.7546771E-02  0.1235078E+00
         21   -1    0    0  503  502  0.00000000000E+00  0.00000000000E+00  0.19166149172E+02  0.19166149172E+02  0.00000000000E+00 0.  1.
         21   -1    0    0  502  503 -0.00000000000E+00 -0.00000000000E+00 -0.20379180773E+03  0.20379180773E+03  0.00000000000E+00 0.  1.
         25    2    1    2    0    0  0.00000000000E+00  0.00000000000E+00 -0.18462565855E+03  0.22295795690E+03  0.12499446687E+03 0.  0.
          4    1    3    3  501    0 -0.74713647828E+01  0.55533312064E+02 -0.14160779634E+03  0.15229885267E+03  0.15500000000E+01 0. -1.
         -4    1    3    3    0  501  0.74713647828E+01 -0.55533312064E+02 -0.43017862209E+02  0.70659104223E+02  0.15500000000E+01 0. -1.
<mgrwt>
<rscale>  2 0.12499447E+03</rscale>
<asrwt>0</asrwt>
<pdfrwt beam="1">  1       21 0.29486383E-02 0.12499447E+03</pdfrwt>
<pdfrwt beam="2">  1       21 0.31352586E-01 0.12499447E+03</pdfrwt>
<totfact> 0.62530207E+06</totfact>
</mgrwt>
</event>
<event>
 5    0  0.1222151E+000  0.1249956E+03  0.7546771E-02  0.1235076E+00
         21   -1    0    0  503  502  0.00000000000E+00  0.00000000000E+00  0.36577212831E+01  0.36577212831E+01  0.00000000000E+00 0.  1.
         21   -1    0    0  502  503 -0.00000000000E+00 -0.00000000000E+00 -0.10678715923E+04  0.10678715923E+04  0.00000000000E+00 0.  1.
         25    2    1    2    0    0  0.00000000000E+00  0.00000000000E+00 -0.10642138710E+04  0.10715293136E+04  0.12499562634E+03 0.  0.
          4    1    3    3  501    0  0.42931846200E+02 -0.22827161703E+02 -0.86844663191E+03  0.86980812695E+03  0.15500000000E+01 0.  1.
         -4    1    3    3    0  501 -0.42931846200E+02  0.22827161703E+02 -0.19576723908E+03  0.20172118661E+03  0.15500000000E+01 0.  1.
<mgrwt>
<rscale>  2 0.12499563E+03</rscale>
<asrwt>0</asrwt>
<pdfrwt beam="1">  1       21 0.56272615E-03 0.12499563E+03</pdfrwt>
<pdfrwt beam="2">  1       21 0.16428800E+00 0.12499563E+03</pdfrwt>
<totfact> 0.21898322E+06</totfact>
</mgrwt>
</event>
<event>
 5    0  0.1285293E+000  0.1250215E+03  0.7546771E-02  0.1235036E+00
         21   -1    0    0  503  502  0.00000000000E+00  0.00000000000E+00  0.52970028421E+03  0.52970028421E+03  0.00000000000E+00 0. -1.
         21   -1    0    0  502  503 -0.00000000000E+00 -0.00000000000E+00 -0.73769883106E+01  0.73769883106E+01  0.00000000000E+00 0. -1.
         25    2    1    2    0    0  0.00000000000E+00  0.00000000000E+00  0.52232329590E+03  0.53707727252E+03  0.12502148303E+03 0.  0.
          4    1    3    3  501    0  0.10498512699E+02  0.29774310714E+02  0.29484167086E+02  0.43225535927E+02  0.15500000000E+01 0. -1.
         -4    1    3    3    0  501 -0.10498512699E+02 -0.29774310714E+02  0.49283912881E+03  0.49385173659E+03  0.15500000000E+01 0. -1.
<mgrwt>
<rscale>  2 0.12502148E+03</rscale>
<asrwt>0</asrwt>
<pdfrwt beam="1">  1       21 0.81492322E-01 0.12502148E+03</pdfrwt>
<pdfrwt beam="2">  1       21 0.11349217E-02 0.12502148E+03</pdfrwt>
<totfact> 0.40080709E+06</totfact>
</mgrwt>
</event>
<event>
 5    0  0.1486976E+000  0.1249946E+03  0.7546771E-02  0.1235078E+00
         21   -1    0    0  503  502  0.00000000000E+00  0.00000000000E+00  0.71990343329E+02  0.71990343329E+02  0.00000000000E+00 0.  1.
         21   -1    0    0  502  503 -0.00000000000E+00 -0.00000000000E+00 -0.54256064866E+02  0.54256064866E+02  0.00000000000E+00 0.  1.
         25    2    1    2    0    0  0.00000000000E+00  0.00000000000E+00  0.17734278463E+02  0.12624640819E+03  0.12499460368E+03 0.  0.
          4    1    3    3  501    0 -0.27282456264E+02 -0.40941698932E+02 -0.30027681035E+02  0.57659511441E+02  0.15500000000E+01 0.  1.
         -4    1    3    3    0  501  0.27282456264E+02  0.40941698932E+02  0.47761959497E+02  0.68586896754E+02  0.15500000000E+01 0.  1.
<mgrwt>
<rscale>  2 0.12499460E+03</rscale>
<asrwt>0</asrwt>
<pdfrwt beam="1">  1       21 0.11075437E-01 0.12499460E+03</pdfrwt>
<pdfrwt beam="2">  1       21 0.83470869E-02 0.12499460E+03</pdfrwt>
<totfact> 0.73882308E+06</totfact>
</mgrwt>
</event>
<event>
 5    0  0.1382020E+000  0.1249615E+03  0.7546771E-02  0.1235130E+00
         21   -1    0    0  503  502  0.00000000000E+00  0.00000000000E+00  0.16533643242E+02  0.16533643242E+02  0.00000000000E+00 0.  1.
         21   -1    0    0  502  503 -0.00000000000E+00 -0.00000000000E+00 -0.23611502519E+03  0.23611502519E+03  0.00000000000E+00 0.  1.
         25    2    1    2    0    0  0.00000000000E+00  0.00000000000E+00 -0.21958138195E+03  0.25264866844E+03  0.12496145951E+03 0.  0.
          4    1    3    3  501    0  0.28656769130E+01 -0.30245006913E+02 -0.22013178553E+03  0.22222371172E+03  0.15500000000E+01 0.  1.
         -4    1    3    3    0  501 -0.28656769130E+01  0.30245006913E+02  0.55040357949E+00  0.30424956720E+02  0.15500000000E+01 0.  1.
<mgrwt>
<rscale>  2 0.12496146E+03</rscale>
<asrwt>0</asrwt>
<pdfrwt beam="1">  1       21 0.25436375E-02 0.12496146E+03</pdfrwt>
<pdfrwt beam="2">  1       21 0.36325387E-01 0.12496146E+03</pdfrwt>
<totfact> 0.59687671E+06</totfact>
</mgrwt>
</event>
<event>
 5    0  0.1436964E+000  0.1249928E+03  0.7546771E-02  0.1235081E+00
         21   -1    0    0  503  502  0.00000000000E+00  0.00000000000E+00  0.28310736993E+02  0.28310736993E+02  0.00000000000E+00 0. -1.
         21   -1    0    0  502  503 -0.00000000000E+00 -0.00000000000E+00 -0.13796173524E+03  0.13796173524E+03  0.00000000000E+00 0. -1.
         25    2    1    2    0    0  0.00000000000E+00  0.00000000000E+00 -0.10965099824E+03  0.16627247223E+03  0.12499277421E+03 0.  0.
          4    1    3    3  501    0 -0.15424849843E+02  0.43764470013E+02 -0.11047637134E+03  0.11983607951E+03  0.15500000000E+01 0. -1.
         -4    1    3    3    0  501  0.15424849843E+02 -0.43764470013E+02  0.82537309414E+00  0.46436392721E+02  0.15500000000E+01 0. -1.
<mgrwt>
<rscale>  2 0.12499277E+03</rscale>
<asrwt>0</asrwt>
<pdfrwt beam="1">  1       21 0.43554980E-02 0.12499277E+03</pdfrwt>
<pdfrwt beam="2">  1       21 0.21224883E-01 0.12499277E+03</pdfrwt>
<totfact> 0.68773700E+06</totfact>
</mgrwt>
</event>
<event>
 5    0  0.1603392E+000  0.1250010E+03  0.7546771E-02  0.1235068E+00
         21   -1    0    0  503  502  0.00000000000E+00  0.00000000000E+00  0.43535303883E+02  0.43535303883E+02  0.00000000000E+00 0.  1.
         21   -1    0    0  502  503 -0.00000000000E+00 -0.00000000000E+00 -0.89727461582E+02  0.89727461582E+02  0.00000000000E+00 0.  1.
         25    2    1    2    0    0  0.00000000000E+00  0.00000000000E+00 -0.46192157699E+02  0.13326276546E+03  0.12500099690E+03 0.  0.
          4    1    3    3  501    0  0.49948375667E+02  0.22210002687E+02 -0.55358146095E+02  0.77814210079E+02  0.15500000000E+01 0. -1.
         -4    1    3    3    0  501 -0.49948375667E+02 -0.22210002687E+02  0.91659883965E+01  0.55448555386E+02  0.15500000000E+01 0. -1.
<mgrwt>
<rscale>  2 0.12500100E+03</rscale>
<asrwt>0</asrwt>
<pdfrwt beam="1">  1       21 0.66977392E-02 0.12500100E+03</pdfrwt>
<pdfrwt beam="2">  1       21 0.13804225E-01 0.12500100E+03</pdfrwt>
<totfact> 0.72925476E+06</totfact>
</mgrwt>
</event>
<event>
 5    0  0.1417218E+000  0.1249973E+03  0.7546771E-02  0.1235073E+00
         21   -1    0    0  503  502  0.00000000000E+00  0.00000000000E+00  0.54072158514E+03  0.54072158514E+03  0.00000000000E+00 0.  1.
         21   -1    0    0  502  503 -0.00000000000E+00 -0.00000000000E+00 -0.72238315788E+01  0.72238315788E+01  0.00000000000E+00 0.  1.
         25    2    1    2    0    0  0.00000000000E+00  0.00000000000E+00  0.53349775356E+03  0.54794541672E+03  0.12499730656E+03 0.  0.
          4    1    3    3  501    0  0.88900349596E+01  0.60316106485E+02  0.32663255265E+03  0.33227743283E+03  0.15500000000E+01 0.  1.
         -4    1    3    3    0  501 -0.88900349596E+01 -0.60316106485E+02  0.20686520092E+03  0.21566798389E+03  0.15500000000E+01 0.  1.
<mgrwt>
<rscale>  2 0.12499731E+03</rscale>
<asrwt>0</asrwt>
<pdfrwt beam="1">  1       21 0.83187905E-01 0.12499731E+03</pdfrwt>
<pdfrwt beam="2">  1       21 0.11113591E-02 0.12499731E+03</pdfrwt>
<totfact> 0.39560445E+06</totfact>
</mgrwt>
</event>
<event>
 5    0  0.1482737E+000  0.1249991E+03  0.7546771E-02  0.1235071E+00
         21   -1    0    0  503  502  0.00000000000E+00  0.00000000000E+00  0.18311234201E+02  0.18311234201E+02  0.00000000000E+00 0.  1.
         21   -1    0    0  502  503 -0.00000000000E+00 -0.00000000000E+00 -0.21332233755E+03  0.21332233755E+03  0.00000000000E+00 0.  1.
         25    2    1    2    0    0  0.00000000000E+00  0.00000000000E+00 -0.19501110335E+03  0.23163357175E+03  0.12499912453E+03 0.  0.
          4    1    3    3  501    0  0.47998548266E+02  0.34391474882E+02 -0.13535374339E+03  0.14768098229E+03  0.15500000000E+01 0. -1.
         -4    1    3    3    0  501 -0.47998548266E+02 -0.34391474882E+02 -0.59657359960E+02  0.83952589464E+02  0.15500000000E+01 0. -1.
<mgrwt>
<rscale>  2 0.12499912E+03</rscale>
<asrwt>0</asrwt>
<pdfrwt beam="1">  1       21 0.28171129E-02 0.12499912E+03</pdfrwt>
<pdfrwt beam="2">  1       21 0.32818822E-01 0.12499912E+03</pdfrwt>
<totfact> 0.61653147E+06</totfact>
</mgrwt>
</event>
<event>
 5    0  0.1222151E+000  0.1249926E+03  0.7546771E-02  0.1235081E+00
         21   -1    0    0  503  502  0.00000000000E+00  0.00000000000E+00  0.11837596535E+04  0.11837596535E+04  0.00000000000E+00 0. -1.
         21   -1    0    0  502  503 -0.00000000000E+00 -0.00000000000E+00 -0.32994786672E+01  0.32994786672E+01  0.00000000000E+00 0. -1.
         25    2    1    2    0    0  0.00000000000E+00  0.00000000000E+00  0.11804601749E+04  0.11870591322E+04  0.12499263537E+03 0.  0.
          4    1    3    3  501    0  0.46388198642E+02  0.29002109213E+02  0.30367769941E+03  0.30857014588E+03  0.15500000000E+01 0.  1.
         -4    1    3    3    0  501 -0.46388198642E+02 -0.29002109213E+02  0.87678247546E+03  0.87848898632E+03  0.15500000000E+01 0.  1.
<mgrwt>
<rscale>  2 0.12499264E+03</rscale>
<asrwt>0</asrwt>
<pdfrwt beam="1">  1       21 0.18211653E+00 0.12499264E+03</pdfrwt>
<pdfrwt beam="2">  1       21 0.50761305E-03 0.12499264E+03</pdfrwt>
<totfact> 0.19406768E+06</totfact>
</mgrwt>
</event>
<event>
 5    0  0.1550486E+000  0.1250007E+03  0.7546771E-02  0.1235068E+00
         21   -1    0    0  503  502  0.00000000000E+00  0.00000000000E+00  0.41335536713E+02  0.41335536713E+02  0.00000000000E+00 0.  1.
         21   -1    0    0  502  503 -0.00000000000E+00 -0.00000000000E+00 -0.94502109457E+02  0.94502109457E+02  0.00000000000E+00 0.  1.
         25    2    1    2    0    0  0.00000000000E+00  0.00000000000E+00 -0.53166572744E+02  0.13583764617E+03  0.12500072664E+03 0.  0.
          4    1    3    3  501    0  0.35890470010E+02  0.16742230151E+02  0.25933032115E+02  0.47364045041E+02  0.15500000000E+01 0. -1.
         -4    1    3    3    0  501 -0.35890470010E+02 -0.16742230151E+02 -0.79099604859E+02  0.88473601129E+02  0.15500000000E+01 0. -1.
<mgrwt>
<rscale>  2 0.12500073E+03</rscale>
<asrwt>0</asrwt>
<pdfrwt beam="1">  1       21 0.63593135E-02 0.12500073E+03</pdfrwt>
<pdfrwt beam="2">  1       21 0.14538786E-01 0.12500073E+03</pdfrwt>
<totfact> 0.72584407E+06</totfact>
</mgrwt>
</event>
<event>
 5    0  0.1510322E+000  0.1250005E+03  0.7546771E-02  0.1235068E+00
         21   -1    0    0  503  502  0.00000000000E+00  0.00000000000E+00  0.88173608703E+02  0.88173608703E+02  0.00000000000E+00 0. -1.
         21   -1    0    0  502  503 -0.00000000000E+00 -0.00000000000E+00 -0.44302177652E+02  0.44302177652E+02  0.00000000000E+00 0. -1.
         25    2    1    2    0    0  0.00000000000E+00  0.00000000000E+00  0.43871431051E+02  0.13247578635E+03  0.12500052603E+03 0.  0.
          4    1    3    3  501    0 -0.22381833752E+02  0.25951976432E+02  0.77303934202E+02  0.84573945787E+02  0.15500000000E+01 0.  1.
         -4    1    3    3    0  501  0.22381833752E+02 -0.25951976432E+02 -0.33432503151E+02  0.47901840568E+02  0.15500000000E+01 0.  1.
<mgrwt>
<rscale>  2 0.12500053E+03</rscale>
<asrwt>0</asrwt>
<pdfrwt beam="1">  1       21 0.13565170E-01 0.12500053E+03</pdfrwt>
<pdfrwt beam="2">  1       21 0.68157197E-02 0.12500053E+03</pdfrwt>
<totfact> 0.73031499E+06</totfact>
</mgrwt>
</event>
<event>
 5    0  0.1597645E+000  0.1249988E+03  0.7546771E-02  0.1235071E+00
         21   -1    0    0  503  502  0.00000000000E+00  0.00000000000E+00  0.64555649383E+02  0.64555649383E+02  0.00000000000E+00 0. -1.
         21   -1    0    0  502  503 -0.00000000000E+00 -0.00000000000E+00 -0.60508604247E+02  0.60508604247E+02  0.00000000000E+00 0. -1.
         25    2    1    2    0    0  0.00000000000E+00  0.00000000000E+00  0.40470451355E+01  0.12506425363E+03  0.12499875584E+03 0.  0.
          4    1    3    3  501    0  0.57929807348E+02  0.23374657427E+02  0.32621337762E+01  0.62572207936E+02  0.15500000000E+01 0.  1.
         -4    1    3    3    0  501 -0.57929807348E+02 -0.23374657427E+02  0.78491135932E+00  0.62492045694E+02  0.15500000000E+01 0.  1.
<mgrwt>
<rscale>  2 0.12499876E+03</rscale>
<asrwt>0</asrwt>
<pdfrwt beam="1">  1       21 0.99316384E-02 0.12499876E+03</pdfrwt>
<pdfrwt beam="2">  1       21 0.93090160E-02 0.12499876E+03</pdfrwt>
<totfact> 0.74037258E+06</totfact>
</mgrwt>
</event>
<event>
 5    0  0.1257091E+000  0.1250026E+03  0.7546771E-02  0.1235065E+00
         21   -1    0    0  503  502  0.00000000000E+00  0.00000000000E+00  0.77311428531E+01  0.77311428531E+01  0.00000000000E+00 0. -1.
         21   -1    0    0  502  503 -0.00000000000E+00 -0.00000000000E+00 -0.50528229794E+03  0.50528229794E+03  0.00000000000E+00 0. -1.
         25    2    1    2    0    0  0.00000000000E+00  0.00000000000E+00 -0.49755115508E+03  0.51301344079E+03  0.12500255400E+03 0.  0.
          4    1    3    3  501    0 -0.43167969927E+02  0.27326489557E+02 -0.10115638084E+03  0.11333678372E+03  0.15500000000E+01 0. -1.
         -4    1    3    3    0  501  0.43167969927E+02 -0.27326489557E+02 -0.39639477425E+03  0.39967665707E+03  0.15500000000E+01 0. -1.
<mgrwt>
<rscale>  2 0.12500255E+03</rscale>
<asrwt>0</asrwt>
<pdfrwt beam="1">  1       21 0.11894061E-02 0.12500255E+03</pdfrwt>
<pdfrwt beam="2">  1       21 0.77735769E-01 0.12500255E+03</pdfrwt>
<totfact> 0.41344364E+06</totfact>
</mgrwt>
</event>
<event>
 5    0  0.1502650E+000  0.1250007E+03  0.7546771E-02  0.1235068E+00
         21   -1    0    0  503  502  0.00000000000E+00  0.00000000000E+00  0.10539132977E+03  0.10539132977E+03  0.00000000000E+00 0.  1.
         21   -1    0    0  502  503 -0.00000000000E+00 -0.00000000000E+00 -0.37064669682E+02  0.37064669682E+02  0.00000000000E+00 0.  1.
         25    2    1    2    0    0  0.00000000000E+00  0.00000000000E+00  0.68326660090E+02  0.14245599945E+03  0.12500071720E+03 0.  0.
          4    1    3    3  501    0  0.52338695918E+02 -0.16172360023E+02  0.68409660233E+02  0.87653684648E+02  0.15500000000E+01 0. -1.
         -4    1    3    3    0  501 -0.52338695918E+02  0.16172360023E+02 -0.83000143461E-01  0.54802314806E+02  0.15500000000E+01 0. -1.
<mgrwt>
<rscale>  2 0.12500072E+03</rscale>
<asrwt>0</asrwt>
<pdfrwt beam="1">  1       21 0.16214051E-01 0.12500072E+03</pdfrwt>
<pdfrwt beam="2">  1       21 0.57022569E-02 0.12500072E+03</pdfrwt>
<totfact> 0.71718972E+06</totfact>
</mgrwt>
</event>
<event>
 5    0  0.1222151E+000  0.1249959E+03  0.7546771E-02  0.1235076E+00
         21   -1    0    0  503  502  0.00000000000E+00  0.00000000000E+00  0.98871657794E+03  0.98871657794E+03  0.00000000000E+00 0.  1.
         21   -1    0    0  502  503 -0.00000000000E+00 -0.00000000000E+00 -0.39505720705E+01  0.39505720705E+01  0.00000000000E+00 0.  1.
         25    2    1    2    0    0  0.00000000000E+00  0.00000000000E+00  0.98476600587E+03  0.99266715002E+03  0.12499593751E+03 0.  0.
          4    1    3    3  501    0  0.40637558780E+02 -0.36202698354E+02  0.24869802112E+03  0.25458820625E+03  0.15500000000E+01 0. -1.
         -4    1    3    3    0  501 -0.40637558780E+02  0.36202698354E+02  0.73606798475E+03  0.73807894377E+03  0.15500000000E+01 0. -1.
<mgrwt>
<rscale>  2 0.12499594E+03</rscale>
<asrwt>0</asrwt>
<pdfrwt beam="1">  1       21 0.15211005E+00 0.12499594E+03</pdfrwt>
<pdfrwt beam="2">  1       21 0.60778111E-03 0.12499594E+03</pdfrwt>
<totfact> 0.23805168E+06</totfact>
</mgrwt>
</event>
<event>
 5    0  0.1450964E+000  0.1250017E+03  0.7546771E-02  0.1235067E+00
         21   -1    0    0  503  502  0.00000000000E+00  0.00000000000E+00  0.21586380880E+02  0.21586380880E+02  0.00000000000E+00 0. -1.
         21   -1    0    0  502  503 -0.00000000000E+00 -0.00000000000E+00 -0.18096389824E+03  0.18096389824E+03  0.00000000000E+00 0. -1.
         25    2    1    2    0    0  0.00000000000E+00  0.00000000000E+00 -0.15937751736E+03  0.20255027913E+03  0.12500169012E+03 0.  0.
          4    1    3    3  501    0  0.53970114523E+02  0.37146524933E+01 -0.29030651587E+02  0.61414600352E+02  0.15500000000E+01 0.  1.
         -4    1    3    3    0  501 -0.53970114523E+02 -0.37146524933E+01 -0.13034686578E+03  0.14113567877E+03  0.15500000000E+01 0.  1.
<mgrwt>
<rscale>  2 0.12500169E+03</rscale>
<asrwt>0</asrwt>
<pdfrwt beam="1">  1       21 0.33209818E-02 0.12500169E+03</pdfrwt>
<pdfrwt beam="2">  1       21 0.27840599E-01 0.12500169E+03</pdfrwt>
<totfact> 0.64649191E+06</totfact>
</mgrwt>
</event>
<event>
 5    0  0.1399806E+000  0.1250063E+03  0.7546771E-02  0.1235059E+00
         21   -1    0    0  503  502  0.00000000000E+00  0.00000000000E+00  0.19432670661E+02  0.19432670661E+02  0.00000000000E+00 0. -1.
         21   -1    0    0  502  503 -0.00000000000E+00 -0.00000000000E+00 -0.20103481830E+03  0.20103481830E+03  0.00000000000E+00 0. -1.
         25    2    1    2    0    0  0.00000000000E+00  0.00000000000E+00 -0.18160214764E+03  0.22046748896E+03  0.12500629449E+03 0.  0.
          4    1    3    3  501    0 -0.29642343643E+02  0.44700516557E+02 -0.14733252124E+03  0.15679948671E+03  0.15500000000E+01 0. -1.
         -4    1    3    3    0  501  0.29642343643E+02 -0.44700516557E+02 -0.34269626396E+02  0.63668002249E+02  0.15500000000E+01 0. -1.
<mgrwt>
<rscale>  2 0.12500629E+03</rscale>
<asrwt>0</asrwt>
<pdfrwt beam="1">  1       21 0.29896416E-02 0.12500629E+03</pdfrwt>
<pdfrwt beam="2">  1       21 0.30928434E-01 0.12500629E+03</pdfrwt>
<totfact> 0.62764798E+06</totfact>
</mgrwt>
</event>
<event>
 5    0  0.1309891E+000  0.1249891E+03  0.7546771E-02  0.1235086E+00
         21   -1    0    0  503  502  0.00000000000E+00  0.00000000000E+00  0.38597436048E+03  0.38597436048E+03  0.00000000000E+00 0.  1.
         21   -1    0    0  502  503 -0.00000000000E+00 -0.00000000000E+00 -0.10118725950E+02  0.10118725950E+02  0.00000000000E+00 0.  1.
         25    2    1    2    0    0  0.00000000000E+00  0.00000000000E+00  0.37585563453E+03  0.39609308643E+03  0.12498909996E+03 0.  0.
          4    1    3    3  501    0 -0.26070370452E+02  0.14887455329E+02  0.36155621327E+03  0.36280380151E+03  0.15500000000E+01 0.  1.
         -4    1    3    3    0  501  0.26070370452E+02 -0.14887455329E+02  0.14299421263E+02  0.33289284914E+02  0.15500000000E+01 0.  1.
<mgrwt>
<rscale>  2 0.12498910E+03</rscale>
<asrwt>0</asrwt>
<pdfrwt beam="1">  1       21 0.59380660E-01 0.12498910E+03</pdfrwt>
<pdfrwt beam="2">  1       21 0.15567274E-02 0.12498910E+03</pdfrwt>
<totfact> 0.48314744E+06</totfact>
</mgrwt>
</event>
<event>
 5    0  0.1510363E+000  0.1250036E+03  0.7546771E-02  0.1235064E+00
         21   -1    0    0  503  502  0.00000000000E+00  0.00000000000E+00  0.63835710874E+02  0.63835710874E+02  0.00000000000E+00 0.  1.
         21   -1    0    0  502  503 -0.00000000000E+00 -0.00000000000E+00 -0.61195714013E+02  0.61195714013E+02  0.00000000000E+00 0.  1.
         25    2    1    2    0    0  0.00000000000E+00  0.00000000000E+00  0.26399968612E+01  0.12503142489E+03  0.12500355045E+03 0.  0.
          4    1    3    3  501    0  0.28349028439E+02 -0.24737459490E+02  0.51215589557E+02  0.63569241219E+02  0.15500000000E+01 0.  1.
         -4    1    3    3    0  501 -0.28349028439E+02  0.24737459490E+02 -0.48575592696E+02  0.61462183668E+02  0.15500000000E+01 0.  1.
<mgrwt>
<rscale>  2 0.12500355E+03</rscale>
<asrwt>0</asrwt>
<pdfrwt beam="1">  1       21 0.98208786E-02 0.12500355E+03</pdfrwt>
<pdfrwt beam="2">  1       21 0.94147252E-02 0.12500355E+03</pdfrwt>
<totfact> 0.74032616E+06</totfact>
</mgrwt>
</event>
<event>
 5    0  0.1371053E+000  0.1250001E+03  0.7546771E-02  0.1235069E+00
         21   -1    0    0  503  502  0.00000000000E+00  0.00000000000E+00  0.40524798009E+03  0.40524798009E+03  0.00000000000E+00 0.  1.
         21   -1    0    0  502  503 -0.00000000000E+00 -0.00000000000E+00 -0.96391815218E+01  0.96391815218E+01  0.00000000000E+00 0.  1.
         25    2    1    2    0    0  0.00000000000E+00  0.00000000000E+00  0.39560879857E+03  0.41488716161E+03  0.12500014146E+03 0.  0.
          4    1    3    3  501    0 -0.41069948518E+00 -0.61432418790E+02  0.23561083998E+03  0.24349328773E+03  0.15500000000E+01 0.  1.
         -4    1    3    3    0  501  0.41069948518E+00  0.61432418790E+02  0.15999795859E+03  0.17139387388E+03  0.15500000000E+01 0.  1.
<mgrwt>
<rscale>  2 0.12500014E+03</rscale>
<asrwt>0</asrwt>
<pdfrwt beam="1">  1       21 0.62345830E-01 0.12500014E+03</pdfrwt>
<pdfrwt beam="2">  1       21 0.14829513E-02 0.12500014E+03</pdfrwt>
<totfact> 0.47069167E+06</totfact>
</mgrwt>
</event>
<event>
 5    0  0.1385243E+000  0.1250011E+03  0.7546771E-02  0.1235068E+00
         21   -1    0    0  503  502  0.00000000000E+00  0.00000000000E+00  0.97232007373E+01  0.97232007373E+01  0.00000000000E+00 0.  1.
         21   -1    0    0  502  503 -0.00000000000E+00 -0.00000000000E+00 -0.40175233281E+03  0.40175233281E+03  0.00000000000E+00 0.  1.
         25    2    1    2    0    0  0.00000000000E+00  0.00000000000E+00 -0.39202913207E+03  0.41147553355E+03  0.12500109725E+03 0.  0.
          4    1    3    3  501    0  0.43849136317E+02 -0.23406124431E+02 -0.32063870637E+03  0.32447214972E+03  0.15500000000E+01 0.  1.
         -4    1    3    3    0  501 -0.43849136317E+02  0.23406124431E+02 -0.71390425702E+02  0.87003383833E+02  0.15500000000E+01 0.  1.
<mgrwt>
<rscale>  2 0.12500110E+03</rscale>
<asrwt>0</asrwt>
<pdfrwt beam="1">  1       21 0.14958772E-02 0.12500110E+03</pdfrwt>
<pdfrwt beam="2">  1       21 0.61808043E-01 0.12500110E+03</pdfrwt>
<totfact> 0.47288098E+06</totfact>
</mgrwt>
</event>
<event>
 5    0  0.1241489E+000  0.1250301E+03  0.7546771E-02  0.1235022E+00
         21   -1    0    0  503  502  0.00000000000E+00  0.00000000000E+00  0.61798717828E+01  0.61798717828E+01  0.00000000000E+00 0.  1.
         21   -1    0    0  502  503 -0.00000000000E+00 -0.00000000000E+00 -0.63239672344E+03  0.63239672344E+03  0.00000000000E+00 0.  1.
         25    2    1    2    0    0  0.00000000000E+00  0.00000000000E+00 -0.62621685166E+03  0.63857659522E+03  0.12503008705E+03 0.  0.
          4    1    3    3  501    0 -0.39439601872E+02 -0.28932602166E+02 -0.11443511616E+03  0.12446033896E+03  0.15500000000E+01 0.  1.
         -4    1    3    3    0  501  0.39439601872E+02  0.28932602166E+02 -0.51178173549E+03  0.51411625626E+03  0.15500000000E+01 0.  1.
<mgrwt>
<rscale>  2 0.12503009E+03</rscale>
<asrwt>0</asrwt>
<pdfrwt beam="1">  1       21 0.95075021E-03 0.12503009E+03</pdfrwt>
<pdfrwt beam="2">  1       21 0.97291731E-01 0.12503009E+03</pdfrwt>
<totfact> 0.35377732E+06</totfact>
</mgrwt>
</event>
<event>
 5    0  0.1547464E+000  0.1249982E+03  0.7546771E-02  0.1235072E+00
         21   -1    0    0  503  502  0.00000000000E+00  0.00000000000E+00  0.10231275078E+03  0.10231275078E+03  0.00000000000E+00 0. -1.
         21   -1    0    0  502  503 -0.00000000000E+00 -0.00000000000E+00 -0.38178407854E+02  0.38178407854E+02  0.00000000000E+00 0. -1.
         25    2    1    2    0    0  0.00000000000E+00  0.00000000000E+00  0.64134342925E+02  0.14049115863E+03  0.12499820683E+03 0.  0.
          4    1    3    3  501    0  0.57468913236E+02  0.10791374844E+02  0.73249063443E+01  0.58950712570E+02  0.15500000000E+01 0. -1.
         -4    1    3    3    0  501 -0.57468913236E+02 -0.10791374844E+02  0.56809436580E+02  0.81540446063E+02  0.15500000000E+01 0. -1.
<mgrwt>
<rscale>  2 0.12499821E+03</rscale>
<asrwt>0</asrwt>
<pdfrwt beam="1">  1       21 0.15740423E-01 0.12499821E+03</pdfrwt>
<pdfrwt beam="2">  1       21 0.58736012E-02 0.12499821E+03</pdfrwt>
<totfact> 0.71978541E+06</totfact>
</mgrwt>
</event>
<event>
 5    0  0.1363869E+000  0.1250015E+03  0.7546771E-02  0.1235067E+00
         21   -1    0    0  503  502  0.00000000000E+00  0.00000000000E+00  0.20309219442E+02  0.20309219442E+02  0.00000000000E+00 0. -1.
         21   -1    0    0  502  503 -0.00000000000E+00 -0.00000000000E+00 -0.19234331447E+03  0.19234331447E+03  0.00000000000E+00 0. -1.
         25    2    1    2    0    0  0.00000000000E+00  0.00000000000E+00 -0.17203409502E+03  0.21265253391E+03  0.12500148130E+03 0.  0.
          4    1    3    3  501    0  0.31478814057E+02  0.42596714899E+01  0.55144676203E+01  0.32278048094E+02  0.15500000000E+01 0. -1.
         -4    1    3    3    0  501 -0.31478814057E+02 -0.42596714899E+01 -0.17754856264E+03  0.18037448581E+03  0.15500000000E+01 0. -1.
<mgrwt>
<rscale>  2 0.12500148E+03</rscale>
<asrwt>0</asrwt>
<pdfrwt beam="1">  1       21 0.31244952E-02 0.12500148E+03</pdfrwt>
<pdfrwt beam="2">  1       21 0.29591280E-01 0.12500148E+03</pdfrwt>
<totfact> 0.63579152E+06</totfact>
</mgrwt>
</event>
<event>
 5    0  0.1507619E+000  0.1250084E+03  0.7546771E-02  0.1235056E+00
         21   -1    0    0  503  502  0.00000000000E+00  0.00000000000E+00  0.27919941811E+03  0.27919941811E+03  0.00000000000E+00 0. -1.
         21   -1    0    0  502  503 -0.00000000000E+00 -0.00000000000E+00 -0.13992765333E+02  0.13992765333E+02  0.00000000000E+00 0. -1.
         25    2    1    2    0    0  0.00000000000E+00  0.00000000000E+00  0.26520665277E+03  0.29319218344E+03  0.12500835074E+03 0.  0.
          4    1    3    3  501    0 -0.51124765669E+02  0.34445226108E+02  0.15653933313E+03  0.16824737913E+03  0.15500000000E+01 0.  1.
         -4    1    3    3    0  501  0.51124765669E+02 -0.34445226108E+02  0.10866731965E+03  0.12494480431E+03  0.15500000000E+01 0.  1.
<mgrwt>
<rscale>  2 0.12500835E+03</rscale>
<asrwt>0</asrwt>
<pdfrwt beam="1">  1       21 0.42953752E-01 0.12500835E+03</pdfrwt>
<pdfrwt beam="2">  1       21 0.21527333E-02 0.12500835E+03</pdfrwt>
<totfact> 0.56014961E+06</totfact>
</mgrwt>
</event>
<event>
 5    0  0.1483800E+000  0.1249942E+03  0.7546771E-02  0.1235078E+00
         21   -1    0    0  503  502  0.00000000000E+00  0.00000000000E+00  0.27063908914E+02  0.27063908914E+02  0.00000000000E+00 0.  1.
         21   -1    0    0  502  503 -0.00000000000E+00 -0.00000000000E+00 -0.14432081620E+03  0.14432081620E+03  0.00000000000E+00 0.  1.
         25    2    1    2    0    0  0.00000000000E+00  0.00000000000E+00 -0.11725690729E+03  0.17138472511E+03  0.12499416665E+03 0.  0.
          4    1    3    3  501    0 -0.14353341315E+02 -0.41257278526E+02  0.26188014582E+01  0.43788606501E+02  0.15500000000E+01 0.  1.
         -4    1    3    3    0  501  0.14353341315E+02  0.41257278526E+02 -0.11987570874E+03  0.12759611861E+03  0.15500000000E+01 0.  1.
<mgrwt>
<rscale>  2 0.12499417E+03</rscale>
<asrwt>0</asrwt>
<pdfrwt beam="1">  1       21 0.41636783E-02 0.12499417E+03</pdfrwt>
<pdfrwt beam="2">  1       21 0.22203202E-01 0.12499417E+03</pdfrwt>
<totfact> 0.68163955E+06</totfact>
</mgrwt>
</event>
<event>
 5    0  0.1542765E+000  0.1249946E+03  0.7546771E-02  0.1235078E+00
         21   -1    0    0  503  502  0.00000000000E+00  0.00000000000E+00  0.18107483373E+03  0.18107483373E+03  0.00000000000E+00 0.  1.
         21   -1    0    0  502  503 -0.00000000000E+00 -0.00000000000E+00 -0.21570704742E+02  0.21570704742E+02  0.00000000000E+00 0.  1.
         25    2    1    2    0    0  0.00000000000E+00  0.00000000000E+00  0.15950412899E+03  0.20264553848E+03  0.12499458828E+03 0.  0.
          4    1    3    3  501    0  0.25596755834E+02  0.50148325278E+02  0.35845010229E+02  0.66763131261E+02  0.15500000000E+01 0. -1.
         -4    1    3    3    0  501 -0.25596755834E+02 -0.50148325278E+02  0.12365911876E+03  0.13588240721E+03  0.15500000000E+01 0. -1.
<mgrwt>
<rscale>  2 0.12499459E+03</rscale>
<asrwt>0</asrwt>
<pdfrwt beam="1">  1       21 0.27857666E-01 0.12499459E+03</pdfrwt>
<pdfrwt beam="2">  1       21 0.33185701E-02 0.12499459E+03</pdfrwt>
<totfact> 0.64650568E+06</totfact>
</mgrwt>
</event>
<event>
 4    0  0.1768197E+000  0.1247276E+03  0.7546771E-02  0.1235496E+00
         21   -1    0    0  503  502  0.00000000000E+00  0.00000000000E+00  0.31067329459E+03  0.31067329459E+03  0.00000000000E+00 0.  1.
         21   -1    0    0  502  503 -0.00000000000E+00 -0.00000000000E+00 -0.12518749205E+02  0.12518749205E+02  0.00000000000E+00 0.  1.
          4    1    1    2  501    0 -0.42940549645E+02 -0.28134049816E+02  0.24074158826E+03  0.24615915661E+03  0.15500000000E+01 0.  1.
         -4    1    1    2    0  501  0.42940549645E+02  0.28134049816E+02  0.57412957127E+02  0.77032887190E+02  0.15500000000E+01 0.  1.
<mgrwt>
<rscale>  2 0.12472756E+03</rscale>
<asrwt>0</asrwt>
<pdfrwt beam="1">  1       21 0.47795886E-01 0.12472756E+03</pdfrwt>
<pdfrwt beam="2">  1       21 0.19259617E-02 0.12472756E+03</pdfrwt>
<totfact> 0.53949151E+06</totfact>
</mgrwt>
</event>
<event>
 5    0  0.1573670E+000  0.1250015E+03  0.7546771E-02  0.1235067E+00
         21   -1    0    0  503  502  0.00000000000E+00  0.00000000000E+00  0.47492638667E+02  0.47492638667E+02  0.00000000000E+00 0.  1.
         21   -1    0    0  502  503 -0.00000000000E+00 -0.00000000000E+00 -0.82251572483E+02  0.82251572483E+02  0.00000000000E+00 0.  1.
         25    2    1    2    0    0  0.00000000000E+00  0.00000000000E+00 -0.34758933815E+02  0.12974421115E+03  0.12500150738E+03 0.  0.
          4    1    3    3  501    0  0.24312405571E+02 -0.55203772289E+02 -0.47051089985E+00  0.60342136357E+02  0.15500000000E+01 0. -1.
         -4    1    3    3    0  501 -0.24312405571E+02  0.55203772289E+02 -0.34288422915E+02  0.69402074793E+02  0.15500000000E+01 0. -1.
<mgrwt>
<rscale>  2 0.12500151E+03</rscale>
<asrwt>0</asrwt>
<pdfrwt beam="1">  1       21 0.73065599E-02 0.12500151E+03</pdfrwt>
<pdfrwt beam="2">  1       21 0.12654088E-01 0.12500151E+03</pdfrwt>
<totfact> 0.73396296E+06</totfact>
</mgrwt>
</event>
<event>
 5    0  0.1222151E+000  0.1249988E+03  0.7546771E-02  0.1235071E+00
         21   -1    0    0  503  502  0.00000000000E+00  0.00000000000E+00  0.34496470256E+03  0.34496470256E+03  0.00000000000E+00 0. -1.
         21   -1    0    0  502  503 -0.00000000000E+00 -0.00000000000E+00 -0.11323398749E+02  0.11323398749E+02  0.00000000000E+00 0. -1.
         25    2    1    2    0    0  0.00000000000E+00  0.00000000000E+00  0.33364130381E+03  0.35628810131E+03  0.12499876610E+03 0.  0.
          4    1    3    3  501    0  0.10855061620E+02 -0.20127316592E+02  0.10883338911E+01  0.22946202445E+02  0.15500000000E+01 0. -1.
         -4    1    3    3    0  501 -0.10855061620E+02  0.20127316592E+02  0.33255296992E+03  0.33334189886E+03  0.15500000000E+01 0. -1.
<mgrwt>
<rscale>  2 0.12499877E+03</rscale>
<asrwt>0</asrwt>
<pdfrwt beam="1">  1       21 0.53071485E-01 0.12499877E+03</pdfrwt>
<pdfrwt beam="2">  1       21 0.17420616E-02 0.12499877E+03</pdfrwt>
<totfact> 0.51078947E+06</totfact>
</mgrwt>
</event>
<event>
 5    0  0.1556273E+000  0.1250022E+03  0.7546771E-02  0.1235066E+00
         21   -1    0    0  503  502  0.00000000000E+00  0.00000000000E+00  0.25632548723E+03  0.25632548723E+03  0.00000000000E+00 0. -1.
         21   -1    0    0  502  503 -0.00000000000E+00 -0.00000000000E+00 -0.15239954722E+02  0.15239954722E+02  0.00000000000E+00 0. -1.
         25    2    1    2    0    0  0.00000000000E+00  0.00000000000E+00  0.24108553251E+03  0.27156544195E+03  0.12500222109E+03 0.  0.
          4    1    3    3  501    0 -0.80983853495E+01 -0.61951861399E+02  0.11922246821E+03  0.13461061029E+03  0.15500000000E+01 0.  1.
         -4    1    3    3    0  501  0.80983853495E+01  0.61951861399E+02  0.12186306430E+03  0.13695483166E+03  0.15500000000E+01 0.  1.
<mgrwt>
<rscale>  2 0.12500222E+03</rscale>
<asrwt>0</asrwt>
<pdfrwt beam="1">  1       21 0.39434687E-01 0.12500222E+03</pdfrwt>
<pdfrwt beam="2">  1       21 0.23446086E-02 0.12500222E+03</pdfrwt>
<totfact> 0.57901940E+06</totfact>
</mgrwt>
</event>
<event>
 5    0  0.1296993E+000  0.1250026E+03  0.7546771E-02  0.1235065E+00
         21   -1    0    0  503  502  0.00000000000E+00  0.00000000000E+00  0.47542914624E+03  0.47542914624E+03  0.00000000000E+00 0. -1.
         21   -1    0    0  502  503 -0.00000000000E+00 -0.00000000000E+00 -0.82166028506E+01  0.82166028506E+01  0.00000000000E+00 0. -1.
         25    2    1    2    0    0  0.00000000000E+00  0.00000000000E+00  0.46721254339E+03  0.48364574909E+03  0.12500259963E+03 0.  0.
          4    1    3    3  501    0  0.58015557710E+02  0.15518205624E+02  0.30032868651E+03  0.30627821026E+03  0.15500000000E+01 0. -1.
         -4    1    3    3    0  501 -0.58015557710E+02 -0.15518205624E+02  0.16688385688E+03  0.17736753883E+03  0.15500000000E+01 0. -1.
<mgrwt>
<rscale>  2 0.12500260E+03</rscale>
<asrwt>0</asrwt>
<pdfrwt beam="1">  1       21 0.73142924E-01 0.12500260E+03</pdfrwt>
<pdfrwt beam="2">  1       21 0.12640931E-02 0.12500260E+03</pdfrwt>
<totfact> 0.42942342E+06</totfact>
</mgrwt>
</event>
<event>
 5    0  0.1398376E+000  0.1249895E+03  0.7546771E-02  0.1235086E+00
         21   -1    0    0  503  502  0.00000000000E+00  0.00000000000E+00  0.13489257194E+02  0.13489257194E+02  0.00000000000E+00 0. -1.
         21   -1    0    0  502  503 -0.00000000000E+00 -0.00000000000E+00 -0.28953361613E+03  0.28953361613E+03  0.00000000000E+00 0. -1.
         25    2    1    2    0    0  0.00000000000E+00  0.00000000000E+00 -0.27604435894E+03  0.30302287332E+03  0.12498949419E+03 0.  0.
          4    1    3    3  501    0  0.17228090543E+02  0.29068410138E+02 -0.26542160028E+03  0.26756832392E+03  0.15500000000E+01 0. -1.
         -4    1    3    3    0  501 -0.17228090543E+02 -0.29068410138E+02 -0.10622758655E+02  0.35454549399E+02  0.15500000000E+01 0. -1.
<mgrwt>
<rscale>  2 0.12498949E+03</rscale>
<asrwt>0</asrwt>
<pdfrwt beam="1">  1       21 0.20752703E-02 0.12498949E+03</pdfrwt>
<pdfrwt beam="2">  1       21 0.44543634E-01 0.12498949E+03</pdfrwt>
<totfact> 0.55220465E+06</totfact>
</mgrwt>
</event>
<event>
 5    0  0.1498594E+000  0.1250013E+03  0.7546771E-02  0.1235067E+00
         21   -1    0    0  503  502  0.00000000000E+00  0.00000000000E+00  0.28919171177E+03  0.28919171177E+03  0.00000000000E+00 0.  1.
         21   -1    0    0  502  503 -0.00000000000E+00 -0.00000000000E+00 -0.13507758713E+02  0.13507758713E+02  0.00000000000E+00 0.  1.
         25    2    1    2    0    0  0.00000000000E+00  0.00000000000E+00  0.27568395306E+03  0.30269947049E+03  0.12500130983E+03 0.  0.
          4    1    3    3  501    0 -0.44614488381E+02 -0.42201007753E+02  0.16572178635E+03  0.17674130982E+03  0.15500000000E+01 0.  1.
         -4    1    3    3    0  501  0.44614488381E+02  0.42201007753E+02  0.10996216672E+03  0.12595816066E+03  0.15500000000E+01 0.  1.
<mgrwt>
<rscale>  2 0.12500131E+03</rscale>
<asrwt>0</asrwt>
<pdfrwt beam="1">  1       21 0.44491028E-01 0.12500131E+03</pdfrwt>
<pdfrwt beam="2">  1       21 0.20781169E-02 0.12500131E+03</pdfrwt>
<totfact> 0.55230765E+06</totfact>
</mgrwt>
</event>
<event>
 5    0  0.1255551E+000  0.1250003E+03  0.7546771E-02  0.1235069E+00
         21   -1    0    0  503  502  0.00000000000E+00  0.00000000000E+00  0.96038947577E+01  0.96038947577E+01  0.00000000000E+00 0. -1.
         21   -1    0    0  502  503 -0.00000000000E+00 -0.00000000000E+00 -0.40673794045E+03  0.40673794045E+03  0.00000000000E+00 0. -1.
         25    2    1    2    0    0  0.00000000000E+00  0.00000000000E+00 -0.39713404569E+03  0.41634183521E+03  0.12500029398E+03 0.  0.
          4    1    3    3  501    0 -0.18055608452E+02  0.41628077218E+02 -0.55502163046E+02  0.71706306642E+02  0.15500000000E+01 0. -1.
         -4    1    3    3    0  501  0.18055608452E+02 -0.41628077218E+02 -0.34163188265E+03  0.34463552856E+03  0.15500000000E+01 0. -1.
<mgrwt>
<rscale>  2 0.12500029E+03</rscale>
<asrwt>0</asrwt>
<pdfrwt beam="1">  1       21 0.14775225E-02 0.12500029E+03</pdfrwt>
<pdfrwt beam="2">  1       21 0.62575060E-01 0.12500029E+03</pdfrwt>
<totfact> 0.46975632E+06</totfact>
</mgrwt>
</event>
<event>
 5    0  0.1442399E+000  0.1250018E+03  0.7546771E-02  0.1235067E+00
         21   -1    0    0  503  502  0.00000000000E+00  0.00000000000E+00  0.79380644081E+01  0.79380644081E+01  0.00000000000E+00 0. -1.
         21   -1    0    0  502  503 -0.00000000000E+00 -0.00000000000E+00 -0.49210482305E+03  0.49210482305E+03  0.00000000000E+00 0. -1.
         25    2    1    2    0    0  0.00000000000E+00  0.00000000000E+00 -0.48416675864E+03  0.50004288746E+03  0.12500175648E+03 0.  0.
          4    1    3    3  501    0 -0.39038463120E+02 -0.20053468346E+01 -0.43707158771E+03  0.43881886730E+03  0.15500000000E+01 0.  1.
         -4    1    3    3    0  501  0.39038463120E+02  0.20053468346E+01 -0.47095170932E+02  0.61224020154E+02  0.15500000000E+01 0.  1.
<mgrwt>
<rscale>  2 0.12500176E+03</rscale>
<asrwt>0</asrwt>
<pdfrwt beam="1">  1       21 0.12212408E-02 0.12500176E+03</pdfrwt>
<pdfrwt beam="2">  1       21 0.75708424E-01 0.12500176E+03</pdfrwt>
<totfact> 0.42039909E+06</totfact>
</mgrwt>
</event>
<event>
 5    0  0.1222151E+000  0.1250030E+03  0.7546771E-02  0.1235065E+00
         21   -1    0    0  503  502  0.00000000000E+00  0.00000000000E+00  0.11522497242E+04  0.11522497242E+04  0.00000000000E+00 0.  1.
         21   -1    0    0  502  503 -0.00000000000E+00 -0.00000000000E+00 -0.33902696257E+01  0.33902696257E+01  0.00000000000E+00 0.  1.
         25    2    1    2    0    0  0.00000000000E+00  0.00000000000E+00  0.11488594545E+04  0.11556399938E+04  0.12500299582E+03 0.  0.
          4    1    3    3  501    0 -0.34110750426E+02  0.52255747816E+02  0.54544690945E+03  0.54900723129E+03  0.15500000000E+01 0. -1.
         -4    1    3    3    0  501  0.34110750426E+02 -0.52255747816E+02  0.60341254508E+03  0.60663276249E+03  0.15500000000E+01 0. -1.
<mgrwt>
<rscale>  2 0.12500300E+03</rscale>
<asrwt>0</asrwt>
<pdfrwt beam="1">  1       21 0.17726888E+00 0.12500300E+03</pdfrwt>
<pdfrwt beam="2">  1       21 0.52158086E-03 0.12500300E+03</pdfrwt>
<totfact> 0.20048996E+06</totfact>
</mgrwt>
</event>
<event>
 5    0  0.1463275E+000  0.1249909E+03  0.7546771E-02  0.1235083E+00
         21   -1    0    0  503  502  0.00000000000E+00  0.00000000000E+00  0.48401833010E+02  0.48401833010E+02  0.00000000000E+00 0.  1.
         21   -1    0    0  502  503 -0.00000000000E+00 -0.00000000000E+00 -0.80692885468E+02  0.80692885468E+02  0.00000000000E+00 0.  1.
         25    2    1    2    0    0  0.00000000000E+00  0.00000000000E+00 -0.32291052458E+02  0.12909471848E+03  0.12499093675E+03 0.  0.
          4    1    3    3  501    0  0.38606253739E+02  0.18752381404E+02 -0.63036428481E+02  0.76276395115E+02  0.15500000000E+01 0. -1.
         -4    1    3    3    0  501 -0.38606253739E+02 -0.18752381404E+02  0.30745376023E+02  0.52818323363E+02  0.15500000000E+01 0. -1.
<mgrwt>
<rscale>  2 0.12499094E+03</rscale>
<asrwt>0</asrwt>
<pdfrwt beam="1">  1       21 0.74464359E-02 0.12499094E+03</pdfrwt>
<pdfrwt beam="2">  1       21 0.12414290E-01 0.12499094E+03</pdfrwt>
<totfact> 0.73503170E+06</totfact>
</mgrwt>
</event>
<event>
 5    0  0.1222151E+000  0.1249988E+03  0.7546771E-02  0.1235071E+00
         21   -1    0    0  503  502  0.00000000000E+00  0.00000000000E+00  0.76651592977E+03  0.76651592977E+03  0.00000000000E+00 0.  1.
         21   -1    0    0  502  503 -0.00000000000E+00 -0.00000000000E+00 -0.50960154742E+01  0.50960154742E+01  0.00000000000E+00 0.  1.
         25    2    1    2    0    0  0.00000000000E+00  0.00000000000E+00  0.76141991430E+03  0.77161194525E+03  0.12499883262E+03 0.  0.
          4    1    3    3  501    0 -0.57853322922E+02  0.70952383114E+00  0.23511929612E+03  0.24213838256E+03  0.15500000000E+01 0.  1.
         -4    1    3    3    0  501  0.57853322922E+02 -0.70952383114E+00  0.52630061818E+03  0.52947356269E+03  0.15500000000E+01 0.  1.
<mgrwt>
<rscale>  2 0.12499883E+03</rscale>
<asrwt>0</asrwt>
<pdfrwt beam="1">  1       21 0.11792544E+00 0.12499883E+03</pdfrwt>
<pdfrwt beam="2">  1       21 0.78400299E-03 0.12499883E+03</pdfrwt>
<totfact> 0.30323785E+06</totfact>
</mgrwt>
</event>
<event>
 5    0  0.1413354E+000  0.1250064E+03  0.7546771E-02  0.1235059E+00
         21   -1    0    0  503  502  0.00000000000E+00  0.00000000000E+00  0.15112781158E+02  0.15112781158E+02  0.00000000000E+00 0. -1.
         21   -1    0    0  502  503 -0.00000000000E+00 -0.00000000000E+00 -0.25849981455E+03  0.25849981455E+03  0.00000000000E+00 0. -1.
         25    2    1    2    0    0  0.00000000000E+00  0.00000000000E+00 -0.24338703339E+03  0.27361259570E+03  0.12500641786E+03 0.  0.
          4    1    3    3  501    0  0.54216622724E+02 -0.51776897350E+01 -0.18872899716E+03  0.19643647196E+03  0.15500000000E+01 0.  1.
         -4    1    3    3    0  501 -0.54216622724E+02  0.51776897350E+01 -0.54658036233E+02  0.77176123739E+02  0.15500000000E+01 0.  1.
<mgrwt>
<rscale>  2 0.12500642E+03</rscale>
<asrwt>0</asrwt>
<pdfrwt beam="1">  1       21 0.23250432E-02 0.12500642E+03</pdfrwt>
<pdfrwt beam="2">  1       21 0.39769203E-01 0.12500642E+03</pdfrwt>
<totfact> 0.57713601E+06</totfact>
</mgrwt>
</event>
<event>
 5    0  0.1399062E+000  0.1250065E+03  0.7546771E-02  0.1235059E+00
         21   -1    0    0  503  502  0.00000000000E+00  0.00000000000E+00  0.17521203842E+02  0.17521203842E+02  0.00000000000E+00 0.  1.
         21   -1    0    0  502  503 -0.00000000000E+00 -0.00000000000E+00 -0.22296745728E+03  0.22296745728E+03  0.00000000000E+00 0.  1.
         25    2    1    2    0    0  0.00000000000E+00  0.00000000000E+00 -0.20544625344E+03  0.24048866112E+03  0.12500653213E+03 0.  0.
          4    1    3    3  501    0 -0.25300243152E+02  0.10960728701E+00 -0.21263544862E+03  0.21414096018E+03  0.15500000000E+01 0. -1.
         -4    1    3    3    0  501  0.25300243152E+02 -0.10960728701E+00  0.71891951842E+01  0.26347700938E+02  0.15500000000E+01 0. -1.
<mgrwt>
<rscale>  2 0.12500653E+03</rscale>
<asrwt>0</asrwt>
<pdfrwt beam="1">  1       21 0.26955698E-02 0.12500653E+03</pdfrwt>
<pdfrwt beam="2">  1       21 0.34302686E-01 0.12500653E+03</pdfrwt>
<totfact> 0.60775393E+06</totfact>
</mgrwt>
</event>
<event>
 5    0  0.1514673E+000  0.1249981E+03  0.7546771E-02  0.1235072E+00
         21   -1    0    0  503  502  0.00000000000E+00  0.00000000000E+00  0.17415739892E+03  0.17415739892E+03  0.00000000000E+00 0.  1.
         21   -1    0    0  502  503 -0.00000000000E+00 -0.00000000000E+00 -0.22428742645E+02  0.22428742645E+02  0.00000000000E+00 0.  1.
         25    2    1    2    0    0  0.00000000000E+00  0.00000000000E+00  0.15172865628E+03  0.19658614157E+03  0.12499810367E+03 0.  0.
          4    1    3    3  501    0 -0.43735045663E+02 -0.20121809776E+02  0.13849874668E+03  0.14663542130E+03  0.15500000000E+01 0.  1.
         -4    1    3    3    0  501  0.43735045663E+02  0.20121809776E+02  0.13229909604E+02  0.49950720274E+02  0.15500000000E+01 0.  1.
<mgrwt>
<rscale>  2 0.12499810E+03</rscale>
<asrwt>0</asrwt>
<pdfrwt beam="1">  1       21 0.26793445E-01 0.12499810E+03</pdfrwt>
<pdfrwt beam="2">  1       21 0.34505759E-02 0.12499810E+03</pdfrwt>
<totfact> 0.65300978E+06</totfact>
</mgrwt>
</event>
<event>
 5    0  0.1492676E+000  0.1249913E+03  0.7546771E-02  0.1235083E+00
         21   -1    0    0  503  502  0.00000000000E+00  0.00000000000E+00  0.47744855699E+02  0.47744855699E+02  0.00000000000E+00 0. -1.
         21   -1    0    0  502  503 -0.00000000000E+00 -0.00000000000E+00 -0.81803743818E+02  0.81803743818E+02  0.00000000000E+00 0. -1.
         25    2    1    2    0    0  0.00000000000E+00  0.00000000000E+00 -0.34058888119E+02  0.12954859952E+03  0.12499132681E+03 0.  0.
          4    1    3    3  501    0  0.41984245479E+02  0.34535845364E+02 -0.48940047225E+02  0.73163735592E+02  0.15500000000E+01 0. -1.
         -4    1    3    3    0  501 -0.41984245479E+02 -0.34535845364E+02  0.14881159105E+02  0.56384863924E+02  0.15500000000E+01 0. -1.
<mgrwt>
<rscale>  2 0.12499133E+03</rscale>
<asrwt>0</asrwt>
<pdfrwt beam="1">  1       21 0.73453624E-02 0.12499133E+03</pdfrwt>
<pdfrwt beam="2">  1       21 0.12585191E-01 0.12499133E+03</pdfrwt>
<totfact> 0.73441568E+06</totfact>
</mgrwt>
</event>
<event>
 4    0  0.1297600E+000  0.1276015E+03  0.7546771E-02  0.1231059E+00
         21   -1    0    0  503  502  0.00000000000E+00  0.00000000000E+00  0.49059268533E+03  0.49059268533E+03  0.00000000000E+00 0.  1.
         21   -1    0    0  502  503 -0.00000000000E+00 -0.00000000000E+00 -0.82971817452E+01  0.82971817452E+01  0.00000000000E+00 0.  1.
          4    1    1    2  501    0 -0.35560338447E+02  0.49069744114E+02  0.31892686690E+03  0.32463691470E+03  0.15500000000E+01 0. -1.
         -4    1    1    2    0  501  0.35560338447E+02 -0.49069744114E+02  0.16336863669E+03  0.17425295237E+03  0.15500000000E+01 0. -1.
<mgrwt>
<rscale>  2 0.12760152E+03</rscale>
<asrwt>0</asrwt>
<pdfrwt beam="1">  1       21 0.75475775E-01 0.12760152E+03</pdfrwt>
<pdfrwt beam="2">  1       21 0.12764899E-02 0.12760152E+03</pdfrwt>
<totfact> 0.39486846E+06</totfact>
</mgrwt>
</event>
<event>
 5    0  0.1469954E+000  0.1250001E+03  0.7546771E-02  0.1235069E+00
         21   -1    0    0  503  502  0.00000000000E+00  0.00000000000E+00  0.91488159683E+02  0.91488159683E+02  0.00000000000E+00 0. -1.
         21   -1    0    0  502  503 -0.00000000000E+00 -0.00000000000E+00 -0.42696835524E+02  0.42696835524E+02  0.00000000000E+00 0. -1.
         25    2    1    2    0    0  0.00000000000E+00  0.00000000000E+00  0.48791324159E+02  0.13418499521E+03  0.12500007850E+03 0.  0.
          4    1    3    3  501    0  0.34670692935E+02 -0.33800551863E+02  0.66785429765E+02  0.82505941506E+02  0.15500000000E+01 0. -1.
         -4    1    3    3    0  501 -0.34670692935E+02  0.33800551863E+02 -0.17994105606E+02  0.51679053701E+02  0.15500000000E+01 0. -1.
<mgrwt>
<rscale>  2 0.12500008E+03</rscale>
<asrwt>0</asrwt>
<pdfrwt beam="1">  1       21 0.14075101E-01 0.12500008E+03</pdfrwt>
<pdfrwt beam="2">  1       21 0.65687440E-02 0.12500008E+03</pdfrwt>
<totfact> 0.72804420E+06</totfact>
</mgrwt>
</event>
<event>
 5    0  0.1464895E+000  0.1249910E+03  0.7546771E-02  0.1235083E+00
         21   -1    0    0  503  502  0.00000000000E+00  0.00000000000E+00  0.12378746594E+03  0.12378746594E+03  0.00000000000E+00 0. -1.
         21   -1    0    0  502  503 -0.00000000000E+00 -0.00000000000E+00 -0.31551581959E+02  0.31551581959E+02  0.00000000000E+00 0. -1.
         25    2    1    2    0    0  0.00000000000E+00  0.00000000000E+00  0.92235883979E+02  0.15533904790E+03  0.12499104571E+03 0.  0.
          4    1    3    3  501    0 -0.37315619113E+02 -0.50001512165E+02  0.42056199920E+02  0.75257777673E+02  0.15500000000E+01 0. -1.
         -4    1    3    3    0  501  0.37315619113E+02  0.50001512165E+02  0.50179684059E+02  0.80081270225E+02  0.15500000000E+01 0. -1.
<mgrwt>
<rscale>  2 0.12499105E+03</rscale>
<asrwt>0</asrwt>
<pdfrwt beam="1">  1       21 0.19044225E-01 0.12499105E+03</pdfrwt>
<pdfrwt beam="2">  1       21 0.48540896E-02 0.12499105E+03</pdfrwt>
<totfact> 0.70109511E+06</totfact>
</mgrwt>
</event>
<event>
 5    0  0.1610491E+000  0.1249975E+03  0.7546771E-02  0.1235073E+00
         21   -1    0    0  503  502  0.00000000000E+00  0.00000000000E+00  0.19918568412E+02  0.19918568412E+02  0.00000000000E+00 0.  1.
         21   -1    0    0  502  503 -0.00000000000E+00 -0.00000000000E+00 -0.19610308707E+03  0.19610308707E+03  0.00000000000E+00 0.  1.
         25    2    1    2    0    0  0.00000000000E+00  0.00000000000E+00 -0.17618451866E+03  0.21602165548E+03  0.12499748406E+03 0.  0.
          4    1    3    3  501    0 -0.30611730853E+02 -0.15557924788E+01  0.59989741078E+01  0.31271212743E+02  0.15500000000E+01 0.  1.
         -4    1    3    3    0  501  0.30611730853E+02  0.15557924788E+01 -0.18218349276E+03  0.18475044274E+03  0.15500000000E+01 0.  1.
<mgrwt>
<rscale>  2 0.12499748E+03</rscale>
<asrwt>0</asrwt>
<pdfrwt beam="1">  1       21 0.30643952E-02 0.12499748E+03</pdfrwt>
<pdfrwt beam="2">  1       21 0.30169705E-01 0.12499748E+03</pdfrwt>
<totfact> 0.63235527E+06</totfact>
</mgrwt>
</event>
<event>
 5    0  0.1384946E+000  0.1249973E+03  0.7546771E-02  0.1235073E+00
         21   -1    0    0  503  502  0.00000000000E+00  0.00000000000E+00  0.43317508010E+03  0.43317508010E+03  0.00000000000E+00 0.  1.
         21   -1    0    0  502  503 -0.00000000000E+00 -0.00000000000E+00 -0.90173285986E+01  0.90173285986E+01  0.00000000000E+00 0.  1.
         25    2    1    2    0    0  0.00000000000E+00  0.00000000000E+00  0.42415775150E+03  0.44219240870E+03  0.12499731258E+03 0.  0.
          4    1    3    3  501    0  0.61566434734E+02 -0.80475854724E+01  0.18744477068E+03  0.19746679233E+03  0.15500000000E+01 0.  1.
         -4    1    3    3    0  501 -0.61566434734E+02  0.80475854724E+01  0.23671298082E+03  0.24472561637E+03  0.15500000000E+01 0.  1.
<mgrwt>
<rscale>  2 0.12499731E+03</rscale>
<asrwt>0</asrwt>
<pdfrwt beam="1">  1       21 0.66642304E-01 0.12499731E+03</pdfrwt>
<pdfrwt beam="2">  1       21 0.13872817E-02 0.12499731E+03</pdfrwt>
<totfact> 0.45366187E+06</totfact>
</mgrwt>
</event>
<event>
 5    0  0.1222151E+000  0.1250012E+03  0.7546771E-02  0.1235067E+00
         21   -1    0    0  503  502  0.00000000000E+00  0.00000000000E+00  0.91326808367E+03  0.91326808367E+03  0.00000000000E+00 0.  1.
         21   -1    0    0  502  503 -0.00000000000E+00 -0.00000000000E+00 -0.42773033795E+01  0.42773033795E+01  0.00000000000E+00 0.  1.
         25    2    1    2    0    0  0.00000000000E+00  0.00000000000E+00  0.90899078029E+03  0.91754538705E+03  0.12500119457E+03 0.  0.
          4    1    3    3  501    0  0.24740908880E+02 -0.23015069775E+02  0.84027064030E+03  0.84095122180E+03  0.15500000000E+01 0.  1.
         -4    1    3    3    0  501 -0.24740908880E+02  0.23015069775E+02  0.68720139998E+02  0.76594165250E+02  0.15500000000E+01 0.  1.
<mgrwt>
<rscale>  2 0.12500119E+03</rscale>
<asrwt>0</asrwt>
<pdfrwt beam="1">  1       21 0.14050263E+00 0.12500119E+03</pdfrwt>
<pdfrwt beam="2">  1       21 0.65804740E-03 0.12500119E+03</pdfrwt>
<totfact> 0.25800152E+06</totfact>
</mgrwt>
</event>
<event>
 5    0  0.1471221E+000  0.1250087E+03  0.7546771E-02  0.1235056E+00
         21   -1    0    0  503  502  0.00000000000E+00  0.00000000000E+00  0.15397823482E+03  0.15397823482E+03  0.00000000000E+00 0. -1.
         21   -1    0    0  502  503 -0.00000000000E+00 -0.00000000000E+00 -0.25372395695E+02  0.25372395695E+02  0.00000000000E+00 0. -1.
         25    2    1    2    0    0  0.00000000000E+00  0.00000000000E+00  0.12860583912E+03  0.17935063051E+03  0.12500874693E+03 0.  0.
          4    1    3    3  501    0  0.47423182082E+02 -0.33691268332E+02  0.31576100707E+02  0.66208099175E+02  0.15500000000E+01 0. -1.
         -4    1    3    3    0  501 -0.47423182082E+02  0.33691268332E+02  0.97029738414E+02  0.11314253134E+03  0.15500000000E+01 0. -1.
<mgrwt>
<rscale>  2 0.12500875E+03</rscale>
<asrwt>0</asrwt>
<pdfrwt beam="1">  1       21 0.23688959E-01 0.12500875E+03</pdfrwt>
<pdfrwt beam="2">  1       21 0.39034456E-02 0.12500875E+03</pdfrwt>
<totfact> 0.67211195E+06</totfact>
</mgrwt>
</event>
<event>
 4    0  0.1493390E+000  0.1252042E+03  0.7546771E-02  0.1234751E+00
         21   -1    0    0  503  502  0.00000000000E+00  0.00000000000E+00  0.52520681785E+02  0.52520681785E+02  0.00000000000E+00 0.  1.
         21   -1    0    0  502  503 -0.00000000000E+00 -0.00000000000E+00 -0.74618623943E+02  0.74618623943E+02  0.00000000000E+00 0.  1.
          4    1    1    2  501    0 -0.47586780965E+02 -0.94625714211E+01  0.29091428541E+02  0.56592894387E+02  0.15500000000E+01 0.  1.
         -4    1    1    2    0  501  0.47586780965E+02  0.94625714211E+01 -0.51189370700E+02  0.70546411341E+02  0.15500000000E+01 0.  1.
<mgrwt>
<rscale>  2 0.12520417E+03</rscale>
<asrwt>0</asrwt>
<pdfrwt beam="1">  1       21 0.80801049E-02 0.12520417E+03</pdfrwt>
<pdfrwt beam="2">  1       21 0.11479788E-01 0.12520417E+03</pdfrwt>
<totfact> 0.73367112E+06</totfact>
</mgrwt>
</event>
<event>
 5    0  0.1222151E+000  0.1250007E+03  0.7546771E-02  0.1235068E+00
         21   -1    0    0  503  502  0.00000000000E+00  0.00000000000E+00  0.45549208207E+01  0.45549208207E+01  0.00000000000E+00 0.  1.
         21   -1    0    0  502  503 -0.00000000000E+00 -0.00000000000E+00 -0.85759861898E+03  0.85759861898E+03  0.00000000000E+00 0.  1.
         25    2    1    2    0    0  0.00000000000E+00  0.00000000000E+00 -0.85304369816E+03  0.86215353980E+03  0.12500070088E+03 0.  0.
          4    1    3    3  501    0 -0.51547310651E+02  0.95062247471E+01 -0.19197705999E+03  0.19901027010E+03  0.15500000000E+01 0.  1.
         -4    1    3    3    0  501  0.51547310651E+02 -0.95062247471E+01 -0.66106663817E+03  0.66314326970E+03  0.15500000000E+01 0.  1.
<mgrwt>
<rscale>  2 0.12500070E+03</rscale>
<asrwt>0</asrwt>
<pdfrwt beam="1">  1       21 0.70075784E-03 0.12500070E+03</pdfrwt>
<pdfrwt beam="2">  1       21 0.13193810E+00 0.12500070E+03</pdfrwt>
<totfact> 0.27403562E+06</totfact>
</mgrwt>
</event>
<event>
 5    0  0.1643267E+000  0.1249872E+03  0.7546771E-02  0.1235089E+00
         21   -1    0    0  503  502  0.00000000000E+00  0.00000000000E+00  0.11104559236E+03  0.11104559236E+03  0.00000000000E+00 0.  1.
         21   -1    0    0  502  503 -0.00000000000E+00 -0.00000000000E+00 -0.35169766595E+02  0.35169766595E+02  0.00000000000E+00 0.  1.
         25    2    1    2    0    0  0.00000000000E+00  0.00000000000E+00  0.75875825769E+02  0.14621535896E+03  0.12498716038E+03 0.  0.
          4    1    3    3  501    0 -0.48940569486E+02  0.38748813123E+02  0.34979526993E+02  0.71572478431E+02  0.15500000000E+01 0. -1.
         -4    1    3    3    0  501  0.48940569486E+02 -0.38748813123E+02  0.40896298776E+02  0.74642880529E+02  0.15500000000E+01 0. -1.
<mgrwt>
<rscale>  2 0.12498716E+03</rscale>
<asrwt>0</asrwt>
<pdfrwt beam="1">  1       21 0.17083937E-01 0.12498716E+03</pdfrwt>
<pdfrwt beam="2">  1       21 0.54107334E-02 0.12498716E+03</pdfrwt>
<totfact> 0.71261220E+06</totfact>
</mgrwt>
</event>
<event>
 5    0  0.1484477E+000  0.1250046E+03  0.7546771E-02  0.1235062E+00
         21   -1    0    0  503  502  0.00000000000E+00  0.00000000000E+00  0.46516801865E+02  0.46516801865E+02  0.00000000000E+00 0.  1.
         21   -1    0    0  502  503 -0.00000000000E+00 -0.00000000000E+00 -0.83981248570E+02  0.83981248570E+02  0.00000000000E+00 0.  1.
         25    2    1    2    0    0  0.00000000000E+00  0.00000000000E+00 -0.37464446705E+02  0.13049805044E+03  0.12500462552E+03 0.  0.
          4    1    3    3  501    0  0.19038328913E+02  0.44394831367E+02  0.22642517554E+02  0.53370826498E+02  0.15500000000E+01 0.  1.
         -4    1    3    3    0  501 -0.19038328913E+02 -0.44394831367E+02 -0.60106964258E+02  0.77127223937E+02  0.15500000000E+01 0.  1.
<mgrwt>
<rscale>  2 0.12500463E+03</rscale>
<asrwt>0</asrwt>
<pdfrwt beam="1">  1       21 0.71564311E-02 0.12500463E+03</pdfrwt>
<pdfrwt beam="2">  1       21 0.12920192E-01 0.12500463E+03</pdfrwt>
<totfact> 0.73289746E+06</totfact>
</mgrwt>
</event>
<event>
 5    0  0.1399961E+000  0.1249991E+03  0.7546771E-02  0.1235071E+00
         21   -1    0    0  503  502  0.00000000000E+00  0.00000000000E+00  0.41961268165E+03  0.41961268165E+03  0.00000000000E+00 0. -1.
         21   -1    0    0  502  503 -0.00000000000E+00 -0.00000000000E+00 -0.93090500125E+01  0.93090500125E+01  0.00000000000E+00 0. -1.
         25    2    1    2    0    0  0.00000000000E+00  0.00000000000E+00  0.41030363164E+03  0.42892173166E+03  0.12499912703E+03 0.  0.
          4    1    3    3  501    0  0.21080093327E+02 -0.58471519267E+02  0.18331344487E+03  0.19357042767E+03  0.15500000000E+01 0. -1.
         -4    1    3    3    0  501 -0.21080093327E+02  0.58471519267E+02  0.22699018677E+03  0.23535130399E+03  0.15500000000E+01 0. -1.
<mgrwt>
<rscale>  2 0.12499913E+03</rscale>
<asrwt>0</asrwt>
<pdfrwt beam="1">  1       21 0.64555782E-01 0.12499913E+03</pdfrwt>
<pdfrwt beam="2">  1       21 0.14321619E-02 0.12499913E+03</pdfrwt>
<totfact> 0.46181370E+06</totfact>
</mgrwt>
</event>
<event>
 5    0  0.1222151E+000  0.1250004E+03  0.7546771E-02  0.1235069E+00
         21   -1    0    0  503  502  0.00000000000E+00  0.00000000000E+00  0.11105223280E+03  0.11105223280E+03  0.00000000000E+00 0.  1.
         21   -1    0    0  502  503 -0.00000000000E+00 -0.00000000000E+00 -0.35175142167E+02  0.35175142167E+02  0.00000000000E+00 0.  1.
         25    2    1    2    0    0  0.00000000000E+00  0.00000000000E+00  0.75877090629E+02  0.14622737496E+03  0.12500044922E+03 0.  0.
          4    1    3    3  501    0  0.40433167248E+01  0.24229842111E+02  0.10514378852E+03  0.10798635295E+03  0.15500000000E+01 0. -1.
         -4    1    3    3    0  501 -0.40433167248E+01 -0.24229842111E+02 -0.29266697894E+02  0.38241022012E+02  0.15500000000E+01 0. -1.
<mgrwt>
<rscale>  2 0.12500045E+03</rscale>
<asrwt>0</asrwt>
<pdfrwt beam="1">  1       21 0.17084959E-01 0.12500045E+03</pdfrwt>
<pdfrwt beam="2">  1       21 0.54115604E-02 0.12500045E+03</pdfrwt>
<totfact> 0.71235579E+06</totfact>
</mgrwt>
</event>
<event>
 5    0  0.1538815E+000  0.1249994E+03  0.7546771E-02  0.1235070E+00
         21   -1    0    0  503  502  0.00000000000E+00  0.00000000000E+00  0.44871357344E+02  0.44871357344E+02  0.00000000000E+00 0. -1.
         21   -1    0    0  502  503 -0.00000000000E+00 -0.00000000000E+00 -0.87053630364E+02  0.87053630364E+02  0.00000000000E+00 0. -1.
         25    2    1    2    0    0  0.00000000000E+00  0.00000000000E+00 -0.42182273020E+02  0.13192498771E+03  0.12499943290E+03 0.  0.
          4    1    3    3  501    0  0.34215980524E+02 -0.28789264346E+02 -0.67146668059E+02  0.80688491102E+02  0.15500000000E+01 0. -1.
         -4    1    3    3    0  501 -0.34215980524E+02  0.28789264346E+02  0.24964395039E+02  0.51236496607E+02  0.15500000000E+01 0. -1.
<mgrwt>
<rscale>  2 0.12499943E+03</rscale>
<asrwt>0</asrwt>
<pdfrwt beam="1">  1       21 0.69032858E-02 0.12499943E+03</pdfrwt>
<pdfrwt beam="2">  1       21 0.13392866E-01 0.12499943E+03</pdfrwt>
<totfact> 0.73107350E+06</totfact>
</mgrwt>
</event>
<event>
 5    0  0.1566713E+000  0.1250033E+03  0.7546771E-02  0.1235064E+00
         21   -1    0    0  503  502  0.00000000000E+00  0.00000000000E+00  0.22055377455E+02  0.22055377455E+02  0.00000000000E+00 0.  1.
         21   -1    0    0  502  503 -0.00000000000E+00 -0.00000000000E+00 -0.17712022776E+03  0.17712022776E+03  0.00000000000E+00 0.  1.
         25    2    1    2    0    0  0.00000000000E+00  0.00000000000E+00 -0.15506485031E+03  0.19917560522E+03  0.12500325561E+03 0.  0.
          4    1    3    3  501    0 -0.89548225290E+01 -0.61285808254E+02 -0.90663115668E+02  0.10981048303E+03  0.15500000000E+01 0. -1.
         -4    1    3    3    0  501  0.89548225290E+01  0.61285808254E+02 -0.64401734640E+02  0.89365122192E+02  0.15500000000E+01 0. -1.
<mgrwt>
<rscale>  2 0.12500326E+03</rscale>
<asrwt>0</asrwt>
<pdfrwt beam="1">  1       21 0.33931349E-02 0.12500326E+03</pdfrwt>
<pdfrwt beam="2">  1       21 0.27249266E-01 0.12500326E+03</pdfrwt>
<totfact> 0.65011331E+06</totfact>
</mgrwt>
</event>
<event>
 4    0  0.1927126E+000  0.1247479E+03  0.7546771E-02  0.1235464E+00
         21   -1    0    0  503  502  0.00000000000E+00  0.00000000000E+00  0.76337288789E+02  0.76337288789E+02  0.00000000000E+00 0. -1.
         21   -1    0    0  502  503 -0.00000000000E+00 -0.00000000000E+00 -0.50964720417E+02  0.50964720417E+02  0.00000000000E+00 0. -1.
          4    1    1    2  501    0 -0.44834872333E+01  0.36913132224E+02 -0.38392762719E+02  0.53470437791E+02  0.15500000000E+01 0. -1.
         -4    1    1    2    0  501  0.44834872333E+01 -0.36913132224E+02  0.63765331091E+02  0.73831571415E+02  0.15500000000E+01 0. -1.
<mgrwt>
<rscale>  2 0.12474788E+03</rscale>
<asrwt>0</asrwt>
<pdfrwt beam="1">  1       21 0.11744198E-01 0.12474788E+03</pdfrwt>
<pdfrwt beam="2">  1       21 0.78407262E-02 0.12474788E+03</pdfrwt>
<totfact> 0.74204567E+06</totfact>
</mgrwt>
</event>
<event>
 5    0  0.1540463E+000  0.1250084E+03  0.7546771E-02  0.1235056E+00
         21   -1    0    0  503  502  0.00000000000E+00  0.00000000000E+00  0.50739971927E+02  0.50739971927E+02  0.00000000000E+00 0. -1.
         21   -1    0    0  502  503 -0.00000000000E+00 -0.00000000000E+00 -0.76995982248E+02  0.76995982248E+02  0.00000000000E+00 0. -1.
         25    2    1    2    0    0  0.00000000000E+00  0.00000000000E+00 -0.26256010321E+02  0.12773595418E+03  0.12500838336E+03 0.  0.
          4    1    3    3  501    0 -0.45866470927E+02  0.12194656506E+02 -0.54658744601E+02  0.72404583170E+02  0.15500000000E+01 0.  1.
         -4    1    3    3    0  501  0.45866470927E+02 -0.12194656506E+02  0.28402734281E+02  0.55331371005E+02  0.15500000000E+01 0.  1.
<mgrwt>
<rscale>  2 0.12500838E+03</rscale>
<asrwt>0</asrwt>
<pdfrwt beam="1">  1       21 0.78061496E-02 0.12500838E+03</pdfrwt>
<pdfrwt beam="2">  1       21 0.11845536E-01 0.12500838E+03</pdfrwt>
<totfact> 0.73653495E+06</totfact>
</mgrwt>
</event>
<event>
 5    0  0.1468485E+000  0.1249968E+03  0.7546771E-02  0.1235074E+00
         21   -1    0    0  503  502  0.00000000000E+00  0.00000000000E+00  0.26065564576E+03  0.26065564576E+03  0.00000000000E+00 0. -1.
         21   -1    0    0  502  503 -0.00000000000E+00 -0.00000000000E+00 -0.14985484057E+02  0.14985484057E+02  0.00000000000E+00 0. -1.
         25    2    1    2    0    0  0.00000000000E+00  0.00000000000E+00  0.24567016170E+03  0.27564112982E+03  0.12499681634E+03 0.  0.
          4    1    3    3  501    0 -0.40264682007E+02 -0.28077036064E+02  0.20807294724E+03  0.21379036097E+03  0.15500000000E+01 0.  1.
         -4    1    3    3    0  501  0.40264682007E+02  0.28077036064E+02  0.37597214461E+02  0.61850768843E+02  0.15500000000E+01 0.  1.
<mgrwt>
<rscale>  2 0.12499682E+03</rscale>
<asrwt>0</asrwt>
<pdfrwt beam="1">  1       21 0.40100865E-01 0.12499682E+03</pdfrwt>
<pdfrwt beam="2">  1       21 0.23054593E-02 0.12499682E+03</pdfrwt>
<totfact> 0.57547866E+06</totfact>
</mgrwt>
</event>
<event>
 5    0  0.1521486E+000  0.1249948E+03  0.7546771E-02  0.1235077E+00
         21   -1    0    0  503  502  0.00000000000E+00  0.00000000000E+00  0.31040574549E+03  0.31040574549E+03  0.00000000000E+00 0.  1.
         21   -1    0    0  502  503 -0.00000000000E+00 -0.00000000000E+00 -0.12583292200E+02  0.12583292200E+02  0.00000000000E+00 0.  1.
         25    2    1    2    0    0  0.00000000000E+00  0.00000000000E+00  0.29782245329E+03  0.32298903769E+03  0.12499481903E+03 0.  0.
          4    1    3    3  501    0  0.27450342553E+02  0.55684142049E+02  0.16705073258E+03  0.17822063499E+03  0.15500000000E+01 0. -1.
         -4    1    3    3    0  501 -0.27450342553E+02 -0.55684142049E+02  0.13077172071E+03  0.14476840269E+03  0.15500000000E+01 0. -1.
<mgrwt>
<rscale>  2 0.12499482E+03</rscale>
<asrwt>0</asrwt>
<pdfrwt beam="1">  1       21 0.47754724E-01 0.12499482E+03</pdfrwt>
<pdfrwt beam="2">  1       21 0.19358913E-02 0.12499482E+03</pdfrwt>
<totfact> 0.53604292E+06</totfact>
</mgrwt>
</event>
<event>
 5    0  0.1658307E+000  0.1249984E+03  0.7546771E-02  0.1235072E+00
         21   -1    0    0  503  502  0.00000000000E+00  0.00000000000E+00  0.51287642156E+02  0.51287642156E+02  0.00000000000E+00 0.  1.
         21   -1    0    0  502  503 -0.00000000000E+00 -0.00000000000E+00 -0.76161573877E+02  0.76161573877E+02  0.00000000000E+00 0.  1.
         25    2    1    2    0    0  0.00000000000E+00  0.00000000000E+00 -0.24873931720E+02  0.12744921603E+03  0.12499836074E+03 0.  0.
          4    1    3    3  501    0 -0.53295054707E+02  0.26693710520E+02  0.66606863680E+01  0.59997368946E+02  0.15500000000E+01 0. -1.
         -4    1    3    3    0  501  0.53295054707E+02 -0.26693710520E+02 -0.31534618088E+02  0.67451847087E+02  0.15500000000E+01 0. -1.
<mgrwt>
<rscale>  2 0.12499836E+03</rscale>
<asrwt>0</asrwt>
<pdfrwt beam="1">  1       21 0.78904065E-02 0.12499836E+03</pdfrwt>
<pdfrwt beam="2">  1       21 0.11717165E-01 0.12499836E+03</pdfrwt>
<totfact> 0.73711188E+06</totfact>
</mgrwt>
</event>
<event>
 5    0  0.1424111E+000  0.1250044E+03  0.7546771E-02  0.1235062E+00
         21   -1    0    0  503  502  0.00000000000E+00  0.00000000000E+00  0.43700420255E+03  0.43700420255E+03  0.00000000000E+00 0. -1.
         21   -1    0    0  502  503 -0.00000000000E+00 -0.00000000000E+00 -0.89393371671E+01  0.89393371671E+01  0.00000000000E+00 0. -1.
         25    2    1    2    0    0  0.00000000000E+00  0.00000000000E+00  0.42806486538E+03  0.44594353971E+03  0.12500444648E+03 0.  0.
          4    1    3    3  501    0  0.55451064903E+02 -0.26881661878E+02  0.25087908940E+03  0.25834117818E+03  0.15500000000E+01 0.  1.
         -4    1    3    3    0  501 -0.55451064903E+02  0.26881661878E+02  0.17718577597E+03  0.18760236153E+03  0.15500000000E+01 0.  1.
<mgrwt>
<rscale>  2 0.12500445E+03</rscale>
<asrwt>0</asrwt>
<pdfrwt beam="1">  1       21 0.67231399E-01 0.12500445E+03</pdfrwt>
<pdfrwt beam="2">  1       21 0.13752830E-02 0.12500445E+03</pdfrwt>
<totfact> 0.45130997E+06</totfact>
</mgrwt>
</event>
<event>
 5    0  0.1470372E+000  0.1250171E+03  0.7546771E-02  0.1235043E+00
         21   -1    0    0  503  502  0.00000000000E+00  0.00000000000E+00  0.21950897484E+02  0.21950897484E+02  0.00000000000E+00 0. -1.
         21   -1    0    0  502  503 -0.00000000000E+00 -0.00000000000E+00 -0.17800256797E+03  0.17800256797E+03  0.00000000000E+00 0. -1.
         25    2    1    2    0    0  0.00000000000E+00  0.00000000000E+00 -0.15605167048E+03  0.19995346545E+03  0.12501705678E+03 0.  0.
          4    1    3    3  501    0  0.42651429119E+02  0.76467551026E+01 -0.15004005913E+03  0.15617950926E+03  0.15500000000E+01 0.  1.
         -4    1    3    3    0  501 -0.42651429119E+02 -0.76467551026E+01 -0.60116113539E+01  0.43773956190E+02  0.15500000000E+01 0.  1.
<mgrwt>
<rscale>  2 0.12501706E+03</rscale>
<asrwt>0</asrwt>
<pdfrwt beam="1">  1       21 0.33770612E-02 0.12501706E+03</pdfrwt>
<pdfrwt beam="2">  1       21 0.27385010E-01 0.12501706E+03</pdfrwt>
<totfact> 0.64904264E+06</totfact>
</mgrwt>
</event>
<event>
 5    0  0.1222151E+000  0.1249996E+03  0.7546771E-02  0.1235070E+00
         21   -1    0    0  503  502  0.00000000000E+00  0.00000000000E+00  0.19126995938E+04  0.19126995938E+04  0.00000000000E+00 0. -1.
         21   -1    0    0  502  503 -0.00000000000E+00 -0.00000000000E+00 -0.20422569613E+01  0.20422569613E+01  0.00000000000E+00 0. -1.
         25    2    1    2    0    0  0.00000000000E+00  0.00000000000E+00  0.19106573368E+04  0.19147418508E+04  0.12499958496E+03 0.  0.
          4    1    3    3  501    0  0.54048374870E+02 -0.23721932421E+02  0.12692033736E+04  0.12705760752E+04  0.15500000000E+01 0.  1.
         -4    1    3    3    0  501 -0.54048374870E+02  0.23721932421E+02  0.64145396325E+03  0.64416577554E+03  0.15500000000E+01 0.  1.
<mgrwt>
<rscale>  2 0.12499958E+03</rscale>
<asrwt>0</asrwt>
<pdfrwt beam="1">  1       21 0.29426004E+00 0.12499958E+03</pdfrwt>
<pdfrwt beam="2">  1       21 0.31419491E-03 0.12499958E+03</pdfrwt>
<totfact> 0.88098671E+05</totfact>
</mgrwt>
</event>
<event>
 5    0  0.1550118E+000  0.1250056E+03  0.7546771E-02  0.1235061E+00
         21   -1    0    0  503  502  0.00000000000E+00  0.00000000000E+00  0.87625648947E+02  0.87625648947E+02  0.00000000000E+00 0. -1.
         21   -1    0    0  502  503 -0.00000000000E+00 -0.00000000000E+00 -0.44582811401E+02  0.44582811401E+02  0.00000000000E+00 0. -1.
         25    2    1    2    0    0  0.00000000000E+00  0.00000000000E+00  0.43042837546E+02  0.13220846035E+03  0.12500556437E+03 0.  0.
          4    1    3    3  501    0 -0.19682828994E+02 -0.53395577605E+02 -0.57662957968E+01  0.57220224853E+02  0.15500000000E+01 0.  1.
         -4    1    3    3    0  501  0.19682828994E+02  0.53395577605E+02  0.48809133343E+02  0.74988235495E+02  0.15500000000E+01 0.  1.
<mgrwt>
<rscale>  2 0.12500556E+03</rscale>
<asrwt>0</asrwt>
<pdfrwt beam="1">  1       21 0.13480869E-01 0.12500556E+03</pdfrwt>
<pdfrwt beam="2">  1       21 0.68588941E-02 0.12500556E+03</pdfrwt>
<totfact> 0.73057910E+06</totfact>
</mgrwt>
</event>
<event>
 5    0  0.1546260E+000  0.1250056E+03  0.7546771E-02  0.1235060E+00
         21   -1    0    0  503  502  0.00000000000E+00  0.00000000000E+00  0.34730357657E+02  0.34730357657E+02  0.00000000000E+00 0. -1.
         21   -1    0    0  502  503 -0.00000000000E+00 -0.00000000000E+00 -0.11248377833E+03  0.11248377833E+03  0.00000000000E+00 0. -1.
         25    2    1    2    0    0  0.00000000000E+00  0.00000000000E+00 -0.77753420678E+02  0.14721413599E+03  0.12500562951E+03 0.  0.
          4    1    3    3  501    0 -0.29548184579E+02 -0.20470697773E+02  0.21311450712E+02  0.41817760709E+02  0.15500000000E+01 0.  1.
         -4    1    3    3    0  501  0.29548184579E+02  0.20470697773E+02 -0.99064871390E+02  0.10539637528E+03  0.15500000000E+01 0.  1.
<mgrwt>
<rscale>  2 0.12500563E+03</rscale>
<asrwt>0</asrwt>
<pdfrwt beam="1">  1       21 0.53431319E-02 0.12500563E+03</pdfrwt>
<pdfrwt beam="2">  1       21 0.17305197E-01 0.12500563E+03</pdfrwt>
<totfact> 0.71100743E+06</totfact>
</mgrwt>
</event>
<event>
 5    0  0.1676813E+000  0.1250178E+03  0.7546771E-02  0.1235042E+00
         21   -1    0    0  503  502  0.00000000000E+00  0.00000000000E+00  0.33317102931E+02  0.33317102931E+02  0.00000000000E+00 0.  1.
         21   -1    0    0  502  503 -0.00000000000E+00 -0.00000000000E+00 -0.11727789532E+03  0.11727789532E+03  0.00000000000E+00 0.  1.
         25    2    1    2    0    0  0.00000000000E+00  0.00000000000E+00 -0.83960792393E+02  0.15059499825E+03  0.12501775410E+03 0.  0.
          4    1    3    3  501    0 -0.42405935482E+02 -0.23550241850E+01 -0.97196676534E+02  0.10608207168E+03  0.15500000000E+01 0.  1.
         -4    1    3    3    0  501  0.42405935482E+02  0.23550241850E+01  0.13235884142E+02  0.44512926572E+02  0.15500000000E+01 0.  1.
<mgrwt>
<rscale>  2 0.12501775E+03</rscale>
<asrwt>0</asrwt>
<pdfrwt beam="1">  1       21 0.51257082E-02 0.12501775E+03</pdfrwt>
<pdfrwt beam="2">  1       21 0.18042753E-01 0.12501775E+03</pdfrwt>
<totfact> 0.70652605E+06</totfact>
</mgrwt>
</event>
<event>
 5    0  0.1222151E+000  0.1250051E+03  0.7546771E-02  0.1235061E+00
         21   -1    0    0  503  502  0.00000000000E+00  0.00000000000E+00  0.18329596337E+04  0.18329596337E+04  0.00000000000E+00 0. -1.
         21   -1    0    0  502  503 -0.00000000000E+00 -0.00000000000E+00 -0.21312917469E+01  0.21312917469E+01  0.00000000000E+00 0. -1.
         25    2    1    2    0    0  0.00000000000E+00  0.00000000000E+00  0.18308283419E+04  0.18350909254E+04  0.12500514773E+03 0.  0.
          4    1    3    3  501    0  0.21268851151E+02 -0.52912411600E+02  0.54054410230E+03  0.54354614925E+03  0.15500000000E+01 0. -1.
         -4    1    3    3    0  501 -0.21268851151E+02  0.52912411600E+02  0.12902842396E+04  0.12915447762E+04  0.15500000000E+01 0. -1.
<mgrwt>
<rscale>  2 0.12500515E+03</rscale>
<asrwt>0</asrwt>
<pdfrwt beam="1">  1       21 0.28199253E+00 0.12500515E+03</pdfrwt>
<pdfrwt beam="2">  1       21 0.32789250E-03 0.12500515E+03</pdfrwt>
<totfact> 0.96708383E+05</totfact>
</mgrwt>
</event>
<event>
 5    0  0.1513707E+000  0.1250001E+03  0.7546771E-02  0.1235069E+00
         21   -1    0    0  503  502  0.00000000000E+00  0.00000000000E+00  0.22216037941E+03  0.22216037941E+03  0.00000000000E+00 0. -1.
         21   -1    0    0  502  503 -0.00000000000E+00 -0.00000000000E+00 -0.17583036117E+02  0.17583036117E+02  0.00000000000E+00 0. -1.
         25    2    1    2    0    0  0.00000000000E+00  0.00000000000E+00  0.20457734329E+03  0.23974341552E+03  0.12500006360E+03 0.  0.
          4    1    3    3  501    0  0.40044301134E+02  0.46686270215E+02  0.81217641790E+02  0.10189142122E+03  0.15500000000E+01 0.  1.
         -4    1    3    3    0  501 -0.40044301134E+02 -0.46686270215E+02  0.12335970150E+03  0.13785199431E+03  0.15500000000E+01 0.  1.
<mgrwt>
<rscale>  2 0.12500006E+03</rscale>
<asrwt>0</asrwt>
<pdfrwt beam="1">  1       21 0.34178518E-01 0.12500006E+03</pdfrwt>
<pdfrwt beam="2">  1       21 0.27050826E-02 0.12500006E+03</pdfrwt>
<totfact> 0.60857404E+06</totfact>
</mgrwt>
</event>
<event>
 5    0  0.1509895E+000  0.1250118E+03  0.7546771E-02  0.1235051E+00
         21   -1    0    0  503  502  0.00000000000E+00  0.00000000000E+00  0.36557553305E+02  0.36557553305E+02  0.00000000000E+00 0. -1.
         21   -1    0    0  502  503 -0.00000000000E+00 -0.00000000000E+00 -0.10687222307E+03  0.10687222307E+03  0.00000000000E+00 0. -1.
         25    2    1    2    0    0  0.00000000000E+00  0.00000000000E+00 -0.70314669767E+02  0.14342977638E+03  0.12501179131E+03 0.  0.
          4    1    3    3  501    0  0.30983064410E+02 -0.11078439033E+02  0.25790648080E+02  0.41835895114E+02  0.15500000000E+01 0.  1.
         -4    1    3    3    0  501 -0.30983064410E+02  0.11078439033E+02 -0.96105317847E+02  0.10159388126E+03  0.15500000000E+01 0.  1.
<mgrwt>
<rscale>  2 0.12501179E+03</rscale>
<asrwt>0</asrwt>
<pdfrwt beam="1">  1       21 0.56242390E-02 0.12501179E+03</pdfrwt>
<pdfrwt beam="2">  1       21 0.16441880E-01 0.12501179E+03</pdfrwt>
<totfact> 0.71573162E+06</totfact>
</mgrwt>
</event>
<event>
 5    0  0.1447291E+000  0.1250021E+03  0.7546771E-02  0.1235066E+00
         21   -1    0    0  503  502  0.00000000000E+00  0.00000000000E+00  0.10613417812E+03  0.10613417812E+03  0.00000000000E+00 0. -1.
         21   -1    0    0  502  503 -0.00000000000E+00 -0.00000000000E+00 -0.36806048788E+02  0.36806048788E+02  0.00000000000E+00 0. -1.
         25    2    1    2    0    0  0.00000000000E+00  0.00000000000E+00  0.69328129330E+02  0.14294022690E+03  0.12500207579E+03 0.  0.
          4    1    3    3  501    0 -0.14161802212E+02  0.39694869318E+02 -0.18082758927E+02  0.45887121968E+02  0.15500000000E+01 0. -1.
         -4    1    3    3    0  501  0.14161802212E+02 -0.39694869318E+02  0.87410888256E+02  0.97053104937E+02  0.15500000000E+01 0. -1.
<mgrwt>
<rscale>  2 0.12500208E+03</rscale>
<asrwt>0</asrwt>
<pdfrwt beam="1">  1       21 0.16328335E-01 0.12500208E+03</pdfrwt>
<pdfrwt beam="2">  1       21 0.56624691E-02 0.12500208E+03</pdfrwt>
<totfact> 0.71653965E+06</totfact>
</mgrwt>
</event>
<event>
 5    0  0.1579888E+000  0.1249980E+03  0.7546771E-02  0.1235072E+00
         21   -1    0    0  503  502  0.00000000000E+00  0.00000000000E+00  0.23094773995E+02  0.23094773995E+02  0.00000000000E+00 0.  1.
         21   -1    0    0  502  503 -0.00000000000E+00 -0.00000000000E+00 -0.16913466152E+03  0.16913466152E+03  0.00000000000E+00 0.  1.
         25    2    1    2    0    0  0.00000000000E+00  0.00000000000E+00 -0.14603988752E+03  0.19222943551E+03  0.12499802850E+03 0.  0.
          4    1    3    3  501    0 -0.27413229174E+02 -0.55813947775E+02 -0.63660152070E+02  0.89003928910E+02  0.15500000000E+01 0. -1.
         -4    1    3    3    0  501  0.27413229174E+02  0.55813947775E+02 -0.82379735454E+02  0.10322550660E+03  0.15500000000E+01 0. -1.
<mgrwt>
<rscale>  2 0.12499803E+03</rscale>
<asrwt>0</asrwt>
<pdfrwt beam="1">  1       21 0.35530423E-02 0.12499803E+03</pdfrwt>
<pdfrwt beam="2">  1       21 0.26020716E-01 0.12499803E+03</pdfrwt>
<totfact> 0.65778822E+06</totfact>
</mgrwt>
</event>
<event>
 5    0  0.1253611E+000  0.1249927E+03  0.7546771E-02  0.1235081E+00
         21   -1    0    0  503  502  0.00000000000E+00  0.00000000000E+00  0.47122261386E+03  0.47122261386E+03  0.00000000000E+00 0. -1.
         21   -1    0    0  502  503 -0.00000000000E+00 -0.00000000000E+00 -0.82886344750E+01  0.82886344750E+01  0.00000000000E+00 0. -1.
         25    2    1    2    0    0  0.00000000000E+00  0.00000000000E+00  0.46293397938E+03  0.47951124833E+03  0.12499267183E+03 0.  0.
          4    1    3    3  501    0  0.28021070136E+02 -0.37792195433E+02  0.38917448854E+03  0.39201098892E+03  0.15500000000E+01 0. -1.
         -4    1    3    3    0  501 -0.28021070136E+02  0.37792195433E+02  0.73759490846E+02  0.87500259411E+02  0.15500000000E+01 0. -1.
<mgrwt>
<rscale>  2 0.12499267E+03</rscale>
<asrwt>0</asrwt>
<pdfrwt beam="1">  1       21 0.72495766E-01 0.12499267E+03</pdfrwt>
<pdfrwt beam="2">  1       21 0.12751749E-02 0.12499267E+03</pdfrwt>
<totfact> 0.43185364E+06</totfact>
</mgrwt>
</event>
<event>
 5    0  0.1449557E+000  0.1250052E+03  0.7546771E-02  0.1235061E+00
         21   -1    0    0  503  502  0.00000000000E+00  0.00000000000E+00  0.29499563050E+03  0.29499563050E+03  0.00000000000E+00 0.  1.
         21   -1    0    0  502  503 -0.00000000000E+00 -0.00000000000E+00 -0.13242821004E+02  0.13242821004E+02  0.00000000000E+00 0.  1.
         25    2    1    2    0    0  0.00000000000E+00  0.00000000000E+00  0.28175280949E+03  0.30823845150E+03  0.12500518920E+03 0.  0.
          4    1    3    3  501    0  0.13454257874E+02  0.61017510383E+02  0.14120908934E+03  0.15442332415E+03  0.15500000000E+01 0. -1.
         -4    1    3    3    0  501 -0.13454257874E+02 -0.61017510383E+02  0.14054372015E+03  0.15381512735E+03  0.15500000000E+01 0. -1.
<mgrwt>
<rscale>  2 0.12500519E+03</rscale>
<asrwt>0</asrwt>
<pdfrwt beam="1">  1       21 0.45383938E-01 0.12500519E+03</pdfrwt>
<pdfrwt beam="2">  1       21 0.20373573E-02 0.12500519E+03</pdfrwt>
<totfact> 0.54771265E+06</totfact>
</mgrwt>
</event>
<event>
 4    0  0.1413683E+000  0.1252884E+03  0.7546771E-02  0.1234619E+00
         21   -1    0    0  503  502  0.00000000000E+00  0.00000000000E+00  0.11576345897E+03  0.11576345897E+03  0.00000000000E+00 0.  1.
         21   -1    0    0  502  503 -0.00000000000E+00 -0.00000000000E+00 -0.33899264841E+02  0.33899264841E+02  0.00000000000E+00 0.  1.
          4    1    1    2  501    0 -0.26135084564E+02 -0.35787382351E+02 -0.11927248083E+02  0.45917764835E+02  0.15500000000E+01 0. -1.
         -4    1    1    2    0  501  0.26135084564E+02  0.35787382351E+02  0.93791442213E+02  0.10374495898E+03  0.15500000000E+01 0. -1.
<mgrwt>
<rscale>  2 0.12528841E+03</rscale>
<asrwt>0</asrwt>
<pdfrwt beam="1">  1       21 0.17809763E-01 0.12528841E+03</pdfrwt>
<pdfrwt beam="2">  1       21 0.52152716E-02 0.12528841E+03</pdfrwt>
<totfact> 0.70284227E+06</totfact>
</mgrwt>
</event>
<event>
 5    0  0.1275214E+000  0.1249832E+03  0.7546771E-02  0.1235096E+00
         21   -1    0    0  503  502  0.00000000000E+00  0.00000000000E+00  0.89626701267E+03  0.89626701267E+03  0.00000000000E+00 0. -1.
         21   -1    0    0  502  503 -0.00000000000E+00 -0.00000000000E+00 -0.43571815999E+01  0.43571815999E+01  0.00000000000E+00 0. -1.
         25    2    1    2    0    0  0.00000000000E+00  0.00000000000E+00  0.89190983107E+03  0.90062419427E+03  0.12498316905E+03 0.  0.
          4    1    3    3  501    0 -0.56675652759E+02 -0.31697461330E+00  0.63531765642E+03  0.63784258023E+03  0.15500000000E+01 0. -1.
         -4    1    3    3    0  501  0.56675652759E+02  0.31697461330E+00  0.25659217465E+03  0.26278161404E+03  0.15500000000E+01 0. -1.
<mgrwt>
<rscale>  2 0.12498317E+03</rscale>
<asrwt>0</asrwt>
<pdfrwt beam="1">  1       21 0.13788709E+00 0.12498317E+03</pdfrwt>
<pdfrwt beam="2">  1       21 0.67033634E-03 0.12498317E+03</pdfrwt>
<totfact> 0.26292151E+06</totfact>
</mgrwt>
</event>
<event>
 5    0  0.1383854E+000  0.1250028E+03  0.7546771E-02  0.1235065E+00
         21   -1    0    0  503  502  0.00000000000E+00  0.00000000000E+00  0.11882373113E+02  0.11882373113E+02  0.00000000000E+00 0. -1.
         21   -1    0    0  502  503 -0.00000000000E+00 -0.00000000000E+00 -0.32875790970E+03  0.32875790970E+03  0.00000000000E+00 0. -1.
         25    2    1    2    0    0  0.00000000000E+00  0.00000000000E+00 -0.31687553659E+03  0.34064028282E+03  0.12500278632E+03 0.  0.
          4    1    3    3  501    0 -0.26904299408E+01 -0.56723822548E+02 -0.87419131327E+02  0.10425611483E+03  0.15500000000E+01 0. -1.
         -4    1    3    3    0  501  0.26904299408E+01  0.56723822548E+02 -0.22945640526E+03  0.23638416799E+03  0.15500000000E+01 0. -1.
<mgrwt>
<rscale>  2 0.12500279E+03</rscale>
<asrwt>0</asrwt>
<pdfrwt beam="1">  1       21 0.18280575E-02 0.12500279E+03</pdfrwt>
<pdfrwt beam="2">  1       21 0.50578138E-01 0.12500279E+03</pdfrwt>
<totfact> 0.52233543E+06</totfact>
</mgrwt>
</event>
<event>
 5    0  0.1389920E+000  0.1250031E+03  0.7546771E-02  0.1235064E+00
         21   -1    0    0  503  502  0.00000000000E+00  0.00000000000E+00  0.75307894581E+01  0.75307894581E+01  0.00000000000E+00 0. -1.
         21   -1    0    0  502  503 -0.00000000000E+00 -0.00000000000E+00 -0.51872938401E+03  0.51872938401E+03  0.00000000000E+00 0. -1.
         25    2    1    2    0    0  0.00000000000E+00  0.00000000000E+00 -0.51119859456E+03  0.52626017347E+03  0.12500306839E+03 0.  0.
          4    1    3    3  501    0  0.50810613216E+02  0.24845979446E+02 -0.14381679561E+03  0.15454680297E+03  0.15500000000E+01 0. -1.
         -4    1    3    3    0  501 -0.50810613216E+02 -0.24845979446E+02 -0.36738179895E+03  0.37171337050E+03  0.15500000000E+01 0. -1.
<mgrwt>
<rscale>  2 0.12500307E+03</rscale>
<asrwt>0</asrwt>
<pdfrwt beam="1">  1       21 0.11585831E-02 0.12500307E+03</pdfrwt>
<pdfrwt beam="2">  1       21 0.79804512E-01 0.12500307E+03</pdfrwt>
<totfact> 0.40651715E+06</totfact>
</mgrwt>
</event>
<event>
 5    0  0.1525793E+000  0.1250012E+03  0.7546771E-02  0.1235067E+00
         21   -1    0    0  503  502  0.00000000000E+00  0.00000000000E+00  0.47529992724E+02  0.47529992724E+02  0.00000000000E+00 0.  1.
         21   -1    0    0  502  503 -0.00000000000E+00 -0.00000000000E+00 -0.82186516875E+02  0.82186516875E+02  0.00000000000E+00 0.  1.
         25    2    1    2    0    0  0.00000000000E+00  0.00000000000E+00 -0.34656524151E+02  0.12971650960E+03  0.12500119278E+03 0.  0.
          4    1    3    3  501    0  0.32961641853E+01  0.43093949633E+02 -0.64152062736E+02  0.77368228923E+02  0.15500000000E+01 0.  1.
         -4    1    3    3    0  501 -0.32961641853E+01 -0.43093949633E+02  0.29495538586E+02  0.52348280677E+02  0.15500000000E+01 0.  1.
<mgrwt>
<rscale>  2 0.12500119E+03</rscale>
<asrwt>0</asrwt>
<pdfrwt beam="1">  1       21 0.73123066E-02 0.12500119E+03</pdfrwt>
<pdfrwt beam="2">  1       21 0.12644079E-01 0.12500119E+03</pdfrwt>
<totfact> 0.73400592E+06</totfact>
</mgrwt>
</event>
<event>
 5    0  0.1222151E+000  0.1250045E+03  0.7546771E-02  0.1235062E+00
         21   -1    0    0  503  502  0.00000000000E+00  0.00000000000E+00  0.18254896807E+01  0.18254896807E+01  0.00000000000E+00 0. -1.
         21   -1    0    0  502  503 -0.00000000000E+00 -0.00000000000E+00 -0.21399913731E+04  0.21399913731E+04  0.00000000000E+00 0. -1.
         25    2    1    2    0    0  0.00000000000E+00  0.00000000000E+00 -0.21381658834E+04  0.21418168628E+04  0.12500451461E+03 0.  0.
          4    1    3    3  501    0  0.13626049499E+02 -0.55834171612E+02 -0.64903782566E+03  0.65157933176E+03  0.15500000000E+01 0. -1.
         -4    1    3    3    0  501 -0.13626049499E+02  0.55834171612E+02 -0.14891280578E+04  0.14902375310E+04  0.15500000000E+01 0. -1.
<mgrwt>
<rscale>  2 0.12500451E+03</rscale>
<asrwt>0</asrwt>
<pdfrwt beam="1">  1       21 0.28084392E-03 0.12500451E+03</pdfrwt>
<pdfrwt beam="2">  1       21 0.32923020E+00 0.12500451E+03</pdfrwt>
<totfact> 0.66452868E+05</totfact>
</mgrwt>
</event>
<event>
 5    0  0.1477556E+000  0.1250035E+03  0.7546771E-02  0.1235064E+00
         21   -1    0    0  503  502  0.00000000000E+00  0.00000000000E+00  0.25682892559E+03  0.25682892559E+03  0.00000000000E+00 0. -1.
         21   -1    0    0  502  503 -0.00000000000E+00 -0.00000000000E+00 -0.15210384769E+02  0.15210384769E+02  0.00000000000E+00 0. -1.
         25    2    1    2    0    0  0.00000000000E+00  0.00000000000E+00  0.24161854082E+03  0.27203931036E+03  0.12500346840E+03 0.  0.
          4    1    3    3  501    0  0.26341280730E+02 -0.48788429726E+02  0.58116140158E+02  0.80337178146E+02  0.15500000000E+01 0.  1.
         -4    1    3    3    0  501 -0.26341280730E+02  0.48788429726E+02  0.18350240066E+03  0.19170213221E+03  0.15500000000E+01 0.  1.
<mgrwt>
<rscale>  2 0.12500347E+03</rscale>
<asrwt>0</asrwt>
<pdfrwt beam="1">  1       21 0.39512139E-01 0.12500347E+03</pdfrwt>
<pdfrwt beam="2">  1       21 0.23400594E-02 0.12500347E+03</pdfrwt>
<totfact> 0.57857866E+06</totfact>
</mgrwt>
</event>
<event>
 5    0  0.1556094E+000  0.1250101E+03  0.7546771E-02  0.1235053E+00
         21   -1    0    0  503  502  0.00000000000E+00  0.00000000000E+00  0.10370902913E+03  0.10370902913E+03  0.00000000000E+00 0. -1.
         21   -1    0    0  502  503 -0.00000000000E+00 -0.00000000000E+00 -0.37671564408E+02  0.37671564408E+02  0.00000000000E+00 0. -1.
         25    2    1    2    0    0  0.00000000000E+00  0.00000000000E+00  0.66037464719E+02  0.14138059353E+03  0.12501010152E+03 0.  0.
          4    1    3    3  501    0 -0.60305740755E+02 -0.15917956001E+02  0.37297740247E+02  0.72688978661E+02  0.15500000000E+01 0. -1.
         -4    1    3    3    0  501  0.60305740755E+02  0.15917956001E+02  0.28739724472E+02  0.68691614874E+02  0.15500000000E+01 0. -1.
<mgrwt>
<rscale>  2 0.12501010E+03</rscale>
<asrwt>0</asrwt>
<pdfrwt beam="1">  1       21 0.15955235E-01 0.12501010E+03</pdfrwt>
<pdfrwt beam="2">  1       21 0.57956253E-02 0.12501010E+03</pdfrwt>
<totfact> 0.71841095E+06</totfact>
</mgrwt>
</event>
<event>
 5    0  0.1435648E+000  0.1249977E+03  0.7546771E-02  0.1235073E+00
         21   -1    0    0  503  502  0.00000000000E+00  0.00000000000E+00  0.52174901306E+03  0.52174901306E+03  0.00000000000E+00 0. -1.
         21   -1    0    0  502  503 -0.00000000000E+00 -0.00000000000E+00 -0.74865571984E+01  0.74865571984E+01  0.00000000000E+00 0. -1.
         25    2    1    2    0    0  0.00000000000E+00  0.00000000000E+00  0.51426245586E+03  0.52923557026E+03  0.12499766125E+03 0.  0.
          4    1    3    3  501    0  0.28781378277E+02  0.44946656483E+02  0.39466218548E+03  0.39825772160E+03  0.15500000000E+01 0.  1.
         -4    1    3    3    0  501 -0.28781378277E+02 -0.44946656483E+02  0.11960027039E+03  0.13097784866E+03  0.15500000000E+01 0.  1.
<mgrwt>
<rscale>  2 0.12499766E+03</rscale>
<asrwt>0</asrwt>
<pdfrwt beam="1">  1       21 0.80269051E-01 0.12499766E+03</pdfrwt>
<pdfrwt beam="2">  1       21 0.11517784E-02 0.12499766E+03</pdfrwt>
<totfact> 0.40504049E+06</totfact>
</mgrwt>
</event>
<event>
 5    0  0.1222151E+000  0.1249982E+03  0.7546771E-02  0.1235072E+00
         21   -1    0    0  503  502  0.00000000000E+00  0.00000000000E+00  0.28551480556E+01  0.28551480556E+01  0.00000000000E+00 0.  1.
         21   -1    0    0  502  503 -0.00000000000E+00 -0.00000000000E+00 -0.13681037235E+04  0.13681037235E+04  0.00000000000E+00 0.  1.
         25    2    1    2    0    0  0.00000000000E+00  0.00000000000E+00 -0.13652485755E+04  0.13709588716E+04  0.12499821897E+03 0.  0.
          4    1    3    3  501    0 -0.26827288182E+02 -0.88248201792E+00 -0.63815817934E+02  0.69248417197E+02  0.15500000000E+01 0.  1.
         -4    1    3    3    0  501  0.26827288182E+02  0.88248201792E+00 -0.13014327575E+04  0.13017104544E+04  0.15500000000E+01 0.  1.
<mgrwt>
<rscale>  2 0.12499822E+03</rscale>
<asrwt>0</asrwt>
<pdfrwt beam="1">  1       21 0.43925372E-03 0.12499822E+03</pdfrwt>
<pdfrwt beam="2">  1       21 0.21047741E+00 0.12499822E+03</pdfrwt>
<totfact> 0.16025014E+06</totfact>
</mgrwt>
</event>
<event>
 5    0  0.1513068E+000  0.1250015E+03  0.7546771E-02  0.1235067E+00
         21   -1    0    0  503  502  0.00000000000E+00  0.00000000000E+00  0.37777016806E+02  0.37777016806E+02  0.00000000000E+00 0. -1.
         21   -1    0    0  502  503 -0.00000000000E+00 -0.00000000000E+00 -0.10340522840E+03  0.10340522840E+03  0.00000000000E+00 0. -1.
         25    2    1    2    0    0  0.00000000000E+00  0.00000000000E+00 -0.65628211597E+02  0.14118224521E+03  0.12500145681E+03 0.  0.
          4    1    3    3  501    0  0.43116151547E+02  0.29128466497E+02  0.62533957679E+01  0.52430692760E+02  0.15500000000E+01 0. -1.
         -4    1    3    3    0  501 -0.43116151547E+02 -0.29128466497E+02 -0.71881607365E+02  0.88751552449E+02  0.15500000000E+01 0. -1.
<mgrwt>
<rscale>  2 0.12500146E+03</rscale>
<asrwt>0</asrwt>
<pdfrwt beam="1">  1       21 0.58118487E-02 0.12500146E+03</pdfrwt>
<pdfrwt beam="2">  1       21 0.15908497E-01 0.12500146E+03</pdfrwt>
<totfact> 0.71882675E+06</totfact>
</mgrwt>
</event>
<event>
 5    0  0.1449012E+000  0.1249981E+03  0.7546771E-02  0.1235072E+00
         21   -1    0    0  503  502  0.00000000000E+00  0.00000000000E+00  0.61775021911E+03  0.61775021911E+03  0.00000000000E+00 0. -1.
         21   -1    0    0  502  503 -0.00000000000E+00 -0.00000000000E+00 -0.63231612101E+01  0.63231612101E+01  0.00000000000E+00 0. -1.
         25    2    1    2    0    0  0.00000000000E+00  0.00000000000E+00  0.61142705790E+03  0.62407338032E+03  0.12499814756E+03 0.  0.
          4    1    3    3  501    0 -0.53324635365E+02 -0.31338637293E+02  0.34983712911E+03  0.35526616266E+03  0.15500000000E+01 0.  1.
         -4    1    3    3    0  501  0.53324635365E+02  0.31338637293E+02  0.26158992879E+03  0.26880721767E+03  0.15500000000E+01 0.  1.
<mgrwt>
<rscale>  2 0.12499815E+03</rscale>
<asrwt>0</asrwt>
<pdfrwt beam="1">  1       21 0.95038448E-01 0.12499815E+03</pdfrwt>
<pdfrwt beam="2">  1       21 0.97279452E-03 0.12499815E+03</pdfrwt>
<totfact> 0.36027757E+06</totfact>
</mgrwt>
</event>
<event>
 5    0  0.1502154E+000  0.1250013E+03  0.7546771E-02  0.1235067E+00
         21   -1    0    0  503  502  0.00000000000E+00  0.00000000000E+00  0.20960747469E+03  0.20960747469E+03  0.00000000000E+00 0. -1.
         21   -1    0    0  502  503 -0.00000000000E+00 -0.00000000000E+00 -0.18636424019E+02  0.18636424019E+02  0.00000000000E+00 0. -1.
         25    2    1    2    0    0  0.00000000000E+00  0.00000000000E+00  0.19097105067E+03  0.22824389871E+03  0.12500134041E+03 0.  0.
          4    1    3    3  501    0 -0.21221665133E+02  0.55177724778E+02  0.13241229572E+03  0.14501847792E+03  0.15500000000E+01 0. -1.
         -4    1    3    3    0  501  0.21221665133E+02 -0.55177724778E+02  0.58558754953E+02  0.83225420782E+02  0.15500000000E+01 0. -1.
<mgrwt>
<rscale>  2 0.12500134E+03</rscale>
<asrwt>0</asrwt>
<pdfrwt beam="1">  1       21 0.32247302E-01 0.12500134E+03</pdfrwt>
<pdfrwt beam="2">  1       21 0.28671423E-02 0.12500134E+03</pdfrwt>
<totfact> 0.61987080E+06</totfact>
</mgrwt>
</event>
<event>
 5    0  0.1513458E+000  0.1249984E+03  0.7546771E-02  0.1235072E+00
         21   -1    0    0  503  502  0.00000000000E+00  0.00000000000E+00  0.21610909734E+03  0.21610909734E+03  0.00000000000E+00 0. -1.
         21   -1    0    0  502  503 -0.00000000000E+00 -0.00000000000E+00 -0.18074905569E+02  0.18074905569E+02  0.00000000000E+00 0. -1.
         25    2    1    2    0    0  0.00000000000E+00  0.00000000000E+00  0.19803419177E+03  0.23418400291E+03  0.12499842442E+03 0.  0.
          4    1    3    3  501    0 -0.36476541810E+02  0.28309937662E+02  0.17787676144E+03  0.18377849557E+03  0.15500000000E+01 0. -1.
         -4    1    3    3    0  501  0.36476541810E+02 -0.28309937662E+02  0.20157430332E+02  0.50405507343E+02  0.15500000000E+01 0. -1.
<mgrwt>
<rscale>  2 0.12499842E+03</rscale>
<asrwt>0</asrwt>
<pdfrwt beam="1">  1       21 0.33247552E-01 0.12499842E+03</pdfrwt>
<pdfrwt beam="2">  1       21 0.27807549E-02 0.12499842E+03</pdfrwt>
<totfact> 0.61402489E+06</totfact>
</mgrwt>
</event>
<event>
 5    0  0.1502941E+000  0.1249534E+03  0.7546771E-02  0.1235142E+00
         21   -1    0    0  503  502  0.00000000000E+00  0.00000000000E+00  0.96296763403E+02  0.96296763403E+02  0.00000000000E+00 0. -1.
         21   -1    0    0  502  503 -0.00000000000E+00 -0.00000000000E+00 -0.40534463373E+02  0.40534463373E+02  0.00000000000E+00 0. -1.
         25    2    1    2    0    0  0.00000000000E+00  0.00000000000E+00  0.55762300030E+02  0.13683122678E+03  0.12495339338E+03 0.  0.
          4    1    3    3  501    0  0.35527704074E+02  0.30295808533E+02  0.73308000843E+02  0.86928242010E+02  0.15500000000E+01 0. -1.
         -4    1    3    3    0  501 -0.35527704074E+02 -0.30295808533E+02 -0.17545700813E+02  0.49902984765E+02  0.15500000000E+01 0. -1.
<mgrwt>
<rscale>  2 0.12495339E+03</rscale>
<asrwt>0</asrwt>
<pdfrwt beam="1">  1       21 0.14814887E-01 0.12495339E+03</pdfrwt>
<pdfrwt beam="2">  1       21 0.62360713E-02 0.12495339E+03</pdfrwt>
<totfact> 0.72541083E+06</totfact>
</mgrwt>
</event>
<event>
 5    0  0.1400176E+000  0.1250320E+03  0.7546771E-02  0.1235019E+00
         21   -1    0    0  503  502  0.00000000000E+00  0.00000000000E+00  0.10575777392E+02  0.10575777392E+02  0.00000000000E+00 0.  1.
         21   -1    0    0  502  503 -0.00000000000E+00 -0.00000000000E+00 -0.36954739552E+03  0.36954739552E+03  0.00000000000E+00 0.  1.
         25    2    1    2    0    0  0.00000000000E+00  0.00000000000E+00 -0.35897161813E+03  0.38012317291E+03  0.12503201175E+03 0.  0.
          4    1    3    3  501    0 -0.11971489542E+02  0.58012881591E+02 -0.11890725688E+03  0.13285386419E+03  0.15500000000E+01 0. -1.
         -4    1    3    3    0  501  0.11971489542E+02 -0.58012881591E+02 -0.24006436125E+03  0.24726930872E+03  0.15500000000E+01 0. -1.
<mgrwt>
<rscale>  2 0.12503201E+03</rscale>
<asrwt>0</asrwt>
<pdfrwt beam="1">  1       21 0.16270428E-02 0.12503201E+03</pdfrwt>
<pdfrwt beam="2">  1       21 0.56853443E-01 0.12503201E+03</pdfrwt>
<totfact> 0.49348305E+06</totfact>
</mgrwt>
</event>
<event>
 5    0  0.1444086E+000  0.1249942E+03  0.7546771E-02  0.1235078E+00
         21   -1    0    0  503  502  0.00000000000E+00  0.00000000000E+00  0.10342289282E+03  0.10342289282E+03  0.00000000000E+00 0.  1.
         21   -1    0    0  502  503 -0.00000000000E+00 -0.00000000000E+00 -0.37766178856E+02  0.37766178856E+02  0.00000000000E+00 0.  1.
         25    2    1    2    0    0  0.00000000000E+00  0.00000000000E+00  0.65656713963E+02  0.14118907168E+03  0.12499419935E+03 0.  0.
          4    1    3    3  501    0  0.50355732366E+02  0.31325538437E+01  0.74453590039E+02  0.89951388235E+02  0.15500000000E+01 0.  1.
         -4    1    3    3    0  501 -0.50355732366E+02 -0.31325538437E+01 -0.87968760762E+01  0.51237683441E+02  0.15500000000E+01 0.  1.
<mgrwt>
<rscale>  2 0.12499420E+03</rscale>
<asrwt>0</asrwt>
<pdfrwt beam="1">  1       21 0.15911214E-01 0.12499420E+03</pdfrwt>
<pdfrwt beam="2">  1       21 0.58101814E-02 0.12499420E+03</pdfrwt>
<totfact> 0.71895079E+06</totfact>
</mgrwt>
</event>
<event>
 4    0  0.1222151E+000  0.1251469E+03  0.7546771E-02  0.1234840E+00
         21   -1    0    0  503  502  0.00000000000E+00  0.00000000000E+00  0.42986249119E+01  0.42986249119E+01  0.00000000000E+00 0. -1.
         21   -1    0    0  502  503 -0.00000000000E+00 -0.00000000000E+00 -0.91085816307E+03  0.91085816307E+03  0.00000000000E+00 0. -1.
          4    1    1    2  501    0 -0.24374698907E+02 -0.57539636644E+02 -0.43246839862E+03  0.43696253162E+03  0.15500000000E+01 0.  1.
         -4    1    1    2    0  501  0.24374698907E+02  0.57539636644E+02 -0.47409113954E+03  0.47819425636E+03  0.15500000000E+01 0.  1.
<mgrwt>
<rscale>  2 0.12514692E+03</rscale>
<asrwt>0</asrwt>
<pdfrwt beam="1">  1       21 0.66132632E-03 0.12514692E+03</pdfrwt>
<pdfrwt beam="2">  1       21 0.14013215E+00 0.12514692E+03</pdfrwt>
<totfact> 0.25774116E+06</totfact>
</mgrwt>
</event>
<event>
 5    0  0.1222151E+000  0.1250021E+03  0.7546771E-02  0.1235066E+00
         21   -1    0    0  503  502  0.00000000000E+00  0.00000000000E+00  0.13043934918E+04  0.13043934918E+04  0.00000000000E+00 0.  1.
         21   -1    0    0  502  503 -0.00000000000E+00 -0.00000000000E+00 -0.29947861996E+01  0.29947861996E+01  0.00000000000E+00 0.  1.
         25    2    1    2    0    0  0.00000000000E+00  0.00000000000E+00  0.13013987056E+04  0.13073882780E+04  0.12500207403E+03 0.  0.
          4    1    3    3  501    0 -0.43336679215E+02  0.11438045977E+02  0.19539563608E+03  0.20047631721E+03  0.15500000000E+01 0. -1.
         -4    1    3    3    0  501  0.43336679215E+02 -0.11438045977E+02  0.11060030695E+04  0.11069119608E+04  0.15500000000E+01 0. -1.
<mgrwt>
<rscale>  2 0.12500207E+03</rscale>
<asrwt>0</asrwt>
<pdfrwt beam="1">  1       21 0.20067547E+00 0.12500207E+03</pdfrwt>
<pdfrwt beam="2">  1       21 0.46073738E-03 0.12500207E+03</pdfrwt>
<totfact> 0.17119369E+06</totfact>
</mgrwt>
</event>
<event>
 5    0  0.1673774E+000  0.1249994E+03  0.7546771E-02  0.1235070E+00
         21   -1    0    0  503  502  0.00000000000E+00  0.00000000000E+00  0.39071843824E+02  0.39071843824E+02  0.00000000000E+00 0.  1.
         21   -1    0    0  502  503 -0.00000000000E+00 -0.00000000000E+00 -0.99975195725E+02  0.99975195725E+02  0.00000000000E+00 0.  1.
         25    2    1    2    0    0  0.00000000000E+00  0.00000000000E+00 -0.60903351901E+02  0.13904703955E+03  0.12499944374E+03 0.  0.
          4    1    3    3  501    0  0.22587566413E+01  0.62401909089E+02 -0.32866464334E+02  0.70581210087E+02  0.15500000000E+01 0. -1.
         -4    1    3    3    0  501 -0.22587566413E+01 -0.62401909089E+02 -0.28036887567E+02  0.68465829463E+02  0.15500000000E+01 0. -1.
<mgrwt>
<rscale>  2 0.12499944E+03</rscale>
<asrwt>0</asrwt>
<pdfrwt beam="1">  1       21 0.60110528E-02 0.12499944E+03</pdfrwt>
<pdfrwt beam="2">  1       21 0.15380799E-01 0.12499944E+03</pdfrwt>
<totfact> 0.72164983E+06</totfact>
</mgrwt>
</event>
<event>
 5    0  0.1557691E+000  0.1250012E+03  0.7546771E-02  0.1235067E+00
         21   -1    0    0  503  502  0.00000000000E+00  0.00000000000E+00  0.10997500863E+03  0.10997500863E+03  0.00000000000E+00 0. -1.
         21   -1    0    0  502  503 -0.00000000000E+00 -0.00000000000E+00 -0.35520113502E+02  0.35520113502E+02  0.00000000000E+00 0. -1.
         25    2    1    2    0    0  0.00000000000E+00  0.00000000000E+00  0.74454895131E+02  0.14549512213E+03  0.12500119662E+03 0.  0.
          4    1    3    3  501    0  0.13925985536E+02 -0.57594534926E+02  0.60297707357E+02  0.84553412344E+02  0.15500000000E+01 0. -1.
         -4    1    3    3    0  501 -0.13925985536E+02  0.57594534926E+02  0.14157187775E+02  0.60941709791E+02  0.15500000000E+01 0. -1.
<mgrwt>
<rscale>  2 0.12500120E+03</rscale>
<asrwt>0</asrwt>
<pdfrwt beam="1">  1       21 0.16919232E-01 0.12500120E+03</pdfrwt>
<pdfrwt beam="2">  1       21 0.54646329E-02 0.12500120E+03</pdfrwt>
<totfact> 0.71327622E+06</totfact>
</mgrwt>
</event>
<event>
 5    0  0.1273273E+000  0.1250044E+03  0.7546771E-02  0.1235062E+00
         21   -1    0    0  503  502  0.00000000000E+00  0.00000000000E+00  0.69588534647E+03  0.69588534647E+03  0.00000000000E+00 0. -1.
         21   -1    0    0  502  503 -0.00000000000E+00 -0.00000000000E+00 -0.56137487032E+01  0.56137487032E+01  0.00000000000E+00 0. -1.
         25    2    1    2    0    0  0.00000000000E+00  0.00000000000E+00  0.69027159776E+03  0.70149909517E+03  0.12500440730E+03 0.  0.
          4    1    3    3  501    0 -0.49760391371E+02 -0.27147457768E+02  0.19761474863E+03  0.20558957267E+03  0.15500000000E+01 0.  1.
         -4    1    3    3    0  501  0.49760391371E+02  0.27147457768E+02  0.49265684913E+03  0.49590952250E+03  0.15500000000E+01 0.  1.
<mgrwt>
<rscale>  2 0.12500441E+03</rscale>
<asrwt>0</asrwt>
<pdfrwt beam="1">  1       21 0.10705922E+00 0.12500441E+03</pdfrwt>
<pdfrwt beam="2">  1       21 0.86365420E-03 0.12500441E+03</pdfrwt>
<totfact> 0.32848852E+06</totfact>
</mgrwt>
</event>
<event>
 5    0  0.1291884E+000  0.1249989E+03  0.7546771E-02  0.1235071E+00
         21   -1    0    0  503  502  0.00000000000E+00  0.00000000000E+00  0.71766143896E+03  0.71766143896E+03  0.00000000000E+00 0. -1.
         21   -1    0    0  502  503 -0.00000000000E+00 -0.00000000000E+00 -0.54429264134E+01  0.54429264134E+01  0.00000000000E+00 0. -1.
         25    2    1    2    0    0  0.00000000000E+00  0.00000000000E+00  0.71221851254E+03  0.72310436537E+03  0.12499885443E+03 0.  0.
          4    1    3    3  501    0  0.31159935813E+02  0.44490590895E+02  0.53473228515E+03  0.53748616127E+03  0.15500000000E+01 0.  1.
         -4    1    3    3    0  501 -0.31159935813E+02 -0.44490590895E+02  0.17748622740E+03  0.18561820410E+03  0.15500000000E+01 0.  1.
<mgrwt>
<rscale>  2 0.12499885E+03</rscale>
<asrwt>0</asrwt>
<pdfrwt beam="1">  1       21 0.11040938E+00 0.12499885E+03</pdfrwt>
<pdfrwt beam="2">  1       21 0.83737386E-03 0.12499885E+03</pdfrwt>
<totfact> 0.32039128E+06</totfact>
</mgrwt>
</event>
<event>
 5    0  0.1472207E+000  0.1249983E+03  0.7546771E-02  0.1235072E+00
         21   -1    0    0  503  502  0.00000000000E+00  0.00000000000E+00  0.61484014307E+02  0.61484014307E+02  0.00000000000E+00 0. -1.
         21   -1    0    0  502  503 -0.00000000000E+00 -0.00000000000E+00 -0.63531089094E+02  0.63531089094E+02  0.00000000000E+00 0. -1.
         25    2    1    2    0    0  0.00000000000E+00  0.00000000000E+00 -0.20470747868E+01  0.12501510340E+03  0.12499834224E+03 0.  0.
          4    1    3    3  501    0 -0.61510583543E+02 -0.45711141865E+01 -0.10989657481E+02  0.62670743128E+02  0.15500000000E+01 0. -1.
         -4    1    3    3    0  501  0.61510583543E+02  0.45711141865E+01  0.89425826944E+01  0.62344360274E+02  0.15500000000E+01 0. -1.
<mgrwt>
<rscale>  2 0.12499834E+03</rscale>
<asrwt>0</asrwt>
<pdfrwt beam="1">  1       21 0.94590792E-02 0.12499834E+03</pdfrwt>
<pdfrwt beam="2">  1       21 0.97740137E-02 0.12499834E+03</pdfrwt>
<totfact> 0.74044680E+06</totfact>
</mgrwt>
</event>
<event>
 5    0  0.1313554E+000  0.1249985E+03  0.7546771E-02  0.1235072E+00
         21   -1    0    0  503  502  0.00000000000E+00  0.00000000000E+00  0.61335505691E+01  0.61335505691E+01  0.00000000000E+00 0. -1.
         21   -1    0    0  502  503 -0.00000000000E+00 -0.00000000000E+00 -0.63685092078E+03  0.63685092078E+03  0.00000000000E+00 0. -1.
         25    2    1    2    0    0  0.00000000000E+00  0.00000000000E+00 -0.63071737022E+03  0.64298447135E+03  0.12499851723E+03 0.  0.
          4    1    3    3  501    0 -0.59288748505E+02  0.11123771056E+02 -0.23164344948E+03  0.23937415100E+03  0.15500000000E+01 0. -1.
         -4    1    3    3    0  501  0.59288748505E+02 -0.11123771056E+02 -0.39907392074E+03  0.40361032035E+03  0.15500000000E+01 0. -1.
<mgrwt>
<rscale>  2 0.12499852E+03</rscale>
<asrwt>0</asrwt>
<pdfrwt beam="1">  1       21 0.94362336E-03 0.12499852E+03</pdfrwt>
<pdfrwt beam="2">  1       21 0.97977044E-01 0.12499852E+03</pdfrwt>
<totfact> 0.35219298E+06</totfact>
</mgrwt>
</event>
<event>
 5    0  0.1476214E+000  0.1250007E+03  0.7546771E-02  0.1235068E+00
         21   -1    0    0  503  502  0.00000000000E+00  0.00000000000E+00  0.15284314124E+03  0.15284314124E+03  0.00000000000E+00 0.  1.
         21   -1    0    0  502  503 -0.00000000000E+00 -0.00000000000E+00 -0.25557549420E+02  0.25557549420E+02  0.00000000000E+00 0.  1.
         25    2    1    2    0    0  0.00000000000E+00  0.00000000000E+00  0.12728559182E+03  0.17840069066E+03  0.12500073817E+03 0.  0.
          4    1    3    3  501    0 -0.54614184258E+02 -0.16974519075E+02  0.27733818792E+02  0.63579954583E+02  0.15500000000E+01 0. -1.
         -4    1    3    3    0  501  0.54614184258E+02  0.16974519075E+02  0.99551773024E+02  0.11482073607E+03  0.15500000000E+01 0. -1.
<mgrwt>
<rscale>  2 0.12500074E+03</rscale>
<asrwt>0</asrwt>
<pdfrwt beam="1">  1       21 0.23514329E-01 0.12500074E+03</pdfrwt>
<pdfrwt beam="2">  1       21 0.39319308E-02 0.12500074E+03</pdfrwt>
<totfact> 0.67334219E+06</totfact>
</mgrwt>
</event>
<event>
 5    0  0.1222151E+000  0.1249990E+03  0.7546771E-02  0.1235071E+00
         21   -1    0    0  503  502  0.00000000000E+00  0.00000000000E+00  0.66823843215E+03  0.66823843215E+03  0.00000000000E+00 0.  1.
         21   -1    0    0  502  503 -0.00000000000E+00 -0.00000000000E+00 -0.58454969908E+01  0.58454969908E+01  0.00000000000E+00 0.  1.
         25    2    1    2    0    0  0.00000000000E+00  0.00000000000E+00  0.66239293516E+03  0.67408392914E+03  0.12499897190E+03 0.  0.
          4    1    3    3  501    0  0.12943664809E+02  0.43693974098E+02  0.10068821313E+03  0.11053153665E+03  0.15500000000E+01 0. -1.
         -4    1    3    3    0  501 -0.12943664809E+02 -0.43693974098E+02  0.56170472203E+03  0.56355239249E+03  0.15500000000E+01 0. -1.
<mgrwt>
<rscale>  2 0.12499897E+03</rscale>
<asrwt>0</asrwt>
<pdfrwt beam="1">  1       21 0.10280585E+00 0.12499897E+03</pdfrwt>
<pdfrwt beam="2">  1       21 0.89930776E-03 0.12499897E+03</pdfrwt>
<totfact> 0.33934316E+06</totfact>
</mgrwt>
</event>
<event>
 5    0  0.1572458E+000  0.1250102E+03  0.7546771E-02  0.1235053E+00
         21   -1    0    0  503  502  0.00000000000E+00  0.00000000000E+00  0.68591746996E+02  0.68591746996E+02  0.00000000000E+00 0.  1.
         21   -1    0    0  502  503 -0.00000000000E+00 -0.00000000000E+00 -0.56958545502E+02  0.56958545502E+02  0.00000000000E+00 0.  1.
         25    2    1    2    0    0  0.00000000000E+00  0.00000000000E+00  0.11633201494E+02  0.12555029250E+03  0.12501017786E+03 0.  0.
          4    1    3    3  501    0 -0.26018459331E+02 -0.54851615239E+02 -0.90400035504E+01  0.61398567446E+02  0.15500000000E+01 0. -1.
         -4    1    3    3    0  501  0.26018459331E+02  0.54851615239E+02  0.20673205045E+02  0.64151725051E+02  0.15500000000E+01 0. -1.
<mgrwt>
<rscale>  2 0.12501018E+03</rscale>
<asrwt>0</asrwt>
<pdfrwt beam="1">  1       21 0.10552576E-01 0.12501018E+03</pdfrwt>
<pdfrwt beam="2">  1       21 0.87628532E-02 0.12501018E+03</pdfrwt>
<totfact> 0.73949182E+06</totfact>
</mgrwt>
</event>
<event>
 5    0  0.1474852E+000  0.1249986E+03  0.7546771E-02  0.1235071E+00
         21   -1    0    0  503  502  0.00000000000E+00  0.00000000000E+00  0.73606499440E+02  0.73606499440E+02  0.00000000000E+00 0. -1.
         21   -1    0    0  502  503 -0.00000000000E+00 -0.00000000000E+00 -0.53068190812E+02  0.53068190812E+02  0.00000000000E+00 0. -1.
         25    2    1    2    0    0  0.00000000000E+00  0.00000000000E+00  0.20538308628E+02  0.12667469025E+03  0.12499862011E+03 0.  0.
          4    1    3    3  501    0  0.35528989457E+02 -0.38053064369E+02  0.45278229916E+02  0.69013516096E+02  0.15500000000E+01 0. -1.
         -4    1    3    3    0  501 -0.35528989457E+02  0.38053064369E+02 -0.24739921288E+02  0.57661174156E+02  0.15500000000E+01 0. -1.
<mgrwt>
<rscale>  2 0.12499862E+03</rscale>
<asrwt>0</asrwt>
<pdfrwt beam="1">  1       21 0.11324077E-01 0.12499862E+03</pdfrwt>
<pdfrwt beam="2">  1       21 0.81643371E-02 0.12499862E+03</pdfrwt>
<totfact> 0.73816091E+06</totfact>
</mgrwt>
</event>
<event>
 5    0  0.1538687E+000  0.1249952E+03  0.7546771E-02  0.1235077E+00
         21   -1    0    0  503  502  0.00000000000E+00  0.00000000000E+00  0.12100031917E+03  0.12100031917E+03  0.00000000000E+00 0.  1.
         21   -1    0    0  502  503 -0.00000000000E+00 -0.00000000000E+00 -0.32280487148E+02  0.32280487148E+02  0.00000000000E+00 0.  1.
         25    2    1    2    0    0  0.00000000000E+00  0.00000000000E+00  0.88719832025E+02  0.15328080632E+03  0.12499518787E+03 0.  0.
          4    1    3    3  501    0 -0.37417995317E+02 -0.23542085296E+02  0.98500615722E+02  0.10797735851E+03  0.15500000000E+01 0. -1.
         -4    1    3    3    0  501  0.37417995317E+02  0.23542085296E+02 -0.97807836973E+01  0.45303447809E+02  0.15500000000E+01 0. -1.
<mgrwt>
<rscale>  2 0.12499519E+03</rscale>
<asrwt>0</asrwt>
<pdfrwt beam="1">  1       21 0.18615434E-01 0.12499519E+03</pdfrwt>
<pdfrwt beam="2">  1       21 0.49662288E-02 0.12499519E+03</pdfrwt>
<totfact> 0.70358079E+06</totfact>
</mgrwt>
</event>
<event>
 5    0  0.1222151E+000  0.1250003E+03  0.7546771E-02  0.1235069E+00
         21   -1    0    0  503  502  0.00000000000E+00  0.00000000000E+00  0.18362099112E+01  0.18362099112E+01  0.00000000000E+00 0.  1.
         21   -1    0    0  502  503 -0.00000000000E+00 -0.00000000000E+00 -0.21273530266E+04  0.21273530266E+04  0.00000000000E+00 0.  1.
         25    2    1    2    0    0  0.00000000000E+00  0.00000000000E+00 -0.21255168167E+04  0.21291892365E+04  0.12500026739E+03 0.  0.
          4    1    3    3  501    0  0.79132004777E+01  0.59789426476E+02 -0.13408113165E+04  0.13421679415E+04  0.15500000000E+01 0. -1.
         -4    1    3    3    0  501 -0.79132004777E+01 -0.59789426476E+02 -0.78470550018E+03  0.78702129499E+03  0.15500000000E+01 0. -1.
<mgrwt>
<rscale>  2 0.12500027E+03</rscale>
<asrwt>0</asrwt>
<pdfrwt beam="1">  1       21 0.28249485E-03 0.12500027E+03</pdfrwt>
<pdfrwt beam="2">  1       21 0.32728390E+00 0.12500027E+03</pdfrwt>
<totfact> 0.67556274E+05</totfact>
</mgrwt>
</event>
<event>
 5    0  0.1459737E+000  0.1250005E+03  0.7546771E-02  0.1235069E+00
         21   -1    0    0  503  502  0.00000000000E+00  0.00000000000E+00  0.26106309830E+02  0.26106309830E+02  0.00000000000E+00 0. -1.
         21   -1    0    0  502  503 -0.00000000000E+00 -0.00000000000E+00 -0.14962967364E+03  0.14962967364E+03  0.00000000000E+00 0. -1.
         25    2    1    2    0    0  0.00000000000E+00  0.00000000000E+00 -0.12352336381E+03  0.17573598347E+03  0.12500045792E+03 0.  0.
          4    1    3    3  501    0  0.25243620841E+02  0.26606990551E+02 -0.13287633529E+03  0.13785389120E+03  0.15500000000E+01 0. -1.
         -4    1    3    3    0  501 -0.25243620841E+02 -0.26606990551E+02  0.93529714777E+01  0.37882092271E+02  0.15500000000E+01 0. -1.
<mgrwt>
<rscale>  2 0.12500046E+03</rscale>
<asrwt>0</asrwt>
<pdfrwt beam="1">  1       21 0.40163552E-02 0.12500046E+03</pdfrwt>
<pdfrwt beam="2">  1       21 0.23019950E-01 0.12500046E+03</pdfrwt>
<totfact> 0.67643303E+06</totfact>
</mgrwt>
</event>
<event>
 5    0  0.1452776E+000  0.1250078E+03  0.7546771E-02  0.1235057E+00
         21   -1    0    0  503  502  0.00000000000E+00  0.00000000000E+00  0.13554849678E+03  0.13554849678E+03  0.00000000000E+00 0.  1.
         21   -1    0    0  502  503 -0.00000000000E+00 -0.00000000000E+00 -0.28821716923E+02  0.28821716923E+02  0.00000000000E+00 0.  1.
         25    2    1    2    0    0  0.00000000000E+00  0.00000000000E+00  0.10672677986E+03  0.16437021370E+03  0.12500784621E+03 0.  0.
          4    1    3    3  501    0 -0.18351631747E+02 -0.55508402501E+02  0.24365227889E+02  0.63356388518E+02  0.15500000000E+01 0.  1.
         -4    1    3    3    0  501  0.18351631747E+02  0.55508402501E+02  0.82361551966E+02  0.10101382518E+03  0.15500000000E+01 0.  1.
<mgrwt>
<rscale>  2 0.12500785E+03</rscale>
<asrwt>0</asrwt>
<pdfrwt beam="1">  1       21 0.20853615E-01 0.12500785E+03</pdfrwt>
<pdfrwt beam="2">  1       21 0.44341104E-02 0.12500785E+03</pdfrwt>
<totfact> 0.68975653E+06</totfact>
</mgrwt>
</event>
<event>
 5    0  0.1475090E+000  0.1250123E+03  0.7546771E-02  0.1235050E+00
         21   -1    0    0  503  502  0.00000000000E+00  0.00000000000E+00  0.23796076618E+02  0.23796076618E+02  0.00000000000E+00 0.  1.
         21   -1    0    0  502  503 -0.00000000000E+00 -0.00000000000E+00 -0.16418754901E+03  0.16418754901E+03  0.00000000000E+00 0.  1.
         25    2    1    2    0    0  0.00000000000E+00  0.00000000000E+00 -0.14039147239E+03  0.18798362562E+03  0.12501231133E+03 0.  0.
          4    1    3    3  501    0  0.11057566664E+02  0.42798931677E+02 -0.37830268668E+01  0.44392928778E+02  0.15500000000E+01 0.  1.
         -4    1    3    3    0  501 -0.11057566664E+02 -0.42798931677E+02 -0.13660844552E+03  0.14359069685E+03  0.15500000000E+01 0.  1.
<mgrwt>
<rscale>  2 0.12501231E+03</rscale>
<asrwt>0</asrwt>
<pdfrwt beam="1">  1       21 0.36609348E-02 0.12501231E+03</pdfrwt>
<pdfrwt beam="2">  1       21 0.25259623E-01 0.12501231E+03</pdfrwt>
<totfact> 0.66226601E+06</totfact>
</mgrwt>
</event>
<event>
 5    0  0.1581668E+000  0.1249989E+03  0.7546771E-02  0.1235071E+00
         21   -1    0    0  503  502  0.00000000000E+00  0.00000000000E+00  0.11369789258E+03  0.11369789258E+03  0.00000000000E+00 0. -1.
         21   -1    0    0  502  503 -0.00000000000E+00 -0.00000000000E+00 -0.34355805090E+02  0.34355805090E+02  0.00000000000E+00 0. -1.
         25    2    1    2    0    0  0.00000000000E+00  0.00000000000E+00  0.79342087492E+02  0.14805369767E+03  0.12499892218E+03 0.  0.
          4    1    3    3  501    0  0.29306904948E+02 -0.53669251156E+02  0.24479850053E+02  0.65885876756E+02  0.15500000000E+01 0.  1.
         -4    1    3    3    0  501 -0.29306904948E+02  0.53669251156E+02  0.54862237440E+02  0.82167820916E+02  0.15500000000E+01 0.  1.
<mgrwt>
<rscale>  2 0.12499892E+03</rscale>
<asrwt>0</asrwt>
<pdfrwt beam="1">  1       21 0.17491983E-01 0.12499892E+03</pdfrwt>
<pdfrwt beam="2">  1       21 0.52855085E-02 0.12499892E+03</pdfrwt>
<totfact> 0.71006505E+06</totfact>
</mgrwt>
</event>
<event>
 5    0  0.1638905E+000  0.1249989E+03  0.7546771E-02  0.1235071E+00
         21   -1    0    0  503  502  0.00000000000E+00  0.00000000000E+00  0.76123530973E+02  0.76123530973E+02  0.00000000000E+00 0. -1.
         21   -1    0    0  502  503 -0.00000000000E+00 -0.00000000000E+00 -0.51313682988E+02  0.51313682988E+02  0.00000000000E+00 0. -1.
         25    2    1    2    0    0  0.00000000000E+00  0.00000000000E+00  0.24809847985E+02  0.12743721396E+03  0.12499885978E+03 0.  0.
          4    1    3    3  501    0  0.18765496525E+01  0.61210397298E+02  0.25037848440E+02  0.66178021507E+02  0.15500000000E+01 0. -1.
         -4    1    3    3    0  501 -0.18765496525E+01 -0.61210397298E+02 -0.22800045470E+00  0.61259192455E+02  0.15500000000E+01 0. -1.
<mgrwt>
<rscale>  2 0.12499886E+03</rscale>
<asrwt>0</asrwt>
<pdfrwt beam="1">  1       21 0.11711312E-01 0.12499886E+03</pdfrwt>
<pdfrwt beam="2">  1       21 0.78944127E-02 0.12499886E+03</pdfrwt>
<totfact> 0.73711877E+06</totfact>
</mgrwt>
</event>
<event>
 5    0  0.1559672E+000  0.1249978E+03  0.7546771E-02  0.1235073E+00
         21   -1    0    0  503  502  0.00000000000E+00  0.00000000000E+00  0.32268264975E+02  0.32268264975E+02  0.00000000000E+00 0.  1.
         21   -1    0    0  502  503 -0.00000000000E+00 -0.00000000000E+00 -0.12105111681E+03  0.12105111681E+03  0.00000000000E+00 0.  1.
         25    2    1    2    0    0  0.00000000000E+00  0.00000000000E+00 -0.88782851832E+02  0.15331938178E+03  0.12499775218E+03 0.  0.
          4    1    3    3  501    0 -0.32171164976E+02  0.40188182362E+02 -0.87820452074E+02  0.10180819299E+03  0.15500000000E+01 0.  1.
         -4    1    3    3    0  501  0.32171164976E+02 -0.40188182362E+02 -0.96239975857E+00  0.51511188792E+02  0.15500000000E+01 0.  1.
<mgrwt>
<rscale>  2 0.12499775E+03</rscale>
<asrwt>0</asrwt>
<pdfrwt beam="1">  1       21 0.49643484E-02 0.12499775E+03</pdfrwt>
<pdfrwt beam="2">  1       21 0.18623249E-01 0.12499775E+03</pdfrwt>
<totfact> 0.70348698E+06</totfact>
</mgrwt>
</event>
<event>
 5    0  0.1570963E+000  0.1249981E+03  0.7546771E-02  0.1235072E+00
         21   -1    0    0  503  502  0.00000000000E+00  0.00000000000E+00  0.24857528259E+02  0.24857528259E+02  0.00000000000E+00 0.  1.
         21   -1    0    0  502  503 -0.00000000000E+00 -0.00000000000E+00 -0.15714075036E+03  0.15714075036E+03  0.00000000000E+00 0.  1.
         25    2    1    2    0    0  0.00000000000E+00  0.00000000000E+00 -0.13228322210E+03  0.18199827861E+03  0.12499809027E+03 0.  0.
          4    1    3    3  501    0  0.61770101700E+02  0.93820887886E+01 -0.66722352978E+02  0.91421244473E+02  0.15500000000E+01 0. -1.
         -4    1    3    3    0  501 -0.61770101700E+02 -0.93820887886E+01 -0.65560869119E+02  0.90577034141E+02  0.15500000000E+01 0. -1.
<mgrwt>
<rscale>  2 0.12499809E+03</rscale>
<asrwt>0</asrwt>
<pdfrwt beam="1">  1       21 0.38242351E-02 0.12499809E+03</pdfrwt>
<pdfrwt beam="2">  1       21 0.24175500E-01 0.12499809E+03</pdfrwt>
<totfact> 0.66926278E+06</totfact>
</mgrwt>
</event>
<event>
 5    0  0.1371588E+000  0.1250019E+03  0.7546771E-02  0.1235066E+00
         21   -1    0    0  503  502  0.00000000000E+00  0.00000000000E+00  0.32214738366E+03  0.32214738366E+03  0.00000000000E+00 0. -1.
         21   -1    0    0  502  503 -0.00000000000E+00 -0.00000000000E+00 -0.12126032674E+02  0.12126032674E+02  0.00000000000E+00 0. -1.
         25    2    1    2    0    0  0.00000000000E+00  0.00000000000E+00  0.31002135099E+03  0.33427341634E+03  0.12500191519E+03 0.  0.
          4    1    3    3  501    0  0.42282950222E+02 -0.20844659020E+02  0.45350473439E+02  0.65432527311E+02  0.15500000000E+01 0. -1.
         -4    1    3    3    0  501 -0.42282950222E+02  0.20844659020E+02  0.26467087755E+03  0.26884088903E+03  0.15500000000E+01 0. -1.
<mgrwt>
<rscale>  2 0.12500192E+03</rscale>
<asrwt>0</asrwt>
<pdfrwt beam="1">  1       21 0.49561129E-01 0.12500192E+03</pdfrwt>
<pdfrwt beam="2">  1       21 0.18655437E-02 0.12500192E+03</pdfrwt>
<totfact> 0.52718753E+06</totfact>
</mgrwt>
</event>
<event>
 5    0  0.1512573E+000  0.1250286E+03  0.7546771E-02  0.1235025E+00
         21   -1    0    0  503  502  0.00000000000E+00  0.00000000000E+00  0.18373159126E+03  0.18373159126E+03  0.00000000000E+00 0. -1.
         21   -1    0    0  502  503 -0.00000000000E+00 -0.00000000000E+00 -0.21270379102E+02  0.21270379102E+02  0.00000000000E+00 0. -1.
         25    2    1    2    0    0  0.00000000000E+00  0.00000000000E+00  0.16246121216E+03  0.20500197036E+03  0.12502864630E+03 0.  0.
          4    1    3    3  501    0 -0.59888559641E+02 -0.12356091516E+02  0.60084619192E+02  0.85743084484E+02  0.15500000000E+01 0.  1.
         -4    1    3    3    0  501  0.59888559641E+02  0.12356091516E+02  0.10237659297E+03  0.11925888588E+03  0.15500000000E+01 0.  1.
<mgrwt>
<rscale>  2 0.12502865E+03</rscale>
<asrwt>0</asrwt>
<pdfrwt beam="1">  1       21 0.28266398E-01 0.12502865E+03</pdfrwt>
<pdfrwt beam="2">  1       21 0.32723661E-02 0.12502865E+03</pdfrwt>
<totfact> 0.64342599E+06</totfact>
</mgrwt>
</event>
<event>
 5    0  0.1587890E+000  0.1250009E+03  0.7546771E-02  0.1235068E+00
         21   -1    0    0  503  502  0.00000000000E+00  0.00000000000E+00  0.11964329819E+03  0.11964329819E+03  0.00000000000E+00 0. -1.
         21   -1    0    0  502  503 -0.00000000000E+00 -0.00000000000E+00 -0.32649586483E+02  0.32649586483E+02  0.00000000000E+00 0. -1.
         25    2    1    2    0    0  0.00000000000E+00  0.00000000000E+00  0.86993711706E+02  0.15229288467E+03  0.12500086738E+03 0.  0.
          4    1    3    3  501    0  0.22830769859E+02  0.56288150315E+02  0.25661594046E+02  0.65958470474E+02  0.15500000000E+01 0.  1.
         -4    1    3    3    0  501 -0.22830769859E+02 -0.56288150315E+02  0.61332117660E+02  0.86334414198E+02  0.15500000000E+01 0.  1.
<mgrwt>
<rscale>  2 0.12500087E+03</rscale>
<asrwt>0</asrwt>
<pdfrwt beam="1">  1       21 0.18406661E-01 0.12500087E+03</pdfrwt>
<pdfrwt beam="2">  1       21 0.50230134E-02 0.12500087E+03</pdfrwt>
<totfact> 0.70470792E+06</totfact>
</mgrwt>
</event>
<event>
 5    0  0.1400330E+000  0.1249361E+03  0.7546771E-02  0.1235169E+00
         21   -1    0    0  503  502  0.00000000000E+00  0.00000000000E+00  0.56123261101E+02  0.56123261101E+02  0.00000000000E+00 0.  1.
         21   -1    0    0  502  503 -0.00000000000E+00 -0.00000000000E+00 -0.69530166611E+02  0.69530166611E+02  0.00000000000E+00 0.  1.
         25    2    1    2    0    0  0.00000000000E+00  0.00000000000E+00 -0.13406905510E+02  0.12565342771E+03  0.12493613881E+03 0.  0.
          4    1    3    3  501    0  0.34582378212E+02  0.51507249852E+02 -0.13880212905E+02  0.63592456160E+02  0.15500000000E+01 0.  1.
         -4    1    3    3    0  501 -0.34582378212E+02 -0.51507249852E+02  0.47330739494E+00  0.62060971552E+02  0.15500000000E+01 0.  1.
<mgrwt>
<rscale>  2 0.12493614E+03</rscale>
<asrwt>0</asrwt>
<pdfrwt beam="1">  1       21 0.86343479E-02 0.12493614E+03</pdfrwt>
<pdfrwt beam="2">  1       21 0.10696949E-01 0.12493614E+03</pdfrwt>
<totfact> 0.74074572E+06</totfact>
</mgrwt>
</event>
<event>
 5    0  0.1514121E+000  0.1250001E+03  0.7546771E-02  0.1235069E+00
         21   -1    0    0  503  502  0.00000000000E+00  0.00000000000E+00  0.10953631516E+03  0.10953631516E+03  0.00000000000E+00 0. -1.
         21   -1    0    0  502  503 -0.00000000000E+00 -0.00000000000E+00 -0.35661741193E+02  0.35661741193E+02  0.00000000000E+00 0. -1.
         25    2    1    2    0    0  0.00000000000E+00  0.00000000000E+00  0.73874573971E+02  0.14519805636E+03  0.12500009156E+03 0.  0.
          4    1    3    3  501    0 -0.64959883387E+01  0.39957885100E+02  0.92219670375E+02  0.10072586833E+03  0.15500000000E+01 0. -1.
         -4    1    3    3    0  501  0.64959883387E+01 -0.39957885100E+02 -0.18345096403E+02  0.44472188030E+02  0.15500000000E+01 0. -1.
<mgrwt>
<rscale>  2 0.12500009E+03</rscale>
<asrwt>0</asrwt>
<pdfrwt beam="1">  1       21 0.16851741E-01 0.12500009E+03</pdfrwt>
<pdfrwt beam="2">  1       21 0.54864218E-02 0.12500009E+03</pdfrwt>
<totfact> 0.71367596E+06</totfact>
</mgrwt>
</event>
<event>
 5    0  0.1468889E+000  0.1249997E+03  0.7546771E-02  0.1235070E+00
         21   -1    0    0  503  502  0.00000000000E+00  0.00000000000E+00  0.37736560624E+03  0.37736560624E+03  0.00000000000E+00 0. -1.
         21   -1    0    0  502  503 -0.00000000000E+00 -0.00000000000E+00 -0.10351315198E+02  0.10351315198E+02  0.00000000000E+00 0. -1.
         25    2    1    2    0    0  0.00000000000E+00  0.00000000000E+00  0.36701429104E+03  0.38771692144E+03  0.12499968536E+03 0.  0.
          4    1    3    3  501    0 -0.30333586633E+01 -0.62155385805E+02  0.16614442346E+03  0.17742284294E+03  0.15500000000E+01 0.  1.
         -4    1    3    3    0  501  0.30333586633E+01  0.62155385805E+02  0.20086986758E+03  0.21029407850E+03  0.15500000000E+01 0.  1.
<mgrwt>
<rscale>  2 0.12499969E+03</rscale>
<asrwt>0</asrwt>
<pdfrwt beam="1">  1       21 0.58056236E-01 0.12499969E+03</pdfrwt>
<pdfrwt beam="2">  1       21 0.15925103E-02 0.12499969E+03</pdfrwt>
<totfact> 0.48867278E+06</totfact>
</mgrwt>
</event>
<event>
 5    0  0.1308401E+000  0.1249973E+03  0.7546771E-02  0.1235073E+00
         21   -1    0    0  503  502  0.00000000000E+00  0.00000000000E+00  0.69280674290E+03  0.69280674290E+03  0.00000000000E+00 0. -1.
         21   -1    0    0  502  503 -0.00000000000E+00 -0.00000000000E+00 -0.56380555268E+01  0.56380555268E+01  0.00000000000E+00 0. -1.
         25    2    1    2    0    0  0.00000000000E+00  0.00000000000E+00  0.68716868738E+03  0.69844479843E+03  0.12499732614E+03 0.  0.
          4    1    3    3  501    0 -0.12162186008E+02  0.46714205230E+02  0.56523595834E+03  0.56729553748E+03  0.15500000000E+01 0.  1.
         -4    1    3    3    0  501  0.12162186008E+02 -0.46714205230E+02  0.12193272904E+03  0.13114926096E+03  0.15500000000E+01 0.  1.
<mgrwt>
<rscale>  2 0.12499733E+03</rscale>
<asrwt>0</asrwt>
<pdfrwt beam="1">  1       21 0.10658559E+00 0.12499733E+03</pdfrwt>
<pdfrwt beam="2">  1       21 0.86739371E-03 0.12499733E+03</pdfrwt>
<totfact> 0.32972386E+06</totfact>
</mgrwt>
</event>
<event>
 5    0  0.1524123E+000  0.1250037E+03  0.7546771E-02  0.1235063E+00
         21   -1    0    0  503  502  0.00000000000E+00  0.00000000000E+00  0.19625962004E+03  0.19625962004E+03  0.00000000000E+00 0.  1.
         21   -1    0    0  502  503 -0.00000000000E+00 -0.00000000000E+00 -0.19904670392E+02  0.19904670392E+02  0.00000000000E+00 0.  1.
         25    2    1    2    0    0  0.00000000000E+00  0.00000000000E+00  0.17635494965E+03  0.21616429043E+03  0.12500372871E+03 0.  0.
          4    1    3    3  501    0 -0.69102243713E+01 -0.54340261823E+02  0.14015513442E+03  0.15048747277E+03  0.15500000000E+01 0.  1.
         -4    1    3    3    0  501  0.69102243713E+01  0.54340261823E+02  0.36199815229E+02  0.65676817664E+02  0.15500000000E+01 0.  1.
<mgrwt>
<rscale>  2 0.12500373E+03</rscale>
<asrwt>0</asrwt>
<pdfrwt beam="1">  1       21 0.30193786E-01 0.12500373E+03</pdfrwt>
<pdfrwt beam="2">  1       21 0.30622571E-02 0.12500373E+03</pdfrwt>
<totfact> 0.63210803E+06</totfact>
</mgrwt>
</event>
<event>
 5    0  0.1530829E+000  0.1249983E+03  0.7546771E-02  0.1235072E+00
         21   -1    0    0  503  502  0.00000000000E+00  0.00000000000E+00  0.18603622572E+03  0.18603622572E+03  0.00000000000E+00 0.  1.
         21   -1    0    0  502  503 -0.00000000000E+00 -0.00000000000E+00 -0.20996685561E+02  0.20996685561E+02  0.00000000000E+00 0.  1.
         25    2    1    2    0    0  0.00000000000E+00  0.00000000000E+00  0.16503954016E+03  0.20703291128E+03  0.12499830614E+03 0.  0.
          4    1    3    3  501    0  0.59848766506E+02  0.14930333833E+02  0.66043937870E+02  0.90382486965E+02  0.15500000000E+01 0. -1.
         -4    1    3    3    0  501 -0.59848766506E+02 -0.14930333833E+02  0.98995602289E+02  0.11665042432E+03  0.15500000000E+01 0. -1.
<mgrwt>
<rscale>  2 0.12499831E+03</rscale>
<asrwt>0</asrwt>
<pdfrwt beam="1">  1       21 0.28620957E-01 0.12499831E+03</pdfrwt>
<pdfrwt beam="2">  1       21 0.32302594E-02 0.12499831E+03</pdfrwt>
<totfact> 0.64175816E+06</totfact>
</mgrwt>
</event>
<event>
 5    0  0.1377749E+000  0.1250016E+03  0.7546771E-02  0.1235067E+00
         21   -1    0    0  503  502  0.00000000000E+00  0.00000000000E+00  0.15993517214E+02  0.15993517214E+02  0.00000000000E+00 0.  1.
         21   -1    0    0  502  503 -0.00000000000E+00 -0.00000000000E+00 -0.24424589301E+03  0.24424589301E+03  0.00000000000E+00 0.  1.
         25    2    1    2    0    0  0.00000000000E+00  0.00000000000E+00 -0.22825237579E+03  0.26023941022E+03  0.12500161430E+03 0.  0.
          4    1    3    3  501    0 -0.28512324446E+02  0.12148337332E+02 -0.11770048266E+01  0.31053543849E+02  0.15500000000E+01 0. -1.
         -4    1    3    3    0  501  0.28512324446E+02 -0.12148337332E+02 -0.22707537097E+03  0.22918586637E+03  0.15500000000E+01 0. -1.
<mgrwt>
<rscale>  2 0.12500161E+03</rscale>
<asrwt>0</asrwt>
<pdfrwt beam="1">  1       21 0.24605413E-02 0.12500161E+03</pdfrwt>
<pdfrwt beam="2">  1       21 0.37576288E-01 0.12500161E+03</pdfrwt>
<totfact> 0.58924940E+06</totfact>
</mgrwt>
</event>
<event>
 5    0  0.1552866E+000  0.1250025E+03  0.7546771E-02  0.1235065E+00
         21   -1    0    0  503  502  0.00000000000E+00  0.00000000000E+00  0.44617886355E+02  0.44617886355E+02  0.00000000000E+00 0. -1.
         21   -1    0    0  502  503 -0.00000000000E+00 -0.00000000000E+00 -0.87552478779E+02  0.87552478779E+02  0.00000000000E+00 0. -1.
         25    2    1    2    0    0  0.00000000000E+00  0.00000000000E+00 -0.42934592424E+02  0.13217036513E+03  0.12500250475E+03 0.  0.
          4    1    3    3  501    0  0.51934981544E+01 -0.60441293293E+02 -0.37287958608E+02  0.71224410949E+02  0.15500000000E+01 0. -1.
         -4    1    3    3    0  501 -0.51934981544E+01  0.60441293293E+02 -0.56466338168E+01  0.60945954184E+02  0.15500000000E+01 0. -1.
<mgrwt>
<rscale>  2 0.12500250E+03</rscale>
<asrwt>0</asrwt>
<pdfrwt beam="1">  1       21 0.68642903E-02 0.12500250E+03</pdfrwt>
<pdfrwt beam="2">  1       21 0.13469612E-01 0.12500250E+03</pdfrwt>
<totfact> 0.73068717E+06</totfact>
</mgrwt>
</event>
<event>
 5    0  0.1259566E+000  0.1249953E+03  0.7546771E-02  0.1235077E+00
         21   -1    0    0  503  502  0.00000000000E+00  0.00000000000E+00  0.58260098137E+03  0.58260098137E+03  0.00000000000E+00 0. -1.
         21   -1    0    0  502  503 -0.00000000000E+00 -0.00000000000E+00 -0.67043436644E+01  0.67043436644E+01  0.00000000000E+00 0. -1.
         25    2    1    2    0    0  0.00000000000E+00  0.00000000000E+00  0.57589663770E+03  0.58930532503E+03  0.12499531508E+03 0.  0.
          4    1    3    3  501    0 -0.21984604288E+02  0.47177625093E+02  0.45089306222E+03  0.45388986240E+03  0.15500000000E+01 0.  1.
         -4    1    3    3    0  501  0.21984604288E+02 -0.47177625093E+02  0.12500357548E+03  0.13541546263E+03  0.15500000000E+01 0.  1.
<mgrwt>
<rscale>  2 0.12499532E+03</rscale>
<asrwt>0</asrwt>
<pdfrwt beam="1">  1       21 0.89630880E-01 0.12499532E+03</pdfrwt>
<pdfrwt beam="2">  1       21 0.10314379E-02 0.12499532E+03</pdfrwt>
<totfact> 0.37585179E+06</totfact>
</mgrwt>
</event>
<event>
 5    0  0.1371470E+000  0.1250022E+03  0.7546771E-02  0.1235066E+00
         21   -1    0    0  503  502  0.00000000000E+00  0.00000000000E+00  0.32604981101E+02  0.32604981101E+02  0.00000000000E+00 0. -1.
         21   -1    0    0  502  503 -0.00000000000E+00 -0.00000000000E+00 -0.11980959444E+03  0.11980959444E+03  0.00000000000E+00 0. -1.
         25    2    1    2    0    0  0.00000000000E+00  0.00000000000E+00 -0.87204613337E+02  0.15241457554E+03  0.12500223298E+03 0.  0.
          4    1    3    3  501    0  0.17997269223E+02  0.15668930317E+02 -0.11401138320E+03  0.11649212452E+03  0.15500000000E+01 0. -1.
         -4    1    3    3    0  501 -0.17997269223E+02 -0.15668930317E+02  0.26806769861E+02  0.35922451018E+02  0.15500000000E+01 0. -1.
<mgrwt>
<rscale>  2 0.12500223E+03</rscale>
<asrwt>0</asrwt>
<pdfrwt beam="1">  1       21 0.50161510E-02 0.12500223E+03</pdfrwt>
<pdfrwt beam="2">  1       21 0.18432245E-01 0.12500223E+03</pdfrwt>
<totfact> 0.70453184E+06</totfact>
</mgrwt>
</event>
<event>
 5    0  0.1507078E+000  0.1249922E+03  0.7546771E-02  0.1235082E+00
         21   -1    0    0  503  502  0.00000000000E+00  0.00000000000E+00  0.31975361741E+02  0.31975361741E+02  0.00000000000E+00 0. -1.
         21   -1    0    0  502  503 -0.00000000000E+00 -0.00000000000E+00 -0.12214908715E+03  0.12214908715E+03  0.00000000000E+00 0. -1.
         25    2    1    2    0    0  0.00000000000E+00  0.00000000000E+00 -0.90173725413E+02  0.15412444890E+03  0.12499217973E+03 0.  0.
          4    1    3    3  501    0  0.20025385507E+01  0.46382187937E+02  0.64673941345E+01  0.46899330543E+02  0.15500000000E+01 0. -1.
         -4    1    3    3    0  501 -0.20025385507E+01 -0.46382187937E+02 -0.96641119548E+02  0.10722511835E+03  0.15500000000E+01 0. -1.
<mgrwt>
<rscale>  2 0.12499218E+03</rscale>
<asrwt>0</asrwt>
<pdfrwt beam="1">  1       21 0.49192864E-02 0.12499218E+03</pdfrwt>
<pdfrwt beam="2">  1       21 0.18792167E-01 0.12499218E+03</pdfrwt>
<totfact> 0.70258618E+06</totfact>
</mgrwt>
</event>
<event>
 5    0  0.1540671E+000  0.1249985E+03  0.7546771E-02  0.1235072E+00
         21   -1    0    0  503  502  0.00000000000E+00  0.00000000000E+00  0.15245805470E+03  0.15245805470E+03  0.00000000000E+00 0. -1.
         21   -1    0    0  502  503 -0.00000000000E+00 -0.00000000000E+00 -0.25621182064E+02  0.25621182064E+02  0.00000000000E+00 0. -1.
         25    2    1    2    0    0  0.00000000000E+00  0.00000000000E+00  0.12683687263E+03  0.17807923676E+03  0.12499848921E+03 0.  0.
          4    1    3    3  501    0  0.41647974289E+02 -0.39313134549E+02  0.27839881407E+02  0.63698805383E+02  0.15500000000E+01 0.  1.
         -4    1    3    3    0  501 -0.41647974289E+02  0.39313134549E+02  0.98996991226E+02  0.11438043138E+03  0.15500000000E+01 0.  1.
<mgrwt>
<rscale>  2 0.12499849E+03</rscale>
<asrwt>0</asrwt>
<pdfrwt beam="1">  1       21 0.23455085E-01 0.12499849E+03</pdfrwt>
<pdfrwt beam="2">  1       21 0.39417204E-02 0.12499849E+03</pdfrwt>
<totfact> 0.67375149E+06</totfact>
</mgrwt>
</event>
<event>
 5    0  0.1613198E+000  0.1249974E+03  0.7546771E-02  0.1235073E+00
         21   -1    0    0  503  502  0.00000000000E+00  0.00000000000E+00  0.71391115644E+02  0.71391115644E+02  0.00000000000E+00 0. -1.
         21   -1    0    0  502  503 -0.00000000000E+00 -0.00000000000E+00 -0.54713906121E+02  0.54713906121E+02  0.00000000000E+00 0. -1.
         25    2    1    2    0    0  0.00000000000E+00  0.00000000000E+00  0.16677209523E+02  0.12610502177E+03  0.12499738876E+03 0.  0.
          4    1    3    3  501    0  0.31463979739E+02 -0.53974483539E+02  0.76562945705E+01  0.62962276332E+02  0.15500000000E+01 0. -1.
         -4    1    3    3    0  501 -0.31463979739E+02  0.53974483539E+02  0.90209149524E+01  0.63142745434E+02  0.15500000000E+01 0. -1.
<mgrwt>
<rscale>  2 0.12499739E+03</rscale>
<asrwt>0</asrwt>
<pdfrwt beam="1">  1       21 0.10983249E-01 0.12499739E+03</pdfrwt>
<pdfrwt beam="2">  1       21 0.84175240E-02 0.12499739E+03</pdfrwt>
<totfact> 0.73896494E+06</totfact>
</mgrwt>
</event>
<event>
 5    0  0.1587258E+000  0.1249985E+03  0.7546771E-02  0.1235072E+00
         21   -1    0    0  503  502  0.00000000000E+00  0.00000000000E+00  0.11065367295E+03  0.11065367295E+03  0.00000000000E+00 0.  1.
         21   -1    0    0  502  503 -0.00000000000E+00 -0.00000000000E+00 -0.35300721714E+02  0.35300721714E+02  0.00000000000E+00 0.  1.
         25    2    1    2    0    0  0.00000000000E+00  0.00000000000E+00  0.75352951234E+02  0.14595439466E+03  0.12499847224E+03 0.  0.
          4    1    3    3  501    0  0.14823707155E+02  0.53001659421E+02  0.31402197584E+01  0.55146909935E+02  0.15500000000E+01 0.  1.
         -4    1    3    3    0  501 -0.14823707155E+02 -0.53001659421E+02  0.72212731476E+02  0.90807484727E+02  0.15500000000E+01 0.  1.
<mgrwt>
<rscale>  2 0.12499847E+03</rscale>
<asrwt>0</asrwt>
<pdfrwt beam="1">  1       21 0.17023642E-01 0.12499847E+03</pdfrwt>
<pdfrwt beam="2">  1       21 0.54308803E-02 0.12499847E+03</pdfrwt>
<totfact> 0.71273956E+06</totfact>
</mgrwt>
</event>
<event>
 5    0  0.1391091E+000  0.1249677E+03  0.7546771E-02  0.1235120E+00
         21   -1    0    0  503  502  0.00000000000E+00  0.00000000000E+00  0.35742592672E+03  0.35742592672E+03  0.00000000000E+00 0.  1.
         21   -1    0    0  502  503 -0.00000000000E+00 -0.00000000000E+00 -0.10923191921E+02  0.10923191921E+02  0.00000000000E+00 0.  1.
         25    2    1    2    0    0  0.00000000000E+00  0.00000000000E+00  0.34650273480E+03  0.36834911864E+03  0.12496770775E+03 0.  0.
          4    1    3    3  501    0 -0.44751276792E+02 -0.11958770198E+02  0.29677255686E+03  0.30036984197E+03  0.15500000000E+01 0. -1.
         -4    1    3    3    0  501  0.44751276792E+02  0.11958770198E+02  0.49730177941E+02  0.67979276675E+02  0.15500000000E+01 0. -1.
<mgrwt>
<rscale>  2 0.12496771E+03</rscale>
<asrwt>0</asrwt>
<pdfrwt beam="1">  1       21 0.54988595E-01 0.12496771E+03</pdfrwt>
<pdfrwt beam="2">  1       21 0.16804913E-02 0.12496771E+03</pdfrwt>
<totfact> 0.50251803E+06</totfact>
</mgrwt>
</event>
<event>
 5    0  0.1500964E+000  0.1250018E+03  0.7546771E-02  0.1235066E+00
         21   -1    0    0  503  502  0.00000000000E+00  0.00000000000E+00  0.10964095315E+03  0.10964095315E+03  0.00000000000E+00 0. -1.
         21   -1    0    0  502  503 -0.00000000000E+00 -0.00000000000E+00 -0.35628703586E+02  0.35628703586E+02  0.00000000000E+00 0. -1.
         25    2    1    2    0    0  0.00000000000E+00  0.00000000000E+00  0.74012249567E+02  0.14526965674E+03  0.12500184032E+03 0.  0.
          4    1    3    3  501    0  0.55046434144E+02  0.86789804802E+00  0.26669116865E+01  0.55139623475E+02  0.15500000000E+01 0.  1.
         -4    1    3    3    0  501 -0.55046434144E+02 -0.86789804802E+00  0.71345337881E+02  0.90130033265E+02  0.15500000000E+01 0.  1.
<mgrwt>
<rscale>  2 0.12500184E+03</rscale>
<asrwt>0</asrwt>
<pdfrwt beam="1">  1       21 0.16867839E-01 0.12500184E+03</pdfrwt>
<pdfrwt beam="2">  1       21 0.54813390E-02 0.12500184E+03</pdfrwt>
<totfact> 0.71355263E+06</totfact>
</mgrwt>
</event>
<event>
 5    0  0.1490054E+000  0.1250006E+03  0.7546771E-02  0.1235068E+00
         21   -1    0    0  503  502  0.00000000000E+00  0.00000000000E+00  0.30483576403E+02  0.30483576403E+02  0.00000000000E+00 0.  1.
         21   -1    0    0  502  503 -0.00000000000E+00 -0.00000000000E+00 -0.12814396049E+03  0.12814396049E+03  0.00000000000E+00 0.  1.
         25    2    1    2    0    0  0.00000000000E+00  0.00000000000E+00 -0.97660384085E+02  0.15862753689E+03  0.12500057936E+03 0.  0.
          4    1    3    3  501    0  0.35225979054E+02  0.35328512385E+02 -0.96564541951E+02  0.10870182450E+03  0.15500000000E+01 0. -1.
         -4    1    3    3    0  501 -0.35225979054E+02 -0.35328512385E+02 -0.10958421330E+01  0.49925712389E+02  0.15500000000E+01 0. -1.
<mgrwt>
<rscale>  2 0.12500058E+03</rscale>
<asrwt>0</asrwt>
<pdfrwt beam="1">  1       21 0.46897809E-02 0.12500058E+03</pdfrwt>
<pdfrwt beam="2">  1       21 0.19714456E-01 0.12500058E+03</pdfrwt>
<totfact> 0.69686559E+06</totfact>
</mgrwt>
</event>
<event>
 5    0  0.1222151E+000  0.1249939E+03  0.7546771E-02  0.1235079E+00
         21   -1    0    0  503  502  0.00000000000E+00  0.00000000000E+00  0.24030968845E+01  0.24030968845E+01  0.00000000000E+00 0. -1.
         21   -1    0    0  502  503 -0.00000000000E+00 -0.00000000000E+00 -0.16253475562E+04  0.16253475562E+04  0.00000000000E+00 0. -1.
         25    2    1    2    0    0  0.00000000000E+00  0.00000000000E+00 -0.16229444593E+04  0.16277506531E+04  0.12499388223E+03 0.  0.
          4    1    3    3  501    0  0.45634036476E+02 -0.19738652638E+02 -0.31877806222E+03  0.32263591732E+03  0.15500000000E+01 0. -1.
         -4    1    3    3    0  501 -0.45634036476E+02  0.19738652638E+02 -0.13041663971E+04  0.13051147358E+04  0.15500000000E+01 0. -1.
<mgrwt>
<rscale>  2 0.12499388E+03</rscale>
<asrwt>0</asrwt>
<pdfrwt beam="1">  1       21 0.36970616E-03 0.12499388E+03</pdfrwt>
<pdfrwt beam="2">  1       21 0.25005418E+00 0.12499388E+03</pdfrwt>
<totfact> 0.12202578E+06</totfact>
</mgrwt>
</event>
<event>
 5    0  0.1464056E+000  0.1250012E+03  0.7546771E-02  0.1235067E+00
         21   -1    0    0  503  502  0.00000000000E+00  0.00000000000E+00  0.14140768253E+02  0.14140768253E+02  0.00000000000E+00 0.  1.
         21   -1    0    0  502  503 -0.00000000000E+00 -0.00000000000E+00 -0.27624549515E+03  0.27624549515E+03  0.00000000000E+00 0.  1.
         25    2    1    2    0    0  0.00000000000E+00  0.00000000000E+00 -0.26210472689E+03  0.29038626340E+03  0.12500117644E+03 0.  0.
          4    1    3    3  501    0  0.19616507647E+02 -0.59297922953E+02 -0.12711684389E+03  0.14164090348E+03  0.15500000000E+01 0.  1.
         -4    1    3    3    0  501 -0.19616507647E+02  0.59297922953E+02 -0.13498788300E+03  0.14874535992E+03  0.15500000000E+01 0.  1.
<mgrwt>
<rscale>  2 0.12500118E+03</rscale>
<asrwt>0</asrwt>
<pdfrwt beam="1">  1       21 0.21755028E-02 0.12500118E+03</pdfrwt>
<pdfrwt beam="2">  1       21 0.42499307E-01 0.12500118E+03</pdfrwt>
<totfact> 0.56263033E+06</totfact>
</mgrwt>
</event>
<event>
 5    0  0.1627364E+000  0.1249946E+03  0.7546771E-02  0.1235078E+00
         21   -1    0    0  503  502  0.00000000000E+00  0.00000000000E+00  0.81017333275E+02  0.81017333275E+02  0.00000000000E+00 0.  1.
         21   -1    0    0  502  503 -0.00000000000E+00 -0.00000000000E+00 -0.48210808125E+02  0.48210808125E+02  0.00000000000E+00 0.  1.
         25    2    1    2    0    0  0.00000000000E+00  0.00000000000E+00  0.32806525151E+02  0.12922814140E+03  0.12499457763E+03 0.  0.
          4    1    3    3  501    0 -0.15522344104E+02 -0.60415407147E+02  0.20064975807E+02  0.65543652182E+02  0.15500000000E+01 0. -1.
         -4    1    3    3    0  501  0.15522344104E+02  0.60415407147E+02  0.12741549343E+02  0.63684489218E+02  0.15500000000E+01 0. -1.
<mgrwt>
<rscale>  2 0.12499458E+03</rscale>
<asrwt>0</asrwt>
<pdfrwt beam="1">  1       21 0.12464205E-01 0.12499458E+03</pdfrwt>
<pdfrwt beam="2">  1       21 0.74170474E-02 0.12499458E+03</pdfrwt>
<totfact> 0.73478431E+06</totfact>
</mgrwt>
</event>
<event>
 5    0  0.1520532E+000  0.1250031E+03  0.7546771E-02  0.1235064E+00
         21   -1    0    0  503  502  0.00000000000E+00  0.00000000000E+00  0.22549483451E+03  0.22549483451E+03  0.00000000000E+00 0.  1.
         21   -1    0    0  502  503 -0.00000000000E+00 -0.00000000000E+00 -0.17323867344E+02  0.17323867344E+02  0.00000000000E+00 0.  1.
         25    2    1    2    0    0  0.00000000000E+00  0.00000000000E+00  0.20817096717E+03  0.24281870185E+03  0.12500308156E+03 0.  0.
          4    1    3    3  501    0 -0.28966976947E+02  0.22887782892E+02  0.61652115289E+01  0.37461295925E+02  0.15500000000E+01 0. -1.
         -4    1    3    3    0  501  0.28966976947E+02 -0.22887782892E+02  0.20200575564E+03  0.20535740593E+03  0.15500000000E+01 0. -1.
<mgrwt>
<rscale>  2 0.12500308E+03</rscale>
<asrwt>0</asrwt>
<pdfrwt beam="1">  1       21 0.34691511E-01 0.12500308E+03</pdfrwt>
<pdfrwt beam="2">  1       21 0.26652105E-02 0.12500308E+03</pdfrwt>
<totfact> 0.60556259E+06</totfact>
</mgrwt>
</event>
<event>
 5    0  0.1222151E+000  0.1250005E+03  0.7546771E-02  0.1235068E+00
         21   -1    0    0  503  502  0.00000000000E+00  0.00000000000E+00  0.15428019762E+02  0.15428019762E+02  0.00000000000E+00 0. -1.
         21   -1    0    0  502  503 -0.00000000000E+00 -0.00000000000E+00 -0.25319399670E+03  0.25319399670E+03  0.00000000000E+00 0. -1.
         25    2    1    2    0    0  0.00000000000E+00  0.00000000000E+00 -0.23776597694E+03  0.26862201646E+03  0.12500051175E+03 0.  0.
          4    1    3    3  501    0  0.17890786437E+02  0.11498330771E+02 -0.24513527902E+03  0.24606096678E+03  0.15500000000E+01 0. -1.
         -4    1    3    3    0  501 -0.17890786437E+02 -0.11498330771E+02  0.73693020816E+01  0.22561049688E+02  0.15500000000E+01 0. -1.
<mgrwt>
<rscale>  2 0.12500051E+03</rscale>
<asrwt>0</asrwt>
<pdfrwt beam="1">  1       21 0.23735417E-02 0.12500051E+03</pdfrwt>
<pdfrwt beam="2">  1       21 0.38952919E-01 0.12500051E+03</pdfrwt>
<totfact> 0.58167170E+06</totfact>
</mgrwt>
</event>
<event>
 5    0  0.1250372E+000  0.1249892E+03  0.7546771E-02  0.1235086E+00
         21   -1    0    0  503  502  0.00000000000E+00  0.00000000000E+00  0.50368834890E+03  0.50368834890E+03  0.00000000000E+00 0.  1.
         21   -1    0    0  502  503 -0.00000000000E+00 -0.00000000000E+00 -0.77539506092E+01  0.77539506092E+01  0.00000000000E+00 0.  1.
         25    2    1    2    0    0  0.00000000000E+00  0.00000000000E+00  0.49593439829E+03  0.51144229951E+03  0.12498919281E+03 0.  0.
          4    1    3    3  501    0 -0.48293481485E+01  0.25576085425E+02  0.48036770295E+03  0.48107482920E+03  0.15500000000E+01 0. -1.
         -4    1    3    3    0  501  0.48293481485E+01 -0.25576085425E+02  0.15566695336E+02  0.30367470308E+02  0.15500000000E+01 0. -1.
<mgrwt>
<rscale>  2 0.12498919E+03</rscale>
<asrwt>0</asrwt>
<pdfrwt beam="1">  1       21 0.77490490E-01 0.12498919E+03</pdfrwt>
<pdfrwt beam="2">  1       21 0.11929159E-02 0.12498919E+03</pdfrwt>
<totfact> 0.41441406E+06</totfact>
</mgrwt>
</event>
<event>
 5    0  0.1271324E+000  0.1250035E+03  0.7546771E-02  0.1235064E+00
         21   -1    0    0  503  502  0.00000000000E+00  0.00000000000E+00  0.71671655753E+01  0.71671655753E+01  0.00000000000E+00 0.  1.
         21   -1    0    0  502  503 -0.00000000000E+00 -0.00000000000E+00 -0.54505032762E+03  0.54505032762E+03  0.00000000000E+00 0.  1.
         25    2    1    2    0    0  0.00000000000E+00  0.00000000000E+00 -0.53788316204E+03  0.55221749319E+03  0.12500345507E+03 0.  0.
          4    1    3    3  501    0  0.37168918606E+02 -0.28967086360E+02 -0.87687693159E+02  0.99559804309E+02  0.15500000000E+01 0. -1.
         -4    1    3    3    0  501 -0.37168918606E+02  0.28967086360E+02 -0.45019546888E+03  0.45265768888E+03  0.15500000000E+01 0. -1.
<mgrwt>
<rscale>  2 0.12500346E+03</rscale>
<asrwt>0</asrwt>
<pdfrwt beam="1">  1       21 0.11026408E-02 0.12500346E+03</pdfrwt>
<pdfrwt beam="2">  1       21 0.83853901E-01 0.12500346E+03</pdfrwt>
<totfact> 0.39343344E+06</totfact>
</mgrwt>
</event>
<event>
 5    0  0.1543341E+000  0.1250009E+03  0.7546771E-02  0.1235068E+00
         21   -1    0    0  503  502  0.00000000000E+00  0.00000000000E+00  0.23270755458E+02  0.23270755458E+02  0.00000000000E+00 0. -1.
         21   -1    0    0  502  503 -0.00000000000E+00 -0.00000000000E+00 -0.16786335251E+03  0.16786335251E+03  0.00000000000E+00 0. -1.
         25    2    1    2    0    0  0.00000000000E+00  0.00000000000E+00 -0.14459259705E+03  0.19113410796E+03  0.12500091242E+03 0.  0.
          4    1    3    3  501    0 -0.60646328901E+02  0.73635168819E+01 -0.92332605005E+02  0.11072448255E+03  0.15500000000E+01 0. -1.
         -4    1    3    3    0  501  0.60646328901E+02 -0.73635168819E+01 -0.52259992043E+02  0.80409625409E+02  0.15500000000E+01 0. -1.
<mgrwt>
<rscale>  2 0.12500091E+03</rscale>
<asrwt>0</asrwt>
<pdfrwt beam="1">  1       21 0.35801161E-02 0.12500091E+03</pdfrwt>
<pdfrwt beam="2">  1       21 0.25825132E-01 0.12500091E+03</pdfrwt>
<totfact> 0.65895116E+06</totfact>
</mgrwt>
</event>
<event>
 5    0  0.1413513E+000  0.1249950E+03  0.7546771E-02  0.1235077E+00
         21   -1    0    0  503  502  0.00000000000E+00  0.00000000000E+00  0.28416875840E+03  0.28416875840E+03  0.00000000000E+00 0.  1.
         21   -1    0    0  502  503 -0.00000000000E+00 -0.00000000000E+00 -0.13745127811E+02  0.13745127811E+02  0.00000000000E+00 0.  1.
         25    2    1    2    0    0  0.00000000000E+00  0.00000000000E+00  0.27042363059E+03  0.29791388621E+03  0.12499497436E+03 0.  0.
          4    1    3    3  501    0  0.10088705491E+02 -0.28849722510E+02  0.53337432422E+01  0.31063479914E+02  0.15500000000E+01 0. -1.
         -4    1    3    3    0  501 -0.10088705491E+02  0.28849722510E+02  0.26508988734E+03  0.26685040630E+03  0.15500000000E+01 0. -1.
<mgrwt>
<rscale>  2 0.12499497E+03</rscale>
<asrwt>0</asrwt>
<pdfrwt beam="1">  1       21 0.43718266E-01 0.12499497E+03</pdfrwt>
<pdfrwt beam="2">  1       21 0.21146353E-02 0.12499497E+03</pdfrwt>
<totfact> 0.55637012E+06</totfact>
</mgrwt>
</event>
<event>
 5    0  0.1433033E+000  0.1249988E+03  0.7546771E-02  0.1235071E+00
         21   -1    0    0  503  502  0.00000000000E+00  0.00000000000E+00  0.13362983935E+02  0.13362983935E+02  0.00000000000E+00 0.  1.
         21   -1    0    0  502  503 -0.00000000000E+00 -0.00000000000E+00 -0.29231299885E+03  0.29231299885E+03  0.00000000000E+00 0.  1.
         25    2    1    2    0    0  0.00000000000E+00  0.00000000000E+00 -0.27895001492E+03  0.30567598279E+03  0.12499878251E+03 0.  0.
          4    1    3    3  501    0 -0.26963107308E+02 -0.51064223735E+02 -0.19781827753E+03  0.20608017257E+03  0.15500000000E+01 0. -1.
         -4    1    3    3    0  501  0.26963107308E+02  0.51064223735E+02 -0.81131737392E+02  0.99595810221E+02  0.15500000000E+01 0. -1.
<mgrwt>
<rscale>  2 0.12499878E+03</rscale>
<asrwt>0</asrwt>
<pdfrwt beam="1">  1       21 0.20558437E-02 0.12499878E+03</pdfrwt>
<pdfrwt beam="2">  1       21 0.44971230E-01 0.12499878E+03</pdfrwt>
<totfact> 0.54989433E+06</totfact>
</mgrwt>
</event>
<event>
 5    0  0.1562313E+000  0.1250122E+03  0.7546771E-02  0.1235050E+00
         21   -1    0    0  503  502  0.00000000000E+00  0.00000000000E+00  0.13629508479E+03  0.13629508479E+03  0.00000000000E+00 0.  1.
         21   -1    0    0  502  503 -0.00000000000E+00 -0.00000000000E+00 -0.28665854940E+02  0.28665854940E+02  0.00000000000E+00 0.  1.
         25    2    1    2    0    0  0.00000000000E+00  0.00000000000E+00  0.10762922984E+03  0.16496093973E+03  0.12501224147E+03 0.  0.
          4    1    3    3  501    0 -0.82521152713E+01  0.54311432154E+02  0.14519605566E+02  0.56842330308E+02  0.15500000000E+01 0.  1.
         -4    1    3    3    0  501  0.82521152713E+01 -0.54311432154E+02  0.93109624279E+02  0.10811860942E+03  0.15500000000E+01 0.  1.
<mgrwt>
<rscale>  2 0.12501224E+03</rscale>
<asrwt>0</asrwt>
<pdfrwt beam="1">  1       21 0.20968474E-01 0.12501224E+03</pdfrwt>
<pdfrwt beam="2">  1       21 0.44101316E-02 0.12501224E+03</pdfrwt>
<totfact> 0.68896912E+06</totfact>
</mgrwt>
</event>
<event>
 5    0  0.1535399E+000  0.1250000E+03  0.7546771E-02  0.1235069E+00
         21   -1    0    0  503  502  0.00000000000E+00  0.00000000000E+00  0.83346244682E+01  0.83346244682E+01  0.00000000000E+00 0. -1.
         21   -1    0    0  502  503 -0.00000000000E+00 -0.00000000000E+00 -0.46867745083E+03  0.46867745083E+03  0.00000000000E+00 0. -1.
         25    2    1    2    0    0  0.00000000000E+00  0.00000000000E+00 -0.46034282636E+03  0.47701207530E+03  0.12500000879E+03 0.  0.
          4    1    3    3  501    0 -0.60613858582E+02 -0.30963954437E-01 -0.17232170381E+03  0.18267789389E+03  0.15500000000E+01 0.  1.
         -4    1    3    3    0  501  0.60613858582E+02  0.30963954437E-01 -0.28802112255E+03  0.29433418141E+03  0.15500000000E+01 0.  1.
<mgrwt>
<rscale>  2 0.12500001E+03</rscale>
<asrwt>0</asrwt>
<pdfrwt beam="1">  1       21 0.12822496E-02 0.12500001E+03</pdfrwt>
<pdfrwt beam="2">  1       21 0.72104240E-01 0.12500001E+03</pdfrwt>
<totfact> 0.43318822E+06</totfact>
</mgrwt>
</event>
<event>
 5    0  0.1222151E+000  0.1250004E+03  0.7546771E-02  0.1235069E+00
         21   -1    0    0  503  502  0.00000000000E+00  0.00000000000E+00  0.71945451948E+03  0.71945451948E+03  0.00000000000E+00 0.  1.
         21   -1    0    0  502  503 -0.00000000000E+00 -0.00000000000E+00 -0.54294956670E+01  0.54294956670E+01  0.00000000000E+00 0.  1.
         25    2    1    2    0    0  0.00000000000E+00  0.00000000000E+00  0.71402502381E+03  0.72488401515E+03  0.12500040314E+03 0.  0.
          4    1    3    3  501    0 -0.42650456705E+02  0.44661804256E+02  0.30195677409E+03  0.30821102209E+03  0.15500000000E+01 0. -1.
         -4    1    3    3    0  501  0.42650456705E+02 -0.44661804256E+02  0.41206824972E+03  0.41667299306E+03  0.15500000000E+01 0. -1.
<mgrwt>
<rscale>  2 0.12500040E+03</rscale>
<asrwt>0</asrwt>
<pdfrwt beam="1">  1       21 0.11068524E+00 0.12500040E+03</pdfrwt>
<pdfrwt beam="2">  1       21 0.83530759E-03 0.12500040E+03</pdfrwt>
<totfact> 0.31972273E+06</totfact>
</mgrwt>
</event>
<event>
 5    0  0.1282227E+000  0.1250008E+03  0.7546771E-02  0.1235068E+00
         21   -1    0    0  503  502  0.00000000000E+00  0.00000000000E+00  0.18165063484E+02  0.18165063484E+02  0.00000000000E+00 0.  1.
         21   -1    0    0  502  503 -0.00000000000E+00 -0.00000000000E+00 -0.21504466393E+03  0.21504466393E+03  0.00000000000E+00 0.  1.
         25    2    1    2    0    0  0.00000000000E+00  0.00000000000E+00 -0.19687960044E+03  0.23320972741E+03  0.12500079955E+03 0.  0.
          4    1    3    3  501    0 -0.15213196978E+02 -0.19431162119E+02 -0.20553107051E+03  0.20701312729E+03  0.15500000000E+01 0. -1.
         -4    1    3    3    0  501  0.15213196978E+02  0.19431162119E+02  0.86514700696E+01  0.26196600122E+02  0.15500000000E+01 0. -1.
<mgrwt>
<rscale>  2 0.12500080E+03</rscale>
<asrwt>0</asrwt>
<pdfrwt beam="1">  1       21 0.27946254E-02 0.12500080E+03</pdfrwt>
<pdfrwt beam="2">  1       21 0.33083791E-01 0.12500080E+03</pdfrwt>
<totfact> 0.61494759E+06</totfact>
</mgrwt>
</event>
<event>
 5    0  0.1441267E+000  0.1249997E+03  0.7546771E-02  0.1235070E+00
         21   -1    0    0  503  502  0.00000000000E+00  0.00000000000E+00  0.85508987169E+01  0.85508987169E+01  0.00000000000E+00 0. -1.
         21   -1    0    0  502  503 -0.00000000000E+00 -0.00000000000E+00 -0.45682139916E+03  0.45682139916E+03  0.00000000000E+00 0. -1.
         25    2    1    2    0    0  0.00000000000E+00  0.00000000000E+00 -0.44827050044E+03  0.46537229788E+03  0.12499973625E+03 0.  0.
          4    1    3    3  501    0 -0.95519918897E+01  0.58613862400E+02 -0.29642310427E+03  0.30231752291E+03  0.15500000000E+01 0. -1.
         -4    1    3    3    0  501  0.95519918897E+01 -0.58613862400E+02 -0.15184739618E+03  0.16305477497E+03  0.15500000000E+01 0. -1.
<mgrwt>
<rscale>  2 0.12499974E+03</rscale>
<asrwt>0</asrwt>
<pdfrwt beam="1">  1       21 0.13155228E-02 0.12499974E+03</pdfrwt>
<pdfrwt beam="2">  1       21 0.70280220E-01 0.12499974E+03</pdfrwt>
<totfact> 0.43986775E+06</totfact>
</mgrwt>
</event>
<event>
 5    0  0.1451526E+000  0.1250061E+03  0.7546771E-02  0.1235060E+00
         21   -1    0    0  503  502  0.00000000000E+00  0.00000000000E+00  0.24039127518E+02  0.24039127518E+02  0.00000000000E+00 0.  1.
         21   -1    0    0  502  503 -0.00000000000E+00 -0.00000000000E+00 -0.16251131686E+03  0.16251131686E+03  0.00000000000E+00 0.  1.
         25    2    1    2    0    0  0.00000000000E+00  0.00000000000E+00 -0.13847218934E+03  0.18655044438E+03  0.12500608416E+03 0.  0.
          4    1    3    3  501    0 -0.55096037334E+02 -0.22964192607E+02 -0.96805885428E+02  0.11373965635E+03  0.15500000000E+01 0. -1.
         -4    1    3    3    0  501  0.55096037334E+02  0.22964192607E+02 -0.41666303916E+02  0.72810788033E+02  0.15500000000E+01 0. -1.
<mgrwt>
<rscale>  2 0.12500608E+03</rscale>
<asrwt>0</asrwt>
<pdfrwt beam="1">  1       21 0.36983275E-02 0.12500608E+03</pdfrwt>
<pdfrwt beam="2">  1       21 0.25001740E-01 0.12500608E+03</pdfrwt>
<totfact> 0.66397678E+06</totfact>
</mgrwt>
</event>
<event>
 5    0  0.1266218E+000  0.1249961E+03  0.7546771E-02  0.1235075E+00
         21   -1    0    0  503  502  0.00000000000E+00  0.00000000000E+00  0.51312024423E+01  0.51312024423E+01  0.00000000000E+00 0. -1.
         21   -1    0    0  502  503 -0.00000000000E+00 -0.00000000000E+00 -0.76122608632E+03  0.76122608632E+03  0.00000000000E+00 0. -1.
         25    2    1    2    0    0  0.00000000000E+00  0.00000000000E+00 -0.75609488387E+03  0.76635728876E+03  0.12499608239E+03 0.  0.
          4    1    3    3  501    0 -0.46238663999E+02 -0.24505958052E+02 -0.58731723443E+03  0.58964607384E+03  0.15500000000E+01 0.  1.
         -4    1    3    3    0  501  0.46238663999E+02  0.24505958052E+02 -0.16877764944E+03  0.17671121492E+03  0.15500000000E+01 0.  1.
<mgrwt>
<rscale>  2 0.12499608E+03</rscale>
<asrwt>0</asrwt>
<pdfrwt beam="1">  1       21 0.78941523E-03 0.12499608E+03</pdfrwt>
<pdfrwt beam="2">  1       21 0.11711178E+00 0.12499608E+03</pdfrwt>
<totfact> 0.30504668E+06</totfact>
</mgrwt>
</event>
<event>
 5    0  0.1222151E+000  0.1250118E+03  0.7546771E-02  0.1235051E+00
         21   -1    0    0  503  502  0.00000000000E+00  0.00000000000E+00  0.13008774072E+04  0.13008774072E+04  0.00000000000E+00 0.  1.
         21   -1    0    0  502  503 -0.00000000000E+00 -0.00000000000E+00 -0.30033466617E+01  0.30033466617E+01  0.00000000000E+00 0.  1.
         25    2    1    2    0    0  0.00000000000E+00  0.00000000000E+00  0.12978740605E+04  0.13038807538E+04  0.12501177254E+03 0.  0.
          4    1    3    3  501    0 -0.11174719834E+02 -0.61374525718E+02  0.61150988674E+03  0.61468565206E+03  0.15500000000E+01 0.  1.
         -4    1    3    3    0  501  0.11174719834E+02  0.61374525718E+02  0.68636417378E+03  0.68919510178E+03  0.15500000000E+01 0.  1.
<mgrwt>
<rscale>  2 0.12501177E+03</rscale>
<asrwt>0</asrwt>
<pdfrwt beam="1">  1       21 0.20013454E+00 0.12501177E+03</pdfrwt>
<pdfrwt beam="2">  1       21 0.46205437E-03 0.12501177E+03</pdfrwt>
<totfact> 0.17177835E+06</totfact>
</mgrwt>
</event>
<event>
 5    0  0.1488611E+000  0.1250029E+03  0.7546771E-02  0.1235065E+00
         21   -1    0    0  503  502  0.00000000000E+00  0.00000000000E+00  0.17418750114E+03  0.17418750114E+03  0.00000000000E+00 0. -1.
         21   -1    0    0  502  503 -0.00000000000E+00 -0.00000000000E+00 -0.22426577555E+02  0.22426577555E+02  0.00000000000E+00 0. -1.
         25    2    1    2    0    0  0.00000000000E+00  0.00000000000E+00  0.15176092359E+03  0.19661407870E+03  0.12500287202E+03 0.  0.
          4    1    3    3  501    0  0.32673827568E+02 -0.39418250627E+02  0.19549311259E+02  0.54826595382E+02  0.15500000000E+01 0. -1.
         -4    1    3    3    0  501 -0.32673827568E+02  0.39418250627E+02  0.13221161233E+03  0.14178748331E+03  0.15500000000E+01 0. -1.
<mgrwt>
<rscale>  2 0.12500287E+03</rscale>
<asrwt>0</asrwt>
<pdfrwt beam="1">  1       21 0.26798076E-01 0.12500287E+03</pdfrwt>
<pdfrwt beam="2">  1       21 0.34502428E-02 0.12500287E+03</pdfrwt>
<totfact> 0.65290050E+06</totfact>
</mgrwt>
</event>
<event>
 5    0  0.1602580E+000  0.1249938E+03  0.7546771E-02  0.1235079E+00
         21   -1    0    0  503  502  0.00000000000E+00  0.00000000000E+00  0.64614103877E+02  0.64614103877E+02  0.00000000000E+00 0. -1.
         21   -1    0    0  502  503 -0.00000000000E+00 -0.00000000000E+00 -0.60449053701E+02  0.60449053701E+02  0.00000000000E+00 0. -1.
         25    2    1    2    0    0  0.00000000000E+00  0.00000000000E+00  0.41650501759E+01  0.12506315758E+03  0.12499378281E+03 0.  0.
          4    1    3    3  501    0 -0.41434283734E+02 -0.30240009959E+02 -0.33605196397E+02  0.61343050101E+02  0.15500000000E+01 0.  1.
         -4    1    3    3    0  501  0.41434283734E+02  0.30240009959E+02  0.37770246573E+02  0.63720107478E+02  0.15500000000E+01 0.  1.
<mgrwt>
<rscale>  2 0.12499378E+03</rscale>
<asrwt>0</asrwt>
<pdfrwt beam="1">  1       21 0.99406313E-02 0.12499378E+03</pdfrwt>
<pdfrwt beam="2">  1       21 0.92998544E-02 0.12499378E+03</pdfrwt>
<totfact> 0.74046820E+06</totfact>
</mgrwt>
</event>
<event>
 5    0  0.1222151E+000  0.1250004E+03  0.7546771E-02  0.1235069E+00
         21   -1    0    0  503  502  0.00000000000E+00  0.00000000000E+00  0.46368626940E+03  0.46368626940E+03  0.00000000000E+00 0.  1.
         21   -1    0    0  502  503 -0.00000000000E+00 -0.00000000000E+00 -0.84243898915E+01  0.84243898915E+01  0.00000000000E+00 0.  1.
         25    2    1    2    0    0  0.00000000000E+00  0.00000000000E+00  0.45526187951E+03  0.47211065929E+03  0.12500038273E+03 0.  0.
          4    1    3    3  501    0 -0.26072220901E+02 -0.22728567260E+01  0.44191468612E+03  0.44269167474E+03  0.15500000000E+01 0. -1.
         -4    1    3    3    0  501  0.26072220901E+02  0.22728567260E+01  0.13347193390E+02  0.29418984547E+02  0.15500000000E+01 0. -1.
<mgrwt>
<rscale>  2 0.12500038E+03</rscale>
<asrwt>0</asrwt>
<pdfrwt beam="1">  1       21 0.71336329E-01 0.12500038E+03</pdfrwt>
<pdfrwt beam="2">  1       21 0.12960603E-02 0.12500038E+03</pdfrwt>
<totfact> 0.43597702E+06</totfact>
</mgrwt>
</event>
<event>
 5    0  0.1222151E+000  0.1249974E+03  0.7546771E-02  0.1235073E+00
         21   -1    0    0  503  502  0.00000000000E+00  0.00000000000E+00  0.12250249891E+04  0.12250249891E+04  0.00000000000E+00 0. -1.
         21   -1    0    0  502  503 -0.00000000000E+00 -0.00000000000E+00 -0.31885787552E+01  0.31885787552E+01  0.00000000000E+00 0. -1.
         25    2    1    2    0    0  0.00000000000E+00  0.00000000000E+00  0.12218364104E+04  0.12282135679E+04  0.12499741845E+03 0.  0.
          4    1    3    3  501    0 -0.31500161647E+02 -0.53192908582E+02  0.52197310814E+03  0.52562350958E+03  0.15500000000E+01 0.  1.
         -4    1    3    3    0  501  0.31500161647E+02  0.53192908582E+02  0.69986330221E+03  0.70259005828E+03  0.15500000000E+01 0.  1.
<mgrwt>
<rscale>  2 0.12499742E+03</rscale>
<asrwt>0</asrwt>
<pdfrwt beam="1">  1       21 0.18846501E+00 0.12499742E+03</pdfrwt>
<pdfrwt beam="2">  1       21 0.49055156E-03 0.12499742E+03</pdfrwt>
<totfact> 0.18591294E+06</totfact>
</mgrwt>
</event>
<event>
 5    0  0.1523757E+000  0.1250001E+03  0.7546771E-02  0.1235069E+00
         21   -1    0    0  503  502  0.00000000000E+00  0.00000000000E+00  0.41192921502E+02  0.41192921502E+02  0.00000000000E+00 0.  1.
         21   -1    0    0  502  503 -0.00000000000E+00 -0.00000000000E+00 -0.94828363823E+02  0.94828363823E+02  0.00000000000E+00 0.  1.
         25    2    1    2    0    0  0.00000000000E+00  0.00000000000E+00 -0.53635442321E+02  0.13602128532E+03  0.12500011755E+03 0.  0.
          4    1    3    3  501    0  0.41183564424E+02  0.44374887061E+02 -0.43627674036E+02  0.74639085084E+02  0.15500000000E+01 0.  1.
         -4    1    3    3    0  501 -0.41183564424E+02 -0.44374887061E+02 -0.10007768285E+02  0.61382200241E+02  0.15500000000E+01 0.  1.
<mgrwt>
<rscale>  2 0.12500012E+03</rscale>
<asrwt>0</asrwt>
<pdfrwt beam="1">  1       21 0.63373727E-02 0.12500012E+03</pdfrwt>
<pdfrwt beam="2">  1       21 0.14588979E-01 0.12500012E+03</pdfrwt>
<totfact> 0.72561311E+06</totfact>
</mgrwt>
</event>
<event>
 5    0  0.1444780E+000  0.1250081E+03  0.7546771E-02  0.1235057E+00
         21   -1    0    0  503  502  0.00000000000E+00  0.00000000000E+00  0.13519493171E+02  0.13519493171E+02  0.00000000000E+00 0. -1.
         21   -1    0    0  502  503 -0.00000000000E+00 -0.00000000000E+00 -0.28897228367E+03  0.28897228367E+03  0.00000000000E+00 0. -1.
         25    2    1    2    0    0  0.00000000000E+00  0.00000000000E+00 -0.27545279050E+03  0.30249177684E+03  0.12500814079E+03 0.  0.
          4    1    3    3  501    0 -0.58139228535E+02  0.14368197425E+02 -0.94593150740E+02  0.11196821718E+03  0.15500000000E+01 0. -1.
         -4    1    3    3    0  501  0.58139228535E+02 -0.14368197425E+02 -0.18085963976E+03  0.19052355966E+03  0.15500000000E+01 0. -1.
<mgrwt>
<rscale>  2 0.12500814E+03</rscale>
<asrwt>0</asrwt>
<pdfrwt beam="1">  1       21 0.20799220E-02 0.12500814E+03</pdfrwt>
<pdfrwt beam="2">  1       21 0.44457276E-01 0.12500814E+03</pdfrwt>
<totfact> 0.55238432E+06</totfact>
</mgrwt>
</event>
<event>
 5    0  0.1378594E+000  0.1250001E+03  0.7546771E-02  0.1235069E+00
         21   -1    0    0  503  502  0.00000000000E+00  0.00000000000E+00  0.20318024700E+03  0.20318024700E+03  0.00000000000E+00 0.  1.
         21   -1    0    0  502  503 -0.00000000000E+00 -0.00000000000E+00 -0.19225575776E+02  0.19225575776E+02  0.00000000000E+00 0.  1.
         25    2    1    2    0    0  0.00000000000E+00  0.00000000000E+00  0.18395467122E+03  0.22240582278E+03  0.12500011576E+03 0.  0.
          4    1    3    3  501    0  0.41928813234E+02 -0.10688860981E+02  0.11781383725E+02  0.44871824464E+02  0.15500000000E+01 0.  1.
         -4    1    3    3    0  501 -0.41928813234E+02  0.10688860981E+02  0.17217328750E+03  0.17753399831E+03  0.15500000000E+01 0.  1.
<mgrwt>
<rscale>  2 0.12500012E+03</rscale>
<asrwt>0</asrwt>
<pdfrwt beam="1">  1       21 0.31258498E-01 0.12500012E+03</pdfrwt>
<pdfrwt beam="2">  1       21 0.29577810E-02 0.12500012E+03</pdfrwt>
<totfact> 0.62577289E+06</totfact>
</mgrwt>
</event>
<event>
 5    0  0.1559608E+000  0.1250212E+03  0.7546771E-02  0.1235036E+00
         21   -1    0    0  503  502  0.00000000000E+00  0.00000000000E+00  0.13049071936E+03  0.13049071936E+03  0.00000000000E+00 0.  1.
         21   -1    0    0  502  503 -0.00000000000E+00 -0.00000000000E+00 -0.29945245680E+02  0.29945245680E+02  0.00000000000E+00 0.  1.
         25    2    1    2    0    0  0.00000000000E+00  0.00000000000E+00  0.10054547368E+03  0.16043596504E+03  0.12502122460E+03 0.  0.
          4    1    3    3  501    0  0.26250941386E+02  0.36168020746E+02  0.10632587616E+03  0.11534657381E+03  0.15500000000E+01 0.  1.
         -4    1    3    3    0  501 -0.26250941386E+02 -0.36168020746E+02 -0.57804024847E+01  0.45089391227E+02  0.15500000000E+01 0.  1.
<mgrwt>
<rscale>  2 0.12502122E+03</rscale>
<asrwt>0</asrwt>
<pdfrwt beam="1">  1       21 0.20075495E-01 0.12502122E+03</pdfrwt>
<pdfrwt beam="2">  1       21 0.46069610E-02 0.12502122E+03</pdfrwt>
<totfact> 0.69428794E+06</totfact>
</mgrwt>
</event>
<event>
 5    0  0.1295800E+000  0.1249986E+03  0.7546771E-02  0.1235072E+00
         21   -1    0    0  503  502  0.00000000000E+00  0.00000000000E+00  0.58731702372E+03  0.58731702372E+03  0.00000000000E+00 0. -1.
         21   -1    0    0  502  503 -0.00000000000E+00 -0.00000000000E+00 -0.66508548972E+01  0.66508548972E+01  0.00000000000E+00 0. -1.
         25    2    1    2    0    0  0.00000000000E+00  0.00000000000E+00  0.58066616882E+03  0.59396787862E+03  0.12499856485E+03 0.  0.
          4    1    3    3  501    0  0.61207102527E+02 -0.12462983610E+02  0.29725579181E+03  0.30375161501E+03  0.15500000000E+01 0.  1.
         -4    1    3    3    0  501 -0.61207102527E+02  0.12462983610E+02  0.28341037702E+03  0.29021626361E+03  0.15500000000E+01 0.  1.
<mgrwt>
<rscale>  2 0.12499856E+03</rscale>
<asrwt>0</asrwt>
<pdfrwt beam="1">  1       21 0.90356424E-01 0.12499856E+03</pdfrwt>
<pdfrwt beam="2">  1       21 0.10232089E-02 0.12499856E+03</pdfrwt>
<totfact> 0.37368198E+06</totfact>
</mgrwt>
</event>
<event>
 5    0  0.1571265E+000  0.1249960E+03  0.7546771E-02  0.1235076E+00
         21   -1    0    0  503  502  0.00000000000E+00  0.00000000000E+00  0.81069550314E+02  0.81069550314E+02  0.00000000000E+00 0. -1.
         21   -1    0    0  502  503 -0.00000000000E+00 -0.00000000000E+00 -0.48180852546E+02  0.48180852546E+02  0.00000000000E+00 0. -1.
         25    2    1    2    0    0  0.00000000000E+00  0.00000000000E+00  0.32888697768E+02  0.12925040286E+03  0.12499600073E+03 0.  0.
          4    1    3    3  501    0 -0.25009606334E+02  0.27433760631E+02 -0.35520537588E+02  0.51402361053E+02  0.15500000000E+01 0.  1.
         -4    1    3    3    0  501  0.25009606334E+02 -0.27433760631E+02  0.68409235356E+02  0.77848041808E+02  0.15500000000E+01 0.  1.
<mgrwt>
<rscale>  2 0.12499600E+03</rscale>
<asrwt>0</asrwt>
<pdfrwt beam="1">  1       21 0.12472238E-01 0.12499600E+03</pdfrwt>
<pdfrwt beam="2">  1       21 0.74124389E-02 0.12499600E+03</pdfrwt>
<totfact> 0.73472775E+06</totfact>
</mgrwt>
</event>
<event>
 5    0  0.1501028E+000  0.1249849E+03  0.7546771E-02  0.1235093E+00
         21   -1    0    0  503  502  0.00000000000E+00  0.00000000000E+00  0.15111072096E+02  0.15111072096E+02  0.00000000000E+00 0.  1.
         21   -1    0    0  502  503 -0.00000000000E+00 -0.00000000000E+00 -0.25843985357E+03  0.25843985357E+03  0.00000000000E+00 0.  1.
         25    2    1    2    0    0  0.00000000000E+00  0.00000000000E+00 -0.24332878147E+03  0.27355092567E+03  0.12498485124E+03 0.  0.
          4    1    3    3  501    0  0.52462408838E+02 -0.22691949794E+02 -0.17684637274E+03  0.18586089147E+03  0.15500000000E+01 0. -1.
         -4    1    3    3    0  501 -0.52462408838E+02  0.22691949794E+02 -0.66482408738E+02  0.87690034201E+02  0.15500000000E+01 0. -1.
<mgrwt>
<rscale>  2 0.12498485E+03</rscale>
<asrwt>0</asrwt>
<pdfrwt beam="1">  1       21 0.23247801E-02 0.12498485E+03</pdfrwt>
<pdfrwt beam="2">  1       21 0.39759982E-01 0.12498485E+03</pdfrwt>
<totfact> 0.57750412E+06</totfact>
</mgrwt>
</event>
<event>
 5    0  0.1530805E+000  0.1250033E+03  0.7546771E-02  0.1235064E+00
         21   -1    0    0  503  502  0.00000000000E+00  0.00000000000E+00  0.31487779231E+02  0.31487779231E+02  0.00000000000E+00 0. -1.
         21   -1    0    0  502  503 -0.00000000000E+00 -0.00000000000E+00 -0.12406257872E+03  0.12406257872E+03  0.00000000000E+00 0. -1.
         25    2    1    2    0    0  0.00000000000E+00  0.00000000000E+00 -0.92574799487E+02  0.15555035795E+03  0.12500328139E+03 0.  0.
          4    1    3    3  501    0  0.16139178951E+02  0.36604629332E+02 -0.10601302901E+03  0.11332050478E+03  0.15500000000E+01 0.  1.
         -4    1    3    3    0  501 -0.16139178951E+02 -0.36604629332E+02  0.13438229518E+02  0.42229853165E+02  0.15500000000E+01 0.  1.
<mgrwt>
<rscale>  2 0.12500328E+03</rscale>
<asrwt>0</asrwt>
<pdfrwt beam="1">  1       21 0.48442737E-02 0.12500328E+03</pdfrwt>
<pdfrwt beam="2">  1       21 0.19086551E-01 0.12500328E+03</pdfrwt>
<totfact> 0.70061473E+06</totfact>
</mgrwt>
</event>
<event>
 5    0  0.1549420E+000  0.1249997E+03  0.7546771E-02  0.1235070E+00
         21   -1    0    0  503  502  0.00000000000E+00  0.00000000000E+00  0.61572598690E+02  0.61572598690E+02  0.00000000000E+00 0.  1.
         21   -1    0    0  502  503 -0.00000000000E+00 -0.00000000000E+00 -0.63441086861E+02  0.63441086861E+02  0.00000000000E+00 0.  1.
         25    2    1    2    0    0  0.00000000000E+00  0.00000000000E+00 -0.18684881711E+01  0.12501368555E+03  0.12499972131E+03 0.  0.
          4    1    3    3  501    0  0.32740649909E+02 -0.30596683583E+02 -0.44479007961E+02  0.63157674529E+02  0.15500000000E+01 0. -1.
         -4    1    3    3    0  501 -0.32740649909E+02  0.30596683583E+02  0.42610519790E+02  0.61856011022E+02  0.15500000000E+01 0. -1.
<mgrwt>
<rscale>  2 0.12499972E+03</rscale>
<asrwt>0</asrwt>
<pdfrwt beam="1">  1       21 0.94727075E-02 0.12499972E+03</pdfrwt>
<pdfrwt beam="2">  1       21 0.97601672E-02 0.12499972E+03</pdfrwt>
<totfact> 0.74042261E+06</totfact>
</mgrwt>
</event>
<event>
 5    0  0.1222151E+000  0.1250002E+03  0.7546771E-02  0.1235069E+00
         21   -1    0    0  503  502  0.00000000000E+00  0.00000000000E+00  0.31424276196E+01  0.31424276196E+01  0.00000000000E+00 0. -1.
         21   -1    0    0  502  503 -0.00000000000E+00 -0.00000000000E+00 -0.12430722810E+04  0.12430722810E+04  0.00000000000E+00 0. -1.
         25    2    1    2    0    0  0.00000000000E+00  0.00000000000E+00 -0.12399298533E+04  0.12462147086E+04  0.12500023470E+03 0.  0.
          4    1    3    3  501    0 -0.40287049814E+02  0.21906399683E+02 -0.10430521503E+04  0.10440608830E+04  0.15500000000E+01 0. -1.
         -4    1    3    3    0  501  0.40287049814E+02 -0.21906399683E+02 -0.19687770307E+03  0.20215382557E+03  0.15500000000E+01 0. -1.
<mgrwt>
<rscale>  2 0.12500023E+03</rscale>
<asrwt>0</asrwt>
<pdfrwt beam="1">  1       21 0.48344997E-03 0.12500023E+03</pdfrwt>
<pdfrwt beam="2">  1       21 0.19124206E+00 0.12500023E+03</pdfrwt>
<totfact> 0.18245937E+06</totfact>
</mgrwt>
</event>
<event>
 5    0  0.1480206E+000  0.1250672E+03  0.7546771E-02  0.1234964E+00
         21   -1    0    0  503  502  0.00000000000E+00  0.00000000000E+00  0.23136975878E+03  0.23136975878E+03  0.00000000000E+00 0. -1.
         21   -1    0    0  502  503 -0.00000000000E+00 -0.00000000000E+00 -0.16901315628E+02  0.16901315628E+02  0.00000000000E+00 0. -1.
         25    2    1    2    0    0  0.00000000000E+00  0.00000000000E+00  0.21446844315E+03  0.24827107441E+03  0.12506723504E+03 0.  0.
          4    1    3    3  501    0 -0.17640764675E+01  0.39360707178E+02  0.20358165077E+03  0.20736506038E+03  0.15500000000E+01 0.  1.
         -4    1    3    3    0  501  0.17640764675E+01 -0.39360707178E+02  0.10886792379E+02  0.40906014027E+02  0.15500000000E+01 0.  1.
<mgrwt>
<rscale>  2 0.12506724E+03</rscale>
<asrwt>0</asrwt>
<pdfrwt beam="1">  1       21 0.35595345E-01 0.12506724E+03</pdfrwt>
<pdfrwt beam="2">  1       21 0.26002026E-02 0.12506724E+03</pdfrwt>
<totfact> 0.59939687E+06</totfact>
</mgrwt>
</event>
<event>
 5    0  0.1495450E+000  0.1250028E+03  0.7546771E-02  0.1235065E+00
         21   -1    0    0  503  502  0.00000000000E+00  0.00000000000E+00  0.11572126700E+03  0.11572126700E+03  0.00000000000E+00 0.  1.
         21   -1    0    0  502  503 -0.00000000000E+00 -0.00000000000E+00 -0.33757201859E+02  0.33757201859E+02  0.00000000000E+00 0.  1.
         25    2    1    2    0    0  0.00000000000E+00  0.00000000000E+00  0.81964065142E+02  0.14947846886E+03  0.12500281868E+03 0.  0.
          4    1    3    3  501    0  0.44125847730E+00 -0.43937667239E+02 -0.12137779806E+02  0.45611857121E+02  0.15500000000E+01 0. -1.
         -4    1    3    3    0  501 -0.44125847730E+00  0.43937667239E+02  0.94101844948E+02  0.10386661174E+03  0.15500000000E+01 0. -1.
<mgrwt>
<rscale>  2 0.12500282E+03</rscale>
<asrwt>0</asrwt>
<pdfrwt beam="1">  1       21 0.17803272E-01 0.12500282E+03</pdfrwt>
<pdfrwt beam="2">  1       21 0.51934157E-02 0.12500282E+03</pdfrwt>
<totfact> 0.70819694E+06</totfact>
</mgrwt>
</event>
<event>
 5    0  0.1257857E+000  0.1250057E+03  0.7546771E-02  0.1235060E+00
         21   -1    0    0  503  502  0.00000000000E+00  0.00000000000E+00  0.55091841507E+01  0.55091841507E+01  0.00000000000E+00 0. -1.
         21   -1    0    0  502  503 -0.00000000000E+00 -0.00000000000E+00 -0.70910755498E+03  0.70910755498E+03  0.00000000000E+00 0. -1.
         25    2    1    2    0    0  0.00000000000E+00  0.00000000000E+00 -0.70359837083E+03  0.71461673913E+03  0.12500566552E+03 0.  0.
          4    1    3    3  501    0 -0.16483142672E+02 -0.59785486020E+02 -0.30818606222E+03  0.31436769837E+03  0.15500000000E+01 0.  1.
         -4    1    3    3    0  501  0.16483142672E+02  0.59785486020E+02 -0.39541230861E+03  0.40024904076E+03  0.15500000000E+01 0.  1.
<mgrwt>
<rscale>  2 0.12500567E+03</rscale>
<asrwt>0</asrwt>
<pdfrwt beam="1">  1       21 0.84756774E-03 0.12500567E+03</pdfrwt>
<pdfrwt beam="2">  1       21 0.10909335E+00 0.12500567E+03</pdfrwt>
<totfact> 0.32349668E+06</totfact>
</mgrwt>
</event>
<event>
 5    0  0.1391242E+000  0.1250004E+03  0.7546771E-02  0.1235069E+00
         21   -1    0    0  503  502  0.00000000000E+00  0.00000000000E+00  0.13462315054E+03  0.13462315054E+03  0.00000000000E+00 0. -1.
         21   -1    0    0  502  503 -0.00000000000E+00 -0.00000000000E+00 -0.29016359408E+02  0.29016359408E+02  0.00000000000E+00 0. -1.
         25    2    1    2    0    0  0.00000000000E+00  0.00000000000E+00  0.10560679113E+03  0.16363950995E+03  0.12500037953E+03 0.  0.
          4    1    3    3  501    0  0.29679428459E+02 -0.45413405293E+01 -0.18928051739E+02  0.35526974119E+02  0.15500000000E+01 0. -1.
         -4    1    3    3    0  501 -0.29679428459E+02  0.45413405293E+01  0.12453484287E+03  0.12811253583E+03  0.15500000000E+01 0. -1.
<mgrwt>
<rscale>  2 0.12500038E+03</rscale>
<asrwt>0</asrwt>
<pdfrwt beam="1">  1       21 0.20711254E-01 0.12500038E+03</pdfrwt>
<pdfrwt beam="2">  1       21 0.44640554E-02 0.12500038E+03</pdfrwt>
<totfact> 0.69076833E+06</totfact>
</mgrwt>
</event>
<event>
 5    0  0.1222151E+000  0.1250375E+03  0.7546771E-02  0.1235011E+00
         21   -1    0    0  503  502  0.00000000000E+00  0.00000000000E+00  0.71243583272E+03  0.71243583272E+03  0.00000000000E+00 0. -1.
         21   -1    0    0  502  503 -0.00000000000E+00 -0.00000000000E+00 -0.54862429548E+01  0.54862429548E+01  0.00000000000E+00 0. -1.
         25    2    1    2    0    0  0.00000000000E+00  0.00000000000E+00  0.70694958977E+03  0.71792207568E+03  0.12503753145E+03 0.  0.
          4    1    3    3  501    0  0.29843655465E+02 -0.51470757603E+02  0.46336572331E+03  0.46717242930E+03  0.15500000000E+01 0. -1.
         -4    1    3    3    0  501 -0.29843655465E+02  0.51470757603E+02  0.24358386645E+03  0.25074964637E+03  0.15500000000E+01 0. -1.
<mgrwt>
<rscale>  2 0.12503753E+03</rscale>
<asrwt>0</asrwt>
<pdfrwt beam="1">  1       21 0.10960544E+00 0.12503753E+03</pdfrwt>
<pdfrwt beam="2">  1       21 0.84403794E-03 0.12503753E+03</pdfrwt>
<totfact> 0.32200592E+06</totfact>
</mgrwt>
</event>
<event>
 5    0  0.1311367E+000  0.1249982E+03  0.7546771E-02  0.1235072E+00
         21   -1    0    0  503  502  0.00000000000E+00  0.00000000000E+00  0.59478624155E+03  0.59478624155E+03  0.00000000000E+00 0. -1.
         21   -1    0    0  502  503 -0.00000000000E+00 -0.00000000000E+00 -0.65672911855E+01  0.65672911855E+01  0.00000000000E+00 0. -1.
         25    2    1    2    0    0  0.00000000000E+00  0.00000000000E+00  0.58821895036E+03  0.60135353273E+03  0.12499815105E+03 0.  0.
          4    1    3    3  501    0  0.50042007261E+02  0.34546721994E+02  0.22505112115E+03  0.23312676406E+03  0.15500000000E+01 0. -1.
         -4    1    3    3    0  501 -0.50042007261E+02 -0.34546721994E+02  0.36316782921E+03  0.36822676867E+03  0.15500000000E+01 0. -1.
<mgrwt>
<rscale>  2 0.12499815E+03</rscale>
<asrwt>0</asrwt>
<pdfrwt beam="1">  1       21 0.91505533E-01 0.12499815E+03</pdfrwt>
<pdfrwt beam="2">  1       21 0.10103530E-02 0.12499815E+03</pdfrwt>
<totfact> 0.37033204E+06</totfact>
</mgrwt>
</event>
<event>
 5    0  0.1578731E+000  0.1249951E+03  0.7546771E-02  0.1235077E+00
         21   -1    0    0  503  502  0.00000000000E+00  0.00000000000E+00  0.50949559025E+02  0.50949559025E+02  0.00000000000E+00 0.  1.
         21   -1    0    0  502  503 -0.00000000000E+00 -0.00000000000E+00 -0.76662995713E+02  0.76662995713E+02  0.00000000000E+00 0.  1.
         25    2    1    2    0    0  0.00000000000E+00  0.00000000000E+00 -0.25713436688E+02  0.12761255474E+03  0.12499513311E+03 0.  0.
          4    1    3    3  501    0 -0.14630550853E+02  0.57846037559E+02 -0.31773785343E+02  0.67617993275E+02  0.15500000000E+01 0.  1.
         -4    1    3    3    0  501  0.14630550853E+02 -0.57846037559E+02  0.60603486546E+01  0.59994561464E+02  0.15500000000E+01 0.  1.
<mgrwt>
<rscale>  2 0.12499513E+03</rscale>
<asrwt>0</asrwt>
<pdfrwt beam="1">  1       21 0.78383937E-02 0.12499513E+03</pdfrwt>
<pdfrwt beam="2">  1       21 0.11794307E-01 0.12499513E+03</pdfrwt>
<totfact> 0.73695122E+06</totfact>
</mgrwt>
</event>
<event>
 4    0  0.1372418E+000  0.1251024E+03  0.7546771E-02  0.1234909E+00
         21   -1    0    0  503  502  0.00000000000E+00  0.00000000000E+00  0.18031325788E+02  0.18031325788E+02  0.00000000000E+00 0. -1.
         21   -1    0    0  502  503 -0.00000000000E+00 -0.00000000000E+00 -0.21699210203E+03  0.21699210203E+03  0.00000000000E+00 0. -1.
          4    1    1    2  501    0  0.34243753574E+02  0.54288135274E+01 -0.17158365031E+01  0.34748428311E+02  0.15500000000E+01 0. -1.
         -4    1    1    2    0  501 -0.34243753574E+02 -0.54288135274E+01 -0.19724493974E+03  0.20027499950E+03  0.15500000000E+01 0. -1.
<mgrwt>
<rscale>  2 0.12510244E+03</rscale>
<asrwt>0</asrwt>
<pdfrwt beam="1">  1       21 0.27740503E-02 0.12510244E+03</pdfrwt>
<pdfrwt beam="2">  1       21 0.33383399E-01 0.12510244E+03</pdfrwt>
<totfact> 0.61159335E+06</totfact>
</mgrwt>
</event>
<event>
 5    0  0.1397635E+000  0.1250049E+03  0.7546771E-02  0.1235062E+00
         21   -1    0    0  503  502  0.00000000000E+00  0.00000000000E+00  0.39742202910E+03  0.39742202910E+03  0.00000000000E+00 0.  1.
         21   -1    0    0  502  503 -0.00000000000E+00 -0.00000000000E+00 -0.98297445167E+01  0.98297445167E+01  0.00000000000E+00 0.  1.
         25    2    1    2    0    0  0.00000000000E+00  0.00000000000E+00  0.38759228458E+03  0.40725177362E+03  0.12500491209E+03 0.  0.
          4    1    3    3  501    0  0.30205195598E+01  0.59468752746E+02  0.25548113649E+03  0.26233312733E+03  0.15500000000E+01 0. -1.
         -4    1    3    3    0  501 -0.30205195598E+01 -0.59468752746E+02  0.13211114810E+03  0.14491864629E+03  0.15500000000E+01 0. -1.
<mgrwt>
<rscale>  2 0.12500491E+03</rscale>
<asrwt>0</asrwt>
<pdfrwt beam="1">  1       21 0.61141838E-01 0.12500491E+03</pdfrwt>
<pdfrwt beam="2">  1       21 0.15122687E-02 0.12500491E+03</pdfrwt>
<totfact> 0.47558207E+06</totfact>
</mgrwt>
</event>
<event>
 5    0  0.1345150E+000  0.1249960E+03  0.7546771E-02  0.1235076E+00
         21   -1    0    0  503  502  0.00000000000E+00  0.00000000000E+00  0.72220757283E+01  0.72220757283E+01  0.00000000000E+00 0. -1.
         21   -1    0    0  502  503 -0.00000000000E+00 -0.00000000000E+00 -0.54084181405E+03  0.54084181405E+03  0.00000000000E+00 0. -1.
         25    2    1    2    0    0  0.00000000000E+00  0.00000000000E+00 -0.53361973832E+03  0.54806388978E+03  0.12499600855E+03 0.  0.
          4    1    3    3  501    0  0.50126659364E+02 -0.32288112230E+02 -0.34865074995E+03  0.35371592007E+03  0.15500000000E+01 0. -1.
         -4    1    3    3    0  501 -0.50126659364E+02  0.32288112230E+02 -0.18496898838E+03  0.19434796971E+03  0.15500000000E+01 0. -1.
<mgrwt>
<rscale>  2 0.12499601E+03</rscale>
<asrwt>0</asrwt>
<pdfrwt beam="1">  1       21 0.11110885E-02 0.12499601E+03</pdfrwt>
<pdfrwt beam="2">  1       21 0.83206438E-01 0.12499601E+03</pdfrwt>
<totfact> 0.39555834E+06</totfact>
</mgrwt>
</event>
<event>
 5    0  0.1386133E+000  0.1249972E+03  0.7546771E-02  0.1235074E+00
         21   -1    0    0  503  502  0.00000000000E+00  0.00000000000E+00  0.16095027758E+02  0.16095027758E+02  0.00000000000E+00 0. -1.
         21   -1    0    0  502  503 -0.00000000000E+00 -0.00000000000E+00 -0.24268832878E+03  0.24268832878E+03  0.00000000000E+00 0. -1.
         25    2    1    2    0    0  0.00000000000E+00  0.00000000000E+00 -0.22659330103E+03  0.25878335654E+03  0.12499720618E+03 0.  0.
          4    1    3    3  501    0 -0.19132254163E+02 -0.27350159557E+02 -0.39496469214E+01  0.33646345834E+02  0.15500000000E+01 0. -1.
         -4    1    3    3    0  501  0.19132254163E+02  0.27350159557E+02 -0.22264365411E+03  0.22513701071E+03  0.15500000000E+01 0. -1.
<mgrwt>
<rscale>  2 0.12499721E+03</rscale>
<asrwt>0</asrwt>
<pdfrwt beam="1">  1       21 0.24761581E-02 0.12499721E+03</pdfrwt>
<pdfrwt beam="2">  1       21 0.37336666E-01 0.12499721E+03</pdfrwt>
<totfact> 0.59065121E+06</totfact>
</mgrwt>
</event>
<event>
 5    0  0.1369353E+000  0.1250006E+03  0.7546771E-02  0.1235068E+00
         21   -1    0    0  503  502  0.00000000000E+00  0.00000000000E+00  0.12881072416E+02  0.12881072416E+02  0.00000000000E+00 0.  1.
         21   -1    0    0  502  503 -0.00000000000E+00 -0.00000000000E+00 -0.30325812516E+03  0.30325812516E+03  0.00000000000E+00 0.  1.
         25    2    1    2    0    0  0.00000000000E+00  0.00000000000E+00 -0.29037705275E+03  0.31613919758E+03  0.12500063794E+03 0.  0.
          4    1    3    3  501    0 -0.30050956473E+01 -0.42921692186E+02 -0.30606445666E+02  0.52824797930E+02  0.15500000000E+01 0. -1.
         -4    1    3    3    0  501  0.30050956473E+01  0.42921692186E+02 -0.25977060708E+03  0.26331439965E+03  0.15500000000E+01 0. -1.
<mgrwt>
<rscale>  2 0.12500064E+03</rscale>
<asrwt>0</asrwt>
<pdfrwt beam="1">  1       21 0.19817036E-02 0.12500064E+03</pdfrwt>
<pdfrwt beam="2">  1       21 0.46655093E-01 0.12500064E+03</pdfrwt>
<totfact> 0.54139851E+06</totfact>
</mgrwt>
</event>
<event>
 5    0  0.1488946E+000  0.1250078E+03  0.7546771E-02  0.1235057E+00
         21   -1    0    0  503  502  0.00000000000E+00  0.00000000000E+00  0.14287378752E+03  0.14287378752E+03  0.00000000000E+00 0.  1.
         21   -1    0    0  502  503 -0.00000000000E+00 -0.00000000000E+00 -0.27343970927E+02  0.27343970927E+02  0.00000000000E+00 0.  1.
         25    2    1    2    0    0  0.00000000000E+00  0.00000000000E+00  0.11552981659E+03  0.17021775845E+03  0.12500778683E+03 0.  0.
          4    1    3    3  501    0  0.53401468880E+02  0.20105221406E+02  0.23092147110E+02  0.61575860241E+02  0.15500000000E+01 0.  1.
         -4    1    3    3    0  501 -0.53401468880E+02 -0.20105221406E+02  0.92437669482E+02  0.10864189821E+03  0.15500000000E+01 0.  1.
<mgrwt>
<rscale>  2 0.12500779E+03</rscale>
<asrwt>0</asrwt>
<pdfrwt beam="1">  1       21 0.21980582E-01 0.12500779E+03</pdfrwt>
<pdfrwt beam="2">  1       21 0.42067648E-02 0.12500779E+03</pdfrwt>
<totfact> 0.68278333E+06</totfact>
</mgrwt>
</event>
<event>
 5    0  0.1222151E+000  0.1250000E+03  0.7546771E-02  0.1235069E+00
         21   -1    0    0  503  502  0.00000000000E+00  0.00000000000E+00  0.69675765483E+03  0.69675765483E+03  0.00000000000E+00 0. -1.
         21   -1    0    0  502  503 -0.00000000000E+00 -0.00000000000E+00 -0.56063233161E+01  0.56063233161E+01  0.00000000000E+00 0. -1.
         25    2    1    2    0    0  0.00000000000E+00  0.00000000000E+00  0.69115133151E+03  0.70236397814E+03  0.12499997897E+03 0.  0.
          4    1    3    3  501    0 -0.14763326794E+02 -0.17750672115E+02  0.67180201860E+03  0.67220041422E+03  0.15500000000E+01 0. -1.
         -4    1    3    3    0  501  0.14763326794E+02  0.17750672115E+02  0.19349312909E+02  0.30163563924E+02  0.15500000000E+01 0. -1.
<mgrwt>
<rscale>  2 0.12499998E+03</rscale>
<asrwt>0</asrwt>
<pdfrwt beam="1">  1       21 0.10719342E+00 0.12499998E+03</pdfrwt>
<pdfrwt beam="2">  1       21 0.86251183E-03 0.12499998E+03</pdfrwt>
<totfact> 0.32819233E+06</totfact>
</mgrwt>
</event>
<event>
 5    0  0.1520336E+000  0.1249970E+03  0.7546771E-02  0.1235074E+00
         21   -1    0    0  503  502  0.00000000000E+00  0.00000000000E+00  0.10418378251E+02  0.10418378251E+02  0.00000000000E+00 0. -1.
         21   -1    0    0  502  503 -0.00000000000E+00 -0.00000000000E+00 -0.37492069262E+03  0.37492069262E+03  0.00000000000E+00 0. -1.
         25    2    1    2    0    0  0.00000000000E+00  0.00000000000E+00 -0.36450231437E+03  0.38533907087E+03  0.12499704940E+03 0.  0.
          4    1    3    3  501    0 -0.60920669464E+02  0.11779363828E+02 -0.15968531391E+03  0.17132391356E+03  0.15500000000E+01 0.  1.
         -4    1    3    3    0  501  0.60920669464E+02 -0.11779363828E+02 -0.20481700046E+03  0.21401515731E+03  0.15500000000E+01 0.  1.
<mgrwt>
<rscale>  2 0.12499705E+03</rscale>
<asrwt>0</asrwt>
<pdfrwt beam="1">  1       21 0.16028274E-02 0.12499705E+03</pdfrwt>
<pdfrwt beam="2">  1       21 0.57680107E-01 0.12499705E+03</pdfrwt>
<totfact> 0.49032860E+06</totfact>
</mgrwt>
</event>
<event>
 5    0  0.1395929E+000  0.1250002E+03  0.7546771E-02  0.1235069E+00
         21   -1    0    0  503  502  0.00000000000E+00  0.00000000000E+00  0.12566868468E+02  0.12566868468E+02  0.00000000000E+00 0.  1.
         21   -1    0    0  502  503 -0.00000000000E+00 -0.00000000000E+00 -0.31083811098E+03  0.31083811098E+03  0.00000000000E+00 0.  1.
         25    2    1    2    0    0  0.00000000000E+00  0.00000000000E+00 -0.29827124252E+03  0.32340497945E+03  0.12500018649E+03 0.  0.
          4    1    3    3  501    0 -0.37890070694E+02 -0.49115778994E+02 -0.16846938190E+03  0.17953370809E+03  0.15500000000E+01 0. -1.
         -4    1    3    3    0  501  0.37890070694E+02  0.49115778994E+02 -0.12980186062E+03  0.14387127136E+03  0.15500000000E+01 0. -1.
<mgrwt>
<rscale>  2 0.12500019E+03</rscale>
<asrwt>0</asrwt>
<pdfrwt beam="1">  1       21 0.19333645E-02 0.12500019E+03</pdfrwt>
<pdfrwt beam="2">  1       21 0.47821244E-01 0.12500019E+03</pdfrwt>
<totfact> 0.53564365E+06</totfact>
</mgrwt>
</event>
<event>
 5    0  0.1408478E+000  0.1249955E+03  0.7546771E-02  0.1235076E+00
         21   -1    0    0  503  502  0.00000000000E+00  0.00000000000E+00  0.38968112190E+03  0.38968112190E+03  0.00000000000E+00 0. -1.
         21   -1    0    0  502  503 -0.00000000000E+00 -0.00000000000E+00 -0.10023494037E+02  0.10023494037E+02  0.00000000000E+00 0. -1.
         25    2    1    2    0    0  0.00000000000E+00  0.00000000000E+00  0.37965762786E+03  0.39970461593E+03  0.12499546235E+03 0.  0.
          4    1    3    3  501    0  0.76861574673E+01  0.61916441362E+02  0.20035771583E+03  0.20985313798E+03  0.15500000000E+01 0. -1.
         -4    1    3    3    0  501 -0.76861574673E+01 -0.61916441362E+02  0.17929991203E+03  0.18985147796E+03  0.15500000000E+01 0. -1.
<mgrwt>
<rscale>  2 0.12499546E+03</rscale>
<asrwt>0</asrwt>
<pdfrwt beam="1">  1       21 0.59950930E-01 0.12499546E+03</pdfrwt>
<pdfrwt beam="2">  1       21 0.15420763E-02 0.12499546E+03</pdfrwt>
<totfact> 0.48066406E+06</totfact>
</mgrwt>
</event>
<event>
 5    0  0.1549439E+000  0.1249957E+03  0.7546771E-02  0.1235076E+00
         21   -1    0    0  503  502  0.00000000000E+00  0.00000000000E+00  0.11479089431E+03  0.11479089431E+03  0.00000000000E+00 0.  1.
         21   -1    0    0  502  503 -0.00000000000E+00 -0.00000000000E+00 -0.34026950758E+02  0.34026950758E+02  0.00000000000E+00 0.  1.
         25    2    1    2    0    0  0.00000000000E+00  0.00000000000E+00  0.80763943548E+02  0.14881784507E+03  0.12499574566E+03 0.  0.
          4    1    3    3  501    0 -0.52832626066E+02  0.33319892439E+02  0.42099054973E+02  0.75340789343E+02  0.15500000000E+01 0.  1.
         -4    1    3    3    0  501  0.52832626066E+02 -0.33319892439E+02  0.38664888575E+02  0.73477055723E+02  0.15500000000E+01 0.  1.
<mgrwt>
<rscale>  2 0.12499575E+03</rscale>
<asrwt>0</asrwt>
<pdfrwt beam="1">  1       21 0.17660137E-01 0.12499575E+03</pdfrwt>
<pdfrwt beam="2">  1       21 0.52349156E-02 0.12499575E+03</pdfrwt>
<totfact> 0.70915699E+06</totfact>
</mgrwt>
</event>
<event>
 5    0  0.1570760E+000  0.1250188E+03  0.7546771E-02  0.1235040E+00
         21   -1    0    0  503  502  0.00000000000E+00  0.00000000000E+00  0.19141228083E+03  0.19141228083E+03  0.00000000000E+00 0. -1.
         21   -1    0    0  502  503 -0.00000000000E+00 -0.00000000000E+00 -0.20413663782E+02  0.20413663782E+02  0.00000000000E+00 0. -1.
         25    2    1    2    0    0  0.00000000000E+00  0.00000000000E+00  0.17099861705E+03  0.21182594461E+03  0.12501881370E+03 0.  0.
          4    1    3    3  501    0 -0.33170333531E+02  0.31363493943E+02  0.15780437466E+03  0.16428196170E+03  0.15500000000E+01 0.  1.
         -4    1    3    3    0  501  0.33170333531E+02 -0.31363493943E+02  0.13194242389E+02  0.47543982911E+02  0.15500000000E+01 0.  1.
<mgrwt>
<rscale>  2 0.12501881E+03</rscale>
<asrwt>0</asrwt>
<pdfrwt beam="1">  1       21 0.29448042E-01 0.12501881E+03</pdfrwt>
<pdfrwt beam="2">  1       21 0.31405638E-02 0.12501881E+03</pdfrwt>
<totfact> 0.63637652E+06</totfact>
</mgrwt>
</event>
<event>
 5    0  0.1553618E+000  0.1250024E+03  0.7546771E-02  0.1235066E+00
         21   -1    0    0  503  502  0.00000000000E+00  0.00000000000E+00  0.27538238586E+02  0.27538238586E+02  0.00000000000E+00 0.  1.
         21   -1    0    0  502  503 -0.00000000000E+00 -0.00000000000E+00 -0.14185359069E+03  0.14185359069E+03  0.00000000000E+00 0.  1.
         25    2    1    2    0    0  0.00000000000E+00  0.00000000000E+00 -0.11431535210E+03  0.16939182927E+03  0.12500236837E+03 0.  0.
          4    1    3    3  501    0 -0.36291068184E+02 -0.48183331959E+02 -0.35084768145E+02  0.69799846450E+02  0.15500000000E+01 0. -1.
         -4    1    3    3    0  501  0.36291068184E+02  0.48183331959E+02 -0.79230583957E+02  0.99591982824E+02  0.15500000000E+01 0. -1.
<mgrwt>
<rscale>  2 0.12500237E+03</rscale>
<asrwt>0</asrwt>
<pdfrwt beam="1">  1       21 0.42366521E-02 0.12500237E+03</pdfrwt>
<pdfrwt beam="2">  1       21 0.21823629E-01 0.12500237E+03</pdfrwt>
<totfact> 0.68385621E+06</totfact>
</mgrwt>
</event>
<event>
 5    0  0.1626511E+000  0.1249985E+03  0.7546771E-02  0.1235072E+00
         21   -1    0    0  503  502  0.00000000000E+00  0.00000000000E+00  0.36281820885E+02  0.36281820885E+02  0.00000000000E+00 0. -1.
         21   -1    0    0  502  503 -0.00000000000E+00 -0.00000000000E+00 -0.10766146321E+03  0.10766146321E+03  0.00000000000E+00 0. -1.
         25    2    1    2    0    0  0.00000000000E+00  0.00000000000E+00 -0.71379642324E+02  0.14394328409E+03  0.12499846278E+03 0.  0.
          4    1    3    3  501    0 -0.61633137108E+02  0.10052792704E+02 -0.38007061082E+02  0.73120731828E+02  0.15500000000E+01 0. -1.
         -4    1    3    3    0  501  0.61633137108E+02 -0.10052792704E+02 -0.33372581242E+02  0.70822552267E+02  0.15500000000E+01 0. -1.
<mgrwt>
<rscale>  2 0.12499846E+03</rscale>
<asrwt>0</asrwt>
<pdfrwt beam="1">  1       21 0.55818186E-02 0.12499846E+03</pdfrwt>
<pdfrwt beam="2">  1       21 0.16563302E-01 0.12499846E+03</pdfrwt>
<totfact> 0.71531408E+06</totfact>
</mgrwt>
</event>
<event>
 5    0  0.1579729E+000  0.1249994E+03  0.7546771E-02  0.1235070E+00
         21   -1    0    0  503  502  0.00000000000E+00  0.00000000000E+00  0.43798029650E+02  0.43798029650E+02  0.00000000000E+00 0. -1.
         21   -1    0    0  502  503 -0.00000000000E+00 -0.00000000000E+00 -0.89187007806E+02  0.89187007806E+02  0.00000000000E+00 0. -1.
         25    2    1    2    0    0  0.00000000000E+00  0.00000000000E+00 -0.45388978156E+02  0.13298503746E+03  0.12499944339E+03 0.  0.
          4    1    3    3  501    0  0.36548845679E+02 -0.15830095039E+02 -0.73909285824E+02  0.83972585172E+02  0.15500000000E+01 0. -1.
         -4    1    3    3    0  501 -0.36548845679E+02  0.15830095039E+02  0.28520307668E+02  0.49012452284E+02  0.15500000000E+01 0. -1.
<mgrwt>
<rscale>  2 0.12499944E+03</rscale>
<asrwt>0</asrwt>
<pdfrwt beam="1">  1       21 0.67381585E-02 0.12499944E+03</pdfrwt>
<pdfrwt beam="2">  1       21 0.13721078E-01 0.12499944E+03</pdfrwt>
<totfact> 0.72965432E+06</totfact>
</mgrwt>
</event>
<event>
 5    0  0.1558433E+000  0.1249951E+03  0.7546771E-02  0.1235077E+00
         21   -1    0    0  503  502  0.00000000000E+00  0.00000000000E+00  0.19690677469E+03  0.19690677469E+03  0.00000000000E+00 0.  1.
         21   -1    0    0  502  503 -0.00000000000E+00 -0.00000000000E+00 -0.19836499451E+02  0.19836499451E+02  0.00000000000E+00 0.  1.
         25    2    1    2    0    0  0.00000000000E+00  0.00000000000E+00  0.17707027524E+03  0.21674327414E+03  0.12499505795E+03 0.  0.
          4    1    3    3  501    0  0.39505506993E+02  0.47871255291E+02  0.76127966777E+02  0.98235492524E+02  0.15500000000E+01 0. -1.
         -4    1    3    3    0  501 -0.39505506993E+02 -0.47871255291E+02  0.10094230846E+03  0.11850778162E+03  0.15500000000E+01 0. -1.
<mgrwt>
<rscale>  2 0.12499506E+03</rscale>
<asrwt>0</asrwt>
<pdfrwt beam="1">  1       21 0.30293349E-01 0.12499506E+03</pdfrwt>
<pdfrwt beam="2">  1       21 0.30517693E-02 0.12499506E+03</pdfrwt>
<totfact> 0.63164867E+06</totfact>
</mgrwt>
</event>
<event>
 5    0  0.1524131E+000  0.1249909E+03  0.7546771E-02  0.1235083E+00
         21   -1    0    0  503  502  0.00000000000E+00  0.00000000000E+00  0.98402685516E+02  0.98402685516E+02  0.00000000000E+00 0. -1.
         21   -1    0    0  502  503 -0.00000000000E+00 -0.00000000000E+00 -0.39690817242E+02  0.39690817242E+02  0.00000000000E+00 0. -1.
         25    2    1    2    0    0  0.00000000000E+00  0.00000000000E+00  0.58711868274E+02  0.13809350276E+03  0.12499092778E+03 0.  0.
          4    1    3    3  501    0 -0.51460425812E+02 -0.26658825617E+02  0.35773750718E+01  0.58086732740E+02  0.15500000000E+01 0.  1.
         -4    1    3    3    0  501  0.51460425812E+02  0.26658825617E+02  0.55134493203E+02  0.80006770018E+02  0.15500000000E+01 0.  1.
<mgrwt>
<rscale>  2 0.12499093E+03</rscale>
<asrwt>0</asrwt>
<pdfrwt beam="1">  1       21 0.15138875E-01 0.12499093E+03</pdfrwt>
<pdfrwt beam="2">  1       21 0.61062796E-02 0.12499093E+03</pdfrwt>
<totfact> 0.72305898E+06</totfact>
</mgrwt>
</event>
<event>
 5    0  0.1398234E+000  0.1249988E+03  0.7546771E-02  0.1235071E+00
         21   -1    0    0  503  502  0.00000000000E+00  0.00000000000E+00  0.24682570884E+02  0.24682570884E+02  0.00000000000E+00 0.  1.
         21   -1    0    0  502  503 -0.00000000000E+00 -0.00000000000E+00 -0.15825639533E+03  0.15825639533E+03  0.00000000000E+00 0.  1.
         25    2    1    2    0    0  0.00000000000E+00  0.00000000000E+00 -0.13357382444E+03  0.18293896621E+03  0.12499879512E+03 0.  0.
          4    1    3    3  501    0  0.17572796560E+02 -0.19985599641E+02  0.15944959636E+02  0.31062382551E+02  0.15500000000E+01 0. -1.
         -4    1    3    3    0  501 -0.17572796560E+02  0.19985599641E+02 -0.14951878408E+03  0.15187658366E+03  0.15500000000E+01 0. -1.
<mgrwt>
<rscale>  2 0.12499880E+03</rscale>
<asrwt>0</asrwt>
<pdfrwt beam="1">  1       21 0.37973186E-02 0.12499880E+03</pdfrwt>
<pdfrwt beam="2">  1       21 0.24347138E-01 0.12499880E+03</pdfrwt>
<totfact> 0.66818018E+06</totfact>
</mgrwt>
</event>
<event>
 5    0  0.1477034E+000  0.1249938E+03  0.7546771E-02  0.1235079E+00
         21   -1    0    0  503  502  0.00000000000E+00  0.00000000000E+00  0.12057602787E+03  0.12057602787E+03  0.00000000000E+00 0. -1.
         21   -1    0    0  502  503 -0.00000000000E+00 -0.00000000000E+00 -0.32393374911E+02  0.32393374911E+02  0.00000000000E+00 0. -1.
         25    2    1    2    0    0  0.00000000000E+00  0.00000000000E+00  0.88182652960E+02  0.15296940278E+03  0.12499383147E+03 0.  0.
          4    1    3    3  501    0 -0.31324123809E+02 -0.36767937226E+02  0.92588717196E+02  0.10444211312E+03  0.15500000000E+01 0. -1.
         -4    1    3    3    0  501  0.31324123809E+02  0.36767937226E+02 -0.44060642359E+01  0.48527289666E+02  0.15500000000E+01 0. -1.
<mgrwt>
<rscale>  2 0.12499383E+03</rscale>
<asrwt>0</asrwt>
<pdfrwt beam="1">  1       21 0.18550158E-01 0.12499383E+03</pdfrwt>
<pdfrwt beam="2">  1       21 0.49835962E-02 0.12499383E+03</pdfrwt>
<totfact> 0.70399203E+06</totfact>
</mgrwt>
</event>
<event>
 5    0  0.1222151E+000  0.1249957E+03  0.7546771E-02  0.1235076E+00
         21   -1    0    0  503  502  0.00000000000E+00  0.00000000000E+00  0.14543623013E+04  0.14543623013E+04  0.00000000000E+00 0.  1.
         21   -1    0    0  502  503 -0.00000000000E+00 -0.00000000000E+00 -0.26857001918E+01  0.26857001918E+01  0.00000000000E+00 0.  1.
         25    2    1    2    0    0  0.00000000000E+00  0.00000000000E+00  0.14516766011E+04  0.14570480015E+04  0.12499569771E+03 0.  0.
          4    1    3    3  501    0 -0.50834447840E+01 -0.49926884139E+02  0.29201737962E+03  0.29630235853E+03  0.15500000000E+01 0. -1.
         -4    1    3    3    0  501  0.50834447840E+01  0.49926884139E+02  0.11596592215E+04  0.11607456430E+04  0.15500000000E+01 0. -1.
<mgrwt>
<rscale>  2 0.12499570E+03</rscale>
<asrwt>0</asrwt>
<pdfrwt beam="1">  1       21 0.22374742E+00 0.12499570E+03</pdfrwt>
<pdfrwt beam="2">  1       21 0.41318581E-03 0.12499570E+03</pdfrwt>
<totfact> 0.14643423E+06</totfact>
</mgrwt>
</event>
<event>
 5    0  0.1222151E+000  0.1250026E+03  0.7546771E-02  0.1235065E+00
         21   -1    0    0  503  502  0.00000000000E+00  0.00000000000E+00  0.64632498139E+01  0.64632498139E+01  0.00000000000E+00 0.  1.
         21   -1    0    0  502  503 -0.00000000000E+00 -0.00000000000E+00 -0.60440412494E+03  0.60440412494E+03  0.00000000000E+00 0.  1.
         25    2    1    2    0    0  0.00000000000E+00  0.00000000000E+00 -0.59794087512E+03  0.61086737475E+03  0.12500263754E+03 0.  0.
          4    1    3    3  501    0 -0.62813232090E+01  0.20657405168E+02 -0.58550029636E+03  0.58590031827E+03  0.15500000000E+01 0. -1.
         -4    1    3    3    0  501  0.62813232090E+01 -0.20657405168E+02 -0.12440578768E+02  0.24967056487E+02  0.15500000000E+01 0. -1.
<mgrwt>
<rscale>  2 0.12500264E+03</rscale>
<asrwt>0</asrwt>
<pdfrwt beam="1">  1       21 0.99434659E-03 0.12500264E+03</pdfrwt>
<pdfrwt beam="2">  1       21 0.92985206E-01 0.12500264E+03</pdfrwt>
<totfact> 0.36603349E+06</totfact>
</mgrwt>
</event>
<event>
 5    0  0.1493774E+000  0.1250037E+03  0.7546771E-02  0.1235063E+00
         21   -1    0    0  503  502  0.00000000000E+00  0.00000000000E+00  0.82470559298E+01  0.82470559298E+01  0.00000000000E+00 0. -1.
         21   -1    0    0  502  503 -0.00000000000E+00 -0.00000000000E+00 -0.47368207949E+03  0.47368207949E+03  0.00000000000E+00 0. -1.
         25    2    1    2    0    0  0.00000000000E+00  0.00000000000E+00 -0.46543502356E+03  0.48192913542E+03  0.12500372158E+03 0.  0.
          4    1    3    3  501    0 -0.57767759301E+02 -0.52849747700E+00 -0.32449407273E+03  0.32960005925E+03  0.15500000000E+01 0. -1.
         -4    1    3    3    0  501  0.57767759301E+02  0.52849747700E+00 -0.14094095083E+03  0.15232907617E+03  0.15500000000E+01 0. -1.
<mgrwt>
<rscale>  2 0.12500372E+03</rscale>
<asrwt>0</asrwt>
<pdfrwt beam="1">  1       21 0.12687776E-02 0.12500372E+03</pdfrwt>
<pdfrwt beam="2">  1       21 0.72874180E-01 0.12500372E+03</pdfrwt>
<totfact> 0.43037365E+06</totfact>
</mgrwt>
</event>
<event>
 5    0  0.1335379E+000  0.1249944E+03  0.7546771E-02  0.1235078E+00
         21   -1    0    0  503  502  0.00000000000E+00  0.00000000000E+00  0.79708212433E+01  0.79708212433E+01  0.00000000000E+00 0.  1.
         21   -1    0    0  502  503 -0.00000000000E+00 -0.00000000000E+00 -0.49002450116E+03  0.49002450116E+03  0.00000000000E+00 0.  1.
         25    2    1    2    0    0  0.00000000000E+00  0.00000000000E+00 -0.48205367991E+03  0.49799532240E+03  0.12499436313E+03 0.  0.
          4    1    3    3  501    0  0.45001778091E+02 -0.38169071243E+02 -0.32281897787E+03  0.32817149938E+03  0.15500000000E+01 0. -1.
         -4    1    3    3    0  501 -0.45001778091E+02  0.38169071243E+02 -0.15923470204E+03  0.16982382302E+03  0.15500000000E+01 0. -1.
<mgrwt>
<rscale>  2 0.12499436E+03</rscale>
<asrwt>0</asrwt>
<pdfrwt beam="1">  1       21 0.12262802E-02 0.12499436E+03</pdfrwt>
<pdfrwt beam="2">  1       21 0.75388383E-01 0.12499436E+03</pdfrwt>
<totfact> 0.42158915E+06</totfact>
</mgrwt>
</event>
<event>
 5    0  0.1509736E+000  0.1249978E+03  0.7546771E-02  0.1235073E+00
         21   -1    0    0  503  502  0.00000000000E+00  0.00000000000E+00  0.14574890529E+02  0.14574890529E+02  0.00000000000E+00 0.  1.
         21   -1    0    0  502  503 -0.00000000000E+00 -0.00000000000E+00 -0.26800307905E+03  0.26800307905E+03  0.00000000000E+00 0.  1.
         25    2    1    2    0    0  0.00000000000E+00  0.00000000000E+00 -0.25342818852E+03  0.28257796958E+03  0.12499784860E+03 0.  0.
          4    1    3    3  501    0 -0.61684475720E+02 -0.77994796476E+01 -0.11279556839E+03  0.12880624665E+03  0.15500000000E+01 0. -1.
         -4    1    3    3    0  501  0.61684475720E+02  0.77994796476E+01 -0.14063262014E+03  0.15377172293E+03  0.15500000000E+01 0. -1.
<mgrwt>
<rscale>  2 0.12499785E+03</rscale>
<asrwt>0</asrwt>
<pdfrwt beam="1">  1       21 0.22422910E-02 0.12499785E+03</pdfrwt>
<pdfrwt beam="2">  1       21 0.41231240E-01 0.12499785E+03</pdfrwt>
<totfact> 0.56938903E+06</totfact>
</mgrwt>
</event>
<event>
 5    0  0.1508884E+000  0.1250002E+03  0.7546771E-02  0.1235069E+00
         21   -1    0    0  503  502  0.00000000000E+00  0.00000000000E+00  0.78401373075E+02  0.78401373075E+02  0.00000000000E+00 0.  1.
         21   -1    0    0  502  503 -0.00000000000E+00 -0.00000000000E+00 -0.49823883477E+02  0.49823883477E+02  0.00000000000E+00 0.  1.
         25    2    1    2    0    0  0.00000000000E+00  0.00000000000E+00  0.28577489598E+02  0.12822525655E+03  0.12500017402E+03 0.  0.
          4    1    3    3  501    0 -0.32155589059E+02 -0.51652831731E+02  0.28863109934E+02  0.67360808699E+02  0.15500000000E+01 0. -1.
         -4    1    3    3    0  501  0.32155589059E+02  0.51652831731E+02 -0.28562033527E+00  0.60864447853E+02  0.15500000000E+01 0. -1.
<mgrwt>
<rscale>  2 0.12500017E+03</rscale>
<asrwt>0</asrwt>
<pdfrwt beam="1">  1       21 0.12061750E-01 0.12500017E+03</pdfrwt>
<pdfrwt beam="2">  1       21 0.76652129E-02 0.12500017E+03</pdfrwt>
<totfact> 0.73602825E+06</totfact>
</mgrwt>
</event>
<event>
 5    0  0.1590388E+000  0.1250006E+03  0.7546771E-02  0.1235068E+00
         21   -1    0    0  503  502  0.00000000000E+00  0.00000000000E+00  0.24362577462E+02  0.24362577462E+02  0.00000000000E+00 0. -1.
         21   -1    0    0  502  503 -0.00000000000E+00 -0.00000000000E+00 -0.16033973518E+03  0.16033973518E+03  0.00000000000E+00 0. -1.
         25    2    1    2    0    0  0.00000000000E+00  0.00000000000E+00 -0.13597715772E+03  0.18470231265E+03  0.12500062750E+03 0.  0.
          4    1    3    3  501    0 -0.72628275349E+01  0.61761886050E+02 -0.59048422913E+02  0.85769446663E+02  0.15500000000E+01 0. -1.
         -4    1    3    3    0  501  0.72628275349E+01 -0.61761886050E+02 -0.76928734809E+02  0.98932865983E+02  0.15500000000E+01 0. -1.
<mgrwt>
<rscale>  2 0.12500063E+03</rscale>
<asrwt>0</asrwt>
<pdfrwt beam="1">  1       21 0.37480890E-02 0.12500063E+03</pdfrwt>
<pdfrwt beam="2">  1       21 0.24667650E-01 0.12500063E+03</pdfrwt>
<totfact> 0.66615094E+06</totfact>
</mgrwt>
</event>
<event>
 5    0  0.1508349E+000  0.1249901E+03  0.7546771E-02  0.1235085E+00
         21   -1    0    0  503  502  0.00000000000E+00  0.00000000000E+00  0.16633823031E+03  0.16633823031E+03  0.00000000000E+00 0.  1.
         21   -1    0    0  502  503 -0.00000000000E+00 -0.00000000000E+00 -0.23480041906E+02  0.23480041906E+02  0.00000000000E+00 0.  1.
         25    2    1    2    0    0  0.00000000000E+00  0.00000000000E+00  0.14285818841E+03  0.18981827222E+03  0.12499005750E+03 0.  0.
          4    1    3    3  501    0 -0.19045505351E+02 -0.59494706970E+02  0.72849422848E+02  0.95978082606E+02  0.15500000000E+01 0. -1.
         -4    1    3    3    0  501  0.19045505351E+02  0.59494706970E+02  0.70008765560E+02  0.93840189613E+02  0.15500000000E+01 0. -1.
<mgrwt>
<rscale>  2 0.12499006E+03</rscale>
<asrwt>0</asrwt>
<pdfrwt beam="1">  1       21 0.25590496E-01 0.12499006E+03</pdfrwt>
<pdfrwt beam="2">  1       21 0.36123142E-02 0.12499006E+03</pdfrwt>
<totfact> 0.66059310E+06</totfact>
</mgrwt>
</event>
<event>
 5    0  0.1432476E+000  0.1250011E+03  0.7546771E-02  0.1235068E+00
         21   -1    0    0  503  502  0.00000000000E+00  0.00000000000E+00  0.88383036267E+01  0.88383036267E+01  0.00000000000E+00 0.  1.
         21   -1    0    0  502  503 -0.00000000000E+00 -0.00000000000E+00 -0.44197620705E+03  0.44197620705E+03  0.00000000000E+00 0.  1.
         25    2    1    2    0    0  0.00000000000E+00  0.00000000000E+00 -0.43313790342E+03  0.45081451067E+03  0.12500111861E+03 0.  0.
          4    1    3    3  501    0 -0.13708165682E+02 -0.60878070915E+02 -0.22789588851E+03  0.23629005866E+03  0.15500000000E+01 0.  1.
         -4    1    3    3    0  501  0.13708165682E+02  0.60878070915E+02 -0.20524201491E+03  0.21452445201E+03  0.15500000000E+01 0.  1.
<mgrwt>
<rscale>  2 0.12500112E+03</rscale>
<asrwt>0</asrwt>
<pdfrwt beam="1">  1       21 0.13597394E-02 0.12500112E+03</pdfrwt>
<pdfrwt beam="2">  1       21 0.67996320E-01 0.12500112E+03</pdfrwt>
<totfact> 0.44842327E+06</totfact>
</mgrwt>
</event>
<event>
 5    0  0.1228644E+000  0.1250004E+03  0.7546771E-02  0.1235069E+00
         21   -1    0    0  503  502  0.00000000000E+00  0.00000000000E+00  0.80055819798E+01  0.80055819798E+01  0.00000000000E+00 0.  1.
         21   -1    0    0  502  503 -0.00000000000E+00 -0.00000000000E+00 -0.48794400755E+03  0.48794400755E+03  0.00000000000E+00 0.  1.
         25    2    1    2    0    0  0.00000000000E+00  0.00000000000E+00 -0.47993842557E+03  0.49594958953E+03  0.12500041206E+03 0.  0.
          4    1    3    3  501    0  0.23459496713E+02 -0.17777968417E+02 -0.21302827764E+02  0.36367803313E+02  0.15500000000E+01 0.  1.
         -4    1    3    3    0  501 -0.23459496713E+02  0.17777968417E+02 -0.45863559780E+03  0.45958178621E+03  0.15500000000E+01 0.  1.
<mgrwt>
<rscale>  2 0.12500041E+03</rscale>
<asrwt>0</asrwt>
<pdfrwt beam="1">  1       21 0.12316278E-02 0.12500041E+03</pdfrwt>
<pdfrwt beam="2">  1       21 0.75068318E-01 0.12500041E+03</pdfrwt>
<totfact> 0.42264151E+06</totfact>
</mgrwt>
</event>
<event>
 5    0  0.1222151E+000  0.1249933E+03  0.7546771E-02  0.1235080E+00
         21   -1    0    0  503  502  0.00000000000E+00  0.00000000000E+00  0.71857909399E+03  0.71857909399E+03  0.00000000000E+00 0. -1.
         21   -1    0    0  502  503 -0.00000000000E+00 -0.00000000000E+00 -0.54354924332E+01  0.54354924332E+01  0.00000000000E+00 0. -1.
         25    2    1    2    0    0  0.00000000000E+00  0.00000000000E+00  0.71314360156E+03  0.72401458642E+03  0.12499329947E+03 0.  0.
          4    1    3    3  501    0 -0.49320353022E+02 -0.20661010440E+02  0.54373570510E+03  0.54636095584E+03  0.15500000000E+01 0. -1.
         -4    1    3    3    0  501  0.49320353022E+02  0.20661010440E+02  0.16940789646E+03  0.17765363058E+03  0.15500000000E+01 0. -1.
<mgrwt>
<rscale>  2 0.12499330E+03</rscale>
<asrwt>0</asrwt>
<pdfrwt beam="1">  1       21 0.11055055E+00 0.12499330E+03</pdfrwt>
<pdfrwt beam="2">  1       21 0.83623018E-03 0.12499330E+03</pdfrwt>
<totfact> 0.32009942E+06</totfact>
</mgrwt>
</event>
<event>
 5    0  0.1458748E+000  0.1250024E+03  0.7546771E-02  0.1235066E+00
         21   -1    0    0  503  502  0.00000000000E+00  0.00000000000E+00  0.15810126056E+02  0.15810126056E+02  0.00000000000E+00 0.  1.
         21   -1    0    0  502  503 -0.00000000000E+00 -0.00000000000E+00 -0.24708199557E+03  0.24708199557E+03  0.00000000000E+00 0.  1.
         25    2    1    2    0    0  0.00000000000E+00  0.00000000000E+00 -0.23127186952E+03  0.26289212163E+03  0.12500235992E+03 0.  0.
          4    1    3    3  501    0 -0.16950315331E+02  0.33681407435E+02 -0.10855150077E+02  0.39268144593E+02  0.15500000000E+01 0. -1.
         -4    1    3    3    0  501  0.16950315331E+02 -0.33681407435E+02 -0.22041671944E+03  0.22362397703E+03  0.15500000000E+01 0. -1.
<mgrwt>
<rscale>  2 0.12500236E+03</rscale>
<asrwt>0</asrwt>
<pdfrwt beam="1">  1       21 0.24323271E-02 0.12500236E+03</pdfrwt>
<pdfrwt beam="2">  1       21 0.38012614E-01 0.12500236E+03</pdfrwt>
<totfact> 0.58681715E+06</totfact>
</mgrwt>
</event>
<event>
 5    0  0.1476685E+000  0.1249941E+03  0.7546771E-02  0.1235078E+00
         21   -1    0    0  503  502  0.00000000000E+00  0.00000000000E+00  0.10484189828E+03  0.10484189828E+03  0.00000000000E+00 0.  1.
         21   -1    0    0  502  503 -0.00000000000E+00 -0.00000000000E+00 -0.37254967032E+02  0.37254967032E+02  0.00000000000E+00 0.  1.
         25    2    1    2    0    0  0.00000000000E+00  0.00000000000E+00  0.67586931245E+02  0.14209686531E+03  0.12499410328E+03 0.  0.
          4    1    3    3  501    0  0.32356148194E+02 -0.27074090304E+02 -0.18593886758E+02  0.46130920395E+02  0.15500000000E+01 0. -1.
         -4    1    3    3    0  501 -0.32356148194E+02  0.27074090304E+02  0.86180818003E+02  0.95965944915E+02  0.15500000000E+01 0. -1.
<mgrwt>
<rscale>  2 0.12499410E+03</rscale>
<asrwt>0</asrwt>
<pdfrwt beam="1">  1       21 0.16129523E-01 0.12499410E+03</pdfrwt>
<pdfrwt beam="2">  1       21 0.57315334E-02 0.12499410E+03</pdfrwt>
<totfact> 0.71777517E+06</totfact>
</mgrwt>
</event>
<event>
 5    0  0.1222151E+000  0.1250013E+03  0.7546771E-02  0.1235067E+00
         21   -1    0    0  503  502  0.00000000000E+00  0.00000000000E+00  0.87207670599E+03  0.87207670599E+03  0.00000000000E+00 0.  1.
         21   -1    0    0  502  503 -0.00000000000E+00 -0.00000000000E+00 -0.44793465377E+01  0.44793465377E+01  0.00000000000E+00 0.  1.
         25    2    1    2    0    0  0.00000000000E+00  0.00000000000E+00  0.86759735945E+03  0.87655605253E+03  0.12500134037E+03 0.  0.
          4    1    3    3  501    0  0.51118496780E+02 -0.31053760084E+02  0.30709098551E+03  0.31286532664E+03  0.15500000000E+01 0.  1.
         -4    1    3    3    0  501 -0.51118496780E+02  0.31053760084E+02  0.56050637394E+03  0.56369072589E+03  0.15500000000E+01 0.  1.
<mgrwt>
<rscale>  2 0.12500134E+03</rscale>
<asrwt>0</asrwt>
<pdfrwt beam="1">  1       21 0.13416551E+00 0.12500134E+03</pdfrwt>
<pdfrwt beam="2">  1       21 0.68913093E-03 0.12500134E+03</pdfrwt>
<totfact> 0.26976379E+06</totfact>
</mgrwt>
</event>
<event>
 5    0  0.1458520E+000  0.1250014E+03  0.7546771E-02  0.1235067E+00
         21   -1    0    0  503  502  0.00000000000E+00  0.00000000000E+00  0.82227785691E+02  0.82227785691E+02  0.00000000000E+00 0. -1.
         21   -1    0    0  502  503 -0.00000000000E+00 -0.00000000000E+00 -0.47506277191E+02  0.47506277191E+02  0.00000000000E+00 0. -1.
         25    2    1    2    0    0  0.00000000000E+00  0.00000000000E+00  0.34721508501E+02  0.12973406288E+03  0.12500137567E+03 0.  0.
          4    1    3    3  501    0  0.20705188335E+02  0.27467932792E+01  0.78477323909E+02  0.81224027019E+02  0.15500000000E+01 0.  1.
         -4    1    3    3    0  501 -0.20705188335E+02 -0.27467932792E+01 -0.43755815409E+02  0.48510035862E+02  0.15500000000E+01 0.  1.
<mgrwt>
<rscale>  2 0.12500138E+03</rscale>
<asrwt>0</asrwt>
<pdfrwt beam="1">  1       21 0.12650429E-01 0.12500138E+03</pdfrwt>
<pdfrwt beam="2">  1       21 0.73086580E-02 0.12500138E+03</pdfrwt>
<totfact> 0.73397901E+06</totfact>
</mgrwt>
</event>
<event>
 5    0  0.1597074E+000  0.1250040E+03  0.7546771E-02  0.1235063E+00
         21   -1    0    0  503  502  0.00000000000E+00  0.00000000000E+00  0.19655408377E+02  0.19655408377E+02  0.00000000000E+00 0. -1.
         21   -1    0    0  502  503 -0.00000000000E+00 -0.00000000000E+00 -0.19874944230E+03  0.19874944230E+03  0.00000000000E+00 0. -1.
         25    2    1    2    0    0  0.00000000000E+00  0.00000000000E+00 -0.17909403392E+03  0.21840485068E+03  0.12500402319E+03 0.  0.
          4    1    3    3  501    0 -0.50898064702E+02 -0.34016396790E+02 -0.67698800200E+02  0.91286681885E+02  0.15500000000E+01 0. -1.
         -4    1    3    3    0  501  0.50898064702E+02  0.34016396790E+02 -0.11139523372E+03  0.12711816879E+03  0.15500000000E+01 0. -1.
<mgrwt>
<rscale>  2 0.12500402E+03</rscale>
<asrwt>0</asrwt>
<pdfrwt beam="1">  1       21 0.30239090E-02 0.12500402E+03</pdfrwt>
<pdfrwt beam="2">  1       21 0.30576837E-01 0.12500402E+03</pdfrwt>
<totfact> 0.62979549E+06</totfact>
</mgrwt>
</event>
<event>
 5    0  0.1576791E+000  0.1249939E+03  0.7546771E-02  0.1235079E+00
         21   -1    0    0  503  502  0.00000000000E+00  0.00000000000E+00  0.38428430646E+02  0.38428430646E+02  0.00000000000E+00 0.  1.
         21   -1    0    0  502  503 -0.00000000000E+00 -0.00000000000E+00 -0.10164009609E+03  0.10164009609E+03  0.00000000000E+00 0.  1.
         25    2    1    2    0    0  0.00000000000E+00  0.00000000000E+00 -0.63211665440E+02  0.14006852673E+03  0.12499390998E+03 0.  0.
          4    1    3    3  501    0 -0.82269453196E+01  0.57250763504E+02 -0.51317405823E+01  0.58086743862E+02  0.15500000000E+01 0.  1.
         -4    1    3    3    0  501  0.82269453196E+01 -0.57250763504E+02 -0.58079924858E+02  0.81981782870E+02  0.15500000000E+01 0.  1.
<mgrwt>
<rscale>  2 0.12499391E+03</rscale>
<asrwt>0</asrwt>
<pdfrwt beam="1">  1       21 0.59120663E-02 0.12499391E+03</pdfrwt>
<pdfrwt beam="2">  1       21 0.15636938E-01 0.12499391E+03</pdfrwt>
<totfact> 0.72041540E+06</totfact>
</mgrwt>
</event>
<event>
 5    0  0.1513326E+000  0.1250008E+03  0.7546771E-02  0.1235068E+00
         21   -1    0    0  503  502  0.00000000000E+00  0.00000000000E+00  0.39850044919E+02  0.39850044919E+02  0.00000000000E+00 0.  1.
         21   -1    0    0  502  503 -0.00000000000E+00 -0.00000000000E+00 -0.98024965098E+02  0.98024965098E+02  0.00000000000E+00 0.  1.
         25    2    1    2    0    0  0.00000000000E+00  0.00000000000E+00 -0.58174920179E+02  0.13787501002E+03  0.12500078819E+03 0.  0.
          4    1    3    3  501    0 -0.35114311401E+02  0.88659547799E+01  0.27070779750E+02  0.45242122360E+02  0.15500000000E+01 0. -1.
         -4    1    3    3    0  501  0.35114311401E+02 -0.88659547799E+01 -0.85245699929E+02  0.92632887657E+02  0.15500000000E+01 0. -1.
<mgrwt>
<rscale>  2 0.12500079E+03</rscale>
<asrwt>0</asrwt>
<pdfrwt beam="1">  1       21 0.61307762E-02 0.12500079E+03</pdfrwt>
<pdfrwt beam="2">  1       21 0.15080764E-01 0.12500079E+03</pdfrwt>
<totfact> 0.72316498E+06</totfact>
</mgrwt>
</event>
<event>
 5    0  0.1427821E+000  0.1249987E+03  0.7546771E-02  0.1235071E+00
         21   -1    0    0  503  502  0.00000000000E+00  0.00000000000E+00  0.10271550100E+02  0.10271550100E+02  0.00000000000E+00 0. -1.
         21   -1    0    0  502  503 -0.00000000000E+00 -0.00000000000E+00 -0.38029035525E+03  0.38029035525E+03  0.00000000000E+00 0. -1.
         25    2    1    2    0    0  0.00000000000E+00  0.00000000000E+00 -0.37001880515E+03  0.39056190535E+03  0.12499874298E+03 0.  0.
          4    1    3    3  501    0 -0.51711809564E+02  0.57223448293E+01 -0.76911957647E+02  0.92869307135E+02  0.15500000000E+01 0.  1.
         -4    1    3    3    0  501  0.51711809564E+02 -0.57223448293E+01 -0.29310684750E+03  0.29769259822E+03  0.15500000000E+01 0.  1.
<mgrwt>
<rscale>  2 0.12499874E+03</rscale>
<asrwt>0</asrwt>
<pdfrwt beam="1">  1       21 0.15802386E-02 0.12499874E+03</pdfrwt>
<pdfrwt beam="2">  1       21 0.58506203E-01 0.12499874E+03</pdfrwt>
<totfact> 0.48675267E+06</totfact>
</mgrwt>
</event>
<event>
 5    0  0.1492763E+000  0.1249910E+03  0.7546771E-02  0.1235083E+00
         21   -1    0    0  503  502  0.00000000000E+00  0.00000000000E+00  0.16774915727E+03  0.16774915727E+03  0.00000000000E+00 0. -1.
         21   -1    0    0  502  503 -0.00000000000E+00 -0.00000000000E+00 -0.23282906657E+02  0.23282906657E+02  0.00000000000E+00 0. -1.
         25    2    1    2    0    0  0.00000000000E+00  0.00000000000E+00  0.14446625061E+03  0.19103206392E+03  0.12499100720E+03 0.  0.
          4    1    3    3  501    0  0.24443483646E+02  0.43194046394E+02  0.14234166599E+02  0.51654850066E+02  0.15500000000E+01 0.  1.
         -4    1    3    3    0  501 -0.24443483646E+02 -0.43194046394E+02  0.13023208401E+03  0.13937721386E+03  0.15500000000E+01 0.  1.
<mgrwt>
<rscale>  2 0.12499101E+03</rscale>
<asrwt>0</asrwt>
<pdfrwt beam="1">  1       21 0.25807562E-01 0.12499101E+03</pdfrwt>
<pdfrwt beam="2">  1       21 0.35819857E-02 0.12499101E+03</pdfrwt>
<totfact> 0.65922964E+06</totfact>
</mgrwt>
</event>
<event>
 5    0  0.1580145E+000  0.1249951E+03  0.7546771E-02  0.1235077E+00
         21   -1    0    0  503  502  0.00000000000E+00  0.00000000000E+00  0.21477881646E+02  0.21477881646E+02  0.00000000000E+00 0. -1.
         21   -1    0    0  502  503 -0.00000000000E+00 -0.00000000000E+00 -0.18185875816E+03  0.18185875816E+03  0.00000000000E+00 0. -1.
         25    2    1    2    0    0  0.00000000000E+00  0.00000000000E+00 -0.16038087652E+03  0.20333663981E+03  0.12499505405E+03 0.  0.
          4    1    3    3  501    0 -0.10213658656E+02 -0.61398126067E+02 -0.71356429653E+02  0.94700534637E+02  0.15500000000E+01 0. -1.
         -4    1    3    3    0  501  0.10213658656E+02  0.61398126067E+02 -0.89024446863E+02  0.10863610517E+03  0.15500000000E+01 0. -1.
<mgrwt>
<rscale>  2 0.12499505E+03</rscale>
<asrwt>0</asrwt>
<pdfrwt beam="1">  1       21 0.33042894E-02 0.12499505E+03</pdfrwt>
<pdfrwt beam="2">  1       21 0.27978271E-01 0.12499505E+03</pdfrwt>
<totfact> 0.64575571E+06</totfact>
</mgrwt>
</event>
<event>
 5    0  0.1586791E+000  0.1250103E+03  0.7546771E-02  0.1235053E+00
         21   -1    0    0  503  502  0.00000000000E+00  0.00000000000E+00  0.36766719735E+02  0.36766719735E+02  0.00000000000E+00 0.  1.
         21   -1    0    0  502  503 -0.00000000000E+00 -0.00000000000E+00 -0.10626169184E+03  0.10626169184E+03  0.00000000000E+00 0.  1.
         25    2    1    2    0    0  0.00000000000E+00  0.00000000000E+00 -0.69494972109E+02  0.14302841158E+03  0.12501030106E+03 0.  0.
          4    1    3    3  501    0 -0.47523396540E+02 -0.35533239766E+02 -0.12344467897E+02  0.60628976032E+02  0.15500000000E+01 0.  1.
         -4    1    3    3    0  501  0.47523396540E+02  0.35533239766E+02 -0.57150504212E+02  0.82399435548E+02  0.15500000000E+01 0.  1.
<mgrwt>
<rscale>  2 0.12501030E+03</rscale>
<asrwt>0</asrwt>
<pdfrwt beam="1">  1       21 0.56564184E-02 0.12501030E+03</pdfrwt>
<pdfrwt beam="2">  1       21 0.16347953E-01 0.12501030E+03</pdfrwt>
<totfact> 0.71627584E+06</totfact>
</mgrwt>
</event>
<event>
 5    0  0.1449232E+000  0.1250002E+03  0.7546771E-02  0.1235069E+00
         21   -1    0    0  503  502  0.00000000000E+00  0.00000000000E+00  0.88822818867E+02  0.88822818867E+02  0.00000000000E+00 0.  1.
         21   -1    0    0  502  503 -0.00000000000E+00 -0.00000000000E+00 -0.43978160223E+02  0.43978160223E+02  0.00000000000E+00 0.  1.
         25    2    1    2    0    0  0.00000000000E+00  0.00000000000E+00  0.44844658643E+02  0.13280097909E+03  0.12500022655E+03 0.  0.
          4    1    3    3  501    0  0.19908472945E+02 -0.18506249025E+02 -0.37347168330E+02  0.46217334738E+02  0.15500000000E+01 0.  1.
         -4    1    3    3    0  501 -0.19908472945E+02  0.18506249025E+02  0.82191826974E+02  0.86583644352E+02  0.15500000000E+01 0.  1.
<mgrwt>
<rscale>  2 0.12500023E+03</rscale>
<asrwt>0</asrwt>
<pdfrwt beam="1">  1       21 0.13665049E-01 0.12500023E+03</pdfrwt>
<pdfrwt beam="2">  1       21 0.67658708E-02 0.12500023E+03</pdfrwt>
<totfact> 0.72988564E+06</totfact>
</mgrwt>
</event>
<event>
 5    0  0.1497213E+000  0.1250006E+03  0.7546771E-02  0.1235068E+00
         21   -1    0    0  503  502  0.00000000000E+00  0.00000000000E+00  0.27816546841E+02  0.27816546841E+02  0.00000000000E+00 0.  1.
         21   -1    0    0  502  503 -0.00000000000E+00 -0.00000000000E+00 -0.14043029401E+03  0.14043029401E+03  0.00000000000E+00 0.  1.
         25    2    1    2    0    0  0.00000000000E+00  0.00000000000E+00 -0.11261374717E+03  0.16824684085E+03  0.12500057362E+03 0.  0.
          4    1    3    3  501    0 -0.27577541543E+02 -0.20218792815E+02  0.14077925727E+02  0.37012307051E+02  0.15500000000E+01 0.  1.
         -4    1    3    3    0  501  0.27577541543E+02  0.20218792815E+02 -0.12669167289E+03  0.13123453380E+03  0.15500000000E+01 0.  1.
<mgrwt>
<rscale>  2 0.12500057E+03</rscale>
<asrwt>0</asrwt>
<pdfrwt beam="1">  1       21 0.42794688E-02 0.12500057E+03</pdfrwt>
<pdfrwt beam="2">  1       21 0.21604660E-01 0.12500057E+03</pdfrwt>
<totfact> 0.68524599E+06</totfact>
</mgrwt>
</event>
<event>
 5    0  0.1542208E+000  0.1250010E+03  0.7546771E-02  0.1235068E+00
         21   -1    0    0  503  502  0.00000000000E+00  0.00000000000E+00  0.39396290217E+02  0.39396290217E+02  0.00000000000E+00 0. -1.
         21   -1    0    0  502  503 -0.00000000000E+00 -0.00000000000E+00 -0.99154313136E+02  0.99154313136E+02  0.00000000000E+00 0. -1.
         25    2    1    2    0    0  0.00000000000E+00  0.00000000000E+00 -0.59758022919E+02  0.13855060335E+03  0.12500099354E+03 0.  0.
          4    1    3    3  501    0  0.43206000909E+02  0.38956829698E+02 -0.55142576177E+02  0.80171686412E+02  0.15500000000E+01 0. -1.
         -4    1    3    3    0  501 -0.43206000909E+02 -0.38956829698E+02 -0.46154467418E+01  0.58378916942E+02  0.15500000000E+01 0. -1.
<mgrwt>
<rscale>  2 0.12500099E+03</rscale>
<asrwt>0</asrwt>
<pdfrwt beam="1">  1       21 0.60609679E-02 0.12500099E+03</pdfrwt>
<pdfrwt beam="2">  1       21 0.15254509E-01 0.12500099E+03</pdfrwt>
<totfact> 0.72227265E+06</totfact>
</mgrwt>
</event>
<event>
 5    0  0.1602054E+000  0.1249963E+03  0.7546771E-02  0.1235075E+00
         21   -1    0    0  503  502  0.00000000000E+00  0.00000000000E+00  0.64659777477E+02  0.64659777477E+02  0.00000000000E+00 0.  1.
         21   -1    0    0  502  503 -0.00000000000E+00 -0.00000000000E+00 -0.60408826013E+02  0.60408826013E+02  0.00000000000E+00 0.  1.
         25    2    1    2    0    0  0.00000000000E+00  0.00000000000E+00  0.42509514635E+01  0.12506860349E+03  0.12499633991E+03 0.  0.
          4    1    3    3  501    0  0.50303422809E+02 -0.34437709426E+02  0.15816535466E+02  0.62999646594E+02  0.15500000000E+01 0.  1.
         -4    1    3    3    0  501 -0.50303422809E+02  0.34437709426E+02 -0.11565584003E+02  0.62068956896E+02  0.15500000000E+01 0.  1.
<mgrwt>
<rscale>  2 0.12499634E+03</rscale>
<asrwt>0</asrwt>
<pdfrwt beam="1">  1       21 0.99476581E-02 0.12499634E+03</pdfrwt>
<pdfrwt beam="2">  1       21 0.92936656E-02 0.12499634E+03</pdfrwt>
<totfact> 0.74041244E+06</totfact>
</mgrwt>
</event>
<event>
 5    0  0.1424716E+000  0.1249629E+03  0.7546771E-02  0.1235127E+00
         21   -1    0    0  503  502  0.00000000000E+00  0.00000000000E+00  0.20321117821E+02  0.20321117821E+02  0.00000000000E+00 0. -1.
         21   -1    0    0  502  503 -0.00000000000E+00 -0.00000000000E+00 -0.19211197493E+03  0.19211197493E+03  0.00000000000E+00 0. -1.
         25    2    1    2    0    0  0.00000000000E+00  0.00000000000E+00 -0.17179085711E+03  0.21243309275E+03  0.12496287572E+03 0.  0.
          4    1    3    3  501    0  0.26684750459E+02 -0.43550794795E+02 -0.24772597171E+02  0.56787601683E+02  0.15500000000E+01 0.  1.
         -4    1    3    3    0  501 -0.26684750459E+02  0.43550794795E+02 -0.14701825994E+03  0.15564549107E+03  0.15500000000E+01 0.  1.
<mgrwt>
<rscale>  2 0.12496288E+03</rscale>
<asrwt>0</asrwt>
<pdfrwt beam="1">  1       21 0.31263259E-02 0.12496288E+03</pdfrwt>
<pdfrwt beam="2">  1       21 0.29555687E-01 0.12496288E+03</pdfrwt>
<totfact> 0.63664204E+06</totfact>
</mgrwt>
</event>
<event>
 5    0  0.1442281E+000  0.1250000E+03  0.7546771E-02  0.1235069E+00
         21   -1    0    0  503  502  0.00000000000E+00  0.00000000000E+00  0.37373745445E+02  0.37373745445E+02  0.00000000000E+00 0. -1.
         21   -1    0    0  502  503 -0.00000000000E+00 -0.00000000000E+00 -0.10451860962E+03  0.10451860962E+03  0.00000000000E+00 0. -1.
         25    2    1    2    0    0  0.00000000000E+00  0.00000000000E+00 -0.67144864174E+02  0.14189235506E+03  0.12500003056E+03 0.  0.
          4    1    3    3  501    0 -0.19857117267E+02  0.33073696933E+02 -0.89363942498E+02  0.97347271424E+02  0.15500000000E+01 0. -1.
         -4    1    3    3    0  501  0.19857117267E+02 -0.33073696933E+02  0.22219078324E+02  0.44545083641E+02  0.15500000000E+01 0. -1.
<mgrwt>
<rscale>  2 0.12500003E+03</rscale>
<asrwt>0</asrwt>
<pdfrwt beam="1">  1       21 0.57498070E-02 0.12500003E+03</pdfrwt>
<pdfrwt beam="2">  1       21 0.16079786E-01 0.12500003E+03</pdfrwt>
<totfact> 0.71793163E+06</totfact>
</mgrwt>
</event>
<event>
 5    0  0.1597480E+000  0.1250003E+03  0.7546771E-02  0.1235069E+00
         21   -1    0    0  503  502  0.00000000000E+00  0.00000000000E+00  0.10842358076E+03  0.10842358076E+03  0.00000000000E+00 0. -1.
         21   -1    0    0  502  503 -0.00000000000E+00 -0.00000000000E+00 -0.36027851551E+02  0.36027851551E+02  0.00000000000E+00 0. -1.
         25    2    1    2    0    0  0.00000000000E+00  0.00000000000E+00  0.72395729211E+02  0.14445143231E+03  0.12500029876E+03 0.  0.
          4    1    3    3  501    0 -0.44714863703E+02  0.41449269662E+02  0.51975422801E+02  0.80133064754E+02  0.15500000000E+01 0. -1.
         -4    1    3    3    0  501  0.44714863703E+02 -0.41449269662E+02  0.20420306410E+02  0.64318367558E+02  0.15500000000E+01 0. -1.
<mgrwt>
<rscale>  2 0.12500030E+03</rscale>
<asrwt>0</asrwt>
<pdfrwt beam="1">  1       21 0.16680551E-01 0.12500030E+03</pdfrwt>
<pdfrwt beam="2">  1       21 0.55427465E-02 0.12500030E+03</pdfrwt>
<totfact> 0.71462832E+06</totfact>
</mgrwt>
</event>
<event>
 5    0  0.1451696E+000  0.1250074E+03  0.7546771E-02  0.1235058E+00
         21   -1    0    0  503  502  0.00000000000E+00  0.00000000000E+00  0.26993129986E+02  0.26993129986E+02  0.00000000000E+00 0. -1.
         21   -1    0    0  502  503 -0.00000000000E+00 -0.00000000000E+00 -0.14472982156E+03  0.14472982156E+03  0.00000000000E+00 0. -1.
         25    2    1    2    0    0  0.00000000000E+00  0.00000000000E+00 -0.11773669158E+03  0.17172295155E+03  0.12500737396E+03 0.  0.
          4    1    3    3  501    0  0.12990235161E+02  0.37343022721E+02  0.75975805296E+01  0.40291106778E+02  0.15500000000E+01 0. -1.
         -4    1    3    3    0  501 -0.12990235161E+02 -0.37343022721E+02 -0.12533427211E+03  0.13143184477E+03  0.15500000000E+01 0. -1.
<mgrwt>
<rscale>  2 0.12500737E+03</rscale>
<asrwt>0</asrwt>
<pdfrwt beam="1">  1       21 0.41527892E-02 0.12500737E+03</pdfrwt>
<pdfrwt beam="2">  1       21 0.22266127E-01 0.12500737E+03</pdfrwt>
<totfact> 0.68101227E+06</totfact>
</mgrwt>
</event>
<event>
 5    0  0.1253665E+000  0.1250038E+03  0.7546771E-02  0.1235063E+00
         21   -1    0    0  503  502  0.00000000000E+00  0.00000000000E+00  0.60285578987E+01  0.60285578987E+01  0.00000000000E+00 0.  1.
         21   -1    0    0  502  503 -0.00000000000E+00 -0.00000000000E+00 -0.64799744921E+03  0.64799744921E+03  0.00000000000E+00 0.  1.
         25    2    1    2    0    0  0.00000000000E+00  0.00000000000E+00 -0.64196889131E+03  0.65402600711E+03  0.12500384219E+03 0.  0.
          4    1    3    3  501    0  0.61458278837E+02 -0.11267976603E+02 -0.32107604345E+03  0.32710291272E+03  0.15500000000E+01 0.  1.
         -4    1    3    3    0  501 -0.61458278837E+02  0.11267976603E+02 -0.32089284787E+03  0.32692309439E+03  0.15500000000E+01 0.  1.
<mgrwt>
<rscale>  2 0.12500384E+03</rscale>
<asrwt>0</asrwt>
<pdfrwt beam="1">  1       21 0.92747048E-03 0.12500384E+03</pdfrwt>
<pdfrwt beam="2">  1       21 0.99691912E-01 0.12500384E+03</pdfrwt>
<totfact> 0.34754335E+06</totfact>
</mgrwt>
</event>
<event>
 5    0  0.1406703E+000  0.1249999E+03  0.7546771E-02  0.1235069E+00
         21   -1    0    0  503  502  0.00000000000E+00  0.00000000000E+00  0.11146665812E+02  0.11146665812E+02  0.00000000000E+00 0.  1.
         21   -1    0    0  502  503 -0.00000000000E+00 -0.00000000000E+00 -0.35044053698E+03  0.35044053698E+03  0.00000000000E+00 0.  1.
         25    2    1    2    0    0  0.00000000000E+00  0.00000000000E+00 -0.33929387117E+03  0.36158720279E+03  0.12499989684E+03 0.  0.
          4    1    3    3  501    0  0.56920703673E+02  0.16375766365E+02 -0.22718977172E+03  0.23478868607E+03  0.15500000000E+01 0.  1.
         -4    1    3    3    0  501 -0.56920703673E+02 -0.16375766365E+02 -0.11210409945E+03  0.12679851673E+03  0.15500000000E+01 0.  1.
<mgrwt>
<rscale>  2 0.12499990E+03</rscale>
<asrwt>0</asrwt>
<pdfrwt beam="1">  1       21 0.17148717E-02 0.12499990E+03</pdfrwt>
<pdfrwt beam="2">  1       21 0.53913929E-01 0.12499990E+03</pdfrwt>
<totfact> 0.50694036E+06</totfact>
</mgrwt>
</event>
<event>
 5    0  0.1609761E+000  0.1250010E+03  0.7546771E-02  0.1235068E+00
         21   -1    0    0  503  502  0.00000000000E+00  0.00000000000E+00  0.56583434586E+02  0.56583434586E+02  0.00000000000E+00 0. -1.
         21   -1    0    0  502  503 -0.00000000000E+00 -0.00000000000E+00 -0.69036308962E+02  0.69036308962E+02  0.00000000000E+00 0. -1.
         25    2    1    2    0    0  0.00000000000E+00  0.00000000000E+00 -0.12452874376E+02  0.12561974355E+03  0.12500098355E+03 0.  0.
          4    1    3    3  501    0  0.52502679827E+02  0.28832415047E+02  0.11639907811E+02  0.61038754085E+02  0.15500000000E+01 0. -1.
         -4    1    3    3    0  501 -0.52502679827E+02 -0.28832415047E+02 -0.24092782187E+02  0.64580989462E+02  0.15500000000E+01 0. -1.
<mgrwt>
<rscale>  2 0.12500098E+03</rscale>
<asrwt>0</asrwt>
<pdfrwt beam="1">  1       21 0.87051438E-02 0.12500098E+03</pdfrwt>
<pdfrwt beam="2">  1       21 0.10620971E-01 0.12500098E+03</pdfrwt>
<totfact> 0.73956839E+06</totfact>
</mgrwt>
</event>
<event>
 5    0  0.1374722E+000  0.1250008E+03  0.7546771E-02  0.1235068E+00
         21   -1    0    0  503  502  0.00000000000E+00  0.00000000000E+00  0.33408363507E+03  0.33408363507E+03  0.00000000000E+00 0.  1.
         21   -1    0    0  502  503 -0.00000000000E+00 -0.00000000000E+00 -0.11692577598E+02  0.11692577598E+02  0.00000000000E+00 0.  1.
         25    2    1    2    0    0  0.00000000000E+00  0.00000000000E+00  0.32239105747E+03  0.34577621267E+03  0.12500078124E+03 0.  0.
          4    1    3    3  501    0  0.22048938823E+02 -0.49937164544E+02  0.24528141840E+03  0.25128719192E+03  0.15500000000E+01 0. -1.
         -4    1    3    3    0  501 -0.22048938823E+02  0.49937164544E+02  0.77109639067E+02  0.94489020753E+02  0.15500000000E+01 0. -1.
<mgrwt>
<rscale>  2 0.12500078E+03</rscale>
<asrwt>0</asrwt>
<pdfrwt beam="1">  1       21 0.51397475E-01 0.12500078E+03</pdfrwt>
<pdfrwt beam="2">  1       21 0.17988583E-02 0.12500078E+03</pdfrwt>
<totfact> 0.51850879E+06</totfact>
</mgrwt>
</event>
<event>
 5    0  0.1292541E+000  0.1249901E+03  0.7546771E-02  0.1235085E+00
         21   -1    0    0  503  502  0.00000000000E+00  0.00000000000E+00  0.42380353453E+03  0.42380353453E+03  0.00000000000E+00 0. -1.
         21   -1    0    0  502  503 -0.00000000000E+00 -0.00000000000E+00 -0.92156673166E+01  0.92156673166E+01  0.00000000000E+00 0. -1.
         25    2    1    2    0    0  0.00000000000E+00  0.00000000000E+00  0.41458786721E+03  0.43301920185E+03  0.12499011772E+03 0.  0.
          4    1    3    3  501    0 -0.66884659544E+01 -0.24503160901E+02  0.95455340619E+01  0.27178303691E+02  0.15500000000E+01 0. -1.
         -4    1    3    3    0  501  0.66884659544E+01  0.24503160901E+02  0.40504233315E+03  0.40584089816E+03  0.15500000000E+01 0. -1.
<mgrwt>
<rscale>  2 0.12499012E+03</rscale>
<asrwt>0</asrwt>
<pdfrwt beam="1">  1       21 0.65200528E-01 0.12499012E+03</pdfrwt>
<pdfrwt beam="2">  1       21 0.14177953E-02 0.12499012E+03</pdfrwt>
<totfact> 0.45936992E+06</totfact>
</mgrwt>
</event>
<event>
 5    0  0.1222151E+000  0.1249904E+03  0.7546771E-02  0.1235084E+00
         21   -1    0    0  503  502  0.00000000000E+00  0.00000000000E+00  0.73750590914E+03  0.73750590914E+03  0.00000000000E+00 0.  1.
         21   -1    0    0  502  503 -0.00000000000E+00 -0.00000000000E+00 -0.52957579005E+01  0.52957579005E+01  0.00000000000E+00 0.  1.
         25    2    1    2    0    0  0.00000000000E+00  0.00000000000E+00  0.73221015124E+03  0.74280166704E+03  0.12499044355E+03 0.  0.
          4    1    3    3  501    0 -0.12368756111E+02 -0.29950463205E+02  0.48662813019E+02  0.58484940325E+02  0.15500000000E+01 0.  1.
         -4    1    3    3    0  501  0.12368756111E+02  0.29950463205E+02  0.68354733822E+03  0.68431672671E+03  0.15500000000E+01 0.  1.
<mgrwt>
<rscale>  2 0.12499044E+03</rscale>
<asrwt>0</asrwt>
<pdfrwt beam="1">  1       21 0.11346237E+00 0.12499044E+03</pdfrwt>
<pdfrwt beam="2">  1       21 0.81473257E-03 0.12499044E+03</pdfrwt>
<totfact> 0.31331106E+06</totfact>
</mgrwt>
</event>
<event>
 5    0  0.1545941E+000  0.1250141E+03  0.7546771E-02  0.1235047E+00
         21   -1    0    0  503  502  0.00000000000E+00  0.00000000000E+00  0.56866212458E+02  0.56866212458E+02  0.00000000000E+00 0.  1.
         21   -1    0    0  502  503 -0.00000000000E+00 -0.00000000000E+00 -0.68707475141E+02  0.68707475141E+02  0.00000000000E+00 0.  1.
         25    2    1    2    0    0  0.00000000000E+00  0.00000000000E+00 -0.11841262683E+02  0.12557368760E+03  0.12501414126E+03 0.  0.
          4    1    3    3  501    0  0.24070733840E+02  0.45009696388E+02  0.30288715708E+02  0.59372399276E+02  0.15500000000E+01 0. -1.
         -4    1    3    3    0  501 -0.24070733840E+02 -0.45009696388E+02 -0.42129978391E+02  0.66201288324E+02  0.15500000000E+01 0. -1.
<mgrwt>
<rscale>  2 0.12501414E+03</rscale>
<asrwt>0</asrwt>
<pdfrwt beam="1">  1       21 0.87486481E-02 0.12501414E+03</pdfrwt>
<pdfrwt beam="2">  1       21 0.10570381E-01 0.12501414E+03</pdfrwt>
<totfact> 0.73938448E+06</totfact>
</mgrwt>
</event>
<event>
 5    0  0.1437065E+000  0.1249992E+03  0.7546771E-02  0.1235070E+00
         21   -1    0    0  503  502  0.00000000000E+00  0.00000000000E+00  0.47776102006E+03  0.47776102006E+03  0.00000000000E+00 0.  1.
         21   -1    0    0  502  503 -0.00000000000E+00 -0.00000000000E+00 -0.81760569332E+01  0.81760569332E+01  0.00000000000E+00 0.  1.
         25    2    1    2    0    0  0.00000000000E+00  0.00000000000E+00  0.46958496312E+03  0.48593707699E+03  0.12499922080E+03 0.  0.
          4    1    3    3  501    0  0.93381804617E+01 -0.61405713370E+02  0.26114045391E+03  0.26842988362E+03  0.15500000000E+01 0. -1.
         -4    1    3    3    0  501 -0.93381804617E+01  0.61405713370E+02  0.20844450921E+03  0.21750719337E+03  0.15500000000E+01 0. -1.
<mgrwt>
<rscale>  2 0.12499922E+03</rscale>
<asrwt>0</asrwt>
<pdfrwt beam="1">  1       21 0.73501673E-01 0.12499922E+03</pdfrwt>
<pdfrwt beam="2">  1       21 0.12578553E-02 0.12499922E+03</pdfrwt>
<totfact> 0.42817988E+06</totfact>
</mgrwt>
</event>
<event>
 5    0  0.1355855E+000  0.1250009E+03  0.7546771E-02  0.1235068E+00
         21   -1    0    0  503  502  0.00000000000E+00  0.00000000000E+00  0.47174226777E+03  0.47174226777E+03  0.00000000000E+00 0. -1.
         21   -1    0    0  502  503 -0.00000000000E+00 -0.00000000000E+00 -0.82805940498E+01  0.82805940498E+01  0.00000000000E+00 0. -1.
         25    2    1    2    0    0  0.00000000000E+00  0.00000000000E+00  0.46346167372E+03  0.48002286182E+03  0.12500089945E+03 0.  0.
          4    1    3    3  501    0  0.50368371204E+02 -0.32117119007E+02  0.16140024471E+03  0.17210730270E+03  0.15500000000E+01 0. -1.
         -4    1    3    3    0  501 -0.50368371204E+02  0.32117119007E+02  0.30206142901E+03  0.30791555912E+03  0.15500000000E+01 0. -1.
<mgrwt>
<rscale>  2 0.12500090E+03</rscale>
<asrwt>0</asrwt>
<pdfrwt beam="1">  1       21 0.72575713E-01 0.12500090E+03</pdfrwt>
<pdfrwt beam="2">  1       21 0.12739379E-02 0.12500090E+03</pdfrwt>
<totfact> 0.43147658E+06</totfact>
</mgrwt>
</event>
<event>
 5    0  0.1475029E+000  0.1250407E+03  0.7546771E-02  0.1235006E+00
         21   -1    0    0  503  502  0.00000000000E+00  0.00000000000E+00  0.80201778118E+02  0.80201778118E+02  0.00000000000E+00 0.  1.
         21   -1    0    0  502  503 -0.00000000000E+00 -0.00000000000E+00 -0.48736967585E+02  0.48736967585E+02  0.00000000000E+00 0.  1.
         25    2    1    2    0    0  0.00000000000E+00  0.00000000000E+00  0.31464810533E+02  0.12893874570E+03  0.12504065675E+03 0.  0.
          4    1    3    3  501    0  0.10652986007E+02  0.32404530652E+02 -0.38272494452E+02  0.51290603908E+02  0.15500000000E+01 0.  1.
         -4    1    3    3    0  501 -0.10652986007E+02 -0.32404530652E+02  0.69737304985E+02  0.77648141795E+02  0.15500000000E+01 0.  1.
<mgrwt>
<rscale>  2 0.12504066E+03</rscale>
<asrwt>0</asrwt>
<pdfrwt beam="1">  1       21 0.12338735E-01 0.12504066E+03</pdfrwt>
<pdfrwt beam="2">  1       21 0.74979950E-02 0.12504066E+03</pdfrwt>
<totfact> 0.73430859E+06</totfact>
</mgrwt>
</event>
<event>
 5    0  0.1618706E+000  0.1250112E+03  0.7546771E-02  0.1235052E+00
         21   -1    0    0  503  502  0.00000000000E+00  0.00000000000E+00  0.89974377715E+02  0.89974377715E+02  0.00000000000E+00 0.  1.
         21   -1    0    0  502  503 -0.00000000000E+00 -0.00000000000E+00 -0.43422949572E+02  0.43422949572E+02  0.00000000000E+00 0.  1.
         25    2    1    2    0    0  0.00000000000E+00  0.00000000000E+00  0.46551428143E+02  0.13339732729E+03  0.12501124535E+03 0.  0.
          4    1    3    3  501    0  0.28031948754E+02  0.55479218238E+02  0.30093074283E+02  0.69077705716E+02  0.15500000000E+01 0.  1.
         -4    1    3    3    0  501 -0.28031948754E+02 -0.55479218238E+02  0.16458353860E+02  0.64319621571E+02  0.15500000000E+01 0.  1.
<mgrwt>
<rscale>  2 0.12501125E+03</rscale>
<asrwt>0</asrwt>
<pdfrwt beam="1">  1       21 0.13842212E-01 0.12501125E+03</pdfrwt>
<pdfrwt beam="2">  1       21 0.66804538E-02 0.12501125E+03</pdfrwt>
<totfact> 0.72888477E+06</totfact>
</mgrwt>
</event>
<event>
 4    0  0.1469638E+000  0.1251489E+03  0.7546771E-02  0.1234837E+00
         21   -1    0    0  503  502  0.00000000000E+00  0.00000000000E+00  0.11800176061E+03  0.11800176061E+03  0.00000000000E+00 0.  1.
         21   -1    0    0  502  503 -0.00000000000E+00 -0.00000000000E+00 -0.33182210091E+02  0.33182210091E+02  0.00000000000E+00 0.  1.
          4    1    1    2  501    0  0.41882816533E+02 -0.41278840992E+02  0.16640310624E+02  0.61134404978E+02  0.15500000000E+01 0. -1.
         -4    1    1    2    0  501 -0.41882816533E+02  0.41278840992E+02  0.68179239900E+02  0.90049565728E+02  0.15500000000E+01 0. -1.
<mgrwt>
<rscale>  2 0.12514886E+03</rscale>
<asrwt>0</asrwt>
<pdfrwt beam="1">  1       21 0.18154117E-01 0.12514886E+03</pdfrwt>
<pdfrwt beam="2">  1       21 0.51049554E-02 0.12514886E+03</pdfrwt>
<totfact> 0.70343905E+06</totfact>
</mgrwt>
</event>
<event>
 5    0  0.1357184E+000  0.1249952E+03  0.7546771E-02  0.1235077E+00
         21   -1    0    0  503  502  0.00000000000E+00  0.00000000000E+00  0.67961458905E+01  0.67961458905E+01  0.00000000000E+00 0.  1.
         21   -1    0    0  502  503 -0.00000000000E+00 -0.00000000000E+00 -0.57473014656E+03  0.57473014656E+03  0.00000000000E+00 0.  1.
         25    2    1    2    0    0  0.00000000000E+00  0.00000000000E+00 -0.56793400067E+03  0.58152629245E+03  0.12499519869E+03 0.  0.
          4    1    3    3  501    0 -0.56638711562E+02  0.26370561690E+02 -0.28190073006E+03  0.28874517187E+03  0.15500000000E+01 0.  1.
         -4    1    3    3    0  501  0.56638711562E+02 -0.26370561690E+02 -0.28603327061E+03  0.29278112058E+03  0.15500000000E+01 0.  1.
<mgrwt>
<rscale>  2 0.12499520E+03</rscale>
<asrwt>0</asrwt>
<pdfrwt beam="1">  1       21 0.10455612E-02 0.12499520E+03</pdfrwt>
<pdfrwt beam="2">  1       21 0.88419999E-01 0.12499520E+03</pdfrwt>
<totfact> 0.37946166E+06</totfact>
</mgrwt>
</event>
<event>
 5    0  0.1222151E+000  0.1249895E+03  0.7546771E-02  0.1235086E+00
         21   -1    0    0  503  502  0.00000000000E+00  0.00000000000E+00  0.63788152038E+03  0.63788152038E+03  0.00000000000E+00 0. -1.
         21   -1    0    0  502  503 -0.00000000000E+00 -0.00000000000E+00 -0.61227533386E+01  0.61227533386E+01  0.00000000000E+00 0. -1.
         25    2    1    2    0    0  0.00000000000E+00  0.00000000000E+00  0.63175876704E+03  0.64400427372E+03  0.12498945889E+03 0.  0.
          4    1    3    3  501    0 -0.17001098907E+02  0.48963528214E+02  0.49560560476E+03  0.49831092947E+03  0.15500000000E+01 0. -1.
         -4    1    3    3    0  501  0.17001098907E+02 -0.48963528214E+02  0.13615316228E+03  0.14569334425E+03  0.15500000000E+01 0. -1.
<mgrwt>
<rscale>  2 0.12498946E+03</rscale>
<asrwt>0</asrwt>
<pdfrwt beam="1">  1       21 0.98135566E-01 0.12498946E+03</pdfrwt>
<pdfrwt beam="2">  1       21 0.94196255E-03 0.12498946E+03</pdfrwt>
<totfact> 0.35184341E+06</totfact>
</mgrwt>
</event>
<event>
 5    0  0.1222151E+000  0.1250034E+03  0.7546771E-02  0.1235064E+00
         21   -1    0    0  503  502  0.00000000000E+00  0.00000000000E+00  0.69849282006E+03  0.69849282006E+03  0.00000000000E+00 0. -1.
         21   -1    0    0  502  503 -0.00000000000E+00 -0.00000000000E+00 -0.55927022903E+01  0.55927022903E+01  0.00000000000E+00 0. -1.
         25    2    1    2    0    0  0.00000000000E+00  0.00000000000E+00  0.69290011777E+03  0.70408552235E+03  0.12500339827E+03 0.  0.
          4    1    3    3  501    0  0.26379580097E+02 -0.10971130774E+00  0.66548039713E+03  0.66600484664E+03  0.15500000000E+01 0. -1.
         -4    1    3    3    0  501 -0.26379580097E+02  0.10971130774E+00  0.27419720640E+02  0.38080675711E+02  0.15500000000E+01 0. -1.
<mgrwt>
<rscale>  2 0.12500340E+03</rscale>
<asrwt>0</asrwt>
<pdfrwt beam="1">  1       21 0.10746037E+00 0.12500340E+03</pdfrwt>
<pdfrwt beam="2">  1       21 0.86041629E-03 0.12500340E+03</pdfrwt>
<totfact> 0.32750481E+06</totfact>
</mgrwt>
</event>
<event>
 5    0  0.1621539E+000  0.1250193E+03  0.7546771E-02  0.1235039E+00
         21   -1    0    0  503  502  0.00000000000E+00  0.00000000000E+00  0.12183218258E+03  0.12183218258E+03  0.00000000000E+00 0.  1.
         21   -1    0    0  502  503 -0.00000000000E+00 -0.00000000000E+00 -0.32072444685E+02  0.32072444685E+02  0.00000000000E+00 0.  1.
         25    2    1    2    0    0  0.00000000000E+00  0.00000000000E+00  0.89759737893E+02  0.15390462726E+03  0.12501929350E+03 0.  0.
          4    1    3    3  501    0 -0.15128735361E+02  0.59591717264E+02  0.58643505035E+02  0.84979495073E+02  0.15500000000E+01 0. -1.
         -4    1    3    3    0  501  0.15128735361E+02 -0.59591717264E+02  0.31116232858E+02  0.68925132189E+02  0.15500000000E+01 0. -1.
<mgrwt>
<rscale>  2 0.12501929E+03</rscale>
<asrwt>0</asrwt>
<pdfrwt beam="1">  1       21 0.18743412E-01 0.12501929E+03</pdfrwt>
<pdfrwt beam="2">  1       21 0.49342223E-02 0.12501929E+03</pdfrwt>
<totfact> 0.70237576E+06</totfact>
</mgrwt>
</event>
<event>
 5    0  0.1222151E+000  0.1250007E+03  0.7546771E-02  0.1235068E+00
         21   -1    0    0  503  502  0.00000000000E+00  0.00000000000E+00  0.99871886514E+02  0.99871886514E+02  0.00000000000E+00 0.  1.
         21   -1    0    0  502  503 -0.00000000000E+00 -0.00000000000E+00 -0.39113044796E+02  0.39113044796E+02  0.00000000000E+00 0.  1.
         25    2    1    2    0    0  0.00000000000E+00  0.00000000000E+00  0.60758841719E+02  0.13898493131E+03  0.12500069713E+03 0.  0.
          4    1    3    3  501    0  0.23681544869E+02  0.28786164464E+01  0.94587468769E+02  0.97561743261E+02  0.15500000000E+01 0. -1.
         -4    1    3    3    0  501 -0.23681544869E+02 -0.28786164464E+01 -0.33828627050E+02  0.41423188049E+02  0.15500000000E+01 0. -1.
<mgrwt>
<rscale>  2 0.12500070E+03</rscale>
<asrwt>0</asrwt>
<pdfrwt beam="1">  1       21 0.15364905E-01 0.12500070E+03</pdfrwt>
<pdfrwt beam="2">  1       21 0.60173916E-02 0.12500070E+03</pdfrwt>
<totfact> 0.72170820E+06</totfact>
</mgrwt>
</event>
<event>
 5    0  0.1427748E+000  0.1249989E+03  0.7546771E-02  0.1235071E+00
         21   -1    0    0  503  502  0.00000000000E+00  0.00000000000E+00  0.24855832127E+03  0.24855832127E+03  0.00000000000E+00 0.  1.
         21   -1    0    0  502  503 -0.00000000000E+00 -0.00000000000E+00 -0.15715344678E+02  0.15715344678E+02  0.00000000000E+00 0.  1.
         25    2    1    2    0    0  0.00000000000E+00  0.00000000000E+00  0.23284297659E+03  0.26427366595E+03  0.12499887506E+03 0.  0.
          4    1    3    3  501    0  0.17412055439E+01  0.27817230106E+02 -0.18031657918E+01  0.27972915371E+02  0.15500000000E+01 0. -1.
         -4    1    3    3    0  501 -0.17412055439E+01 -0.27817230106E+02  0.23464614238E+03  0.23630075058E+03  0.15500000000E+01 0. -1.
<mgrwt>
<rscale>  2 0.12499888E+03</rscale>
<asrwt>0</asrwt>
<pdfrwt beam="1">  1       21 0.38239739E-01 0.12499888E+03</pdfrwt>
<pdfrwt beam="2">  1       21 0.24177455E-02 0.12499888E+03</pdfrwt>
<totfact> 0.58561429E+06</totfact>
</mgrwt>
</event>
<event>
 5    0  0.1283363E+000  0.1249974E+03  0.7546771E-02  0.1235073E+00
         21   -1    0    0  503  502  0.00000000000E+00  0.00000000000E+00  0.82217881467E+01  0.82217881467E+01  0.00000000000E+00 0.  1.
         21   -1    0    0  502  503 -0.00000000000E+00 -0.00000000000E+00 -0.47508975720E+03  0.47508975720E+03  0.00000000000E+00 0.  1.
         25    2    1    2    0    0  0.00000000000E+00  0.00000000000E+00 -0.46686796906E+03  0.48331154535E+03  0.12499739732E+03 0.  0.
          4    1    3    3  501    0 -0.96821143980E+01 -0.30322914597E+02 -0.25555349036E+02  0.40849735045E+02  0.15500000000E+01 0.  1.
         -4    1    3    3    0  501  0.96821143980E+01  0.30322914597E+02 -0.44131262002E+03  0.44246181030E+03  0.15500000000E+01 0.  1.
<mgrwt>
<rscale>  2 0.12499740E+03</rscale>
<asrwt>0</asrwt>
<pdfrwt beam="1">  1       21 0.12648900E-02 0.12499740E+03</pdfrwt>
<pdfrwt beam="2">  1       21 0.73090760E-01 0.12499740E+03</pdfrwt>
<totfact> 0.42966604E+06</totfact>
</mgrwt>
</event>
<event>
 5    0  0.1589330E+000  0.1249989E+03  0.7546771E-02  0.1235071E+00
         21   -1    0    0  503  502  0.00000000000E+00  0.00000000000E+00  0.37602267406E+02  0.37602267406E+02  0.00000000000E+00 0.  1.
         21   -1    0    0  502  503 -0.00000000000E+00 -0.00000000000E+00 -0.10388161612E+03  0.10388161612E+03  0.00000000000E+00 0.  1.
         25    2    1    2    0    0  0.00000000000E+00  0.00000000000E+00 -0.66279348714E+02  0.14148388353E+03  0.12499894892E+03 0.  0.
          4    1    3    3  501    0  0.39977195552E+02  0.47058683530E+02 -0.22337123923E+02  0.65681393598E+02  0.15500000000E+01 0. -1.
         -4    1    3    3    0  501 -0.39977195552E+02 -0.47058683530E+02 -0.43942224790E+02  0.75802489928E+02  0.15500000000E+01 0. -1.
<mgrwt>
<rscale>  2 0.12499895E+03</rscale>
<asrwt>0</asrwt>
<pdfrwt beam="1">  1       21 0.57849642E-02 0.12499895E+03</pdfrwt>
<pdfrwt beam="2">  1       21 0.15981787E-01 0.12499895E+03</pdfrwt>
<totfact> 0.71848102E+06</totfact>
</mgrwt>
</event>
<event>
 5    0  0.1491908E+000  0.1250043E+03  0.7546771E-02  0.1235063E+00
         21   -1    0    0  503  502  0.00000000000E+00  0.00000000000E+00  0.93808121472E+02  0.93808121472E+02  0.00000000000E+00 0. -1.
         21   -1    0    0  502  503 -0.00000000000E+00 -0.00000000000E+00 -0.41643686697E+02  0.41643686697E+02  0.00000000000E+00 0. -1.
         25    2    1    2    0    0  0.00000000000E+00  0.00000000000E+00  0.52164434775E+02  0.13545180817E+03  0.12500425625E+03 0.  0.
          4    1    3    3  501    0 -0.29777451530E+02  0.50086742848E+02  0.16419555664E+01  0.58313608590E+02  0.15500000000E+01 0. -1.
         -4    1    3    3    0  501  0.29777451530E+02 -0.50086742848E+02  0.50522479208E+02  0.77138199578E+02  0.15500000000E+01 0. -1.
<mgrwt>
<rscale>  2 0.12500426E+03</rscale>
<asrwt>0</asrwt>
<pdfrwt beam="1">  1       21 0.14432019E-01 0.12500426E+03</pdfrwt>
<pdfrwt beam="2">  1       21 0.64067210E-02 0.12500426E+03</pdfrwt>
<totfact> 0.72628820E+06</totfact>
</mgrwt>
</event>
<event>
 5    0  0.1558981E+000  0.1250031E+03  0.7546771E-02  0.1235064E+00
         21   -1    0    0  503  502  0.00000000000E+00  0.00000000000E+00  0.19032353313E+02  0.19032353313E+02  0.00000000000E+00 0.  1.
         21   -1    0    0  502  503 -0.00000000000E+00 -0.00000000000E+00 -0.20525278463E+03  0.20525278463E+03  0.00000000000E+00 0.  1.
         25    2    1    2    0    0  0.00000000000E+00  0.00000000000E+00 -0.18622043132E+03  0.22428513795E+03  0.12500309621E+03 0.  0.
          4    1    3    3  501    0  0.30434880330E+02 -0.53234479690E+02 -0.71590648959E+02  0.94275210352E+02  0.15500000000E+01 0. -1.
         -4    1    3    3    0  501 -0.30434880330E+02  0.53234479690E+02 -0.11462978236E+03  0.13000992759E+03  0.15500000000E+01 0. -1.
<mgrwt>
<rscale>  2 0.12500310E+03</rscale>
<asrwt>0</asrwt>
<pdfrwt beam="1">  1       21 0.29280544E-02 0.12500310E+03</pdfrwt>
<pdfrwt beam="2">  1       21 0.31577350E-01 0.12500310E+03</pdfrwt>
<totfact> 0.62382324E+06</totfact>
</mgrwt>
</event>
<event>
 4    0  0.2019756E+000  0.1247822E+03  0.7546771E-02  0.1235410E+00
         21   -1    0    0  503  502  0.00000000000E+00  0.00000000000E+00  0.48861506730E+02  0.48861506730E+02  0.00000000000E+00 0. -1.
         21   -1    0    0  502  503 -0.00000000000E+00 -0.00000000000E+00 -0.79666931239E+02  0.79666931239E+02  0.00000000000E+00 0. -1.
          4    1    1    2  501    0 -0.69322830991E+01 -0.52831774404E+02 -0.48795004444E+02  0.72267613039E+02  0.15500000000E+01 0.  1.
         -4    1    1    2    0  501  0.69322830991E+01  0.52831774404E+02  0.17989579934E+02  0.56260824930E+02  0.15500000000E+01 0.  1.
<mgrwt>
<rscale>  2 0.12478215E+03</rscale>
<asrwt>0</asrwt>
<pdfrwt beam="1">  1       21 0.75171550E-02 0.12478215E+03</pdfrwt>
<pdfrwt beam="2">  1       21 0.12256451E-01 0.12478215E+03</pdfrwt>
<totfact> 0.73972903E+06</totfact>
</mgrwt>
</event>
<event>
 5    0  0.1503146E+000  0.1250016E+03  0.7546771E-02  0.1235067E+00
         21   -1    0    0  503  502  0.00000000000E+00  0.00000000000E+00  0.22810502915E+03  0.22810502915E+03  0.00000000000E+00 0. -1.
         21   -1    0    0  502  503 -0.00000000000E+00 -0.00000000000E+00 -0.17125223326E+02  0.17125223326E+02  0.00000000000E+00 0. -1.
         25    2    1    2    0    0  0.00000000000E+00  0.00000000000E+00  0.21097980583E+03  0.24523025248E+03  0.12500159305E+03 0.  0.
          4    1    3    3  501    0  0.57766688105E+02 -0.23591129410E+02  0.99158543244E+02  0.11716804530E+03  0.15500000000E+01 0. -1.
         -4    1    3    3    0  501 -0.57766688105E+02  0.23591129410E+02  0.11182126258E+03  0.12806220718E+03  0.15500000000E+01 0. -1.
<mgrwt>
<rscale>  2 0.12500159E+03</rscale>
<asrwt>0</asrwt>
<pdfrwt beam="1">  1       21 0.35093079E-01 0.12500159E+03</pdfrwt>
<pdfrwt beam="2">  1       21 0.26346499E-02 0.12500159E+03</pdfrwt>
<totfact> 0.60327761E+06</totfact>
</mgrwt>
</event>
<event>
 5    0  0.1222151E+000  0.1250014E+03  0.7546771E-02  0.1235067E+00
         21   -1    0    0  503  502  0.00000000000E+00  0.00000000000E+00  0.14455037650E+04  0.14455037650E+04  0.00000000000E+00 0. -1.
         21   -1    0    0  502  503 -0.00000000000E+00 -0.00000000000E+00 -0.27024073722E+01  0.27024073722E+01  0.00000000000E+00 0. -1.
         25    2    1    2    0    0  0.00000000000E+00  0.00000000000E+00  0.14428013577E+04  0.14482061724E+04  0.12500144049E+03 0.  0.
          4    1    3    3  501    0  0.36640030055E+02 -0.26395815315E+02  0.22111204325E+03  0.22568156557E+03  0.15500000000E+01 0.  1.
         -4    1    3    3    0  501 -0.36640030055E+02  0.26395815315E+02  0.12216893144E+04  0.12225246068E+04  0.15500000000E+01 0.  1.
<mgrwt>
<rscale>  2 0.12500144E+03</rscale>
<asrwt>0</asrwt>
<pdfrwt beam="1">  1       21 0.22238458E+00 0.12500144E+03</pdfrwt>
<pdfrwt beam="2">  1       21 0.41575614E-03 0.12500144E+03</pdfrwt>
<totfact> 0.14778023E+06</totfact>
</mgrwt>
</event>
<event>
 5    0  0.1441179E+000  0.1250011E+03  0.7546771E-02  0.1235068E+00
         21   -1    0    0  503  502  0.00000000000E+00  0.00000000000E+00  0.57542878013E+02  0.57542878013E+02  0.00000000000E+00 0.  1.
         21   -1    0    0  502  503 -0.00000000000E+00 -0.00000000000E+00 -0.67885355195E+02  0.67885355195E+02  0.00000000000E+00 0.  1.
         25    2    1    2    0    0  0.00000000000E+00  0.00000000000E+00 -0.10342477182E+02  0.12542823321E+03  0.12500109940E+03 0.  0.
          4    1    3    3  501    0 -0.16944460453E+02  0.22970461143E+02  0.50598888019E+02  0.58115460885E+02  0.15500000000E+01 0.  1.
         -4    1    3    3    0  501  0.16944460453E+02 -0.22970461143E+02 -0.60941365201E+02  0.67312772322E+02  0.15500000000E+01 0.  1.
<mgrwt>
<rscale>  2 0.12500110E+03</rscale>
<asrwt>0</asrwt>
<pdfrwt beam="1">  1       21 0.88527504E-02 0.12500110E+03</pdfrwt>
<pdfrwt beam="2">  1       21 0.10443901E-01 0.12500110E+03</pdfrwt>
<totfact> 0.73983375E+06</totfact>
</mgrwt>
</event>
<event>
 5    0  0.1596703E+000  0.1249957E+03  0.7546771E-02  0.1235076E+00
         21   -1    0    0  503  502  0.00000000000E+00  0.00000000000E+00  0.64002337587E+02  0.64002337587E+02  0.00000000000E+00 0.  1.
         21   -1    0    0  502  503 -0.00000000000E+00 -0.00000000000E+00 -0.61028772292E+02  0.61028772292E+02  0.00000000000E+00 0.  1.
         25    2    1    2    0    0  0.00000000000E+00  0.00000000000E+00  0.29735652947E+01  0.12503110988E+03  0.12499574532E+03 0.  0.
          4    1    3    3  501    0 -0.58622164854E+02  0.14991013564E+02  0.17056946688E+02  0.62885853975E+02  0.15500000000E+01 0. -1.
         -4    1    3    3    0  501  0.58622164854E+02 -0.14991013564E+02 -0.14083381394E+02  0.62145255904E+02  0.15500000000E+01 0. -1.
<mgrwt>
<rscale>  2 0.12499575E+03</rscale>
<asrwt>0</asrwt>
<pdfrwt beam="1">  1       21 0.98465135E-02 0.12499575E+03</pdfrwt>
<pdfrwt beam="2">  1       21 0.93890419E-02 0.12499575E+03</pdfrwt>
<totfact> 0.74047434E+06</totfact>
</mgrwt>
</event>
<event>
 5    0  0.1486415E+000  0.1249949E+03  0.7546771E-02  0.1235077E+00
         21   -1    0    0  503  502  0.00000000000E+00  0.00000000000E+00  0.27754527157E+02  0.27754527157E+02  0.00000000000E+00 0.  1.
         21   -1    0    0  502  503 -0.00000000000E+00 -0.00000000000E+00 -0.14073141581E+03  0.14073141581E+03  0.00000000000E+00 0.  1.
         25    2    1    2    0    0  0.00000000000E+00  0.00000000000E+00 -0.11297688865E+03  0.16848594297E+03  0.12499494233E+03 0.  0.
          4    1    3    3  501    0 -0.27221582026E+02  0.17840975735E+02  0.15398919014E+02  0.36039480435E+02  0.15500000000E+01 0. -1.
         -4    1    3    3    0  501  0.27221582026E+02 -0.17840975735E+02 -0.12837580767E+03  0.13244646253E+03  0.15500000000E+01 0. -1.
<mgrwt>
<rscale>  2 0.12499494E+03</rscale>
<asrwt>0</asrwt>
<pdfrwt beam="1">  1       21 0.42699271E-02 0.12499494E+03</pdfrwt>
<pdfrwt beam="2">  1       21 0.21650988E-01 0.12499494E+03</pdfrwt>
<totfact> 0.68505985E+06</totfact>
</mgrwt>
</event>
<event>
 5    0  0.1281312E+000  0.1250007E+03  0.7546771E-02  0.1235068E+00
         21   -1    0    0  503  502  0.00000000000E+00  0.00000000000E+00  0.55951969753E+03  0.55951969753E+03  0.00000000000E+00 0. -1.
         21   -1    0    0  502  503 -0.00000000000E+00 -0.00000000000E+00 -0.69815161276E+01  0.69815161276E+01  0.00000000000E+00 0. -1.
         25    2    1    2    0    0  0.00000000000E+00  0.00000000000E+00  0.55253818140E+03  0.56650121366E+03  0.12500073267E+03 0.  0.
          4    1    3    3  501    0  0.31215158405E+02  0.24690157351E+02  0.49455375647E+03  0.49615502671E+03  0.15500000000E+01 0.  1.
         -4    1    3    3    0  501 -0.31215158405E+02 -0.24690157351E+02  0.57984424931E+02  0.70346186953E+02  0.15500000000E+01 0.  1.
<mgrwt>
<rscale>  2 0.12500073E+03</rscale>
<asrwt>0</asrwt>
<pdfrwt beam="1">  1       21 0.86079918E-01 0.12500073E+03</pdfrwt>
<pdfrwt beam="2">  1       21 0.10740798E-02 0.12500073E+03</pdfrwt>
<totfact> 0.38652068E+06</totfact>
</mgrwt>
</event>
<event>
 5    0  0.1435554E+000  0.1249990E+03  0.7546771E-02  0.1235071E+00
         21   -1    0    0  503  502  0.00000000000E+00  0.00000000000E+00  0.20052039513E+03  0.20052039513E+03  0.00000000000E+00 0.  1.
         21   -1    0    0  502  503 -0.00000000000E+00 -0.00000000000E+00 -0.19480245473E+02  0.19480245473E+02  0.00000000000E+00 0.  1.
         25    2    1    2    0    0  0.00000000000E+00  0.00000000000E+00  0.18104014966E+03  0.22000064060E+03  0.12499898431E+03 0.  0.
          4    1    3    3  501    0 -0.34373471892E+02 -0.31527404108E+02  0.17351699344E+02  0.49789524499E+02  0.15500000000E+01 0.  1.
         -4    1    3    3    0  501  0.34373471892E+02  0.31527404108E+02  0.16368845031E+03  0.17021111610E+03  0.15500000000E+01 0.  1.
<mgrwt>
<rscale>  2 0.12499898E+03</rscale>
<asrwt>0</asrwt>
<pdfrwt beam="1">  1       21 0.30849290E-01 0.12499898E+03</pdfrwt>
<pdfrwt beam="2">  1       21 0.29969610E-02 0.12499898E+03</pdfrwt>
<totfact> 0.62824083E+06</totfact>
</mgrwt>
</event>
<event>
 5    0  0.1556916E+000  0.1250007E+03  0.7546771E-02  0.1235068E+00
         21   -1    0    0  503  502  0.00000000000E+00  0.00000000000E+00  0.36346023847E+02  0.36346023847E+02  0.00000000000E+00 0.  1.
         21   -1    0    0  502  503 -0.00000000000E+00 -0.00000000000E+00 -0.10747505872E+03  0.10747505872E+03  0.00000000000E+00 0.  1.
         25    2    1    2    0    0  0.00000000000E+00  0.00000000000E+00 -0.71129034876E+02  0.14382108257E+03  0.12500065676E+03 0.  0.
          4    1    3    3  501    0 -0.51167609406E+01 -0.61752042509E+02 -0.44797203602E+02  0.76476715064E+02  0.15500000000E+01 0.  1.
         -4    1    3    3    0  501  0.51167609406E+01  0.61752042509E+02 -0.26331831275E+02  0.67344367506E+02  0.15500000000E+01 0.  1.
<mgrwt>
<rscale>  2 0.12500066E+03</rscale>
<asrwt>0</asrwt>
<pdfrwt beam="1">  1       21 0.55916960E-02 0.12500066E+03</pdfrwt>
<pdfrwt beam="2">  1       21 0.16534624E-01 0.12500066E+03</pdfrwt>
<totfact> 0.71543118E+06</totfact>
</mgrwt>
</event>
<event>
 5    0  0.1584947E+000  0.1250050E+03  0.7546771E-02  0.1235061E+00
         21   -1    0    0  503  502  0.00000000000E+00  0.00000000000E+00  0.96281702719E+02  0.96281702719E+02  0.00000000000E+00 0.  1.
         21   -1    0    0  502  503 -0.00000000000E+00 -0.00000000000E+00 -0.40574292404E+02  0.40574292404E+02  0.00000000000E+00 0.  1.
         25    2    1    2    0    0  0.00000000000E+00  0.00000000000E+00  0.55707410315E+02  0.13685599512E+03  0.12500499125E+03 0.  0.
          4    1    3    3  501    0  0.51466017353E+02 -0.35145304752E+02  0.32776195228E+02  0.70431703529E+02  0.15500000000E+01 0.  1.
         -4    1    3    3    0  501 -0.51466017353E+02  0.35145304752E+02  0.22931215087E+02  0.66424291593E+02  0.15500000000E+01 0.  1.
<mgrwt>
<rscale>  2 0.12500499E+03</rscale>
<asrwt>0</asrwt>
<pdfrwt beam="1">  1       21 0.14812570E-01 0.12500499E+03</pdfrwt>
<pdfrwt beam="2">  1       21 0.62421989E-02 0.12500499E+03</pdfrwt>
<totfact> 0.72442426E+06</totfact>
</mgrwt>
</event>
<event>
 5    0  0.1322688E+000  0.1250008E+03  0.7546771E-02  0.1235068E+00
         21   -1    0    0  503  502  0.00000000000E+00  0.00000000000E+00  0.11262590633E+02  0.11262590633E+02  0.00000000000E+00 0. -1.
         21   -1    0    0  502  503 -0.00000000000E+00 -0.00000000000E+00 -0.34683845367E+03  0.34683845367E+03  0.00000000000E+00 0. -1.
         25    2    1    2    0    0  0.00000000000E+00  0.00000000000E+00 -0.33557586304E+03  0.35810104431E+03  0.12500079231E+03 0.  0.
          4    1    3    3  501    0  0.30493411250E+02  0.32149742170E+02 -0.41592607465E+02  0.60793104436E+02  0.15500000000E+01 0. -1.
         -4    1    3    3    0  501 -0.30493411250E+02 -0.32149742170E+02 -0.29398325558E+03  0.29730793987E+03  0.15500000000E+01 0. -1.
<mgrwt>
<rscale>  2 0.12500079E+03</rscale>
<asrwt>0</asrwt>
<pdfrwt beam="1">  1       21 0.17327061E-02 0.12500079E+03</pdfrwt>
<pdfrwt beam="2">  1       21 0.53359767E-01 0.12500079E+03</pdfrwt>
<totfact> 0.50944643E+06</totfact>
</mgrwt>
</event>
<event>
 5    0  0.1222151E+000  0.1250102E+03  0.7546771E-02  0.1235053E+00
         21   -1    0    0  503  502  0.00000000000E+00  0.00000000000E+00  0.11056975795E+04  0.11056975795E+04  0.00000000000E+00 0.  1.
         21   -1    0    0  502  503 -0.00000000000E+00 -0.00000000000E+00 -0.35334140646E+01  0.35334140646E+01  0.00000000000E+00 0.  1.
         25    2    1    2    0    0  0.00000000000E+00  0.00000000000E+00  0.11021641655E+04  0.11092309936E+04  0.12501019764E+03 0.  0.
          4    1    3    3  501    0  0.33285804852E+02 -0.44051837612E+02  0.29148054167E+03  0.29666785784E+03  0.15500000000E+01 0. -1.
         -4    1    3    3    0  501 -0.33285804852E+02  0.44051837612E+02  0.81068362381E+03  0.81256313577E+03  0.15500000000E+01 0. -1.
<mgrwt>
<rscale>  2 0.12501020E+03</rscale>
<asrwt>0</asrwt>
<pdfrwt beam="1">  1       21 0.17010704E+00 0.12501020E+03</pdfrwt>
<pdfrwt beam="2">  1       21 0.54360304E-03 0.12501020E+03</pdfrwt>
<totfact> 0.21042001E+06</totfact>
</mgrwt>
</event>
<event>
 5    0  0.1512665E+000  0.1249852E+03  0.7546771E-02  0.1235092E+00
         21   -1    0    0  503  502  0.00000000000E+00  0.00000000000E+00  0.28631118563E+02  0.28631118563E+02  0.00000000000E+00 0. -1.
         21   -1    0    0  502  503 -0.00000000000E+00 -0.00000000000E+00 -0.13640133258E+03  0.13640133258E+03  0.00000000000E+00 0. -1.
         25    2    1    2    0    0  0.00000000000E+00  0.00000000000E+00 -0.10777021402E+03  0.16503245114E+03  0.12498516272E+03 0.  0.
          4    1    3    3  501    0 -0.11220736394E+02 -0.34496526213E+02  0.13274712824E+02  0.38659225892E+02  0.15500000000E+01 0.  1.
         -4    1    3    3    0  501  0.11220736394E+02  0.34496526213E+02 -0.12104492684E+03  0.12637322525E+03  0.15500000000E+01 0.  1.
<mgrwt>
<rscale>  2 0.12498516E+03</rscale>
<asrwt>0</asrwt>
<pdfrwt beam="1">  1       21 0.44047875E-02 0.12498516E+03</pdfrwt>
<pdfrwt beam="2">  1       21 0.20984820E-01 0.12498516E+03</pdfrwt>
<totfact> 0.68935741E+06</totfact>
</mgrwt>
</event>
<event>
 5    0  0.1354205E+000  0.1250025E+03  0.7546771E-02  0.1235065E+00
         21   -1    0    0  503  502  0.00000000000E+00  0.00000000000E+00  0.29147861986E+03  0.29147861986E+03  0.00000000000E+00 0.  1.
         21   -1    0    0  502  503 -0.00000000000E+00 -0.00000000000E+00 -0.13402031446E+02  0.13402031446E+02  0.00000000000E+00 0.  1.
         25    2    1    2    0    0  0.00000000000E+00  0.00000000000E+00  0.27807658841E+03  0.30488065130E+03  0.12500249004E+03 0.  0.
          4    1    3    3  501    0  0.25631648982E+02  0.18301934986E+02  0.27065512344E+03  0.27248585394E+03  0.15500000000E+01 0.  1.
         -4    1    3    3    0  501 -0.25631648982E+02 -0.18301934986E+02  0.74214649701E+01  0.32394797361E+02  0.15500000000E+01 0.  1.
<mgrwt>
<rscale>  2 0.12500249E+03</rscale>
<asrwt>0</asrwt>
<pdfrwt beam="1">  1       21 0.44842860E-01 0.12500249E+03</pdfrwt>
<pdfrwt beam="2">  1       21 0.20618512E-02 0.12500249E+03</pdfrwt>
<totfact> 0.55049555E+06</totfact>
</mgrwt>
</event>
<event>
 5    0  0.1222151E+000  0.1249432E+03  0.7546771E-02  0.1235158E+00
         21   -1    0    0  503  502  0.00000000000E+00  0.00000000000E+00  0.26676205649E+01  0.26676205649E+01  0.00000000000E+00 0.  1.
         21   -1    0    0  502  503 -0.00000000000E+00 -0.00000000000E+00 -0.14629890286E+04  0.14629890286E+04  0.00000000000E+00 0.  1.
         25    2    1    2    0    0  0.00000000000E+00  0.00000000000E+00 -0.14603214080E+04  0.14656566491E+04  0.12494318099E+03 0.  0.
          4    1    3    3  501    0  0.52038307527E+02  0.31563897345E+02 -0.56591908100E+03  0.56918456919E+03  0.15500000000E+01 0.  1.
         -4    1    3    3    0  501 -0.52038307527E+02 -0.31563897345E+02 -0.89440232699E+03  0.89647207993E+03  0.15500000000E+01 0.  1.
<mgrwt>
<rscale>  2 0.12494318E+03</rscale>
<asrwt>0</asrwt>
<pdfrwt beam="1">  1       21 0.41040231E-03 0.12494318E+03</pdfrwt>
<pdfrwt beam="2">  1       21 0.22507570E+00 0.12494318E+03</pdfrwt>
<totfact> 0.14530280E+06</totfact>
</mgrwt>
</event>
<event>
 5    0  0.1511784E+000  0.1250046E+03  0.7546771E-02  0.1235062E+00
         21   -1    0    0  503  502  0.00000000000E+00  0.00000000000E+00  0.75977612728E+02  0.75977612728E+02  0.00000000000E+00 0.  1.
         21   -1    0    0  502  503 -0.00000000000E+00 -0.00000000000E+00 -0.51416988256E+02  0.51416988256E+02  0.00000000000E+00 0.  1.
         25    2    1    2    0    0  0.00000000000E+00  0.00000000000E+00  0.24560624472E+02  0.12739460098E+03  0.12500464026E+03 0.  0.
          4    1    3    3  501    0 -0.41147241227E+02 -0.42131008577E+02  0.33560633581E+02  0.67799970285E+02  0.15500000000E+01 0.  1.
         -4    1    3    3    0  501  0.41147241227E+02  0.42131008577E+02 -0.90000091092E+01  0.59594630699E+02  0.15500000000E+01 0.  1.
<mgrwt>
<rscale>  2 0.12500464E+03</rscale>
<asrwt>0</asrwt>
<pdfrwt beam="1">  1       21 0.11688863E-01 0.12500464E+03</pdfrwt>
<pdfrwt beam="2">  1       21 0.79103059E-02 0.12500464E+03</pdfrwt>
<totfact> 0.73706781E+06</totfact>
</mgrwt>
</event>
<event>
 4    0  0.1242418E+000  0.1251280E+03  0.7546771E-02  0.1234869E+00
         21   -1    0    0  503  502  0.00000000000E+00  0.00000000000E+00  0.57784183232E+03  0.57784183232E+03  0.00000000000E+00 0. -1.
         21   -1    0    0  502  503 -0.00000000000E+00 -0.00000000000E+00 -0.67739147534E+01  0.67739147534E+01  0.00000000000E+00 0. -1.
          4    1    1    2  501    0 -0.34656884630E+02 -0.21167762291E+02  0.63291389156E+02  0.75215532000E+02  0.15500000000E+01 0. -1.
         -4    1    1    2    0  501  0.34656884630E+02  0.21167762291E+02  0.50777652841E+03  0.50940021507E+03  0.15500000000E+01 0. -1.
<mgrwt>
<rscale>  2 0.12512796E+03</rscale>
<asrwt>0</asrwt>
<pdfrwt beam="1">  1       21 0.88898704E-01 0.12512796E+03</pdfrwt>
<pdfrwt beam="2">  1       21 0.10421412E-02 0.12512796E+03</pdfrwt>
<totfact> 0.37677823E+06</totfact>
</mgrwt>
</event>
<event>
 5    0  0.1417797E+000  0.1249933E+03  0.7546771E-02  0.1235080E+00
         21   -1    0    0  503  502  0.00000000000E+00  0.00000000000E+00  0.14385726793E+03  0.14385726793E+03  0.00000000000E+00 0.  1.
         21   -1    0    0  502  503 -0.00000000000E+00 -0.00000000000E+00 -0.27150727978E+02  0.27150727978E+02  0.00000000000E+00 0.  1.
         25    2    1    2    0    0  0.00000000000E+00  0.00000000000E+00  0.11670653995E+03  0.17100799591E+03  0.12499327261E+03 0.  0.
          4    1    3    3  501    0 -0.23704464659E+02  0.18387661085E+02 -0.16625405422E+02  0.34333865649E+02  0.15500000000E+01 0.  1.
         -4    1    3    3    0  501  0.23704464659E+02 -0.18387661085E+02  0.13333194537E+03  0.13667413026E+03  0.15500000000E+01 0.  1.
<mgrwt>
<rscale>  2 0.12499327E+03</rscale>
<asrwt>0</asrwt>
<pdfrwt beam="1">  1       21 0.22131887E-01 0.12499327E+03</pdfrwt>
<pdfrwt beam="2">  1       21 0.41770352E-02 0.12499327E+03</pdfrwt>
<totfact> 0.68209992E+06</totfact>
</mgrwt>
</event>
<event>
 5    0  0.1440798E+000  0.1250017E+03  0.7546771E-02  0.1235067E+00
         21   -1    0    0  503  502  0.00000000000E+00  0.00000000000E+00  0.22849265547E+03  0.22849265547E+03  0.00000000000E+00 0.  1.
         21   -1    0    0  502  503 -0.00000000000E+00 -0.00000000000E+00 -0.17096198043E+02  0.17096198043E+02  0.00000000000E+00 0.  1.
         25    2    1    2    0    0  0.00000000000E+00  0.00000000000E+00  0.21139645743E+03  0.24558885351E+03  0.12500169102E+03 0.  0.
          4    1    3    3  501    0  0.46693606507E+02  0.30549765023E+02  0.50463963609E+02  0.75250216974E+02  0.15500000000E+01 0. -1.
         -4    1    3    3    0  501 -0.46693606507E+02 -0.30549765023E+02  0.16093249382E+03  0.17033863654E+03  0.15500000000E+01 0. -1.
<mgrwt>
<rscale>  2 0.12500169E+03</rscale>
<asrwt>0</asrwt>
<pdfrwt beam="1">  1       21 0.35152714E-01 0.12500169E+03</pdfrwt>
<pdfrwt beam="2">  1       21 0.26301845E-02 0.12500169E+03</pdfrwt>
<totfact> 0.60293426E+06</totfact>
</mgrwt>
</event>
<event>
 5    0  0.1222151E+000  0.1250013E+03  0.7546771E-02  0.1235067E+00
         21   -1    0    0  503  502  0.00000000000E+00  0.00000000000E+00  0.16361939485E+04  0.16361939485E+04  0.00000000000E+00 0.  1.
         21   -1    0    0  502  503 -0.00000000000E+00 -0.00000000000E+00 -0.23874481048E+01  0.23874481048E+01  0.00000000000E+00 0.  1.
         25    2    1    2    0    0  0.00000000000E+00  0.00000000000E+00  0.16338065004E+04  0.16385813966E+04  0.12500125026E+03 0.  0.
          4    1    3    3  501    0 -0.10104361653E+02 -0.40020427500E+02  0.14317742957E+04  0.14323699833E+04  0.15500000000E+01 0.  1.
         -4    1    3    3    0  501  0.10104361653E+02  0.40020427500E+02  0.20203220469E+03  0.20621141330E+03  0.15500000000E+01 0.  1.
<mgrwt>
<rscale>  2 0.12500125E+03</rscale>
<asrwt>0</asrwt>
<pdfrwt beam="1">  1       21 0.25172125E+00 0.12500125E+03</pdfrwt>
<pdfrwt beam="2">  1       21 0.36730102E-03 0.12500125E+03</pdfrwt>
<totfact> 0.12057200E+06</totfact>
</mgrwt>
</event>
<event>
 5    0  0.1393159E+000  0.1250176E+03  0.7546771E-02  0.1235042E+00
         21   -1    0    0  503  502  0.00000000000E+00  0.00000000000E+00  0.29345376897E+03  0.29345376897E+03  0.00000000000E+00 0.  1.
         21   -1    0    0  502  503 -0.00000000000E+00 -0.00000000000E+00 -0.13315045739E+02  0.13315045739E+02  0.00000000000E+00 0.  1.
         25    2    1    2    0    0  0.00000000000E+00  0.00000000000E+00  0.28013872323E+03  0.30676881471E+03  0.12501760446E+03 0.  0.
          4    1    3    3  501    0  0.34864236820E+02 -0.55736962767E+01  0.26658595345E+03  0.26891830390E+03  0.15500000000E+01 0. -1.
         -4    1    3    3    0  501 -0.34864236820E+02  0.55736962767E+01  0.13552769781E+02  0.37850510801E+02  0.15500000000E+01 0. -1.
<mgrwt>
<rscale>  2 0.12501760E+03</rscale>
<asrwt>0</asrwt>
<pdfrwt beam="1">  1       21 0.45146729E-01 0.12501760E+03</pdfrwt>
<pdfrwt beam="2">  1       21 0.20484688E-02 0.12501760E+03</pdfrwt>
<totfact> 0.54874044E+06</totfact>
</mgrwt>
</event>
<event>
 5    0  0.1270781E+000  0.1250256E+03  0.7546771E-02  0.1235029E+00
         21   -1    0    0  503  502  0.00000000000E+00  0.00000000000E+00  0.59943128454E+01  0.59943128454E+01  0.00000000000E+00 0. -1.
         21   -1    0    0  502  503 -0.00000000000E+00 -0.00000000000E+00 -0.65192584336E+03  0.65192584336E+03  0.00000000000E+00 0. -1.
         25    2    1    2    0    0  0.00000000000E+00  0.00000000000E+00 -0.64593153052E+03  0.65792015621E+03  0.12502555670E+03 0.  0.
          4    1    3    3  501    0  0.33358780415E-01  0.60680054602E+02 -0.40161445654E+03  0.40617563238E+03  0.15500000000E+01 0.  1.
         -4    1    3    3    0  501 -0.33358780415E-01 -0.60680054602E+02 -0.24431707398E+03  0.25174452383E+03  0.15500000000E+01 0.  1.
<mgrwt>
<rscale>  2 0.12502556E+03</rscale>
<asrwt>0</asrwt>
<pdfrwt beam="1">  1       21 0.92220222E-03 0.12502556E+03</pdfrwt>
<pdfrwt beam="2">  1       21 0.10029626E+00 0.12502556E+03</pdfrwt>
<totfact> 0.34574325E+06</totfact>
</mgrwt>
</event>
<event>
 5    0  0.1425291E+000  0.1250120E+03  0.7546771E-02  0.1235051E+00
         21   -1    0    0  503  502  0.00000000000E+00  0.00000000000E+00  0.93318859812E+01  0.93318859812E+01  0.00000000000E+00 0. -1.
         21   -1    0    0  502  503 -0.00000000000E+00 -0.00000000000E+00 -0.41867193872E+03  0.41867193872E+03  0.00000000000E+00 0. -1.
         25    2    1    2    0    0  0.00000000000E+00  0.00000000000E+00 -0.40934005274E+03  0.42800382471E+03  0.12501198016E+03 0.  0.
          4    1    3    3  501    0 -0.14673555482E+02  0.54173469850E+02 -0.11062607156E+03  0.12405889035E+03  0.15500000000E+01 0.  1.
         -4    1    3    3    0  501  0.14673555482E+02 -0.54173469850E+02 -0.29871398118E+03  0.30394493435E+03  0.15500000000E+01 0.  1.
<mgrwt>
<rscale>  2 0.12501198E+03</rscale>
<asrwt>0</asrwt>
<pdfrwt beam="1">  1       21 0.14356748E-02 0.12501198E+03</pdfrwt>
<pdfrwt beam="2">  1       21 0.64411068E-01 0.12501198E+03</pdfrwt>
<totfact> 0.46223884E+06</totfact>
</mgrwt>
</event>
<event>
 5    0  0.1464505E+000  0.1249999E+03  0.7546771E-02  0.1235069E+00
         21   -1    0    0  503  502  0.00000000000E+00  0.00000000000E+00  0.20967869327E+03  0.20967869327E+03  0.00000000000E+00 0. -1.
         21   -1    0    0  502  503 -0.00000000000E+00 -0.00000000000E+00 -0.18629679298E+02  0.18629679298E+02  0.00000000000E+00 0. -1.
         25    2    1    2    0    0  0.00000000000E+00  0.00000000000E+00  0.19104901397E+03  0.22830837257E+03  0.12499994898E+03 0.  0.
          4    1    3    3  501    0  0.64796613215E+01 -0.33399810217E+02 -0.19200388926E+00  0.34058371935E+02  0.15500000000E+01 0. -1.
         -4    1    3    3    0  501 -0.64796613215E+01  0.33399810217E+02  0.19124101786E+03  0.19425000063E+03  0.15500000000E+01 0. -1.
<mgrwt>
<rscale>  2 0.12499995E+03</rscale>
<asrwt>0</asrwt>
<pdfrwt beam="1">  1       21 0.32258259E-01 0.12499995E+03</pdfrwt>
<pdfrwt beam="2">  1       21 0.28661046E-02 0.12499995E+03</pdfrwt>
<totfact> 0.61982810E+06</totfact>
</mgrwt>
</event>
<event>
 5    0  0.1509262E+000  0.1250001E+03  0.7546771E-02  0.1235069E+00
         21   -1    0    0  503  502  0.00000000000E+00  0.00000000000E+00  0.21624925150E+02  0.21624925150E+02  0.00000000000E+00 0. -1.
         21   -1    0    0  502  503 -0.00000000000E+00 -0.00000000000E+00 -0.18063664718E+03  0.18063664718E+03  0.00000000000E+00 0. -1.
         25    2    1    2    0    0  0.00000000000E+00  0.00000000000E+00 -0.15901172203E+03  0.20226157233E+03  0.12500006359E+03 0.  0.
          4    1    3    3  501    0  0.43753253359E+02  0.36952569293E+02 -0.11992616610E+03  0.13290796580E+03  0.15500000000E+01 0.  1.
         -4    1    3    3    0  501 -0.43753253359E+02 -0.36952569293E+02 -0.39085555929E+02  0.69353606533E+02  0.15500000000E+01 0.  1.
<mgrwt>
<rscale>  2 0.12500006E+03</rscale>
<asrwt>0</asrwt>
<pdfrwt beam="1">  1       21 0.33269115E-02 0.12500006E+03</pdfrwt>
<pdfrwt beam="2">  1       21 0.27790254E-01 0.12500006E+03</pdfrwt>
<totfact> 0.64682912E+06</totfact>
</mgrwt>
</event>
<event>
 5    0  0.1595931E+000  0.1250195E+03  0.7546771E-02  0.1235039E+00
         21   -1    0    0  503  502  0.00000000000E+00  0.00000000000E+00  0.71267878450E+02  0.71267878450E+02  0.00000000000E+00 0.  1.
         21   -1    0    0  502  503 -0.00000000000E+00 -0.00000000000E+00 -0.54827938340E+02  0.54827938340E+02  0.00000000000E+00 0.  1.
         25    2    1    2    0    0  0.00000000000E+00  0.00000000000E+00  0.16439940111E+02  0.12609581679E+03  0.12501953200E+03 0.  0.
          4    1    3    3  501    0  0.41907154682E+02  0.46217120560E+02  0.11833620196E+02  0.63519043706E+02  0.15500000000E+01 0.  1.
         -4    1    3    3    0  501 -0.41907154682E+02 -0.46217120560E+02  0.46063199149E+01  0.62576773084E+02  0.15500000000E+01 0.  1.
<mgrwt>
<rscale>  2 0.12501953E+03</rscale>
<asrwt>0</asrwt>
<pdfrwt beam="1">  1       21 0.10964289E-01 0.12501953E+03</pdfrwt>
<pdfrwt beam="2">  1       21 0.84350674E-02 0.12501953E+03</pdfrwt>
<totfact> 0.73856026E+06</totfact>
</mgrwt>
</event>
<event>
 5    0  0.1594497E+000  0.1250127E+03  0.7546771E-02  0.1235049E+00
         21   -1    0    0  503  502  0.00000000000E+00  0.00000000000E+00  0.52884831460E+02  0.52884831460E+02  0.00000000000E+00 0. -1.
         21   -1    0    0  502  503 -0.00000000000E+00 -0.00000000000E+00 -0.73878399917E+02  0.73878399917E+02  0.00000000000E+00 0. -1.
         25    2    1    2    0    0  0.00000000000E+00  0.00000000000E+00 -0.20993568457E+02  0.12676323138E+03  0.12501274700E+03 0.  0.
          4    1    3    3  501    0 -0.13188042857E+02  0.36694668893E+02  0.39015419893E+02  0.55181778595E+02  0.15500000000E+01 0.  1.
         -4    1    3    3    0  501  0.13188042857E+02 -0.36694668893E+02 -0.60008988350E+02  0.71581452782E+02  0.15500000000E+01 0.  1.
<mgrwt>
<rscale>  2 0.12501275E+03</rscale>
<asrwt>0</asrwt>
<pdfrwt beam="1">  1       21 0.81361280E-02 0.12501275E+03</pdfrwt>
<pdfrwt beam="2">  1       21 0.11365908E-01 0.12501275E+03</pdfrwt>
<totfact> 0.73777398E+06</totfact>
</mgrwt>
</event>
<event>
 5    0  0.1525368E+000  0.1249969E+03  0.7546771E-02  0.1235074E+00
         21   -1    0    0  503  502  0.00000000000E+00  0.00000000000E+00  0.14762127880E+02  0.14762127880E+02  0.00000000000E+00 0. -1.
         21   -1    0    0  502  503 -0.00000000000E+00 -0.00000000000E+00 -0.26459969772E+03  0.26459969772E+03  0.00000000000E+00 0. -1.
         25    2    1    2    0    0  0.00000000000E+00  0.00000000000E+00 -0.24983756984E+03  0.27936182560E+03  0.12499687315E+03 0.  0.
          4    1    3    3  501    0  0.34955384456E+02  0.48604594066E+02 -0.16485920825E+03  0.17540024662E+03  0.15500000000E+01 0. -1.
         -4    1    3    3    0  501 -0.34955384456E+02 -0.48604594066E+02 -0.84978361585E+02  0.10396157898E+03  0.15500000000E+01 0. -1.
<mgrwt>
<rscale>  2 0.12499687E+03</rscale>
<asrwt>0</asrwt>
<pdfrwt beam="1">  1       21 0.22710967E-02 0.12499687E+03</pdfrwt>
<pdfrwt beam="2">  1       21 0.40707644E-01 0.12499687E+03</pdfrwt>
<totfact> 0.57220618E+06</totfact>
</mgrwt>
</event>
<event>
 5    0  0.1533030E+000  0.1249970E+03  0.7546771E-02  0.1235074E+00
         21   -1    0    0  503  502  0.00000000000E+00  0.00000000000E+00  0.17398794179E+03  0.17398794179E+03  0.00000000000E+00 0. -1.
         21   -1    0    0  502  503 -0.00000000000E+00 -0.00000000000E+00 -0.22450201338E+02  0.22450201338E+02  0.00000000000E+00 0. -1.
         25    2    1    2    0    0  0.00000000000E+00  0.00000000000E+00  0.15153774045E+03  0.19643814312E+03  0.12499702914E+03 0.  0.
          4    1    3    3  501    0  0.29675798613E+02 -0.52785909999E+02  0.51592819788E+02  0.79569006978E+02  0.15500000000E+01 0. -1.
         -4    1    3    3    0  501 -0.29675798613E+02  0.52785909999E+02  0.99944920659E+02  0.11686913615E+03  0.15500000000E+01 0. -1.
<mgrwt>
<rscale>  2 0.12499703E+03</rscale>
<asrwt>0</asrwt>
<pdfrwt beam="1">  1       21 0.26767375E-01 0.12499703E+03</pdfrwt>
<pdfrwt beam="2">  1       21 0.34538772E-02 0.12499703E+03</pdfrwt>
<totfact> 0.65318880E+06</totfact>
</mgrwt>
</event>
<event>
 5    0  0.1532069E+000  0.1250029E+03  0.7546771E-02  0.1235065E+00
         21   -1    0    0  503  502  0.00000000000E+00  0.00000000000E+00  0.10095426597E+03  0.10095426597E+03  0.00000000000E+00 0. -1.
         21   -1    0    0  502  503 -0.00000000000E+00 -0.00000000000E+00 -0.38695071524E+02  0.38695071524E+02  0.00000000000E+00 0. -1.
         25    2    1    2    0    0  0.00000000000E+00  0.00000000000E+00  0.62259194443E+02  0.13964933749E+03  0.12500292064E+03 0.  0.
          4    1    3    3  501    0 -0.19242943657E+02  0.42812107742E+02  0.77203323123E+02  0.90365497017E+02  0.15500000000E+01 0.  1.
         -4    1    3    3    0  501  0.19242943657E+02 -0.42812107742E+02 -0.14944128680E+02  0.49283840475E+02  0.15500000000E+01 0.  1.
<mgrwt>
<rscale>  2 0.12500292E+03</rscale>
<asrwt>0</asrwt>
<pdfrwt beam="1">  1       21 0.15531425E-01 0.12500292E+03</pdfrwt>
<pdfrwt beam="2">  1       21 0.59530880E-02 0.12500292E+03</pdfrwt>
<totfact> 0.72079756E+06</totfact>
</mgrwt>
</event>
<event>
 5    0  0.1397108E+000  0.1250068E+03  0.7546771E-02  0.1235059E+00
         21   -1    0    0  503  502  0.00000000000E+00  0.00000000000E+00  0.20288040414E+02  0.20288040414E+02  0.00000000000E+00 0.  1.
         21   -1    0    0  502  503 -0.00000000000E+00 -0.00000000000E+00 -0.19256046504E+03  0.19256046504E+03  0.00000000000E+00 0.  1.
         25    2    1    2    0    0  0.00000000000E+00  0.00000000000E+00 -0.17227242463E+03  0.21284850546E+03  0.12500679177E+03 0.  0.
          4    1    3    3  501    0  0.43846234825E+02 -0.66785566926E+01 -0.11194847273E+02  0.45769231295E+02  0.15500000000E+01 0. -1.
         -4    1    3    3    0  501 -0.43846234825E+02  0.66785566926E+01 -0.16107757736E+03  0.16707927416E+03  0.15500000000E+01 0. -1.
<mgrwt>
<rscale>  2 0.12500679E+03</rscale>
<asrwt>0</asrwt>
<pdfrwt beam="1">  1       21 0.31212370E-02 0.12500679E+03</pdfrwt>
<pdfrwt beam="2">  1       21 0.29624687E-01 0.12500679E+03</pdfrwt>
<totfact> 0.63550165E+06</totfact>
</mgrwt>
</event>
<event>
 5    0  0.1545197E+000  0.1250014E+03  0.7546771E-02  0.1235067E+00
         21   -1    0    0  503  502  0.00000000000E+00  0.00000000000E+00  0.36768909455E+02  0.36768909455E+02  0.00000000000E+00 0. -1.
         21   -1    0    0  502  503 -0.00000000000E+00 -0.00000000000E+00 -0.10624023727E+03  0.10624023727E+03  0.00000000000E+00 0. -1.
         25    2    1    2    0    0  0.00000000000E+00  0.00000000000E+00 -0.69471327811E+02  0.14300914672E+03  0.12500140262E+03 0.  0.
          4    1    3    3  501    0 -0.20505119368E+02  0.58176079649E+02 -0.46120012861E+02  0.77034889822E+02  0.15500000000E+01 0. -1.
         -4    1    3    3    0  501  0.20505119368E+02 -0.58176079649E+02 -0.23351314951E+02  0.65974256900E+02  0.15500000000E+01 0. -1.
<mgrwt>
<rscale>  2 0.12500140E+03</rscale>
<asrwt>0</asrwt>
<pdfrwt beam="1">  1       21 0.56567553E-02 0.12500140E+03</pdfrwt>
<pdfrwt beam="2">  1       21 0.16344652E-01 0.12500140E+03</pdfrwt>
<totfact> 0.71646304E+06</totfact>
</mgrwt>
</event>
<event>
 5    0  0.1535838E+000  0.1249947E+03  0.7546771E-02  0.1235078E+00
         21   -1    0    0  503  502  0.00000000000E+00  0.00000000000E+00  0.15188421484E+03  0.15188421484E+03  0.00000000000E+00 0.  1.
         21   -1    0    0  502  503 -0.00000000000E+00 -0.00000000000E+00 -0.25716414439E+02  0.25716414439E+02  0.00000000000E+00 0.  1.
         25    2    1    2    0    0  0.00000000000E+00  0.00000000000E+00  0.12616780041E+03  0.17760062928E+03  0.12499467854E+03 0.  0.
          4    1    3    3  501    0  0.49272194853E+02  0.19526202965E+02  0.11009057122E+03  0.12219393667E+03  0.15500000000E+01 0. -1.
         -4    1    3    3    0  501 -0.49272194853E+02 -0.19526202965E+02  0.16077229187E+02  0.55406692612E+02  0.15500000000E+01 0. -1.
<mgrwt>
<rscale>  2 0.12499468E+03</rscale>
<asrwt>0</asrwt>
<pdfrwt beam="1">  1       21 0.23366802E-01 0.12499468E+03</pdfrwt>
<pdfrwt beam="2">  1       21 0.39563715E-02 0.12499468E+03</pdfrwt>
<totfact> 0.67436960E+06</totfact>
</mgrwt>
</event>
<event>
 5    0  0.1536289E+000  0.1250144E+03  0.7546771E-02  0.1235047E+00
         21   -1    0    0  503  502  0.00000000000E+00  0.00000000000E+00  0.75938544540E+02  0.75938544540E+02  0.00000000000E+00 0.  1.
         21   -1    0    0  502  503 -0.00000000000E+00 -0.00000000000E+00 -0.51451474353E+02  0.51451474353E+02  0.00000000000E+00 0.  1.
         25    2    1    2    0    0  0.00000000000E+00  0.00000000000E+00  0.24487070186E+02  0.12739001889E+03  0.12501440040E+03 0.  0.
          4    1    3    3  501    0  0.36169789322E+02  0.19087540969E+02 -0.35900001598E+02  0.54440798071E+02  0.15500000000E+01 0.  1.
         -4    1    3    3    0  501 -0.36169789322E+02 -0.19087540969E+02  0.60387071784E+02  0.72949220822E+02  0.15500000000E+01 0.  1.
<mgrwt>
<rscale>  2 0.12501440E+03</rscale>
<asrwt>0</asrwt>
<pdfrwt beam="1">  1       21 0.11682853E-01 0.12501440E+03</pdfrwt>
<pdfrwt beam="2">  1       21 0.79156114E-02 0.12501440E+03</pdfrwt>
<totfact> 0.73689041E+06</totfact>
</mgrwt>
</event>
<event>
 5    0  0.1574235E+000  0.1250015E+03  0.7546771E-02  0.1235067E+00
         21   -1    0    0  503  502  0.00000000000E+00  0.00000000000E+00  0.27764470896E+02  0.27764470896E+02  0.00000000000E+00 0.  1.
         21   -1    0    0  502  503 -0.00000000000E+00 -0.00000000000E+00 -0.14069567002E+03  0.14069567002E+03  0.00000000000E+00 0.  1.
         25    2    1    2    0    0  0.00000000000E+00  0.00000000000E+00 -0.11293119913E+03  0.16846014092E+03  0.12500145336E+03 0.  0.
          4    1    3    3  501    0 -0.27803419774E+02  0.55639409114E+02 -0.48474007263E+02  0.78872719478E+02  0.15500000000E+01 0.  1.
         -4    1    3    3    0  501  0.27803419774E+02 -0.55639409114E+02 -0.64457191862E+02  0.89587421441E+02  0.15500000000E+01 0.  1.
<mgrwt>
<rscale>  2 0.12500145E+03</rscale>
<asrwt>0</asrwt>
<pdfrwt beam="1">  1       21 0.42714571E-02 0.12500145E+03</pdfrwt>
<pdfrwt beam="2">  1       21 0.21645487E-01 0.12500145E+03</pdfrwt>
<totfact> 0.68497720E+06</totfact>
</mgrwt>
</event>
<event>
 5    0  0.1258275E+000  0.1249959E+03  0.7546771E-02  0.1235076E+00
         21   -1    0    0  503  502  0.00000000000E+00  0.00000000000E+00  0.12030326017E+02  0.12030326017E+02  0.00000000000E+00 0.  1.
         21   -1    0    0  502  503 -0.00000000000E+00 -0.00000000000E+00 -0.32467900343E+03  0.32467900343E+03  0.00000000000E+00 0.  1.
         25    2    1    2    0    0  0.00000000000E+00  0.00000000000E+00 -0.31264867741E+03  0.33670932944E+03  0.12499590812E+03 0.  0.
          4    1    3    3  501    0 -0.21118219276E+02  0.13574424249E+02 -0.31044306656E+03  0.31146034138E+03  0.15500000000E+01 0. -1.
         -4    1    3    3    0  501  0.21118219276E+02 -0.13574424249E+02 -0.22056108547E+01  0.25248988065E+02  0.15500000000E+01 0. -1.
<mgrwt>
<rscale>  2 0.12499591E+03</rscale>
<asrwt>0</asrwt>
<pdfrwt beam="1">  1       21 0.18508193E-02 0.12499591E+03</pdfrwt>
<pdfrwt beam="2">  1       21 0.49950618E-01 0.12499591E+03</pdfrwt>
<totfact> 0.52540607E+06</totfact>
</mgrwt>
</event>
<event>
 5    0  0.1575799E+000  0.1249956E+03  0.7546771E-02  0.1235076E+00
         21   -1    0    0  503  502  0.00000000000E+00  0.00000000000E+00  0.11068320538E+03  0.11068320538E+03  0.00000000000E+00 0.  1.
         21   -1    0    0  502  503 -0.00000000000E+00 -0.00000000000E+00 -0.35289681560E+02  0.35289681560E+02  0.00000000000E+00 0.  1.
         25    2    1    2    0    0  0.00000000000E+00  0.00000000000E+00  0.75393523821E+02  0.14597288694E+03  0.12499560107E+03 0.  0.
          4    1    3    3  501    0 -0.58141067247E+02 -0.21811393031E+02  0.45741367440E+02  0.77141401088E+02  0.15500000000E+01 0. -1.
         -4    1    3    3    0  501  0.58141067247E+02  0.21811393031E+02  0.29652156381E+02  0.68831485852E+02  0.15500000000E+01 0. -1.
<mgrwt>
<rscale>  2 0.12499560E+03</rscale>
<asrwt>0</asrwt>
<pdfrwt beam="1">  1       21 0.17028185E-01 0.12499560E+03</pdfrwt>
<pdfrwt beam="2">  1       21 0.54291818E-02 0.12499560E+03</pdfrwt>
<totfact> 0.71276809E+06</totfact>
</mgrwt>
</event>
<event>
 5    0  0.1511834E+000  0.1249868E+03  0.7546771E-02  0.1235090E+00
         21   -1    0    0  503  502  0.00000000000E+00  0.00000000000E+00  0.23366481374E+02  0.23366481374E+02  0.00000000000E+00 0.  1.
         21   -1    0    0  502  503 -0.00000000000E+00 -0.00000000000E+00 -0.16713792925E+03  0.16713792925E+03  0.00000000000E+00 0.  1.
         25    2    1    2    0    0  0.00000000000E+00  0.00000000000E+00 -0.14377144788E+03  0.19050441063E+03  0.12498680428E+03 0.  0.
          4    1    3    3  501    0  0.13061569116E+02 -0.44658726383E+02 -0.13542873694E+03  0.14320737313E+03  0.15500000000E+01 0.  1.
         -4    1    3    3    0  501 -0.13061569116E+02  0.44658726383E+02 -0.83427109366E+01  0.47297037493E+02  0.15500000000E+01 0.  1.
<mgrwt>
<rscale>  2 0.12498680E+03</rscale>
<asrwt>0</asrwt>
<pdfrwt beam="1">  1       21 0.35948431E-02 0.12498680E+03</pdfrwt>
<pdfrwt beam="2">  1       21 0.25713529E-01 0.12498680E+03</pdfrwt>
<totfact> 0.65988509E+06</totfact>
</mgrwt>
</event>
<event>
 5    0  0.1523443E+000  0.1250078E+03  0.7546771E-02  0.1235057E+00
         21   -1    0    0  503  502  0.00000000000E+00  0.00000000000E+00  0.14624840849E+03  0.14624840849E+03  0.00000000000E+00 0.  1.
         21   -1    0    0  502  503 -0.00000000000E+00 -0.00000000000E+00 -0.26713023759E+02  0.26713023759E+02  0.00000000000E+00 0.  1.
         25    2    1    2    0    0  0.00000000000E+00  0.00000000000E+00  0.11953538473E+03  0.17296143224E+03  0.12500779513E+03 0.  0.
          4    1    3    3  501    0  0.25097844819E+01  0.53230581357E+02  0.14624387094E+02  0.55281723993E+02  0.15500000000E+01 0. -1.
         -4    1    3    3    0  501 -0.25097844819E+01 -0.53230581357E+02  0.10491099763E+03  0.11767970825E+03  0.15500000000E+01 0. -1.
<mgrwt>
<rscale>  2 0.12500780E+03</rscale>
<asrwt>0</asrwt>
<pdfrwt beam="1">  1       21 0.22499755E-01 0.12500780E+03</pdfrwt>
<pdfrwt beam="2">  1       21 0.41096961E-02 0.12500780E+03</pdfrwt>
<totfact> 0.67954852E+06</totfact>
</mgrwt>
</event>
<event>
 5    0  0.1222151E+000  0.1250012E+03  0.7546771E-02  0.1235067E+00
         21   -1    0    0  503  502  0.00000000000E+00  0.00000000000E+00  0.44604597221E+01  0.44604597221E+01  0.00000000000E+00 0. -1.
         21   -1    0    0  502  503 -0.00000000000E+00 -0.00000000000E+00 -0.87576784551E+03  0.87576784551E+03  0.00000000000E+00 0. -1.
         25    2    1    2    0    0  0.00000000000E+00  0.00000000000E+00 -0.87130738579E+03  0.88022830523E+03  0.12500123521E+03 0.  0.
          4    1    3    3  501    0  0.40443395564E+02 -0.47412208847E+02 -0.40389629987E+03  0.40867861376E+03  0.15500000000E+01 0.  1.
         -4    1    3    3    0  501 -0.40443395564E+02  0.47412208847E+02 -0.46741108592E+03  0.47154969147E+03  0.15500000000E+01 0.  1.
<mgrwt>
<rscale>  2 0.12500124E+03</rscale>
<asrwt>0</asrwt>
<pdfrwt beam="1">  1       21 0.68622515E-03 0.12500124E+03</pdfrwt>
<pdfrwt beam="2">  1       21 0.13473340E+00 0.12500124E+03</pdfrwt>
<totfact> 0.26869141E+06</totfact>
</mgrwt>
</event>
<event>
 5    0  0.1310268E+000  0.1250004E+03  0.7546771E-02  0.1235069E+00
         21   -1    0    0  503  502  0.00000000000E+00  0.00000000000E+00  0.49234560146E+01  0.49234560146E+01  0.00000000000E+00 0.  1.
         21   -1    0    0  502  503 -0.00000000000E+00 -0.00000000000E+00 -0.79340164352E+03  0.79340164352E+03  0.00000000000E+00 0.  1.
         25    2    1    2    0    0  0.00000000000E+00  0.00000000000E+00 -0.78847818751E+03  0.79832509954E+03  0.12500044950E+03 0.  0.
          4    1    3    3  501    0 -0.57996479077E+02 -0.25531719139E+01 -0.24668767615E+03  0.25343109978E+03  0.15500000000E+01 0. -1.
         -4    1    3    3    0  501  0.57996479077E+02  0.25531719139E+01 -0.54179051136E+03  0.54489399976E+03  0.15500000000E+01 0. -1.
<mgrwt>
<rscale>  2 0.12500045E+03</rscale>
<asrwt>0</asrwt>
<pdfrwt beam="1">  1       21 0.75745491E-03 0.12500045E+03</pdfrwt>
<pdfrwt beam="2">  1       21 0.12206177E+00 0.12500045E+03</pdfrwt>
<totfact> 0.29418062E+06</totfact>
</mgrwt>
</event>
<event>
 5    0  0.1428445E+000  0.1249578E+03  0.7546771E-02  0.1235135E+00
         21   -1    0    0  503  502  0.00000000000E+00  0.00000000000E+00  0.27986959874E+03  0.27986959874E+03  0.00000000000E+00 0.  1.
         21   -1    0    0  502  503 -0.00000000000E+00 -0.00000000000E+00 -0.13947960536E+02  0.13947960536E+02  0.00000000000E+00 0.  1.
         25    2    1    2    0    0  0.00000000000E+00  0.00000000000E+00  0.26592163821E+03  0.29381755928E+03  0.12495775476E+03 0.  0.
          4    1    3    3  501    0  0.47041465716E+02  0.36217319142E+02  0.17859210582E+03  0.18820769501E+03  0.15500000000E+01 0.  1.
         -4    1    3    3    0  501 -0.47041465716E+02 -0.36217319142E+02  0.87329532393E+02  0.10560986427E+03  0.15500000000E+01 0.  1.
<mgrwt>
<rscale>  2 0.12495775E+03</rscale>
<asrwt>0</asrwt>
<pdfrwt beam="1">  1       21 0.43056857E-01 0.12495775E+03</pdfrwt>
<pdfrwt beam="2">  1       21 0.21458403E-02 0.12495775E+03</pdfrwt>
<totfact> 0.56033381E+06</totfact>
</mgrwt>
</event>
<event>
 5    0  0.1490152E+000  0.1250027E+03  0.7546771E-02  0.1235065E+00
         21   -1    0    0  503  502  0.00000000000E+00  0.00000000000E+00  0.18755829798E+02  0.18755829798E+02  0.00000000000E+00 0. -1.
         21   -1    0    0  502  503 -0.00000000000E+00 -0.00000000000E+00 -0.20827760233E+03  0.20827760233E+03  0.00000000000E+00 0. -1.
         25    2    1    2    0    0  0.00000000000E+00  0.00000000000E+00 -0.18952177253E+03  0.22703343213E+03  0.12500270813E+03 0.  0.
          4    1    3    3  501    0 -0.66644726947E+01 -0.52681741348E+02 -0.15456516302E+03  0.16343981518E+03  0.15500000000E+01 0.  1.
         -4    1    3    3    0  501  0.66644726947E+01  0.52681741348E+02 -0.34956609517E+02  0.63593616949E+02  0.15500000000E+01 0.  1.
<mgrwt>
<rscale>  2 0.12500271E+03</rscale>
<asrwt>0</asrwt>
<pdfrwt beam="1">  1       21 0.28855121E-02 0.12500271E+03</pdfrwt>
<pdfrwt beam="2">  1       21 0.32042710E-01 0.12500271E+03</pdfrwt>
<totfact> 0.62106201E+06</totfact>
</mgrwt>
</event>
<event>
 5    0  0.1785928E+000  0.1249948E+03  0.7546771E-02  0.1235077E+00
         21   -1    0    0  503  502  0.00000000000E+00  0.00000000000E+00  0.46091094207E+02  0.46091094207E+02  0.00000000000E+00 0.  1.
         21   -1    0    0  502  503 -0.00000000000E+00 -0.00000000000E+00 -0.84743543539E+02  0.84743543539E+02  0.00000000000E+00 0.  1.
         25    2    1    2    0    0  0.00000000000E+00  0.00000000000E+00 -0.38652449332E+02  0.13083463775E+03  0.12499476227E+03 0.  0.
          4    1    3    3  501    0 -0.57072233539E+02 -0.23117890594E+01  0.71733091329E+01  0.57588567213E+02  0.15500000000E+01 0. -1.
         -4    1    3    3    0  501  0.57072233539E+02  0.23117890594E+01 -0.45825758465E+02  0.73246070533E+02  0.15500000000E+01 0. -1.
<mgrwt>
<rscale>  2 0.12499476E+03</rscale>
<asrwt>0</asrwt>
<pdfrwt beam="1">  1       21 0.70909376E-02 0.12499476E+03</pdfrwt>
<pdfrwt beam="2">  1       21 0.13037468E-01 0.12499476E+03</pdfrwt>
<totfact> 0.73262753E+06</totfact>
</mgrwt>
</event>
<event>
 5    0  0.1445975E+000  0.1249994E+03  0.7546771E-02  0.1235070E+00
         21   -1    0    0  503  502  0.00000000000E+00  0.00000000000E+00  0.95357265027E+01  0.95357265027E+01  0.00000000000E+00 0. -1.
         21   -1    0    0  502  503 -0.00000000000E+00 -0.00000000000E+00 -0.40963967345E+03  0.40963967345E+03  0.00000000000E+00 0. -1.
         25    2    1    2    0    0  0.00000000000E+00  0.00000000000E+00 -0.40010394695E+03  0.41917539995E+03  0.12499939025E+03 0.  0.
          4    1    3    3  501    0 -0.89504319104E+01 -0.35659579942E+02 -0.36946085887E+03  0.37128889643E+03  0.15500000000E+01 0.  1.
         -4    1    3    3    0  501  0.89504319104E+01  0.35659579942E+02 -0.30643088077E+02  0.47886503526E+02  0.15500000000E+01 0.  1.
<mgrwt>
<rscale>  2 0.12499939E+03</rscale>
<asrwt>0</asrwt>
<pdfrwt beam="1">  1       21 0.14670345E-02 0.12499939E+03</pdfrwt>
<pdfrwt beam="2">  1       21 0.63021501E-01 0.12499939E+03</pdfrwt>
<totfact> 0.46795650E+06</totfact>
</mgrwt>
</event>
<event>
 5    0  0.1491482E+000  0.1250005E+03  0.7546771E-02  0.1235068E+00
         21   -1    0    0  503  502  0.00000000000E+00  0.00000000000E+00  0.43902705139E+02  0.43902705139E+02  0.00000000000E+00 0. -1.
         21   -1    0    0  502  503 -0.00000000000E+00 -0.00000000000E+00 -0.88975883881E+02  0.88975883881E+02  0.00000000000E+00 0. -1.
         25    2    1    2    0    0  0.00000000000E+00  0.00000000000E+00 -0.45073178743E+02  0.13287858902E+03  0.12500051191E+03 0.  0.
          4    1    3    3  501    0  0.29658829098E+02 -0.86447908108E+01 -0.80268706756E+02  0.86022359511E+02  0.15500000000E+01 0.  1.
         -4    1    3    3    0  501 -0.29658829098E+02  0.86447908108E+01  0.35195528013E+02  0.46856229509E+02  0.15500000000E+01 0.  1.
<mgrwt>
<rscale>  2 0.12500051E+03</rscale>
<asrwt>0</asrwt>
<pdfrwt beam="1">  1       21 0.67542624E-02 0.12500051E+03</pdfrwt>
<pdfrwt beam="2">  1       21 0.13688597E-01 0.12500051E+03</pdfrwt>
<totfact> 0.72977662E+06</totfact>
</mgrwt>
</event>
<event>
 5    0  0.1416206E+000  0.1249874E+03  0.7546771E-02  0.1235089E+00
         21   -1    0    0  503  502  0.00000000000E+00  0.00000000000E+00  0.39895704577E+03  0.39895704577E+03  0.00000000000E+00 0. -1.
         21   -1    0    0  502  503 -0.00000000000E+00 -0.00000000000E+00 -0.97891747613E+01  0.97891747613E+01  0.00000000000E+00 0. -1.
         25    2    1    2    0    0  0.00000000000E+00  0.00000000000E+00  0.38916787101E+03  0.40874622053E+03  0.12498736325E+03 0.  0.
          4    1    3    3  501    0  0.52704887096E+02  0.33409210564E+02  0.18473100896E+03  0.19499212457E+03  0.15500000000E+01 0. -1.
         -4    1    3    3    0  501 -0.52704887096E+02 -0.33409210564E+02  0.20443686205E+03  0.21375409596E+03  0.15500000000E+01 0. -1.
<mgrwt>
<rscale>  2 0.12498736E+03</rscale>
<asrwt>0</asrwt>
<pdfrwt beam="1">  1       21 0.61377995E-01 0.12498736E+03</pdfrwt>
<pdfrwt beam="2">  1       21 0.15060272E-02 0.12498736E+03</pdfrwt>
<totfact> 0.47481578E+06</totfact>
</mgrwt>
</event>
<event>
 5    0  0.1222151E+000  0.1250027E+03  0.7546771E-02  0.1235065E+00
         21   -1    0    0  503  502  0.00000000000E+00  0.00000000000E+00  0.37519426693E+01  0.37519426693E+01  0.00000000000E+00 0. -1.
         21   -1    0    0  502  503 -0.00000000000E+00 -0.00000000000E+00 -0.10411723049E+04  0.10411723049E+04  0.00000000000E+00 0. -1.
         25    2    1    2    0    0  0.00000000000E+00  0.00000000000E+00 -0.10374203623E+04  0.10449242476E+04  0.12500270072E+03 0.  0.
          4    1    3    3  501    0  0.43906575706E+02  0.18186881444E+01 -0.89000619737E+03  0.89109176232E+03  0.15500000000E+01 0. -1.
         -4    1    3    3    0  501 -0.43906575706E+02 -0.18186881444E+01 -0.14741416488E+03  0.15383248527E+03  0.15500000000E+01 0. -1.
<mgrwt>
<rscale>  2 0.12500270E+03</rscale>
<asrwt>0</asrwt>
<pdfrwt beam="1">  1       21 0.57722172E-03 0.12500270E+03</pdfrwt>
<pdfrwt beam="2">  1       21 0.16018042E+00 0.12500270E+03</pdfrwt>
<totfact> 0.22518129E+06</totfact>
</mgrwt>
</event>
<event>
 5    0  0.1222151E+000  0.1249996E+03  0.7546771E-02  0.1235070E+00
         21   -1    0    0  503  502  0.00000000000E+00  0.00000000000E+00  0.27446233008E+01  0.27446233008E+01  0.00000000000E+00 0.  1.
         21   -1    0    0  502  503 -0.00000000000E+00 -0.00000000000E+00 -0.14232283397E+04  0.14232283397E+04  0.00000000000E+00 0.  1.
         25    2    1    2    0    0  0.00000000000E+00  0.00000000000E+00 -0.14204837164E+04  0.14259729630E+04  0.12499961062E+03 0.  0.
          4    1    3    3  501    0 -0.47376326457E+02 -0.36544612858E+02 -0.91551862395E+03  0.91747303957E+03  0.15500000000E+01 0.  1.
         -4    1    3    3    0  501  0.47376326457E+02  0.36544612858E+02 -0.50496509245E+03  0.50849992343E+03  0.15500000000E+01 0.  1.
<mgrwt>
<rscale>  2 0.12499961E+03</rscale>
<asrwt>0</asrwt>
<pdfrwt beam="1">  1       21 0.42225025E-03 0.12499961E+03</pdfrwt>
<pdfrwt beam="2">  1       21 0.21895794E+00 0.12499961E+03</pdfrwt>
<totfact> 0.15127596E+06</totfact>
</mgrwt>
</event>
<event>
 5    0  0.1299813E+000  0.1250025E+03  0.7546771E-02  0.1235065E+00
         21   -1    0    0  503  502  0.00000000000E+00  0.00000000000E+00  0.51348421586E+03  0.51348421586E+03  0.00000000000E+00 0. -1.
         21   -1    0    0  502  503 -0.00000000000E+00 -0.00000000000E+00 -0.76076497740E+01  0.76076497740E+01  0.00000000000E+00 0. -1.
         25    2    1    2    0    0  0.00000000000E+00  0.00000000000E+00  0.50587656608E+03  0.52109186563E+03  0.12500252923E+03 0.  0.
          4    1    3    3  501    0  0.34251796947E+02  0.45519155480E+02  0.14593896421E+03  0.15667087440E+03  0.15500000000E+01 0. -1.
         -4    1    3    3    0  501 -0.34251796947E+02 -0.45519155480E+02  0.35993760187E+03  0.36442099123E+03  0.15500000000E+01 0. -1.
<mgrwt>
<rscale>  2 0.12500253E+03</rscale>
<asrwt>0</asrwt>
<pdfrwt beam="1">  1       21 0.78997544E-01 0.12500253E+03</pdfrwt>
<pdfrwt beam="2">  1       21 0.11704081E-02 0.12500253E+03</pdfrwt>
<totfact> 0.40920269E+06</totfact>
</mgrwt>
</event>
<event>
 5    0  0.1564814E+000  0.1249996E+03  0.7546771E-02  0.1235070E+00
         21   -1    0    0  503  502  0.00000000000E+00  0.00000000000E+00  0.20230402838E+03  0.20230402838E+03  0.00000000000E+00 0.  1.
         21   -1    0    0  502  503 -0.00000000000E+00 -0.00000000000E+00 -0.19308695871E+02  0.19308695871E+02  0.00000000000E+00 0.  1.
         25    2    1    2    0    0  0.00000000000E+00  0.00000000000E+00  0.18299533251E+03  0.22161272425E+03  0.12499963132E+03 0.  0.
          4    1    3    3  501    0  0.17352655346E+02  0.57717564403E+02  0.12070453081E+03  0.13492374938E+03  0.15500000000E+01 0.  1.
         -4    1    3    3    0  501 -0.17352655346E+02 -0.57717564403E+02  0.62290801698E+02  0.86688974872E+02  0.15500000000E+01 0.  1.
<mgrwt>
<rscale>  2 0.12499963E+03</rscale>
<asrwt>0</asrwt>
<pdfrwt beam="1">  1       21 0.31123695E-01 0.12499963E+03</pdfrwt>
<pdfrwt beam="2">  1       21 0.29705687E-02 0.12499963E+03</pdfrwt>
<totfact> 0.62658657E+06</totfact>
</mgrwt>
</event>
<event>
 5    0  0.1652029E+000  0.1249998E+03  0.7546771E-02  0.1235070E+00
         21   -1    0    0  503  502  0.00000000000E+00  0.00000000000E+00  0.17408145674E+03  0.17408145674E+03  0.00000000000E+00 0. -1.
         21   -1    0    0  502  503 -0.00000000000E+00 -0.00000000000E+00 -0.22439119399E+02  0.22439119399E+02  0.00000000000E+00 0. -1.
         25    2    1    2    0    0  0.00000000000E+00  0.00000000000E+00  0.15164233734E+03  0.19652057614E+03  0.12499975349E+03 0.  0.
          4    1    3    3  501    0 -0.21609519079E+02 -0.58532970289E+02  0.70665952518E+02  0.94282338065E+02  0.15500000000E+01 0.  1.
         -4    1    3    3    0  501  0.21609519079E+02  0.58532970289E+02  0.80976384826E+02  0.10223823808E+03  0.15500000000E+01 0.  1.
<mgrwt>
<rscale>  2 0.12499975E+03</rscale>
<asrwt>0</asrwt>
<pdfrwt beam="1">  1       21 0.26781762E-01 0.12499975E+03</pdfrwt>
<pdfrwt beam="2">  1       21 0.34521723E-02 0.12499975E+03</pdfrwt>
<totfact> 0.65305392E+06</totfact>
</mgrwt>
</event>
<event>
 5    0  0.1331508E+000  0.1249915E+03  0.7546771E-02  0.1235083E+00
         21   -1    0    0  503  502  0.00000000000E+00  0.00000000000E+00  0.49392558532E+03  0.49392558532E+03  0.00000000000E+00 0.  1.
         21   -1    0    0  502  503 -0.00000000000E+00 -0.00000000000E+00 -0.79075093795E+01  0.79075093795E+01  0.00000000000E+00 0.  1.
         25    2    1    2    0    0  0.00000000000E+00  0.00000000000E+00  0.48601807594E+03  0.50183309470E+03  0.12499153889E+03 0.  0.
          4    1    3    3  501    0 -0.49385344094E+02 -0.32202486530E+02  0.32601306592E+03  0.33130474491E+03  0.15500000000E+01 0. -1.
         -4    1    3    3    0  501  0.49385344094E+02  0.32202486530E+02  0.16000501002E+03  0.17052834979E+03  0.15500000000E+01 0. -1.
<mgrwt>
<rscale>  2 0.12499154E+03</rscale>
<asrwt>0</asrwt>
<pdfrwt beam="1">  1       21 0.75988527E-01 0.12499154E+03</pdfrwt>
<pdfrwt beam="2">  1       21 0.12165403E-02 0.12499154E+03</pdfrwt>
<totfact> 0.41953678E+06</totfact>
</mgrwt>
</event>
<event>
 5    0  0.1448366E+000  0.1250536E+03  0.7546771E-02  0.1234985E+00
         21   -1    0    0  503  502  0.00000000000E+00  0.00000000000E+00  0.19930571281E+02  0.19930571281E+02  0.00000000000E+00 0.  1.
         21   -1    0    0  502  503 -0.00000000000E+00 -0.00000000000E+00 -0.19616111066E+03  0.19616111066E+03  0.00000000000E+00 0.  1.
         25    2    1    2    0    0  0.00000000000E+00  0.00000000000E+00 -0.17623053938E+03  0.21609168194E+03  0.12505363647E+03 0.  0.
          4    1    3    3  501    0 -0.54733697919E+02  0.15114996666E+02 -0.13327374383E+03  0.14487420097E+03  0.15500000000E+01 0. -1.
         -4    1    3    3    0  501  0.54733697919E+02 -0.15114996666E+02 -0.42956795552E+02  0.71217480974E+02  0.15500000000E+01 0. -1.
<mgrwt>
<rscale>  2 0.12505364E+03</rscale>
<asrwt>0</asrwt>
<pdfrwt beam="1">  1       21 0.30662418E-02 0.12505364E+03</pdfrwt>
<pdfrwt beam="2">  1       21 0.30178632E-01 0.12505364E+03</pdfrwt>
<totfact> 0.63138607E+06</totfact>
</mgrwt>
</event>
<event>
 5    0  0.1474029E+000  0.1249852E+03  0.7546771E-02  0.1235092E+00
         21   -1    0    0  503  502  0.00000000000E+00  0.00000000000E+00  0.17113203346E+03  0.17113203346E+03  0.00000000000E+00 0.  1.
         21   -1    0    0  502  503 -0.00000000000E+00 -0.00000000000E+00 -0.22820539191E+02  0.22820539191E+02  0.00000000000E+00 0.  1.
         25    2    1    2    0    0  0.00000000000E+00  0.00000000000E+00  0.14831149427E+03  0.19395257265E+03  0.12498520354E+03 0.  0.
          4    1    3    3  501    0 -0.56391127024E+02 -0.15367377011E+02  0.39917187932E+02  0.70794772940E+02  0.15500000000E+01 0.  1.
         -4    1    3    3    0  501  0.56391127024E+02  0.15367377011E+02  0.10839430633E+03  0.12315779971E+03  0.15500000000E+01 0.  1.
<mgrwt>
<rscale>  2 0.12498520E+03</rscale>
<asrwt>0</asrwt>
<pdfrwt beam="1">  1       21 0.26328004E-01 0.12498520E+03</pdfrwt>
<pdfrwt beam="2">  1       21 0.35108523E-02 0.12498520E+03</pdfrwt>
<totfact> 0.65610432E+06</totfact>
</mgrwt>
</event>
<event>
 5    0  0.1465274E+000  0.1249949E+03  0.7546771E-02  0.1235077E+00
         21   -1    0    0  503  502  0.00000000000E+00  0.00000000000E+00  0.10587526498E+03  0.10587526498E+03  0.00000000000E+00 0. -1.
         21   -1    0    0  502  503 -0.00000000000E+00 -0.00000000000E+00 -0.36891817206E+02  0.36891817206E+02  0.00000000000E+00 0. -1.
         25    2    1    2    0    0  0.00000000000E+00  0.00000000000E+00  0.68983447778E+02  0.14276708219E+03  0.12499489466E+03 0.  0.
          4    1    3    3  501    0  0.43892859406E+02 -0.96926351829E+01 -0.15071637687E+02  0.47435082441E+02  0.15500000000E+01 0. -1.
         -4    1    3    3    0  501 -0.43892859406E+02  0.96926351829E+01  0.84055085465E+02  0.95331999749E+02  0.15500000000E+01 0. -1.
<mgrwt>
<rscale>  2 0.12499489E+03</rscale>
<asrwt>0</asrwt>
<pdfrwt beam="1">  1       21 0.16288502E-01 0.12499489E+03</pdfrwt>
<pdfrwt beam="2">  1       21 0.56756642E-02 0.12499489E+03</pdfrwt>
<totfact> 0.71689421E+06</totfact>
</mgrwt>
</event>
<event>
 5    0  0.1564415E+000  0.1250009E+03  0.7546771E-02  0.1235068E+00
         21   -1    0    0  503  502  0.00000000000E+00  0.00000000000E+00  0.13886128143E+03  0.13886128143E+03  0.00000000000E+00 0.  1.
         21   -1    0    0  502  503 -0.00000000000E+00 -0.00000000000E+00 -0.28130984121E+02  0.28130984121E+02  0.00000000000E+00 0.  1.
         25    2    1    2    0    0  0.00000000000E+00  0.00000000000E+00  0.11073029731E+03  0.16699226555E+03  0.12500087204E+03 0.  0.
          4    1    3    3  501    0 -0.28156903249E+02 -0.53920751771E+02  0.74429340940E+02  0.96137339077E+02  0.15500000000E+01 0. -1.
         -4    1    3    3    0  501  0.28156903249E+02  0.53920751771E+02  0.36300956369E+02  0.70854926473E+02  0.15500000000E+01 0. -1.
<mgrwt>
<rscale>  2 0.12500087E+03</rscale>
<asrwt>0</asrwt>
<pdfrwt beam="1">  1       21 0.21363274E-01 0.12500087E+03</pdfrwt>
<pdfrwt beam="2">  1       21 0.43278438E-02 0.12500087E+03</pdfrwt>
<totfact> 0.68673528E+06</totfact>
</mgrwt>
</event>
<event>
 5    0  0.1453472E+000  0.1250064E+03  0.7546771E-02  0.1235059E+00
         21   -1    0    0  503  502  0.00000000000E+00  0.00000000000E+00  0.21966164549E+03  0.21966164549E+03  0.00000000000E+00 0. -1.
         21   -1    0    0  502  503 -0.00000000000E+00 -0.00000000000E+00 -0.17784844763E+02  0.17784844763E+02  0.00000000000E+00 0. -1.
         25    2    1    2    0    0  0.00000000000E+00  0.00000000000E+00  0.20187680073E+03  0.23744649025E+03  0.12500637209E+03 0.  0.
          4    1    3    3  501    0 -0.67626152357E+00 -0.60339993882E+02  0.70141495722E+02  0.92539743426E+02  0.15500000000E+01 0.  1.
         -4    1    3    3    0  501  0.67626152357E+00  0.60339993882E+02  0.13173530500E+03  0.14490674683E+03  0.15500000000E+01 0.  1.
<mgrwt>
<rscale>  2 0.12500637E+03</rscale>
<asrwt>0</asrwt>
<pdfrwt beam="1">  1       21 0.33794097E-01 0.12500637E+03</pdfrwt>
<pdfrwt beam="2">  1       21 0.27361301E-02 0.12500637E+03</pdfrwt>
<totfact> 0.61070821E+06</totfact>
</mgrwt>
</event>
<event>
 5    0  0.1628281E+000  0.1249840E+03  0.7546771E-02  0.1235094E+00
         21   -1    0    0  503  502  0.00000000000E+00  0.00000000000E+00  0.34587974127E+02  0.34587974127E+02  0.00000000000E+00 0. -1.
         21   -1    0    0  502  503 -0.00000000000E+00 -0.00000000000E+00 -0.11290767834E+03  0.11290767834E+03  0.00000000000E+00 0. -1.
         25    2    1    2    0    0  0.00000000000E+00  0.00000000000E+00 -0.78319704211E+02  0.14749565246E+03  0.12498396468E+03 0.  0.
          4    1    3    3  501    0  0.47984321506E+02 -0.33105977640E+02 -0.12657247150E+02  0.59675030551E+02  0.15500000000E+01 0.  1.
         -4    1    3    3    0  501 -0.47984321506E+02  0.33105977640E+02 -0.65662457061E+02  0.87820621913E+02  0.15500000000E+01 0.  1.
<mgrwt>
<rscale>  2 0.12498396E+03</rscale>
<asrwt>0</asrwt>
<pdfrwt beam="1">  1       21 0.53212268E-02 0.12498396E+03</pdfrwt>
<pdfrwt beam="2">  1       21 0.17370412E-01 0.12498396E+03</pdfrwt>
<totfact> 0.71104254E+06</totfact>
</mgrwt>
</event>
<event>
 5    0  0.1546086E+000  0.1250001E+03  0.7546771E-02  0.1235069E+00
         21   -1    0    0  503  502  0.00000000000E+00  0.00000000000E+00  0.32818235740E+02  0.32818235740E+02  0.00000000000E+00 0. -1.
         21   -1    0    0  502  503 -0.00000000000E+00 -0.00000000000E+00 -0.11902696488E+03  0.11902696488E+03  0.00000000000E+00 0. -1.
         25    2    1    2    0    0  0.00000000000E+00  0.00000000000E+00 -0.86208729140E+02  0.15184520062E+03  0.12500007989E+03 0.  0.
          4    1    3    3  501    0 -0.37842631559E+02 -0.35512321313E+02 -0.85371456828E+02  0.99919356830E+02  0.15500000000E+01 0.  1.
         -4    1    3    3    0  501  0.37842631559E+02  0.35512321313E+02 -0.83727231206E+00  0.51925843790E+02  0.15500000000E+01 0.  1.
<mgrwt>
<rscale>  2 0.12500008E+03</rscale>
<asrwt>0</asrwt>
<pdfrwt beam="1">  1       21 0.50489594E-02 0.12500008E+03</pdfrwt>
<pdfrwt beam="2">  1       21 0.18311841E-01 0.12500008E+03</pdfrwt>
<totfact> 0.70528030E+06</totfact>
</mgrwt>
</event>
<event>
 5    0  0.1222151E+000  0.1250000E+03  0.7546771E-02  0.1235069E+00
         21   -1    0    0  503  502  0.00000000000E+00  0.00000000000E+00  0.93565599362E+03  0.93565599362E+03  0.00000000000E+00 0. -1.
         21   -1    0    0  502  503 -0.00000000000E+00 -0.00000000000E+00 -0.41748808412E+01  0.41748808412E+01  0.00000000000E+00 0. -1.
         25    2    1    2    0    0  0.00000000000E+00  0.00000000000E+00  0.93148111277E+03  0.93983087446E+03  0.12500003651E+03 0.  0.
          4    1    3    3  501    0 -0.15380960345E+02 -0.55196438498E+02  0.65304824589E+03  0.65555902460E+03  0.15500000000E+01 0.  1.
         -4    1    3    3    0  501  0.15380960345E+02  0.55196438498E+02  0.27843286688E+03  0.28427184986E+03  0.15500000000E+01 0.  1.
<mgrwt>
<rscale>  2 0.12500004E+03</rscale>
<asrwt>0</asrwt>
<pdfrwt beam="1">  1       21 0.14394691E+00 0.12500004E+03</pdfrwt>
<pdfrwt beam="2">  1       21 0.64229011E-03 0.12500004E+03</pdfrwt>
<totfact> 0.25185670E+06</totfact>
</mgrwt>
</event>
<event>
 5    0  0.1537098E+000  0.1250647E+03  0.7546771E-02  0.1234968E+00
         21   -1    0    0  503  502  0.00000000000E+00  0.00000000000E+00  0.55563429804E+02  0.55563429804E+02  0.00000000000E+00 0. -1.
         21   -1    0    0  502  503 -0.00000000000E+00 -0.00000000000E+00 -0.70375334798E+02  0.70375334798E+02  0.00000000000E+00 0. -1.
         25    2    1    2    0    0  0.00000000000E+00  0.00000000000E+00 -0.14811904994E+02  0.12593876460E+03  0.12506470285E+03 0.  0.
          4    1    3    3  501    0  0.47157295181E+02  0.38317764091E+02  0.73879082226E+01  0.61229447340E+02  0.15500000000E+01 0. -1.
         -4    1    3    3    0  501 -0.47157295181E+02 -0.38317764091E+02 -0.22199813217E+02  0.64709317262E+02  0.15500000000E+01 0. -1.
<mgrwt>
<rscale>  2 0.12506470E+03</rscale>
<asrwt>0</asrwt>
<pdfrwt beam="1">  1       21 0.85482200E-02 0.12506470E+03</pdfrwt>
<pdfrwt beam="2">  1       21 0.10826975E-01 0.12506470E+03</pdfrwt>
<totfact> 0.73792618E+06</totfact>
</mgrwt>
</event>
<event>
 5    0  0.1440614E+000  0.1250042E+03  0.7546771E-02  0.1235063E+00
         21   -1    0    0  503  502  0.00000000000E+00  0.00000000000E+00  0.17042906665E+02  0.17042906665E+02  0.00000000000E+00 0. -1.
         21   -1    0    0  502  503 -0.00000000000E+00 -0.00000000000E+00 -0.22921649840E+03  0.22921649840E+03  0.00000000000E+00 0. -1.
         25    2    1    2    0    0  0.00000000000E+00  0.00000000000E+00 -0.21217359173E+03  0.24625940506E+03  0.12500424614E+03 0.  0.
          4    1    3    3  501    0 -0.13385701368E+00  0.32781358859E+02 -0.21087711948E+03  0.21341555105E+03  0.15500000000E+01 0.  1.
         -4    1    3    3    0  501  0.13385701368E+00 -0.32781358859E+02 -0.12964722481E+01  0.32843854016E+02  0.15500000000E+01 0.  1.
<mgrwt>
<rscale>  2 0.12500425E+03</rscale>
<asrwt>0</asrwt>
<pdfrwt beam="1">  1       21 0.26219860E-02 0.12500425E+03</pdfrwt>
<pdfrwt beam="2">  1       21 0.35264071E-01 0.12500425E+03</pdfrwt>
<totfact> 0.60225713E+06</totfact>
</mgrwt>
</event>
<event>
 5    0  0.1617875E+000  0.1249972E+03  0.7546771E-02  0.1235074E+00
         21   -1    0    0  503  502  0.00000000000E+00  0.00000000000E+00  0.48864910420E+02  0.48864910420E+02  0.00000000000E+00 0. -1.
         21   -1    0    0  502  503 -0.00000000000E+00 -0.00000000000E+00 -0.79936155141E+02  0.79936155141E+02  0.00000000000E+00 0. -1.
         25    2    1    2    0    0  0.00000000000E+00  0.00000000000E+00 -0.31071244720E+02  0.12880106556E+03  0.12499716893E+03 0.  0.
          4    1    3    3  501    0  0.58112102214E+02  0.16765521007E+02 -0.31683230783E+02  0.68295891028E+02  0.15500000000E+01 0. -1.
         -4    1    3    3    0  501 -0.58112102214E+02 -0.16765521007E+02  0.61198606277E+00  0.60505174534E+02  0.15500000000E+01 0. -1.
<mgrwt>
<rscale>  2 0.12499717E+03</rscale>
<asrwt>0</asrwt>
<pdfrwt beam="1">  1       21 0.75176786E-02 0.12499717E+03</pdfrwt>
<pdfrwt beam="2">  1       21 0.12297870E-01 0.12499717E+03</pdfrwt>
<totfact> 0.73530926E+06</totfact>
</mgrwt>
</event>
<event>
 5    0  0.1497352E+000  0.1249944E+03  0.7546771E-02  0.1235078E+00
         21   -1    0    0  503  502  0.00000000000E+00  0.00000000000E+00  0.22591932810E+03  0.22591932810E+03  0.00000000000E+00 0.  1.
         21   -1    0    0  502  503 -0.00000000000E+00 -0.00000000000E+00 -0.17288917674E+02  0.17288917674E+02  0.00000000000E+00 0.  1.
         25    2    1    2    0    0  0.00000000000E+00  0.00000000000E+00  0.20863041042E+03  0.24320824577E+03  0.12499441050E+03 0.  0.
          4    1    3    3  501    0  0.77184015860E+01 -0.58355642764E+02  0.63568359798E+02  0.86650410460E+02  0.15500000000E+01 0.  1.
         -4    1    3    3    0  501 -0.77184015860E+01  0.58355642764E+02  0.14506205063E+03  0.15655783531E+03  0.15500000000E+01 0.  1.
<mgrwt>
<rscale>  2 0.12499441E+03</rscale>
<asrwt>0</asrwt>
<pdfrwt beam="1">  1       21 0.34756818E-01 0.12499441E+03</pdfrwt>
<pdfrwt beam="2">  1       21 0.26598337E-02 0.12499441E+03</pdfrwt>
<totfact> 0.60532116E+06</totfact>
</mgrwt>
</event>
<event>
 5    0  0.1222151E+000  0.1250121E+03  0.7546771E-02  0.1235050E+00
         21   -1    0    0  503  502  0.00000000000E+00  0.00000000000E+00  0.69581915285E+03  0.69581915285E+03  0.00000000000E+00 0. -1.
         21   -1    0    0  502  503 -0.00000000000E+00 -0.00000000000E+00 -0.56149760967E+01  0.56149760967E+01  0.00000000000E+00 0. -1.
         25    2    1    2    0    0  0.00000000000E+00  0.00000000000E+00  0.69020417675E+03  0.70143412894E+03  0.12501212599E+03 0.  0.
          4    1    3    3  501    0  0.84372451423E+01  0.20104019745E+02  0.67367678570E+03  0.67403128474E+03  0.15500000000E+01 0. -1.
         -4    1    3    3    0  501 -0.84372451423E+01 -0.20104019745E+02  0.16527391047E+02  0.27402844201E+02  0.15500000000E+01 0. -1.
<mgrwt>
<rscale>  2 0.12501213E+03</rscale>
<asrwt>0</asrwt>
<pdfrwt beam="1">  1       21 0.10704903E+00 0.12501213E+03</pdfrwt>
<pdfrwt beam="2">  1       21 0.86384303E-03 0.12501213E+03</pdfrwt>
<totfact> 0.32845065E+06</totfact>
</mgrwt>
</event>
<event>
 5    0  0.1466408E+000  0.1249919E+03  0.7546771E-02  0.1235082E+00
         21   -1    0    0  503  502  0.00000000000E+00  0.00000000000E+00  0.27112789832E+02  0.27112789832E+02  0.00000000000E+00 0. -1.
         21   -1    0    0  502  503 -0.00000000000E+00 -0.00000000000E+00 -0.14405546709E+03  0.14405546709E+03  0.00000000000E+00 0. -1.
         25    2    1    2    0    0  0.00000000000E+00  0.00000000000E+00 -0.11694267726E+03  0.17116825692E+03  0.12499192939E+03 0.  0.
          4    1    3    3  501    0  0.45362368256E+02 -0.10510285779E+02 -0.14276522285E+01  0.46611707240E+02  0.15500000000E+01 0.  1.
         -4    1    3    3    0  501 -0.45362368256E+02  0.10510285779E+02 -0.11551502503E+03  0.12455654968E+03  0.15500000000E+01 0.  1.
<mgrwt>
<rscale>  2 0.12499193E+03</rscale>
<asrwt>0</asrwt>
<pdfrwt beam="1">  1       21 0.41711984E-02 0.12499193E+03</pdfrwt>
<pdfrwt beam="2">  1       21 0.22162380E-01 0.12499193E+03</pdfrwt>
<totfact> 0.68193384E+06</totfact>
</mgrwt>
</event>
<event>
 5    0  0.1603273E+000  0.1250142E+03  0.7546771E-02  0.1235047E+00
         21   -1    0    0  503  502  0.00000000000E+00  0.00000000000E+00  0.43640860770E+02  0.43640860770E+02  0.00000000000E+00 0.  1.
         21   -1    0    0  502  503 -0.00000000000E+00 -0.00000000000E+00 -0.89529341748E+02  0.89529341748E+02  0.00000000000E+00 0.  1.
         25    2    1    2    0    0  0.00000000000E+00  0.00000000000E+00 -0.45888480978E+02  0.13317020252E+03  0.12501419980E+03 0.  0.
          4    1    3    3  501    0 -0.46848460436E+02  0.36146580929E+02 -0.44338915423E+02  0.73957389617E+02  0.15500000000E+01 0. -1.
         -4    1    3    3    0  501  0.46848460436E+02 -0.36146580929E+02 -0.15495655552E+01  0.59212812900E+02  0.15500000000E+01 0. -1.
<mgrwt>
<rscale>  2 0.12501420E+03</rscale>
<asrwt>0</asrwt>
<pdfrwt beam="1">  1       21 0.67139786E-02 0.12501420E+03</pdfrwt>
<pdfrwt beam="2">  1       21 0.13773745E-01 0.12501420E+03</pdfrwt>
<totfact> 0.72913265E+06</totfact>
</mgrwt>
</event>
<event>
 4    0  0.1222151E+000  0.1251127E+03  0.7546771E-02  0.1234893E+00
         21   -1    0    0  503  502  0.00000000000E+00  0.00000000000E+00  0.43009072911E+01  0.43009072911E+01  0.00000000000E+00 0. -1.
         21   -1    0    0  502  503 -0.00000000000E+00 -0.00000000000E+00 -0.90987678751E+03  0.90987678751E+03  0.00000000000E+00 0. -1.
          4    1    1    2  501    0 -0.32498487231E+02 -0.53389209816E+02 -0.46799917047E+03  0.47215695002E+03  0.15500000000E+01 0.  1.
         -4    1    1    2    0  501  0.32498487231E+02  0.53389209816E+02 -0.43757670975E+03  0.44202074478E+03  0.15500000000E+01 0.  1.
<mgrwt>
<rscale>  2 0.12511268E+03</rscale>
<asrwt>0</asrwt>
<pdfrwt beam="1">  1       21 0.66167748E-03 0.12511268E+03</pdfrwt>
<pdfrwt beam="2">  1       21 0.13998116E+00 0.12511268E+03</pdfrwt>
<totfact> 0.25823437E+06</totfact>
</mgrwt>
</event>
<event>
 5    0  0.1540352E+000  0.1250085E+03  0.7546771E-02  0.1235056E+00
         21   -1    0    0  503  502  0.00000000000E+00  0.00000000000E+00  0.34549641284E+02  0.34549641284E+02  0.00000000000E+00 0. -1.
         21   -1    0    0  502  503 -0.00000000000E+00 -0.00000000000E+00 -0.11307734306E+03  0.11307734306E+03  0.00000000000E+00 0. -1.
         25    2    1    2    0    0  0.00000000000E+00  0.00000000000E+00 -0.78527701771E+02  0.14762698434E+03  0.12500850595E+03 0.  0.
          4    1    3    3  501    0  0.94269548534E+01  0.56501556211E+02 -0.97857084346E+01  0.58133088010E+02  0.15500000000E+01 0. -1.
         -4    1    3    3    0  501 -0.94269548534E+01 -0.56501556211E+02 -0.68741993337E+02  0.89493896328E+02  0.15500000000E+01 0. -1.
<mgrwt>
<rscale>  2 0.12500851E+03</rscale>
<asrwt>0</asrwt>
<pdfrwt beam="1">  1       21 0.53153295E-02 0.12500851E+03</pdfrwt>
<pdfrwt beam="2">  1       21 0.17396514E-01 0.12500851E+03</pdfrwt>
<totfact> 0.71043196E+06</totfact>
</mgrwt>
</event>
<event>
 5    0  0.1226083E+000  0.1249412E+03  0.7546771E-02  0.1235161E+00
         21   -1    0    0  503  502  0.00000000000E+00  0.00000000000E+00  0.11734178405E+02  0.11734178405E+02  0.00000000000E+00 0. -1.
         21   -1    0    0  502  503 -0.00000000000E+00 -0.00000000000E+00 -0.33258175608E+03  0.33258175608E+03  0.00000000000E+00 0. -1.
         25    2    1    2    0    0  0.00000000000E+00  0.00000000000E+00 -0.32084757767E+03  0.34431593448E+03  0.12494116471E+03 0.  0.
          4    1    3    3  501    0  0.25290848865E+02  0.46625255455E+02 -0.69580603781E+02  0.87506596352E+02  0.15500000000E+01 0. -1.
         -4    1    3    3    0  501 -0.25290848865E+02 -0.46625255455E+02 -0.25126697389E+03  0.25680933813E+03  0.15500000000E+01 0. -1.
<mgrwt>
<rscale>  2 0.12494116E+03</rscale>
<asrwt>0</asrwt>
<pdfrwt beam="1">  1       21 0.18052581E-02 0.12494116E+03</pdfrwt>
<pdfrwt beam="2">  1       21 0.51166426E-01 0.12494116E+03</pdfrwt>
<totfact> 0.52037650E+06</totfact>
</mgrwt>
</event>
<event>
 5    0  0.1222151E+000  0.1250068E+03  0.7546771E-02  0.1235059E+00
         21   -1    0    0  503  502  0.00000000000E+00  0.00000000000E+00  0.95445256949E+03  0.95445256949E+03  0.00000000000E+00 0.  1.
         21   -1    0    0  502  503 -0.00000000000E+00 -0.00000000000E+00 -0.40931046367E+01  0.40931046367E+01  0.00000000000E+00 0.  1.
         25    2    1    2    0    0  0.00000000000E+00  0.00000000000E+00  0.95035946486E+03  0.95854567413E+03  0.12500678762E+03 0.  0.
          4    1    3    3  501    0  0.60925002420E+02  0.12915901656E+02  0.51397326668E+03  0.51773506526E+03  0.15500000000E+01 0. -1.
         -4    1    3    3    0  501 -0.60925002420E+02 -0.12915901656E+02  0.43638619817E+03  0.44081060887E+03  0.15500000000E+01 0. -1.
<mgrwt>
<rscale>  2 0.12500679E+03</rscale>
<asrwt>0</asrwt>
<pdfrwt beam="1">  1       21 0.14683868E+00 0.12500679E+03</pdfrwt>
<pdfrwt beam="2">  1       21 0.62970916E-03 0.12500679E+03</pdfrwt>
<totfact> 0.24679876E+06</totfact>
</mgrwt>
</event>
<event>
 5    0  0.1320350E+000  0.1250005E+03  0.7546771E-02  0.1235069E+00
         21   -1    0    0  503  502  0.00000000000E+00  0.00000000000E+00  0.85548196165E+01  0.85548196165E+01  0.00000000000E+00 0. -1.
         21   -1    0    0  502  503 -0.00000000000E+00 -0.00000000000E+00 -0.45661748551E+03  0.45661748551E+03  0.00000000000E+00 0. -1.
         25    2    1    2    0    0  0.00000000000E+00  0.00000000000E+00 -0.44806266589E+03  0.46517230512E+03  0.12500048356E+03 0.  0.
          4    1    3    3  501    0 -0.17619253264E+02 -0.41092364512E+02 -0.61613627412E+02  0.76142380378E+02  0.15500000000E+01 0.  1.
         -4    1    3    3    0  501  0.17619253264E+02  0.41092364512E+02 -0.38644903848E+03  0.38902992475E+03  0.15500000000E+01 0.  1.
<mgrwt>
<rscale>  2 0.12500048E+03</rscale>
<asrwt>0</asrwt>
<pdfrwt beam="1">  1       21 0.13161266E-02 0.12500048E+03</pdfrwt>
<pdfrwt beam="2">  1       21 0.70248815E-01 0.12500048E+03</pdfrwt>
<totfact> 0.43997574E+06</totfact>
</mgrwt>
</event>
<event>
 5    0  0.1595852E+000  0.1249994E+03  0.7546771E-02  0.1235070E+00
         21   -1    0    0  503  502  0.00000000000E+00  0.00000000000E+00  0.10375600411E+03  0.10375600411E+03  0.00000000000E+00 0.  1.
         21   -1    0    0  502  503 -0.00000000000E+00 -0.00000000000E+00 -0.37648054420E+02  0.37648054420E+02  0.00000000000E+00 0.  1.
         25    2    1    2    0    0  0.00000000000E+00  0.00000000000E+00  0.66107949686E+02  0.14140405853E+03  0.12499938702E+03 0.  0.
          4    1    3    3  501    0  0.67623375108E+01  0.56350071485E+02  0.34953202552E+01  0.56883033751E+02  0.15500000000E+01 0.  1.
         -4    1    3    3    0  501 -0.67623375108E+01 -0.56350071485E+02  0.62612629431E+02  0.84521024776E+02  0.15500000000E+01 0.  1.
<mgrwt>
<rscale>  2 0.12499939E+03</rscale>
<asrwt>0</asrwt>
<pdfrwt beam="1">  1       21 0.15962462E-01 0.12499939E+03</pdfrwt>
<pdfrwt beam="2">  1       21 0.57920084E-02 0.12499939E+03</pdfrwt>
<totfact> 0.71857660E+06</totfact>
</mgrwt>
</event>
<event>
 5    0  0.1561101E+000  0.1249989E+03  0.7546771E-02  0.1235071E+00
         21   -1    0    0  503  502  0.00000000000E+00  0.00000000000E+00  0.23386327685E+02  0.23386327685E+02  0.00000000000E+00 0. -1.
         21   -1    0    0  502  503 -0.00000000000E+00 -0.00000000000E+00 -0.16702847376E+03  0.16702847376E+03  0.00000000000E+00 0. -1.
         25    2    1    2    0    0  0.00000000000E+00  0.00000000000E+00 -0.14364214607E+03  0.19041480144E+03  0.12499892191E+03 0.  0.
          4    1    3    3  501    0  0.54519847159E+02  0.18712826906E+02 -0.10854557629E+03  0.12291105832E+03  0.15500000000E+01 0.  1.
         -4    1    3    3    0  501 -0.54519847159E+02 -0.18712826906E+02 -0.35096569782E+02  0.67503743122E+02  0.15500000000E+01 0.  1.
<mgrwt>
<rscale>  2 0.12499892E+03</rscale>
<asrwt>0</asrwt>
<pdfrwt beam="1">  1       21 0.35978966E-02 0.12499892E+03</pdfrwt>
<pdfrwt beam="2">  1       21 0.25696688E-01 0.12499892E+03</pdfrwt>
<totfact> 0.65978195E+06</totfact>
</mgrwt>
</event>
<event>
 5    0  0.1222151E+000  0.1249994E+03  0.7546771E-02  0.1235070E+00
         21   -1    0    0  503  502  0.00000000000E+00  0.00000000000E+00  0.61223649102E+01  0.61223649102E+01  0.00000000000E+00 0.  1.
         21   -1    0    0  502  503 -0.00000000000E+00 -0.00000000000E+00 -0.63802298954E+03  0.63802298954E+03  0.00000000000E+00 0.  1.
         25    2    1    2    0    0  0.00000000000E+00  0.00000000000E+00 -0.63190062463E+03  0.64414535445E+03  0.12499935301E+03 0.  0.
          4    1    3    3  501    0 -0.26588367561E+02 -0.14340169864E+02 -0.34111579999E+02  0.45591492094E+02  0.15500000000E+01 0.  1.
         -4    1    3    3    0  501  0.26588367561E+02  0.14340169864E+02 -0.59778904463E+03  0.59855386235E+03  0.15500000000E+01 0.  1.
<mgrwt>
<rscale>  2 0.12499935E+03</rscale>
<asrwt>0</asrwt>
<pdfrwt beam="1">  1       21 0.94190213E-03 0.12499935E+03</pdfrwt>
<pdfrwt beam="2">  1       21 0.98157400E-01 0.12499935E+03</pdfrwt>
<totfact> 0.35169761E+06</totfact>
</mgrwt>
</event>
<event>
 5    0  0.1332835E+000  0.1250011E+03  0.7546771E-02  0.1235068E+00
         21   -1    0    0  503  502  0.00000000000E+00  0.00000000000E+00  0.73184667908E+01  0.73184667908E+01  0.00000000000E+00 0. -1.
         21   -1    0    0  502  503 -0.00000000000E+00 -0.00000000000E+00 -0.53376147950E+03  0.53376147950E+03  0.00000000000E+00 0. -1.
         25    2    1    2    0    0  0.00000000000E+00  0.00000000000E+00 -0.52644301271E+03  0.54107994629E+03  0.12500105059E+03 0.  0.
          4    1    3    3  501    0  0.60130619314E+02 -0.16645885583E+02 -0.27766651377E+03  0.28459422386E+03  0.15500000000E+01 0. -1.
         -4    1    3    3    0  501 -0.60130619314E+02  0.16645885583E+02 -0.24877649894E+03  0.25648572243E+03  0.15500000000E+01 0. -1.
<mgrwt>
<rscale>  2 0.12500105E+03</rscale>
<asrwt>0</asrwt>
<pdfrwt beam="1">  1       21 0.11259178E-02 0.12500105E+03</pdfrwt>
<pdfrwt beam="2">  1       21 0.82117166E-01 0.12500105E+03</pdfrwt>
<totfact> 0.39899340E+06</totfact>
</mgrwt>
</event>
<event>
 5    0  0.1523231E+000  0.1249989E+03  0.7546771E-02  0.1235071E+00
         21   -1    0    0  503  502  0.00000000000E+00  0.00000000000E+00  0.19807930108E+03  0.19807930108E+03  0.00000000000E+00 0.  1.
         21   -1    0    0  502  503 -0.00000000000E+00 -0.00000000000E+00 -0.19720291168E+02  0.19720291168E+02  0.00000000000E+00 0.  1.
         25    2    1    2    0    0  0.00000000000E+00  0.00000000000E+00  0.17835900991E+03  0.21779959225E+03  0.12499890386E+03 0.  0.
          4    1    3    3  501    0  0.44712910288E+01 -0.61656081094E+02  0.73371092040E+02  0.95954074570E+02  0.15500000000E+01 0.  1.
         -4    1    3    3    0  501 -0.44712910288E+01  0.61656081094E+02  0.10498791787E+03  0.12184551768E+03  0.15500000000E+01 0.  1.
<mgrwt>
<rscale>  2 0.12499890E+03</rscale>
<asrwt>0</asrwt>
<pdfrwt beam="1">  1       21 0.30473737E-01 0.12499890E+03</pdfrwt>
<pdfrwt beam="2">  1       21 0.30338911E-02 0.12499890E+03</pdfrwt>
<totfact> 0.63049904E+06</totfact>
</mgrwt>
</event>
<event>
 5    0  0.1549158E+000  0.1249950E+03  0.7546771E-02  0.1235077E+00
         21   -1    0    0  503  502  0.00000000000E+00  0.00000000000E+00  0.19525470184E+03  0.19525470184E+03  0.00000000000E+00 0. -1.
         21   -1    0    0  502  503 -0.00000000000E+00 -0.00000000000E+00 -0.20004322723E+02  0.20004322723E+02  0.00000000000E+00 0. -1.
         25    2    1    2    0    0  0.00000000000E+00  0.00000000000E+00  0.17525037911E+03  0.21525902456E+03  0.12499500900E+03 0.  0.
          4    1    3    3  501    0 -0.39062938445E+02  0.37801234791E+02  0.34581876585E+02  0.64444978080E+02  0.15500000000E+01 0. -1.
         -4    1    3    3    0  501  0.39062938445E+02 -0.37801234791E+02  0.14066850253E+03  0.15081404648E+03  0.15500000000E+01 0. -1.
<mgrwt>
<rscale>  2 0.12499501E+03</rscale>
<asrwt>0</asrwt>
<pdfrwt beam="1">  1       21 0.30039184E-01 0.12499501E+03</pdfrwt>
<pdfrwt beam="2">  1       21 0.30775882E-02 0.12499501E+03</pdfrwt>
<totfact> 0.63318429E+06</totfact>
</mgrwt>
</event>
<event>
 5    0  0.1325329E+000  0.1250001E+03  0.7546771E-02  0.1235069E+00
         21   -1    0    0  503  502  0.00000000000E+00  0.00000000000E+00  0.14506903858E+02  0.14506903858E+02  0.00000000000E+00 0.  1.
         21   -1    0    0  502  503 -0.00000000000E+00 -0.00000000000E+00 -0.26926869737E+03  0.26926869737E+03  0.00000000000E+00 0.  1.
         25    2    1    2    0    0  0.00000000000E+00  0.00000000000E+00 -0.25476179351E+03  0.28377560123E+03  0.12500008168E+03 0.  0.
          4    1    3    3  501    0  0.32290091991E+02 -0.39668042950E+01 -0.62816241685E+01  0.33169969540E+02  0.15500000000E+01 0.  1.
         -4    1    3    3    0  501 -0.32290091991E+02  0.39668042950E+01 -0.24848016934E+03  0.25060563169E+03  0.15500000000E+01 0.  1.
<mgrwt>
<rscale>  2 0.12500008E+03</rscale>
<asrwt>0</asrwt>
<pdfrwt beam="1">  1       21 0.22318314E-02 0.12500008E+03</pdfrwt>
<pdfrwt beam="2">  1       21 0.41425953E-01 0.12500008E+03</pdfrwt>
<totfact> 0.56831909E+06</totfact>
</mgrwt>
</event>
<event>
 5    0  0.1222151E+000  0.1250019E+03  0.7546771E-02  0.1235066E+00
         21   -1    0    0  503  502  0.00000000000E+00  0.00000000000E+00  0.70970289547E+03  0.70970289547E+03  0.00000000000E+00 0.  1.
         21   -1    0    0  502  503 -0.00000000000E+00 -0.00000000000E+00 -0.55042274274E+01  0.55042274274E+01  0.00000000000E+00 0.  1.
         25    2    1    2    0    0  0.00000000000E+00  0.00000000000E+00  0.70419866804E+03  0.71520712290E+03  0.12500185827E+03 0.  0.
          4    1    3    3  501    0 -0.40365759492E+02  0.31150572582E+02  0.14547128281E+03  0.15415592539E+03  0.15500000000E+01 0. -1.
         -4    1    3    3    0  501  0.40365759492E+02 -0.31150572582E+02  0.55872738524E+03  0.56105119751E+03  0.15500000000E+01 0. -1.
<mgrwt>
<rscale>  2 0.12500186E+03</rscale>
<asrwt>0</asrwt>
<pdfrwt beam="1">  1       21 0.10918499E+00 0.12500186E+03</pdfrwt>
<pdfrwt beam="2">  1       21 0.84680478E-03 0.12500186E+03</pdfrwt>
<totfact> 0.32330570E+06</totfact>
</mgrwt>
</event>
<event>
 5    0  0.1496734E+000  0.1249998E+03  0.7546771E-02  0.1235070E+00
         21   -1    0    0  503  502  0.00000000000E+00  0.00000000000E+00  0.13028879196E+02  0.13028879196E+02  0.00000000000E+00 0. -1.
         21   -1    0    0  502  503 -0.00000000000E+00 -0.00000000000E+00 -0.29981383091E+03  0.29981383091E+03  0.00000000000E+00 0. -1.
         25    2    1    2    0    0  0.00000000000E+00  0.00000000000E+00 -0.28678495171E+03  0.31284271010E+03  0.12499981095E+03 0.  0.
          4    1    3    3  501    0 -0.55816129287E+02  0.15950903935E+02 -0.85559878683E+02  0.10340583622E+03  0.15500000000E+01 0.  1.
         -4    1    3    3    0  501  0.55816129287E+02 -0.15950903935E+02 -0.20122507303E+03  0.20943687388E+03  0.15500000000E+01 0.  1.
<mgrwt>
<rscale>  2 0.12499981E+03</rscale>
<asrwt>0</asrwt>
<pdfrwt beam="1">  1       21 0.20044431E-02 0.12499981E+03</pdfrwt>
<pdfrwt beam="2">  1       21 0.46125202E-01 0.12499981E+03</pdfrwt>
<totfact> 0.54405699E+06</totfact>
</mgrwt>
</event>
<event>
 5    0  0.1495921E+000  0.1249972E+03  0.7546771E-02  0.1235074E+00
         21   -1    0    0  503  502  0.00000000000E+00  0.00000000000E+00  0.50409552213E+02  0.50409552213E+02  0.00000000000E+00 0.  1.
         21   -1    0    0  502  503 -0.00000000000E+00 -0.00000000000E+00 -0.77486760864E+02  0.77486760864E+02  0.00000000000E+00 0.  1.
         25    2    1    2    0    0  0.00000000000E+00  0.00000000000E+00 -0.27077208650E+02  0.12789631308E+03  0.12499716665E+03 0.  0.
          4    1    3    3  501    0 -0.18668390894E+02 -0.27211244852E+02 -0.67822957228E+02  0.75440815824E+02  0.15500000000E+01 0.  1.
         -4    1    3    3    0  501  0.18668390894E+02  0.27211244852E+02  0.40745748578E+02  0.52455497254E+02  0.15500000000E+01 0.  1.
<mgrwt>
<rscale>  2 0.12499717E+03</rscale>
<asrwt>0</asrwt>
<pdfrwt beam="1">  1       21 0.77553157E-02 0.12499717E+03</pdfrwt>
<pdfrwt beam="2">  1       21 0.11921040E-01 0.12499717E+03</pdfrwt>
<totfact> 0.73652898E+06</totfact>
</mgrwt>
</event>
<event>
 5    0  0.1415645E+000  0.1250010E+03  0.7546771E-02  0.1235068E+00
         21   -1    0    0  503  502  0.00000000000E+00  0.00000000000E+00  0.37451730823E+03  0.37451730823E+03  0.00000000000E+00 0. -1.
         21   -1    0    0  502  503 -0.00000000000E+00 -0.00000000000E+00 -0.10430265402E+02  0.10430265402E+02  0.00000000000E+00 0. -1.
         25    2    1    2    0    0  0.00000000000E+00  0.00000000000E+00  0.36408704283E+03  0.38494757363E+03  0.12500103876E+03 0.  0.
          4    1    3    3  501    0 -0.61480155859E+02  0.64356927980E+01  0.15404077775E+03  0.16598852797E+03  0.15500000000E+01 0. -1.
         -4    1    3    3    0  501  0.61480155859E+02 -0.64356927980E+01  0.21004626507E+03  0.21895904566E+03  0.15500000000E+01 0. -1.
<mgrwt>
<rscale>  2 0.12500104E+03</rscale>
<asrwt>0</asrwt>
<pdfrwt beam="1">  1       21 0.57618037E-01 0.12500104E+03</pdfrwt>
<pdfrwt beam="2">  1       21 0.16046565E-02 0.12500104E+03</pdfrwt>
<totfact> 0.49054783E+06</totfact>
</mgrwt>
</event>
<event>
 5    0  0.1610393E+000  0.1249975E+03  0.7546771E-02  0.1235073E+00
         21   -1    0    0  503  502  0.00000000000E+00  0.00000000000E+00  0.27912949580E+02  0.27912949580E+02  0.00000000000E+00 0. -1.
         21   -1    0    0  502  503 -0.00000000000E+00 -0.00000000000E+00 -0.13993837067E+03  0.13993837067E+03  0.00000000000E+00 0. -1.
         25    2    1    2    0    0  0.00000000000E+00  0.00000000000E+00 -0.11202542109E+03  0.16785132025E+03  0.12499748293E+03 0.  0.
          4    1    3    3  501    0 -0.45734395884E+02 -0.27115088742E+02 -0.10007798693E+03  0.11333520624E+03  0.15500000000E+01 0. -1.
         -4    1    3    3    0  501  0.45734395884E+02  0.27115088742E+02 -0.11947434162E+02  0.54516114016E+02  0.15500000000E+01 0. -1.
<mgrwt>
<rscale>  2 0.12499748E+03</rscale>
<asrwt>0</asrwt>
<pdfrwt beam="1">  1       21 0.42942999E-02 0.12499748E+03</pdfrwt>
<pdfrwt beam="2">  1       21 0.21528980E-01 0.12499748E+03</pdfrwt>
<totfact> 0.68577033E+06</totfact>
</mgrwt>
</event>
<event>
 5    0  0.1541468E+000  0.1249999E+03  0.7546771E-02  0.1235069E+00
         21   -1    0    0  503  502  0.00000000000E+00  0.00000000000E+00  0.28294831243E+02  0.28294831243E+02  0.00000000000E+00 0.  1.
         21   -1    0    0  502  503 -0.00000000000E+00 -0.00000000000E+00 -0.13805504637E+03  0.13805504637E+03  0.00000000000E+00 0.  1.
         25    2    1    2    0    0  0.00000000000E+00  0.00000000000E+00 -0.10976021512E+03  0.16634987761E+03  0.12499990783E+03 0.  0.
          4    1    3    3  501    0 -0.22618868513E+02 -0.48606181175E+02 -0.12176817837E+02  0.54998649564E+02  0.15500000000E+01 0.  1.
         -4    1    3    3    0  501  0.22618868513E+02  0.48606181175E+02 -0.97583397288E+02  0.11135122805E+03  0.15500000000E+01 0.  1.
<mgrwt>
<rscale>  2 0.12499991E+03</rscale>
<asrwt>0</asrwt>
<pdfrwt beam="1">  1       21 0.43530510E-02 0.12499991E+03</pdfrwt>
<pdfrwt beam="2">  1       21 0.21239238E-01 0.12499991E+03</pdfrwt>
<totfact> 0.68751974E+06</totfact>
</mgrwt>
</event>
<event>
 5    0  0.1325858E+000  0.1249987E+03  0.7546771E-02  0.1235071E+00
         21   -1    0    0  503  502  0.00000000000E+00  0.00000000000E+00  0.96571402566E+01  0.96571402566E+01  0.00000000000E+00 0.  1.
         21   -1    0    0  502  503 -0.00000000000E+00 -0.00000000000E+00 -0.40448533878E+03  0.40448533878E+03  0.00000000000E+00 0.  1.
         25    2    1    2    0    0  0.00000000000E+00  0.00000000000E+00 -0.39482819853E+03  0.41414247904E+03  0.12499874637E+03 0.  0.
          4    1    3    3  501    0 -0.22880885525E+02  0.41413916246E+02 -0.62217078815E+02  0.78179375653E+02  0.15500000000E+01 0. -1.
         -4    1    3    3    0  501  0.22880885525E+02 -0.41413916246E+02 -0.33261111971E+03  0.33596310339E+03  0.15500000000E+01 0. -1.
<mgrwt>
<rscale>  2 0.12499875E+03</rscale>
<asrwt>0</asrwt>
<pdfrwt beam="1">  1       21 0.14857139E-02 0.12499875E+03</pdfrwt>
<pdfrwt beam="2">  1       21 0.62228511E-01 0.12499875E+03</pdfrwt>
<totfact> 0.47118705E+06</totfact>
</mgrwt>
</event>
<event>
 5    0  0.1535034E+000  0.1249990E+03  0.7546771E-02  0.1235071E+00
         21   -1    0    0  503  502  0.00000000000E+00  0.00000000000E+00  0.21010521337E+03  0.21010521337E+03  0.00000000000E+00 0. -1.
         21   -1    0    0  502  503 -0.00000000000E+00 -0.00000000000E+00 -0.18591576428E+02  0.18591576428E+02  0.00000000000E+00 0. -1.
         25    2    1    2    0    0  0.00000000000E+00  0.00000000000E+00  0.19151363695E+03  0.22869678980E+03  0.12499899411E+03 0.  0.
          4    1    3    3  501    0  0.47269547186E+02  0.40354038303E+02  0.84052290322E+02  0.10454687230E+03  0.15500000000E+01 0.  1.
         -4    1    3    3    0  501 -0.47269547186E+02 -0.40354038303E+02  0.10746134662E+03  0.12414991751E+03  0.15500000000E+01 0.  1.
<mgrwt>
<rscale>  2 0.12499899E+03</rscale>
<asrwt>0</asrwt>
<pdfrwt beam="1">  1       21 0.32323877E-01 0.12499899E+03</pdfrwt>
<pdfrwt beam="2">  1       21 0.28602427E-02 0.12499899E+03</pdfrwt>
<totfact> 0.61945485E+06</totfact>
</mgrwt>
</event>
<event>
 5    0  0.1222151E+000  0.1250019E+03  0.7546771E-02  0.1235066E+00
         21   -1    0    0  503  502  0.00000000000E+00  0.00000000000E+00  0.44156897232E+01  0.44156897232E+01  0.00000000000E+00 0.  1.
         21   -1    0    0  502  503 -0.00000000000E+00 -0.00000000000E+00 -0.88465668162E+03  0.88465668162E+03  0.00000000000E+00 0.  1.
         25    2    1    2    0    0  0.00000000000E+00  0.00000000000E+00 -0.88024099189E+03  0.88907237134E+03  0.12500191067E+03 0.  0.
          4    1    3    3  501    0 -0.42603094510E+02 -0.26622064027E+02 -0.17588394937E+03  0.18292436716E+03  0.15500000000E+01 0. -1.
         -4    1    3    3    0  501  0.42603094510E+02  0.26622064027E+02 -0.70435704252E+03  0.70614800418E+03  0.15500000000E+01 0. -1.
<mgrwt>
<rscale>  2 0.12500191E+03</rscale>
<asrwt>0</asrwt>
<pdfrwt beam="1">  1       21 0.67933656E-03 0.12500191E+03</pdfrwt>
<pdfrwt beam="2">  1       21 0.13610109E+00 0.12500191E+03</pdfrwt>
<totfact> 0.26612659E+06</totfact>
</mgrwt>
</event>
<event>
 5    0  0.1222151E+000  0.1249958E+03  0.7546771E-02  0.1235076E+00
         21   -1    0    0  503  502  0.00000000000E+00  0.00000000000E+00  0.54369525884E+01  0.54369525884E+01  0.00000000000E+00 0. -1.
         21   -1    0    0  502  503 -0.00000000000E+00 -0.00000000000E+00 -0.71841448971E+03  0.71841448971E+03  0.00000000000E+00 0. -1.
         25    2    1    2    0    0  0.00000000000E+00  0.00000000000E+00 -0.71297753713E+03  0.72385144230E+03  0.12499576824E+03 0.  0.
          4    1    3    3  501    0 -0.28593889178E+02 -0.44763411906E+02 -0.54699526938E+03  0.54957037836E+03  0.15500000000E+01 0.  1.
         -4    1    3    3    0  501  0.28593889178E+02  0.44763411906E+02 -0.16598226774E+03  0.17428106394E+03  0.15500000000E+01 0.  1.
<mgrwt>
<rscale>  2 0.12499577E+03</rscale>
<asrwt>0</asrwt>
<pdfrwt beam="1">  1       21 0.83645434E-03 0.12499577E+03</pdfrwt>
<pdfrwt beam="2">  1       21 0.11052529E+00 0.12499577E+03</pdfrwt>
<totfact> 0.32013986E+06</totfact>
</mgrwt>
</event>
<event>
 5    0  0.1507966E+000  0.1249828E+03  0.7546771E-02  0.1235096E+00
         21   -1    0    0  503  502  0.00000000000E+00  0.00000000000E+00  0.16730825224E+03  0.16730825224E+03  0.00000000000E+00 0. -1.
         21   -1    0    0  502  503 -0.00000000000E+00 -0.00000000000E+00 -0.23341181485E+02  0.23341181485E+02  0.00000000000E+00 0. -1.
         25    2    1    2    0    0  0.00000000000E+00  0.00000000000E+00  0.14396707075E+03  0.19064943372E+03  0.12498275528E+03 0.  0.
          4    1    3    3  501    0 -0.22400612476E+00 -0.36378340960E+02  0.14945457380E+03  0.15382622013E+03  0.15500000000E+01 0.  1.
         -4    1    3    3    0  501  0.22400612476E+00  0.36378340960E+02 -0.54875030446E+01  0.36823213595E+02  0.15500000000E+01 0.  1.
<mgrwt>
<rscale>  2 0.12498276E+03</rscale>
<asrwt>0</asrwt>
<pdfrwt beam="1">  1       21 0.25739730E-01 0.12498276E+03</pdfrwt>
<pdfrwt beam="2">  1       21 0.35909511E-02 0.12498276E+03</pdfrwt>
<totfact> 0.65979185E+06</totfact>
</mgrwt>
</event>
<event>
 5    0  0.1408644E+000  0.1250073E+03  0.7546771E-02  0.1235058E+00
         21   -1    0    0  503  502  0.00000000000E+00  0.00000000000E+00  0.18789547750E+02  0.18789547750E+02  0.00000000000E+00 0.  1.
         21   -1    0    0  502  503 -0.00000000000E+00 -0.00000000000E+00 -0.20791911519E+03  0.20791911519E+03  0.00000000000E+00 0.  1.
         25    2    1    2    0    0  0.00000000000E+00  0.00000000000E+00 -0.18912956744E+03  0.22670866294E+03  0.12500729808E+03 0.  0.
          4    1    3    3  501    0  0.18113413849E+02 -0.34029282401E+02 -0.53821535640E+01  0.38954561979E+02  0.15500000000E+01 0.  1.
         -4    1    3    3    0  501 -0.18113413849E+02  0.34029282401E+02 -0.18374741388E+03  0.18775410096E+03  0.15500000000E+01 0.  1.
<mgrwt>
<rscale>  2 0.12500730E+03</rscale>
<asrwt>0</asrwt>
<pdfrwt beam="1">  1       21 0.28906995E-02 0.12500730E+03</pdfrwt>
<pdfrwt beam="2">  1       21 0.31987558E-01 0.12500730E+03</pdfrwt>
<totfact> 0.62131606E+06</totfact>
</mgrwt>
</event>
<event>
 5    0  0.1639904E+000  0.1250138E+03  0.7546771E-02  0.1235048E+00
         21   -1    0    0  503  502  0.00000000000E+00  0.00000000000E+00  0.23107808368E+02  0.23107808368E+02  0.00000000000E+00 0. -1.
         21   -1    0    0  502  503 -0.00000000000E+00 -0.00000000000E+00 -0.16908204409E+03  0.16908204409E+03  0.00000000000E+00 0. -1.
         25    2    1    2    0    0  0.00000000000E+00  0.00000000000E+00 -0.14597423573E+03  0.19218985246E+03  0.12501384681E+03 0.  0.
          4    1    3    3  501    0 -0.99966985630E+01  0.60689686340E+02 -0.89935711659E+02  0.10896791611E+03  0.15500000000E+01 0.  1.
         -4    1    3    3    0  501  0.99966985630E+01 -0.60689686340E+02 -0.56038524068E+02  0.83221936351E+02  0.15500000000E+01 0.  1.
<mgrwt>
<rscale>  2 0.12501385E+03</rscale>
<asrwt>0</asrwt>
<pdfrwt beam="1">  1       21 0.35550473E-02 0.12501385E+03</pdfrwt>
<pdfrwt beam="2">  1       21 0.26012623E-01 0.12501385E+03</pdfrwt>
<totfact> 0.65756833E+06</totfact>
</mgrwt>
</event>
<event>
 4    0  0.1944238E+000  0.1249020E+03  0.7546771E-02  0.1235223E+00
         21   -1    0    0  503  502  0.00000000000E+00  0.00000000000E+00  0.71179239659E+02  0.71179239659E+02  0.00000000000E+00 0.  1.
         21   -1    0    0  502  503 -0.00000000000E+00 -0.00000000000E+00 -0.54793002812E+02  0.54793002812E+02  0.00000000000E+00 0.  1.
          4    1    1    2  501    0  0.46399576514E+02  0.41529854804E+02  0.12711714718E+02  0.63573891904E+02  0.15500000000E+01 0.  1.
         -4    1    1    2    0  501 -0.46399576514E+02 -0.41529854804E+02  0.36745221290E+01  0.62398350568E+02  0.15500000000E+01 0.  1.
<mgrwt>
<rscale>  2 0.12490195E+03</rscale>
<asrwt>0</asrwt>
<pdfrwt beam="1">  1       21 0.10950652E-01 0.12490195E+03</pdfrwt>
<pdfrwt beam="2">  1       21 0.84296927E-02 0.12490195E+03</pdfrwt>
<totfact> 0.74095050E+06</totfact>
</mgrwt>
</event>
<event>
 5    0  0.1352725E+000  0.1250029E+03  0.7546771E-02  0.1235065E+00
         21   -1    0    0  503  502  0.00000000000E+00  0.00000000000E+00  0.57379168651E+03  0.57379168651E+03  0.00000000000E+00 0. -1.
         21   -1    0    0  502  503 -0.00000000000E+00 -0.00000000000E+00 -0.68081005447E+01  0.68081005447E+01  0.00000000000E+00 0. -1.
         25    2    1    2    0    0  0.00000000000E+00  0.00000000000E+00  0.56698358597E+03  0.58059978706E+03  0.12500290386E+03 0.  0.
          4    1    3    3  501    0  0.51773829913E+02  0.19162901249E+02  0.14757742603E+03  0.15757298443E+03  0.15500000000E+01 0.  1.
         -4    1    3    3    0  501 -0.51773829913E+02 -0.19162901249E+02  0.41940615994E+03  0.42302680263E+03  0.15500000000E+01 0.  1.
<mgrwt>
<rscale>  2 0.12500290E+03</rscale>
<asrwt>0</asrwt>
<pdfrwt beam="1">  1       21 0.88275606E-01 0.12500290E+03</pdfrwt>
<pdfrwt beam="2">  1       21 0.10474005E-02 0.12500290E+03</pdfrwt>
<totfact> 0.37982209E+06</totfact>
</mgrwt>
</event>
<event>
 5    0  0.1443511E+000  0.1250062E+03  0.7546771E-02  0.1235060E+00
         21   -1    0    0  503  502  0.00000000000E+00  0.00000000000E+00  0.10368099530E+03  0.10368099530E+03  0.00000000000E+00 0.  1.
         21   -1    0    0  502  503 -0.00000000000E+00 -0.00000000000E+00 -0.37679425246E+02  0.37679425246E+02  0.00000000000E+00 0.  1.
         25    2    1    2    0    0  0.00000000000E+00  0.00000000000E+00  0.66001570058E+02  0.14136042055E+03  0.12500624483E+03 0.  0.
          4    1    3    3  501    0  0.29923338276E+02 -0.11966533383E+02  0.93535772731E+02  0.98944162916E+02  0.15500000000E+01 0.  1.
         -4    1    3    3    0  501 -0.29923338276E+02  0.11966533383E+02 -0.27534202673E+02  0.42416257633E+02  0.15500000000E+01 0.  1.
<mgrwt>
<rscale>  2 0.12500624E+03</rscale>
<asrwt>0</asrwt>
<pdfrwt beam="1">  1       21 0.15950922E-01 0.12500624E+03</pdfrwt>
<pdfrwt beam="2">  1       21 0.57968347E-02 0.12500624E+03</pdfrwt>
<totfact> 0.71850772E+06</totfact>
</mgrwt>
</event>
<event>
 5    0  0.1505994E+000  0.1249989E+03  0.7546771E-02  0.1235071E+00
         21   -1    0    0  503  502  0.00000000000E+00  0.00000000000E+00  0.29087789454E+02  0.29087789454E+02  0.00000000000E+00 0. -1.
         21   -1    0    0  502  503 -0.00000000000E+00 -0.00000000000E+00 -0.13428934690E+03  0.13428934690E+03  0.00000000000E+00 0. -1.
         25    2    1    2    0    0  0.00000000000E+00  0.00000000000E+00 -0.10520155744E+03  0.16337713635E+03  0.12499888397E+03 0.  0.
          4    1    3    3  501    0 -0.37365329254E+02 -0.43228155358E+02 -0.85638797379E+02  0.10296235896E+03  0.15500000000E+01 0. -1.
         -4    1    3    3    0  501  0.37365329254E+02  0.43228155358E+02 -0.19562760063E+02  0.60414777391E+02  0.15500000000E+01 0. -1.
<mgrwt>
<rscale>  2 0.12499888E+03</rscale>
<asrwt>0</asrwt>
<pdfrwt beam="1">  1       21 0.44750444E-02 0.12499888E+03</pdfrwt>
<pdfrwt beam="2">  1       21 0.20659900E-01 0.12499888E+03</pdfrwt>
<totfact> 0.69111143E+06</totfact>
</mgrwt>
</event>
<event>
 5    0  0.1573380E+000  0.1250013E+03  0.7546771E-02  0.1235067E+00
         21   -1    0    0  503  502  0.00000000000E+00  0.00000000000E+00  0.20594406225E+02  0.20594406225E+02  0.00000000000E+00 0.  1.
         21   -1    0    0  502  503 -0.00000000000E+00 -0.00000000000E+00 -0.18967931824E+03  0.18967931824E+03  0.00000000000E+00 0.  1.
         25    2    1    2    0    0  0.00000000000E+00  0.00000000000E+00 -0.16908491202E+03  0.21027372447E+03  0.12500132691E+03 0.  0.
          4    1    3    3  501    0  0.74391814839E+01  0.61691952153E+02 -0.73551286809E+02  0.96298663920E+02  0.15500000000E+01 0. -1.
         -4    1    3    3    0  501 -0.74391814839E+01 -0.61691952153E+02 -0.95533625209E+02  0.11397506055E+03  0.15500000000E+01 0. -1.
<mgrwt>
<rscale>  2 0.12500133E+03</rscale>
<asrwt>0</asrwt>
<pdfrwt beam="1">  1       21 0.31683702E-02 0.12500133E+03</pdfrwt>
<pdfrwt beam="2">  1       21 0.29181433E-01 0.12500133E+03</pdfrwt>
<totfact> 0.63828606E+06</totfact>
</mgrwt>
</event>
<event>
 5    0  0.1340788E+000  0.1250180E+03  0.7546771E-02  0.1235041E+00
         21   -1    0    0  503  502  0.00000000000E+00  0.00000000000E+00  0.66459110820E+01  0.66459110820E+01  0.00000000000E+00 0. -1.
         21   -1    0    0  502  503 -0.00000000000E+00 -0.00000000000E+00 -0.58793640363E+03  0.58793640363E+03  0.00000000000E+00 0. -1.
         25    2    1    2    0    0  0.00000000000E+00  0.00000000000E+00 -0.58129049255E+03  0.59458231471E+03  0.12501796768E+03 0.  0.
          4    1    3    3  501    0  0.95958506359E+01 -0.55519425470E+02 -0.16210332416E+03  0.17162277575E+03  0.15500000000E+01 0.  1.
         -4    1    3    3    0  501 -0.95958506359E+01  0.55519425470E+02 -0.41918716839E+03  0.42295953896E+03  0.15500000000E+01 0.  1.
<mgrwt>
<rscale>  2 0.12501797E+03</rscale>
<asrwt>0</asrwt>
<pdfrwt beam="1">  1       21 0.10224482E-02 0.12501797E+03</pdfrwt>
<pdfrwt beam="2">  1       21 0.90451725E-01 0.12501797E+03</pdfrwt>
<totfact> 0.37322138E+06</totfact>
</mgrwt>
</event>
<event>
 5    0  0.1496266E+000  0.1250021E+03  0.7546771E-02  0.1235066E+00
         21   -1    0    0  503  502  0.00000000000E+00  0.00000000000E+00  0.21860042917E+02  0.21860042917E+02  0.00000000000E+00 0. -1.
         21   -1    0    0  502  503 -0.00000000000E+00 -0.00000000000E+00 -0.17869972849E+03  0.17869972849E+03  0.00000000000E+00 0. -1.
         25    2    1    2    0    0  0.00000000000E+00  0.00000000000E+00 -0.15683968557E+03  0.20055977140E+03  0.12500213973E+03 0.  0.
          4    1    3    3  501    0 -0.38190405541E+02 -0.43862923992E+02 -0.11506031432E+03  0.12893308965E+03  0.15500000000E+01 0. -1.
         -4    1    3    3    0  501  0.38190405541E+02  0.43862923992E+02 -0.41779371252E+02  0.71626681752E+02  0.15500000000E+01 0. -1.
<mgrwt>
<rscale>  2 0.12500214E+03</rscale>
<asrwt>0</asrwt>
<pdfrwt beam="1">  1       21 0.33630836E-02 0.12500214E+03</pdfrwt>
<pdfrwt beam="2">  1       21 0.27492265E-01 0.12500214E+03</pdfrwt>
<totfact> 0.64863134E+06</totfact>
</mgrwt>
</event>
<event>
 5    0  0.1222151E+000  0.1249986E+03  0.7546771E-02  0.1235071E+00
         21   -1    0    0  503  502  0.00000000000E+00  0.00000000000E+00  0.60075911081E+02  0.60075911081E+02  0.00000000000E+00 0. -1.
         21   -1    0    0  502  503 -0.00000000000E+00 -0.00000000000E+00 -0.65020430010E+02  0.65020430010E+02  0.00000000000E+00 0. -1.
         25    2    1    2    0    0  0.00000000000E+00  0.00000000000E+00 -0.49445189296E+01  0.12509634109E+03  0.12499858514E+03 0.  0.
          4    1    3    3  501    0 -0.14774572219E+02 -0.17818119988E+02  0.55607475877E+02  0.60252529056E+02  0.15500000000E+01 0.  1.
         -4    1    3    3    0  501  0.14774572219E+02  0.17818119988E+02 -0.60551994807E+02  0.64843812035E+02  0.15500000000E+01 0.  1.
<mgrwt>
<rscale>  2 0.12499859E+03</rscale>
<asrwt>0</asrwt>
<pdfrwt beam="1">  1       21 0.92424479E-02 0.12499859E+03</pdfrwt>
<pdfrwt beam="2">  1       21 0.10003143E-01 0.12499859E+03</pdfrwt>
<totfact> 0.74033247E+06</totfact>
</mgrwt>
</event>
<event>
 5    0  0.1484067E+000  0.1249716E+03  0.7546771E-02  0.1235114E+00
         21   -1    0    0  503  502  0.00000000000E+00  0.00000000000E+00  0.79511551197E+02  0.79511551197E+02  0.00000000000E+00 0.  1.
         21   -1    0    0  502  503 -0.00000000000E+00 -0.00000000000E+00 -0.49105747718E+02  0.49105747718E+02  0.00000000000E+00 0.  1.
         25    2    1    2    0    0  0.00000000000E+00  0.00000000000E+00  0.30405803479E+02  0.12861729892E+03  0.12497158355E+03 0.  0.
          4    1    3    3  501    0  0.34267457559E+02  0.41223890664E+01 -0.38381497631E+02  0.51641016639E+02  0.15500000000E+01 0.  1.
         -4    1    3    3    0  501 -0.34267457559E+02 -0.41223890664E+01  0.68787301109E+02  0.76976282276E+02  0.15500000000E+01 0.  1.
<mgrwt>
<rscale>  2 0.12497158E+03</rscale>
<asrwt>0</asrwt>
<pdfrwt beam="1">  1       21 0.12232546E-01 0.12497158E+03</pdfrwt>
<pdfrwt beam="2">  1       21 0.75547304E-02 0.12497158E+03</pdfrwt>
<totfact> 0.73603716E+06</totfact>
</mgrwt>
</event>
<event>
 5    0  0.1500989E+000  0.1249971E+03  0.7546771E-02  0.1235074E+00
         21   -1    0    0  503  502  0.00000000000E+00  0.00000000000E+00  0.13456000168E+03  0.13456000168E+03  0.00000000000E+00 0.  1.
         21   -1    0    0  502  503 -0.00000000000E+00 -0.00000000000E+00 -0.29028437519E+02  0.29028437519E+02  0.00000000000E+00 0.  1.
         25    2    1    2    0    0  0.00000000000E+00  0.00000000000E+00  0.10553156416E+03  0.16358843920E+03  0.12499706559E+03 0.  0.
          4    1    3    3  501    0 -0.42899948525E+02  0.13742339844E+02 -0.38952779398E+01  0.45241940477E+02  0.15500000000E+01 0.  1.
         -4    1    3    3    0  501  0.42899948525E+02 -0.13742339844E+02  0.10942684210E+03  0.11834649872E+03  0.15500000000E+01 0.  1.
<mgrwt>
<rscale>  2 0.12499707E+03</rscale>
<asrwt>0</asrwt>
<pdfrwt beam="1">  1       21 0.20701538E-01 0.12499707E+03</pdfrwt>
<pdfrwt beam="2">  1       21 0.44659135E-02 0.12499707E+03</pdfrwt>
<totfact> 0.69088817E+06</totfact>
</mgrwt>
</event>
<event>
 5    0  0.1538360E+000  0.1250081E+03  0.7546771E-02  0.1235057E+00
         21   -1    0    0  503  502  0.00000000000E+00  0.00000000000E+00  0.66736709846E+02  0.66736709846E+02  0.00000000000E+00 0. -1.
         21   -1    0    0  502  503 -0.00000000000E+00 -0.00000000000E+00 -0.58539850398E+02  0.58539850398E+02  0.00000000000E+00 0. -1.
         25    2    1    2    0    0  0.00000000000E+00  0.00000000000E+00  0.81968594475E+01  0.12527656024E+03  0.12500811190E+03 0.  0.
          4    1    3    3  501    0  0.41679337739E+02  0.32856475103E+02  0.37148628999E+02  0.64800758383E+02  0.15500000000E+01 0.  1.
         -4    1    3    3    0  501 -0.41679337739E+02 -0.32856475103E+02 -0.28951769551E+02  0.60475801861E+02  0.15500000000E+01 0.  1.
<mgrwt>
<rscale>  2 0.12500811E+03</rscale>
<asrwt>0</asrwt>
<pdfrwt beam="1">  1       21 0.10267186E-01 0.12500811E+03</pdfrwt>
<pdfrwt beam="2">  1       21 0.90061308E-02 0.12500811E+03</pdfrwt>
<totfact> 0.73990890E+06</totfact>
</mgrwt>
</event>
<event>
 5    0  0.1421812E+000  0.1249866E+03  0.7546771E-02  0.1235090E+00
         21   -1    0    0  503  502  0.00000000000E+00  0.00000000000E+00  0.38617551119E+03  0.38617551119E+03  0.00000000000E+00 0. -1.
         21   -1    0    0  502  503 -0.00000000000E+00 -0.00000000000E+00 -0.10113049186E+02  0.10113049186E+02  0.00000000000E+00 0. -1.
         25    2    1    2    0    0  0.00000000000E+00  0.00000000000E+00  0.37606246200E+03  0.39628856037E+03  0.12498659030E+03 0.  0.
          4    1    3    3  501    0  0.17820785058E+02 -0.56762715971E+02  0.12758706353E+03  0.14078511137E+03  0.15500000000E+01 0. -1.
         -4    1    3    3    0  501 -0.17820785058E+02  0.56762715971E+02  0.24847539848E+03  0.25550344900E+03  0.15500000000E+01 0. -1.
<mgrwt>
<rscale>  2 0.12498659E+03</rscale>
<asrwt>0</asrwt>
<pdfrwt beam="1">  1       21 0.59411606E-01 0.12498659E+03</pdfrwt>
<pdfrwt beam="2">  1       21 0.15558540E-02 0.12498659E+03</pdfrwt>
<totfact> 0.48304700E+06</totfact>
</mgrwt>
</event>
<event>
 5    0  0.1222151E+000  0.1250004E+03  0.7546771E-02  0.1235069E+00
         21   -1    0    0  503  502  0.00000000000E+00  0.00000000000E+00  0.95456467466E+03  0.95456467466E+03  0.00000000000E+00 0.  1.
         21   -1    0    0  502  503 -0.00000000000E+00 -0.00000000000E+00 -0.40922033823E+01  0.40922033823E+01  0.00000000000E+00 0.  1.
         25    2    1    2    0    0  0.00000000000E+00  0.00000000000E+00  0.95047247127E+03  0.95865687804E+03  0.12500036464E+03 0.  0.
          4    1    3    3  501    0  0.54225555364E+02 -0.30640389889E+02  0.51329444486E+03  0.51706173130E+03  0.15500000000E+01 0.  1.
         -4    1    3    3    0  501 -0.54225555364E+02  0.30640389889E+02  0.43717802641E+03  0.44159514674E+03  0.15500000000E+01 0.  1.
<mgrwt>
<rscale>  2 0.12500036E+03</rscale>
<asrwt>0</asrwt>
<pdfrwt beam="1">  1       21 0.14685593E+00 0.12500036E+03</pdfrwt>
<pdfrwt beam="2">  1       21 0.62957051E-03 0.12500036E+03</pdfrwt>
<totfact> 0.24680858E+06</totfact>
</mgrwt>
</event>
<event>
 5    0  0.1414165E+000  0.1250028E+03  0.7546771E-02  0.1235065E+00
         21   -1    0    0  503  502  0.00000000000E+00  0.00000000000E+00  0.38453654934E+03  0.38453654934E+03  0.00000000000E+00 0.  1.
         21   -1    0    0  502  503 -0.00000000000E+00 -0.00000000000E+00 -0.10158788035E+02  0.10158788035E+02  0.00000000000E+00 0.  1.
         25    2    1    2    0    0  0.00000000000E+00  0.00000000000E+00  0.37437776131E+03  0.39469533738E+03  0.12500280471E+03 0.  0.
          4    1    3    3  501    0 -0.58249240898E+02 -0.15558231993E+02  0.23897464919E+03  0.24646768166E+03  0.15500000000E+01 0.  1.
         -4    1    3    3    0  501  0.58249240898E+02  0.15558231993E+02  0.13540311212E+03  0.14822765572E+03  0.15500000000E+01 0.  1.
<mgrwt>
<rscale>  2 0.12500280E+03</rscale>
<asrwt>0</asrwt>
<pdfrwt beam="1">  1       21 0.59159458E-01 0.12500280E+03</pdfrwt>
<pdfrwt beam="2">  1       21 0.15628908E-02 0.12500280E+03</pdfrwt>
<totfact> 0.48391816E+06</totfact>
</mgrwt>
</event>
<event>
 5    0  0.1437688E+000  0.1249993E+03  0.7546771E-02  0.1235070E+00
         21   -1    0    0  503  502  0.00000000000E+00  0.00000000000E+00  0.23270573774E+02  0.23270573774E+02  0.00000000000E+00 0. -1.
         21   -1    0    0  502  503 -0.00000000000E+00 -0.00000000000E+00 -0.16786039847E+03  0.16786039847E+03  0.00000000000E+00 0. -1.
         25    2    1    2    0    0  0.00000000000E+00  0.00000000000E+00 -0.14458982469E+03  0.19113097224E+03  0.12499932458E+03 0.  0.
          4    1    3    3  501    0  0.18066760864E+02 -0.19901572338E+02  0.13948793966E+02  0.30322463336E+02  0.15500000000E+01 0.  1.
         -4    1    3    3    0  501 -0.18066760864E+02  0.19901572338E+02 -0.15853861866E+03  0.16080850890E+03  0.15500000000E+01 0.  1.
<mgrwt>
<rscale>  2 0.12499932E+03</rscale>
<asrwt>0</asrwt>
<pdfrwt beam="1">  1       21 0.35800884E-02 0.12499932E+03</pdfrwt>
<pdfrwt beam="2">  1       21 0.25824676E-01 0.12499932E+03</pdfrwt>
<totfact> 0.65898116E+06</totfact>
</mgrwt>
</event>
<event>
 5    0  0.1222151E+000  0.1250015E+03  0.7546771E-02  0.1235067E+00
         21   -1    0    0  503  502  0.00000000000E+00  0.00000000000E+00  0.14844626561E+04  0.14844626561E+04  0.00000000000E+00 0. -1.
         21   -1    0    0  502  503 -0.00000000000E+00 -0.00000000000E+00 -0.26314858010E+01  0.26314858010E+01  0.00000000000E+00 0. -1.
         25    2    1    2    0    0  0.00000000000E+00  0.00000000000E+00  0.14818311703E+04  0.14870941419E+04  0.12500147842E+03 0.  0.
          4    1    3    3  501    0  0.58578837105E+02  0.19200431384E+02  0.86212284741E+03  0.86432536886E+03  0.15500000000E+01 0. -1.
         -4    1    3    3    0  501 -0.58578837105E+02 -0.19200431384E+02  0.61970832286E+03  0.62276877301E+03  0.15500000000E+01 0. -1.
<mgrwt>
<rscale>  2 0.12500148E+03</rscale>
<asrwt>0</asrwt>
<pdfrwt beam="1">  1       21 0.22837820E+00 0.12500148E+03</pdfrwt>
<pdfrwt beam="2">  1       21 0.40484515E-03 0.12500148E+03</pdfrwt>
<totfact> 0.14185274E+06</totfact>
</mgrwt>
</event>
<event>
 5    0  0.1222151E+000  0.1249984E+03  0.7546771E-02  0.1235072E+00
         21   -1    0    0  503  502  0.00000000000E+00  0.00000000000E+00  0.14008334490E+01  0.14008334490E+01  0.00000000000E+00 0.  1.
         21   -1    0    0  502  503 -0.00000000000E+00 -0.00000000000E+00 -0.27884454717E+04  0.27884454717E+04  0.00000000000E+00 0.  1.
         25    2    1    2    0    0  0.00000000000E+00  0.00000000000E+00 -0.27870446382E+04  0.27898463051E+04  0.12499836299E+03 0.  0.
          4    1    3    3  501    0 -0.55769658797E+00 -0.61599065588E+02 -0.16265287168E+04  0.16276955566E+04  0.15500000000E+01 0. -1.
         -4    1    3    3    0  501  0.55769658797E+00  0.61599065588E+02 -0.11605159214E+04  0.11621507485E+04  0.15500000000E+01 0. -1.
<mgrwt>
<rscale>  2 0.12499836E+03</rscale>
<asrwt>0</asrwt>
<pdfrwt beam="1">  1       21 0.21551221E-03 0.12499836E+03</pdfrwt>
<pdfrwt beam="2">  1       21 0.42899286E+00 0.12499836E+03</pdfrwt>
<totfact> 0.25232940E+05</totfact>
</mgrwt>
</event>
<event>
 5    0  0.1491997E+000  0.1250009E+03  0.7546771E-02  0.1235068E+00
         21   -1    0    0  503  502  0.00000000000E+00  0.00000000000E+00  0.23577519132E+02  0.23577519132E+02  0.00000000000E+00 0.  1.
         21   -1    0    0  502  503 -0.00000000000E+00 -0.00000000000E+00 -0.16567915983E+03  0.16567915983E+03  0.00000000000E+00 0.  1.
         25    2    1    2    0    0  0.00000000000E+00  0.00000000000E+00 -0.14210164070E+03  0.18925667896E+03  0.12500085697E+03 0.  0.
          4    1    3    3  501    0 -0.31018750349E+02 -0.25937257744E+02  0.10690887746E+01  0.40477767519E+02  0.15500000000E+01 0. -1.
         -4    1    3    3    0  501  0.31018750349E+02  0.25937257744E+02 -0.14317072947E+03  0.14877891144E+03  0.15500000000E+01 0. -1.
<mgrwt>
<rscale>  2 0.12500086E+03</rscale>
<asrwt>0</asrwt>
<pdfrwt beam="1">  1       21 0.36273107E-02 0.12500086E+03</pdfrwt>
<pdfrwt beam="2">  1       21 0.25489101E-01 0.12500086E+03</pdfrwt>
<totfact> 0.66103737E+06</totfact>
</mgrwt>
</event>
<event>
 5    0  0.1364861E+000  0.1249773E+03  0.7546771E-02  0.1235105E+00
         21   -1    0    0  503  502  0.00000000000E+00  0.00000000000E+00  0.12422498279E+02  0.12422498279E+02  0.00000000000E+00 0.  1.
         21   -1    0    0  502  503 -0.00000000000E+00 -0.00000000000E+00 -0.31433521865E+03  0.31433521865E+03  0.00000000000E+00 0.  1.
         25    2    1    2    0    0  0.00000000000E+00  0.00000000000E+00 -0.30191272037E+03  0.32675771693E+03  0.12497725733E+03 0.  0.
          4    1    3    3  501    0  0.50794729494E+01  0.28223059282E+02 -0.58534408555E+01  0.29308827860E+02  0.15500000000E+01 0.  1.
         -4    1    3    3    0  501 -0.50794729494E+01 -0.28223059282E+02 -0.29605927952E+03  0.29744888907E+03  0.15500000000E+01 0.  1.
<mgrwt>
<rscale>  2 0.12497726E+03</rscale>
<asrwt>0</asrwt>
<pdfrwt beam="1">  1       21 0.19111536E-02 0.12497726E+03</pdfrwt>
<pdfrwt beam="2">  1       21 0.48359263E-01 0.12497726E+03</pdfrwt>
<totfact> 0.53332550E+06</totfact>
</mgrwt>
</event>
<event>
 5    0  0.1398274E+000  0.1249977E+03  0.7546771E-02  0.1235073E+00
         21   -1    0    0  503  502  0.00000000000E+00  0.00000000000E+00  0.36479520754E+03  0.36479520754E+03  0.00000000000E+00 0.  1.
         21   -1    0    0  502  503 -0.00000000000E+00 -0.00000000000E+00 -0.10707672407E+02  0.10707672407E+02  0.00000000000E+00 0.  1.
         25    2    1    2    0    0  0.00000000000E+00  0.00000000000E+00  0.35408753513E+03  0.37550287994E+03  0.12499772122E+03 0.  0.
          4    1    3    3  501    0  0.10322037240E+02 -0.34549659134E+02  0.23762727195E+02  0.43212186970E+02  0.15500000000E+01 0. -1.
         -4    1    3    3    0  501 -0.10322037240E+02  0.34549659134E+02  0.33032480793E+03  0.33229069297E+03  0.15500000000E+01 0. -1.
<mgrwt>
<rscale>  2 0.12499772E+03</rscale>
<asrwt>0</asrwt>
<pdfrwt beam="1">  1       21 0.56122330E-01 0.12499772E+03</pdfrwt>
<pdfrwt beam="2">  1       21 0.16473345E-02 0.12499772E+03</pdfrwt>
<totfact> 0.49711218E+06</totfact>
</mgrwt>
</event>
<event>
 5    0  0.1469352E+000  0.1250012E+03  0.7546771E-02  0.1235067E+00
         21   -1    0    0  503  502  0.00000000000E+00  0.00000000000E+00  0.16191870516E+02  0.16191870516E+02  0.00000000000E+00 0.  1.
         21   -1    0    0  502  503 -0.00000000000E+00 -0.00000000000E+00 -0.24125216032E+03  0.24125216032E+03  0.00000000000E+00 0.  1.
         25    2    1    2    0    0  0.00000000000E+00  0.00000000000E+00 -0.22506028980E+03  0.25744403083E+03  0.12500117986E+03 0.  0.
          4    1    3    3  501    0 -0.31229083103E+01 -0.38220386688E+02 -0.10935023418E+02  0.39906487594E+02  0.15500000000E+01 0.  1.
         -4    1    3    3    0  501  0.31229083103E+01  0.38220386688E+02 -0.21412526638E+03  0.21753754324E+03  0.15500000000E+01 0.  1.
<mgrwt>
<rscale>  2 0.12500118E+03</rscale>
<asrwt>0</asrwt>
<pdfrwt beam="1">  1       21 0.24910569E-02 0.12500118E+03</pdfrwt>
<pdfrwt beam="2">  1       21 0.37115718E-01 0.12500118E+03</pdfrwt>
<totfact> 0.59182578E+06</totfact>
</mgrwt>
</event>
<event>
 5    0  0.1581834E+000  0.1249984E+03  0.7546771E-02  0.1235072E+00
         21   -1    0    0  503  502  0.00000000000E+00  0.00000000000E+00  0.13530366401E+03  0.13530366401E+03  0.00000000000E+00 0.  1.
         21   -1    0    0  502  503 -0.00000000000E+00 -0.00000000000E+00 -0.28869488080E+02  0.28869488080E+02  0.00000000000E+00 0.  1.
         25    2    1    2    0    0  0.00000000000E+00  0.00000000000E+00  0.10643417593E+03  0.16417315209E+03  0.12499836024E+03 0.  0.
          4    1    3    3  501    0 -0.27616671539E+02  0.27566014604E+02 -0.10873443169E+02  0.40536403077E+02  0.15500000000E+01 0. -1.
         -4    1    3    3    0  501  0.27616671539E+02 -0.27566014604E+02  0.11730761910E+03  0.12363674901E+03  0.15500000000E+01 0. -1.
<mgrwt>
<rscale>  2 0.12499836E+03</rscale>
<asrwt>0</asrwt>
<pdfrwt beam="1">  1       21 0.20815948E-01 0.12499836E+03</pdfrwt>
<pdfrwt beam="2">  1       21 0.44414598E-02 0.12499836E+03</pdfrwt>
<totfact> 0.69016019E+06</totfact>
</mgrwt>
</event>
<event>
 5    0  0.1273642E+000  0.1249849E+03  0.7546771E-02  0.1235093E+00
         21   -1    0    0  503  502  0.00000000000E+00  0.00000000000E+00  0.60535548757E+03  0.60535548757E+03  0.00000000000E+00 0.  1.
         21   -1    0    0  502  503 -0.00000000000E+00 -0.00000000000E+00 -0.64512648884E+01  0.64512648884E+01  0.00000000000E+00 0.  1.
         25    2    1    2    0    0  0.00000000000E+00  0.00000000000E+00  0.59890422269E+03  0.61180675246E+03  0.12498493672E+03 0.  0.
          4    1    3    3  501    0 -0.29280003134E+02 -0.52093230656E+02  0.38862831686E+03  0.39319892476E+03  0.15500000000E+01 0. -1.
         -4    1    3    3    0  501  0.29280003134E+02  0.52093230656E+02  0.21027590582E+03  0.21860782770E+03  0.15500000000E+01 0. -1.
<mgrwt>
<rscale>  2 0.12498494E+03</rscale>
<asrwt>0</asrwt>
<pdfrwt beam="1">  1       21 0.93131569E-01 0.12498494E+03</pdfrwt>
<pdfrwt beam="2">  1       21 0.99250276E-03 0.12498494E+03</pdfrwt>
<totfact> 0.36577764E+06</totfact>
</mgrwt>
</event>
<event>
 5    0  0.1548191E+000  0.1249993E+03  0.7546771E-02  0.1235070E+00
         21   -1    0    0  503  502  0.00000000000E+00  0.00000000000E+00  0.35549484875E+02  0.35549484875E+02  0.00000000000E+00 0. -1.
         21   -1    0    0  502  503 -0.00000000000E+00 -0.00000000000E+00 -0.10988075946E+03  0.10988075946E+03  0.00000000000E+00 0. -1.
         25    2    1    2    0    0  0.00000000000E+00  0.00000000000E+00 -0.74331274588E+02  0.14543024434E+03  0.12499927034E+03 0.  0.
          4    1    3    3  501    0 -0.48695383996E+02 -0.20133294509E+02 -0.76227238644E+02  0.92680010691E+02  0.15500000000E+01 0. -1.
         -4    1    3    3    0  501  0.48695383996E+02  0.20133294509E+02  0.18959640561E+01  0.52750233648E+02  0.15500000000E+01 0. -1.
<mgrwt>
<rscale>  2 0.12499927E+03</rscale>
<asrwt>0</asrwt>
<pdfrwt beam="1">  1       21 0.54691516E-02 0.12499927E+03</pdfrwt>
<pdfrwt beam="2">  1       21 0.16904732E-01 0.12499927E+03</pdfrwt>
<totfact> 0.71339409E+06</totfact>
</mgrwt>
</event>
<event>
 5    0  0.1503389E+000  0.1250012E+03  0.7546771E-02  0.1235067E+00
         21   -1    0    0  503  502  0.00000000000E+00  0.00000000000E+00  0.36387086062E+02  0.36387086062E+02  0.00000000000E+00 0. -1.
         21   -1    0    0  502  503 -0.00000000000E+00 -0.00000000000E+00 -0.10735478283E+03  0.10735478283E+03  0.00000000000E+00 0. -1.
         25    2    1    2    0    0  0.00000000000E+00  0.00000000000E+00 -0.70967696771E+02  0.14374186889E+03  0.12500124355E+03 0.  0.
          4    1    3    3  501    0 -0.34898904718E+02 -0.12794625524E+02 -0.93235764278E+02  0.10038399391E+03  0.15500000000E+01 0. -1.
         -4    1    3    3    0  501  0.34898904718E+02  0.12794625524E+02  0.22268067506E+02  0.43357874985E+02  0.15500000000E+01 0. -1.
<mgrwt>
<rscale>  2 0.12500124E+03</rscale>
<asrwt>0</asrwt>
<pdfrwt beam="1">  1       21 0.55980133E-02 0.12500124E+03</pdfrwt>
<pdfrwt beam="2">  1       21 0.16516120E-01 0.12500124E+03</pdfrwt>
<totfact> 0.71552234E+06</totfact>
</mgrwt>
</event>
<event>
 5    0  0.1222151E+000  0.1250162E+03  0.7546771E-02  0.1235044E+00
         21   -1    0    0  503  502  0.00000000000E+00  0.00000000000E+00  0.38981976269E+01  0.38981976269E+01  0.00000000000E+00 0.  1.
         21   -1    0    0  502  503 -0.00000000000E+00 -0.00000000000E+00 -0.10023253595E+04  0.10023253595E+04  0.00000000000E+00 0.  1.
         25    2    1    2    0    0  0.00000000000E+00  0.00000000000E+00 -0.99842716192E+03  0.10062235572E+04  0.12501619636E+03 0.  0.
          4    1    3    3  501    0 -0.57395431727E+02 -0.23567227204E+02 -0.43940860830E+03  0.44377018526E+03  0.15500000000E+01 0.  1.
         -4    1    3    3    0  501  0.57395431727E+02  0.23567227204E+02 -0.55901855362E+03  0.56245337191E+03  0.15500000000E+01 0.  1.
<mgrwt>
<rscale>  2 0.12501620E+03</rscale>
<asrwt>0</asrwt>
<pdfrwt beam="1">  1       21 0.59972285E-03 0.12501620E+03</pdfrwt>
<pdfrwt beam="2">  1       21 0.15420387E+00 0.12501620E+03</pdfrwt>
<totfact> 0.23454490E+06</totfact>
</mgrwt>
</event>
<event>
 5    0  0.1222151E+000  0.1249994E+03  0.7546771E-02  0.1235070E+00
         21   -1    0    0  503  502  0.00000000000E+00  0.00000000000E+00  0.42880192380E+02  0.42880192380E+02  0.00000000000E+00 0.  1.
         21   -1    0    0  502  503 -0.00000000000E+00 -0.00000000000E+00 -0.91095970604E+02  0.91095970604E+02  0.00000000000E+00 0.  1.
         25    2    1    2    0    0  0.00000000000E+00  0.00000000000E+00 -0.48215778224E+02  0.13397616298E+03  0.12499940391E+03 0.  0.
          4    1    3    3  501    0 -0.15035597234E+02  0.19453393304E+02  0.37456691911E+02  0.44832019407E+02  0.15500000000E+01 0. -1.
         -4    1    3    3    0  501  0.15035597234E+02 -0.19453393304E+02 -0.85672470134E+02  0.89144143578E+02  0.15500000000E+01 0. -1.
<mgrwt>
<rscale>  2 0.12499940E+03</rscale>
<asrwt>0</asrwt>
<pdfrwt beam="1">  1       21 0.65969527E-02 0.12499940E+03</pdfrwt>
<pdfrwt beam="2">  1       21 0.14014765E-01 0.12499940E+03</pdfrwt>
<totfact> 0.72833430E+06</totfact>
</mgrwt>
</event>
<event>
 5    0  0.1222151E+000  0.1249856E+03  0.7546771E-02  0.1235092E+00
         21   -1    0    0  503  502  0.00000000000E+00  0.00000000000E+00  0.15035059586E+02  0.15035059586E+02  0.00000000000E+00 0.  1.
         21   -1    0    0  502  503 -0.00000000000E+00 -0.00000000000E+00 -0.25974964404E+03  0.25974964404E+03  0.00000000000E+00 0.  1.
         25    2    1    2    0    0  0.00000000000E+00  0.00000000000E+00 -0.24471458445E+03  0.27478470363E+03  0.12498562118E+03 0.  0.
          4    1    3    3  501    0  0.21375006228E+02 -0.51216601932E+01 -0.25092578188E+03  0.25189139089E+03  0.15500000000E+01 0.  1.
         -4    1    3    3    0  501 -0.21375006228E+02  0.51216601932E+01  0.62111974265E+01  0.22893312732E+02  0.15500000000E+01 0.  1.
<mgrwt>
<rscale>  2 0.12498562E+03</rscale>
<asrwt>0</asrwt>
<pdfrwt beam="1">  1       21 0.23130860E-02 0.12498562E+03</pdfrwt>
<pdfrwt beam="2">  1       21 0.39961485E-01 0.12498562E+03</pdfrwt>
<totfact> 0.57639848E+06</totfact>
</mgrwt>
</event>
<event>
 5    0  0.1447699E+000  0.1249982E+03  0.7546771E-02  0.1235072E+00
         21   -1    0    0  503  502  0.00000000000E+00  0.00000000000E+00  0.12481759156E+02  0.12481759156E+02  0.00000000000E+00 0.  1.
         21   -1    0    0  502  503 -0.00000000000E+00 -0.00000000000E+00 -0.31294766557E+03  0.31294766557E+03  0.00000000000E+00 0.  1.
         25    2    1    2    0    0  0.00000000000E+00  0.00000000000E+00 -0.30046590641E+03  0.32542942472E+03  0.12499819823E+03 0.  0.
          4    1    3    3  501    0  0.30247550732E+02  0.20455059570E+02 -0.28222700476E+03  0.28458357034E+03  0.15500000000E+01 0.  1.
         -4    1    3    3    0  501 -0.30247550732E+02 -0.20455059570E+02 -0.18238901648E+02  0.40845854387E+02  0.15500000000E+01 0.  1.
<mgrwt>
<rscale>  2 0.12499820E+03</rscale>
<asrwt>0</asrwt>
<pdfrwt beam="1">  1       21 0.19202706E-02 0.12499820E+03</pdfrwt>
<pdfrwt beam="2">  1       21 0.48145796E-01 0.12499820E+03</pdfrwt>
<totfact> 0.53408287E+06</totfact>
</mgrwt>
</event>
<event>
 5    0  0.1419338E+000  0.1249761E+03  0.7546771E-02  0.1235107E+00
         21   -1    0    0  503  502  0.00000000000E+00  0.00000000000E+00  0.30050032670E+03  0.30050032670E+03  0.00000000000E+00 0.  1.
         21   -1    0    0  502  503 -0.00000000000E+00 -0.00000000000E+00 -0.12994183647E+02  0.12994183647E+02  0.00000000000E+00 0.  1.
         25    2    1    2    0    0  0.00000000000E+00  0.00000000000E+00  0.28750614305E+03  0.31349451034E+03  0.12497610061E+03 0.  0.
          4    1    3    3  501    0 -0.44597644349E+01 -0.51866863959E+02  0.23036833701E+03  0.23618220566E+03  0.15500000000E+01 0. -1.
         -4    1    3    3    0  501  0.44597644349E+01  0.51866863959E+02  0.57137806039E+02  0.77312304678E+02  0.15500000000E+01 0. -1.
<mgrwt>
<rscale>  2 0.12497610E+03</rscale>
<asrwt>0</asrwt>
<pdfrwt beam="1">  1       21 0.46230814E-01 0.12497610E+03</pdfrwt>
<pdfrwt beam="2">  1       21 0.19991054E-02 0.12497610E+03</pdfrwt>
<totfact> 0.54385547E+06</totfact>
</mgrwt>
</event>
<event>
 5    0  0.1349854E+000  0.1250032E+03  0.7546771E-02  0.1235064E+00
         21   -1    0    0  503  502  0.00000000000E+00  0.00000000000E+00  0.77112838783E+01  0.77112838783E+01  0.00000000000E+00 0.  1.
         21   -1    0    0  502  503 -0.00000000000E+00 -0.00000000000E+00 -0.50658911182E+03  0.50658911182E+03  0.00000000000E+00 0.  1.
         25    2    1    2    0    0  0.00000000000E+00  0.00000000000E+00 -0.49887782794E+03  0.51430039570E+03  0.12500323917E+03 0.  0.
          4    1    3    3  501    0 -0.30105843855E+02 -0.52294198547E+02 -0.18271561300E+03  0.19242775987E+03  0.15500000000E+01 0. -1.
         -4    1    3    3    0  501  0.30105843855E+02  0.52294198547E+02 -0.31616221494E+03  0.32187263583E+03  0.15500000000E+01 0. -1.
<mgrwt>
<rscale>  2 0.12500324E+03</rscale>
<asrwt>0</asrwt>
<pdfrwt beam="1">  1       21 0.11863514E-02 0.12500324E+03</pdfrwt>
<pdfrwt beam="2">  1       21 0.77936783E-01 0.12500324E+03</pdfrwt>
<totfact> 0.41275671E+06</totfact>
</mgrwt>
</event>
<event>
 5    0  0.1573352E+000  0.1250041E+03  0.7546771E-02  0.1235063E+00
         21   -1    0    0  503  502  0.00000000000E+00  0.00000000000E+00  0.98554067689E+02  0.98554067689E+02  0.00000000000E+00 0.  1.
         21   -1    0    0  502  503 -0.00000000000E+00 -0.00000000000E+00 -0.39638234687E+02  0.39638234687E+02  0.00000000000E+00 0.  1.
         25    2    1    2    0    0  0.00000000000E+00  0.00000000000E+00  0.58915833002E+02  0.13819230238E+03  0.12500414816E+03 0.  0.
          4    1    3    3  501    0  0.41978626153E+02 -0.45664446911E+02  0.37779341608E+02  0.72643842944E+02  0.15500000000E+01 0.  1.
         -4    1    3    3    0  501 -0.41978626153E+02  0.45664446911E+02  0.21136491394E+02  0.65548459431E+02  0.15500000000E+01 0.  1.
<mgrwt>
<rscale>  2 0.12500415E+03</rscale>
<asrwt>0</asrwt>
<pdfrwt beam="1">  1       21 0.15162164E-01 0.12500415E+03</pdfrwt>
<pdfrwt beam="2">  1       21 0.60981900E-02 0.12500415E+03</pdfrwt>
<totfact> 0.72268548E+06</totfact>
</mgrwt>
</event>
<event>
 5    0  0.1484641E+000  0.1250018E+03  0.7546771E-02  0.1235066E+00
         21   -1    0    0  503  502  0.00000000000E+00  0.00000000000E+00  0.68722753634E+02  0.68722753634E+02  0.00000000000E+00 0.  1.
         21   -1    0    0  502  503 -0.00000000000E+00 -0.00000000000E+00 -0.56842379594E+02  0.56842379594E+02  0.00000000000E+00 0.  1.
         25    2    1    2    0    0  0.00000000000E+00  0.00000000000E+00  0.11880374040E+02  0.12556513323E+03  0.12500183757E+03 0.  0.
          4    1    3    3  501    0 -0.44898416573E+02  0.21228217252E+02  0.44024852512E+02  0.66385956023E+02  0.15500000000E+01 0. -1.
         -4    1    3    3    0  501  0.44898416573E+02 -0.21228217252E+02 -0.32144478472E+02  0.59179177205E+02  0.15500000000E+01 0. -1.
<mgrwt>
<rscale>  2 0.12500184E+03</rscale>
<asrwt>0</asrwt>
<pdfrwt beam="1">  1       21 0.10572731E-01 0.12500184E+03</pdfrwt>
<pdfrwt beam="2">  1       21 0.87449814E-02 0.12500184E+03</pdfrwt>
<totfact> 0.73962837E+06</totfact>
</mgrwt>
</event>
<event>
 5    0  0.1453754E+000  0.1250576E+03  0.7546771E-02  0.1234979E+00
         21   -1    0    0  503  502  0.00000000000E+00  0.00000000000E+00  0.16765570063E+02  0.16765570063E+02  0.00000000000E+00 0. -1.
         21   -1    0    0  502  503 -0.00000000000E+00 -0.00000000000E+00 -0.23320705365E+03  0.23320705365E+03  0.00000000000E+00 0. -1.
         25    2    1    2    0    0  0.00000000000E+00  0.00000000000E+00 -0.21644148359E+03  0.24997262371E+03  0.12505757390E+03 0.  0.
          4    1    3    3  501    0 -0.19643040981E+00 -0.62429576909E+02 -0.10191369943E+03  0.11952529142E+03  0.15500000000E+01 0.  1.
         -4    1    3    3    0  501  0.19643040981E+00  0.62429576909E+02 -0.11452778415E+03  0.13044733229E+03  0.15500000000E+01 0.  1.
<mgrwt>
<rscale>  2 0.12505757E+03</rscale>
<asrwt>0</asrwt>
<pdfrwt beam="1">  1       21 0.25793185E-02 0.12505757E+03</pdfrwt>
<pdfrwt beam="2">  1       21 0.35878007E-01 0.12505757E+03</pdfrwt>
<totfact> 0.59793942E+06</totfact>
</mgrwt>
</event>
<event>
 5    0  0.1561484E+000  0.1249993E+03  0.7546771E-02  0.1235070E+00
         21   -1    0    0  503  502  0.00000000000E+00  0.00000000000E+00  0.23812050130E+02  0.23812050130E+02  0.00000000000E+00 0.  1.
         21   -1    0    0  502  503 -0.00000000000E+00 -0.00000000000E+00 -0.16404320275E+03  0.16404320275E+03  0.00000000000E+00 0.  1.
         25    2    1    2    0    0  0.00000000000E+00  0.00000000000E+00 -0.14023115262E+03  0.18785525288E+03  0.12499927948E+03 0.  0.
          4    1    3    3  501    0  0.57253999092E+02 -0.20602834504E+02 -0.48792817157E+02  0.78010503830E+02  0.15500000000E+01 0. -1.
         -4    1    3    3    0  501 -0.57253999092E+02  0.20602834504E+02 -0.91438335460E+02  0.10984474905E+03  0.15500000000E+01 0. -1.
<mgrwt>
<rscale>  2 0.12499928E+03</rscale>
<asrwt>0</asrwt>
<pdfrwt beam="1">  1       21 0.36633922E-02 0.12499928E+03</pdfrwt>
<pdfrwt beam="2">  1       21 0.25237417E-01 0.12499928E+03</pdfrwt>
<totfact> 0.66262839E+06</totfact>
</mgrwt>
</event>
<event>
 5    0  0.1410635E+000  0.1250001E+03  0.7546771E-02  0.1235069E+00
         21   -1    0    0  503  502  0.00000000000E+00  0.00000000000E+00  0.33172406281E+03  0.33172406281E+03  0.00000000000E+00 0.  1.
         21   -1    0    0  502  503 -0.00000000000E+00 -0.00000000000E+00 -0.11775627325E+02  0.11775627325E+02  0.00000000000E+00 0.  1.
         25    2    1    2    0    0  0.00000000000E+00  0.00000000000E+00  0.31994843548E+03  0.34349969013E+03  0.12500014301E+03 0.  0.
          4    1    3    3  501    0 -0.34929035610E+02 -0.51174278395E+02  0.18213132560E+03  0.19238780253E+03  0.15500000000E+01 0. -1.
         -4    1    3    3    0  501  0.34929035610E+02  0.51174278395E+02  0.13781710989E+03  0.15111188760E+03  0.15500000000E+01 0. -1.
<mgrwt>
<rscale>  2 0.12500014E+03</rscale>
<asrwt>0</asrwt>
<pdfrwt beam="1">  1       21 0.51034464E-01 0.12500014E+03</pdfrwt>
<pdfrwt beam="2">  1       21 0.18116352E-02 0.12500014E+03</pdfrwt>
<totfact> 0.52021926E+06</totfact>
</mgrwt>
</event>
<event>
 5    0  0.1581171E+000  0.1249999E+03  0.7546771E-02  0.1235069E+00
         21   -1    0    0  503  502  0.00000000000E+00  0.00000000000E+00  0.32722995542E+02  0.32722995542E+02  0.00000000000E+00 0.  1.
         21   -1    0    0  502  503 -0.00000000000E+00 -0.00000000000E+00 -0.11937307379E+03  0.11937307379E+03  0.00000000000E+00 0.  1.
         25    2    1    2    0    0  0.00000000000E+00  0.00000000000E+00 -0.86650078243E+02  0.15209606933E+03  0.12499991298E+03 0.  0.
          4    1    3    3  501    0  0.89511344869E+01 -0.61592991968E+02 -0.49992068676E+02  0.79846282936E+02  0.15500000000E+01 0.  1.
         -4    1    3    3    0  501 -0.89511344869E+01  0.61592991968E+02 -0.36658009567E+02  0.72249786392E+02  0.15500000000E+01 0.  1.
<mgrwt>
<rscale>  2 0.12499991E+03</rscale>
<asrwt>0</asrwt>
<pdfrwt beam="1">  1       21 0.50343070E-02 0.12499991E+03</pdfrwt>
<pdfrwt beam="2">  1       21 0.18365088E-01 0.12499991E+03</pdfrwt>
<totfact> 0.70497035E+06</totfact>
</mgrwt>
</event>
<event>
 5    0  0.1383989E+000  0.1250145E+03  0.7546771E-02  0.1235047E+00
         21   -1    0    0  503  502  0.00000000000E+00  0.00000000000E+00  0.81790048435E+01  0.81790048435E+01  0.00000000000E+00 0. -1.
         21   -1    0    0  502  503 -0.00000000000E+00 -0.00000000000E+00 -0.47770542126E+03  0.47770542126E+03  0.00000000000E+00 0. -1.
         25    2    1    2    0    0  0.00000000000E+00  0.00000000000E+00 -0.46952641641E+03  0.48588442610E+03  0.12501447843E+03 0.  0.
          4    1    3    3  501    0  0.42563130305E+02  0.25400917497E+02 -0.86870821908E+02  0.10002884019E+03  0.15500000000E+01 0.  1.
         -4    1    3    3    0  501 -0.42563130305E+02 -0.25400917497E+02 -0.38265559451E+03  0.38585558591E+03  0.15500000000E+01 0.  1.
<mgrwt>
<rscale>  2 0.12501448E+03</rscale>
<asrwt>0</asrwt>
<pdfrwt beam="1">  1       21 0.12583081E-02 0.12501448E+03</pdfrwt>
<pdfrwt beam="2">  1       21 0.73493160E-01 0.12501448E+03</pdfrwt>
<totfact> 0.42804636E+06</totfact>
</mgrwt>
</event>
<event>
 5    0  0.1539962E+000  0.1250002E+03  0.7546771E-02  0.1235069E+00
         21   -1    0    0  503  502  0.00000000000E+00  0.00000000000E+00  0.80790695730E+02  0.80790695730E+02  0.00000000000E+00 0.  1.
         21   -1    0    0  502  503 -0.00000000000E+00 -0.00000000000E+00 -0.48350387975E+02  0.48350387975E+02  0.00000000000E+00 0.  1.
         25    2    1    2    0    0  0.00000000000E+00  0.00000000000E+00  0.32440307755E+02  0.12914108370E+03  0.12500018373E+03 0.  0.
          4    1    3    3  501    0  0.59185658912E+02 -0.19548032269E+02  0.20698637563E+02  0.65695539296E+02  0.15500000000E+01 0.  1.
         -4    1    3    3    0  501 -0.59185658912E+02  0.19548032269E+02  0.11741670192E+02  0.63445544409E+02  0.15500000000E+01 0.  1.
<mgrwt>
<rscale>  2 0.12500018E+03</rscale>
<asrwt>0</asrwt>
<pdfrwt beam="1">  1       21 0.12429338E-01 0.12500018E+03</pdfrwt>
<pdfrwt beam="2">  1       21 0.74385212E-02 0.12500018E+03</pdfrwt>
<totfact> 0.73479595E+06</totfact>
</mgrwt>
</event>
<event>
 5    0  0.1286273E+000  0.1249940E+03  0.7546771E-02  0.1235079E+00
         21   -1    0    0  503  502  0.00000000000E+00  0.00000000000E+00  0.76889449170E+01  0.76889449170E+01  0.00000000000E+00 0. -1.
         21   -1    0    0  502  503 -0.00000000000E+00 -0.00000000000E+00 -0.50798613001E+03  0.50798613001E+03  0.00000000000E+00 0. -1.
         25    2    1    2    0    0  0.00000000000E+00  0.00000000000E+00 -0.50029718510E+03  0.51567507493E+03  0.12499403781E+03 0.  0.
          4    1    3    3  501    0  0.58301336128E+02  0.33261649596E+01 -0.15851149586E+03  0.16893314058E+03  0.15500000000E+01 0. -1.
         -4    1    3    3    0  501 -0.58301336128E+02 -0.33261649596E+01 -0.34178568924E+03  0.34674193435E+03  0.15500000000E+01 0. -1.
<mgrwt>
<rscale>  2 0.12499404E+03</rscale>
<asrwt>0</asrwt>
<pdfrwt beam="1">  1       21 0.11829145E-02 0.12499404E+03</pdfrwt>
<pdfrwt beam="2">  1       21 0.78151719E-01 0.12499404E+03</pdfrwt>
<totfact> 0.41212651E+06</totfact>
</mgrwt>
</event>
<event>
 5    0  0.1473312E+000  0.1249914E+03  0.7546771E-02  0.1235083E+00
         21   -1    0    0  503  502  0.00000000000E+00  0.00000000000E+00  0.93373240655E+02  0.93373240655E+02  0.00000000000E+00 0.  1.
         21   -1    0    0  502  503 -0.00000000000E+00 -0.00000000000E+00 -0.41829050138E+02  0.41829050138E+02  0.00000000000E+00 0.  1.
         25    2    1    2    0    0  0.00000000000E+00  0.00000000000E+00  0.51544190517E+02  0.13520229079E+03  0.12499142314E+03 0.  0.
          4    1    3    3  501    0 -0.13679749318E+02 -0.35922453492E+02  0.79047547977E+02  0.87911748632E+02  0.15500000000E+01 0. -1.
         -4    1    3    3    0  501  0.13679749318E+02  0.35922453492E+02 -0.27503357460E+02  0.47290542161E+02  0.15500000000E+01 0. -1.
<mgrwt>
<rscale>  2 0.12499142E+03</rscale>
<asrwt>0</asrwt>
<pdfrwt beam="1">  1       21 0.14365114E-01 0.12499142E+03</pdfrwt>
<pdfrwt beam="2">  1       21 0.64352385E-02 0.12499142E+03</pdfrwt>
<totfact> 0.72685597E+06</totfact>
</mgrwt>
</event>
<event>
 5    0  0.1592484E+000  0.1249945E+03  0.7546771E-02  0.1235078E+00
         21   -1    0    0  503  502  0.00000000000E+00  0.00000000000E+00  0.94899844219E+02  0.94899844219E+02  0.00000000000E+00 0.  1.
         21   -1    0    0  502  503 -0.00000000000E+00 -0.00000000000E+00 -0.41158221985E+02  0.41158221985E+02  0.00000000000E+00 0.  1.
         25    2    1    2    0    0  0.00000000000E+00  0.00000000000E+00  0.53741622233E+02  0.13605806620E+03  0.12499454156E+03 0.  0.
          4    1    3    3  501    0 -0.32363036313E+02  0.31276117983E+02  0.74041763344E+02  0.86661103700E+02  0.15500000000E+01 0.  1.
         -4    1    3    3    0  501  0.32363036313E+02 -0.31276117983E+02 -0.20300141111E+02  0.49396962503E+02  0.15500000000E+01 0.  1.
<mgrwt>
<rscale>  2 0.12499454E+03</rscale>
<asrwt>0</asrwt>
<pdfrwt beam="1">  1       21 0.14599976E-01 0.12499454E+03</pdfrwt>
<pdfrwt beam="2">  1       21 0.63320342E-02 0.12499454E+03</pdfrwt>
<totfact> 0.72566780E+06</totfact>
</mgrwt>
</event>
<event>
 5    0  0.1610955E+000  0.1249976E+03  0.7546771E-02  0.1235073E+00
         21   -1    0    0  503  502  0.00000000000E+00  0.00000000000E+00  0.27076087375E+03  0.27076087375E+03  0.00000000000E+00 0. -1.
         21   -1    0    0  502  503 -0.00000000000E+00 -0.00000000000E+00 -0.14426374534E+02  0.14426374534E+02  0.00000000000E+00 0. -1.
         25    2    1    2    0    0  0.00000000000E+00  0.00000000000E+00  0.25633449922E+03  0.28518724829E+03  0.12499756436E+03 0.  0.
          4    1    3    3  501    0 -0.50769260647E+02 -0.36008702399E+02  0.14056986183E+03  0.15374144864E+03  0.15500000000E+01 0.  1.
         -4    1    3    3    0  501  0.50769260647E+02  0.36008702399E+02  0.11576463739E+03  0.13144579965E+03  0.15500000000E+01 0.  1.
<mgrwt>
<rscale>  2 0.12499756E+03</rscale>
<asrwt>0</asrwt>
<pdfrwt beam="1">  1       21 0.41655515E-01 0.12499756E+03</pdfrwt>
<pdfrwt beam="2">  1       21 0.22194424E-02 0.12499756E+03</pdfrwt>
<totfact> 0.56713560E+06</totfact>
</mgrwt>
</event>
<event>
 5    0  0.1470779E+000  0.1250007E+03  0.7546771E-02  0.1235068E+00
         21   -1    0    0  503  502  0.00000000000E+00  0.00000000000E+00  0.16253550248E+02  0.16253550248E+02  0.00000000000E+00 0.  1.
         21   -1    0    0  502  503 -0.00000000000E+00 -0.00000000000E+00 -0.24033481016E+03  0.24033481016E+03  0.00000000000E+00 0.  1.
         25    2    1    2    0    0  0.00000000000E+00  0.00000000000E+00 -0.22408125991E+03  0.25658836041E+03  0.12500070261E+03 0.  0.
          4    1    3    3  501    0 -0.12029032142E+02 -0.44632967536E+02 -0.25751899603E+02  0.52937342571E+02  0.15500000000E+01 0. -1.
         -4    1    3    3    0  501  0.12029032142E+02  0.44632967536E+02 -0.19832936031E+03  0.20365101784E+03  0.15500000000E+01 0. -1.
<mgrwt>
<rscale>  2 0.12500070E+03</rscale>
<asrwt>0</asrwt>
<pdfrwt beam="1">  1       21 0.25005462E-02 0.12500070E+03</pdfrwt>
<pdfrwt beam="2">  1       21 0.36974586E-01 0.12500070E+03</pdfrwt>
<totfact> 0.59262341E+06</totfact>
</mgrwt>
</event>
<event>
 5    0  0.1485105E+000  0.1250055E+03  0.7546771E-02  0.1235061E+00
         21   -1    0    0  503  502  0.00000000000E+00  0.00000000000E+00  0.20845812732E+03  0.20845812732E+03  0.00000000000E+00 0.  1.
         21   -1    0    0  502  503 -0.00000000000E+00 -0.00000000000E+00 -0.18740430933E+02  0.18740430933E+02  0.00000000000E+00 0.  1.
         25    2    1    2    0    0  0.00000000000E+00  0.00000000000E+00  0.18971769639E+03  0.22719855825E+03  0.12500552208E+03 0.  0.
          4    1    3    3  501    0  0.41213965644E+02  0.21113615029E+02  0.17110362880E+03  0.17726598656E+03  0.15500000000E+01 0.  1.
         -4    1    3    3    0  501 -0.41213965644E+02 -0.21113615029E+02  0.18614067591E+02  0.49932571694E+02  0.15500000000E+01 0.  1.
<mgrwt>
<rscale>  2 0.12500552E+03</rscale>
<asrwt>0</asrwt>
<pdfrwt beam="1">  1       21 0.32070480E-01 0.12500552E+03</pdfrwt>
<pdfrwt beam="2">  1       21 0.28831434E-02 0.12500552E+03</pdfrwt>
<totfact> 0.62085225E+06</totfact>
</mgrwt>
</event>
<event>
 5    0  0.1222151E+000  0.1250036E+03  0.7546771E-02  0.1235064E+00
         21   -1    0    0  503  502  0.00000000000E+00  0.00000000000E+00  0.14430675431E+04  0.14430675431E+04  0.00000000000E+00 0.  1.
         21   -1    0    0  502  503 -0.00000000000E+00 -0.00000000000E+00 -0.27070639514E+01  0.27070639514E+01  0.00000000000E+00 0.  1.
         25    2    1    2    0    0  0.00000000000E+00  0.00000000000E+00  0.14403604791E+04  0.14457746070E+04  0.12500361795E+03 0.  0.
          4    1    3    3  501    0 -0.26995479830E+02 -0.33673671658E+02  0.19761294204E+03  0.20227691281E+03  0.15500000000E+01 0.  1.
         -4    1    3    3    0  501  0.26995479830E+02  0.33673671658E+02  0.12427475371E+04  0.12434976942E+04  0.15500000000E+01 0.  1.
<mgrwt>
<rscale>  2 0.12500362E+03</rscale>
<asrwt>0</asrwt>
<pdfrwt beam="1">  1       21 0.22200978E+00 0.12500362E+03</pdfrwt>
<pdfrwt beam="2">  1       21 0.41647253E-03 0.12500362E+03</pdfrwt>
<totfact> 0.14815016E+06</totfact>
</mgrwt>
</event>
<event>
 5    0  0.1411367E+000  0.1250059E+03  0.7546771E-02  0.1235060E+00
         21   -1    0    0  503  502  0.00000000000E+00  0.00000000000E+00  0.13972426515E+02  0.13972426515E+02  0.00000000000E+00 0.  1.
         21   -1    0    0  502  503 -0.00000000000E+00 -0.00000000000E+00 -0.27959507724E+03  0.27959507724E+03  0.00000000000E+00 0.  1.
         25    2    1    2    0    0  0.00000000000E+00  0.00000000000E+00 -0.26562265072E+03  0.29356750375E+03  0.12500594659E+03 0.  0.
          4    1    3    3  501    0  0.83770060003E+01  0.61745913053E+02 -0.14369728804E+03  0.15663347375E+03  0.15500000000E+01 0.  1.
         -4    1    3    3    0  501 -0.83770060003E+01 -0.61745913053E+02 -0.12192536269E+03  0.13693403001E+03  0.15500000000E+01 0.  1.
<mgrwt>
<rscale>  2 0.12500595E+03</rscale>
<asrwt>0</asrwt>
<pdfrwt beam="1">  1       21 0.21496043E-02 0.12500595E+03</pdfrwt>
<pdfrwt beam="2">  1       21 0.43014624E-01 0.12500595E+03</pdfrwt>
<totfact> 0.55986644E+06</totfact>
</mgrwt>
</event>
<event>
 5    0  0.1911774E+000  0.1249997E+03  0.7546771E-02  0.1235070E+00
         21   -1    0    0  503  502  0.00000000000E+00  0.00000000000E+00  0.56152174587E+02  0.56152174587E+02  0.00000000000E+00 0.  1.
         21   -1    0    0  502  503 -0.00000000000E+00 -0.00000000000E+00 -0.69565076843E+02  0.69565076843E+02  0.00000000000E+00 0.  1.
         25    2    1    2    0    0  0.00000000000E+00  0.00000000000E+00 -0.13412902255E+02  0.12571725143E+03  0.12499968544E+03 0.  0.
          4    1    3    3  501    0 -0.61341223462E+02 -0.30714822087E+01  0.48332171113E+01  0.61627446697E+02  0.15500000000E+01 0. -1.
         -4    1    3    3    0  501  0.61341223462E+02  0.30714822087E+01 -0.18246119367E+02  0.64089804733E+02  0.15500000000E+01 0. -1.
<mgrwt>
<rscale>  2 0.12499969E+03</rscale>
<asrwt>0</asrwt>
<pdfrwt beam="1">  1       21 0.86387961E-02 0.12499969E+03</pdfrwt>
<pdfrwt beam="2">  1       21 0.10702319E-01 0.12499969E+03</pdfrwt>
<totfact> 0.73945736E+06</totfact>
</mgrwt>
</event>
<event>
 5    0  0.1356546E+000  0.1249408E+03  0.7546771E-02  0.1235162E+00
         21   -1    0    0  503  502  0.00000000000E+00  0.00000000000E+00  0.54978955144E+02  0.54978955144E+02  0.00000000000E+00 0. -1.
         21   -1    0    0  502  503 -0.00000000000E+00 -0.00000000000E+00 -0.70982644908E+02  0.70982644908E+02  0.00000000000E+00 0. -1.
         25    2    1    2    0    0  0.00000000000E+00  0.00000000000E+00 -0.16003689764E+02  0.12596160005E+03  0.12494081239E+03 0.  0.
          4    1    3    3  501    0  0.15308958372E+02  0.60514137481E+02 -0.99733547953E+01  0.63231284562E+02  0.15500000000E+01 0. -1.
         -4    1    3    3    0  501 -0.15308958372E+02 -0.60514137481E+02 -0.60303349689E+01  0.62730315489E+02  0.15500000000E+01 0. -1.
<mgrwt>
<rscale>  2 0.12494081E+03</rscale>
<asrwt>0</asrwt>
<pdfrwt beam="1">  1       21 0.84583008E-02 0.12494081E+03</pdfrwt>
<pdfrwt beam="2">  1       21 0.10920407E-01 0.12494081E+03</pdfrwt>
<totfact> 0.74023048E+06</totfact>
</mgrwt>
</event>
<event>
 5    0  0.1456260E+000  0.1250023E+03  0.7546771E-02  0.1235066E+00
         21   -1    0    0  503  502  0.00000000000E+00  0.00000000000E+00  0.28362536848E+02  0.28362536848E+02  0.00000000000E+00 0. -1.
         21   -1    0    0  502  503 -0.00000000000E+00 -0.00000000000E+00 -0.13773068711E+03  0.13773068711E+03  0.00000000000E+00 0. -1.
         25    2    1    2    0    0  0.00000000000E+00  0.00000000000E+00 -0.10936815026E+03  0.16609322396E+03  0.12500226699E+03 0.  0.
          4    1    3    3  501    0 -0.29127804010E+02  0.42763314264E+02 -0.81435388454E+01  0.52400856273E+02  0.15500000000E+01 0. -1.
         -4    1    3    3    0  501  0.29127804010E+02 -0.42763314264E+02 -0.10122461141E+03  0.11369236768E+03  0.15500000000E+01 0. -1.
<mgrwt>
<rscale>  2 0.12500227E+03</rscale>
<asrwt>0</asrwt>
<pdfrwt beam="1">  1       21 0.43634673E-02 0.12500227E+03</pdfrwt>
<pdfrwt beam="2">  1       21 0.21189336E-01 0.12500227E+03</pdfrwt>
<totfact> 0.68778567E+06</totfact>
</mgrwt>
</event>
<event>
 5    0  0.1222151E+000  0.1250033E+03  0.7546771E-02  0.1235064E+00
         21   -1    0    0  503  502  0.00000000000E+00  0.00000000000E+00  0.48029749713E+01  0.48029749713E+01  0.00000000000E+00 0.  1.
         21   -1    0    0  502  503 -0.00000000000E+00 -0.00000000000E+00 -0.81334140341E+03  0.81334140341E+03  0.00000000000E+00 0.  1.
         25    2    1    2    0    0  0.00000000000E+00  0.00000000000E+00 -0.80853842844E+03  0.81814437838E+03  0.12500333441E+03 0.  0.
          4    1    3    3  501    0  0.20302636347E+02  0.58674071104E+02 -0.45018319248E+03  0.45444708487E+03  0.15500000000E+01 0. -1.
         -4    1    3    3    0  501 -0.20302636347E+02 -0.58674071104E+02 -0.35835523596E+03  0.36369729351E+03  0.15500000000E+01 0. -1.
<mgrwt>
<rscale>  2 0.12500333E+03</rscale>
<asrwt>0</asrwt>
<pdfrwt beam="1">  1       21 0.73891971E-03 0.12500333E+03</pdfrwt>
<pdfrwt beam="2">  1       21 0.12512936E+00 0.12500333E+03</pdfrwt>
<totfact> 0.28768049E+06</totfact>
</mgrwt>
</event>
<event>
 5    0  0.1519018E+000  0.1249805E+03  0.7546771E-02  0.1235100E+00
         21   -1    0    0  503  502  0.00000000000E+00  0.00000000000E+00  0.27271323360E+02  0.27271323360E+02  0.00000000000E+00 0. -1.
         21   -1    0    0  502  503 -0.00000000000E+00 -0.00000000000E+00 -0.14319183120E+03  0.14319183120E+03  0.00000000000E+00 0. -1.
         25    2    1    2    0    0  0.00000000000E+00  0.00000000000E+00 -0.11592050784E+03  0.17046315456E+03  0.12498049018E+03 0.  0.
          4    1    3    3  501    0  0.26093509171E+02 -0.13185611629E+02  0.17338608694E+02  0.34025893469E+02  0.15500000000E+01 0.  1.
         -4    1    3    3    0  501 -0.26093509171E+02  0.13185611629E+02 -0.13325911653E+03  0.13643726109E+03  0.15500000000E+01 0.  1.
<mgrwt>
<rscale>  2 0.12498049E+03</rscale>
<asrwt>0</asrwt>
<pdfrwt beam="1">  1       21 0.41955883E-02 0.12498049E+03</pdfrwt>
<pdfrwt beam="2">  1       21 0.22029512E-01 0.12498049E+03</pdfrwt>
<totfact> 0.68296593E+06</totfact>
</mgrwt>
</event>
<event>
 5    0  0.1586722E+000  0.1250038E+03  0.7546771E-02  0.1235063E+00
         21   -1    0    0  503  502  0.00000000000E+00  0.00000000000E+00  0.72321188280E+02  0.72321188280E+02  0.00000000000E+00 0. -1.
         21   -1    0    0  502  503 -0.00000000000E+00 -0.00000000000E+00 -0.54015828300E+02  0.54015828300E+02  0.00000000000E+00 0. -1.
         25    2    1    2    0    0  0.00000000000E+00  0.00000000000E+00  0.18305359980E+02  0.12633701658E+03  0.12500382216E+03 0.  0.
          4    1    3    3  501    0  0.57182199456E+02  0.14704045524E+02  0.29817595989E+02  0.66162711704E+02  0.15500000000E+01 0.  1.
         -4    1    3    3    0  501 -0.57182199456E+02 -0.14704045524E+02 -0.11512236009E+02  0.60174304876E+02  0.15500000000E+01 0.  1.
<mgrwt>
<rscale>  2 0.12500382E+03</rscale>
<asrwt>0</asrwt>
<pdfrwt beam="1">  1       21 0.11126337E-01 0.12500382E+03</pdfrwt>
<pdfrwt beam="2">  1       21 0.83101275E-02 0.12500382E+03</pdfrwt>
<totfact> 0.73852497E+06</totfact>
</mgrwt>
</event>
<event>
 5    0  0.1281067E+000  0.1249995E+03  0.7546771E-02  0.1235070E+00
         21   -1    0    0  503  502  0.00000000000E+00  0.00000000000E+00  0.56843433788E+03  0.56843433788E+03  0.00000000000E+00 0. -1.
         21   -1    0    0  502  503 -0.00000000000E+00 -0.00000000000E+00 -0.68718953552E+01  0.68718953552E+01  0.00000000000E+00 0. -1.
         25    2    1    2    0    0  0.00000000000E+00  0.00000000000E+00  0.56156244253E+03  0.57530623324E+03  0.12499954058E+03 0.  0.
          4    1    3    3  501    0 -0.13565879061E+02 -0.30241757833E+02  0.52454785772E+03  0.52559628474E+03  0.15500000000E+01 0. -1.
         -4    1    3    3    0  501  0.13565879061E+02  0.30241757833E+02  0.37014584811E+02  0.49709948503E+02  0.15500000000E+01 0. -1.
<mgrwt>
<rscale>  2 0.12499954E+03</rscale>
<asrwt>0</asrwt>
<pdfrwt beam="1">  1       21 0.87451400E-01 0.12499954E+03</pdfrwt>
<pdfrwt beam="2">  1       21 0.10572151E-02 0.12499954E+03</pdfrwt>
<totfact> 0.38234177E+06</totfact>
</mgrwt>
</event>
<event>
 5    0  0.1395407E+000  0.1249988E+03  0.7546771E-02  0.1235071E+00
         21   -1    0    0  503  502  0.00000000000E+00  0.00000000000E+00  0.19218963635E+03  0.19218963635E+03  0.00000000000E+00 0.  1.
         21   -1    0    0  502  503 -0.00000000000E+00 -0.00000000000E+00 -0.20324580747E+02  0.20324580747E+02  0.00000000000E+00 0.  1.
         25    2    1    2    0    0  0.00000000000E+00  0.00000000000E+00  0.17186505560E+03  0.21251421710E+03  0.12499878052E+03 0.  0.
          4    1    3    3  501    0  0.21278717158E+02  0.17027003636E+02  0.18151960353E+03  0.18356053940E+03  0.15500000000E+01 0.  1.
         -4    1    3    3    0  501 -0.21278717158E+02 -0.17027003636E+02 -0.96545479297E+01  0.28953677702E+02  0.15500000000E+01 0.  1.
<mgrwt>
<rscale>  2 0.12499878E+03</rscale>
<asrwt>0</asrwt>
<pdfrwt beam="1">  1       21 0.29567635E-01 0.12499878E+03</pdfrwt>
<pdfrwt beam="2">  1       21 0.31268587E-02 0.12499878E+03</pdfrwt>
<totfact> 0.63597940E+06</totfact>
</mgrwt>
</event>
<event>
 5    0  0.1226515E+000  0.1249966E+03  0.7546771E-02  0.1235075E+00
         21   -1    0    0  503  502  0.00000000000E+00  0.00000000000E+00  0.57163578614E+01  0.57163578614E+01  0.00000000000E+00 0.  1.
         21   -1    0    0  502  503 -0.00000000000E+00 -0.00000000000E+00 -0.68330907220E+03  0.68330907220E+03  0.00000000000E+00 0.  1.
         25    2    1    2    0    0  0.00000000000E+00  0.00000000000E+00 -0.67759271434E+03  0.68902543006E+03  0.12499662694E+03 0.  0.
          4    1    3    3  501    0  0.22204252108E+02 -0.51011779522E+02 -0.18206648416E+03  0.19038339638E+03  0.15500000000E+01 0.  1.
         -4    1    3    3    0  501 -0.22204252108E+02  0.51011779522E+02 -0.49552623018E+03  0.49864203368E+03  0.15500000000E+01 0.  1.
<mgrwt>
<rscale>  2 0.12499663E+03</rscale>
<asrwt>0</asrwt>
<pdfrwt beam="1">  1       21 0.87943929E-03 0.12499663E+03</pdfrwt>
<pdfrwt beam="2">  1       21 0.10512452E+00 0.12499663E+03</pdfrwt>
<totfact> 0.33340335E+06</totfact>
</mgrwt>
</event>
<event>
 5    0  0.1710427E+000  0.1250002E+03  0.7546771E-02  0.1235069E+00
         21   -1    0    0  503  502  0.00000000000E+00  0.00000000000E+00  0.14140525524E+03  0.14140525524E+03  0.00000000000E+00 0. -1.
         21   -1    0    0  502  503 -0.00000000000E+00 -0.00000000000E+00 -0.27624587690E+02  0.27624587690E+02  0.00000000000E+00 0. -1.
         25    2    1    2    0    0  0.00000000000E+00  0.00000000000E+00  0.11378066755E+03  0.16902984293E+03  0.12500018997E+03 0.  0.
          4    1    3    3  501    0 -0.54411153291E+02 -0.31392625901E+00  0.98419352439E+02  0.11246974521E+03  0.15500000000E+01 0.  1.
         -4    1    3    3    0  501  0.54411153291E+02  0.31392625901E+00  0.15361315106E+02  0.56560097719E+02  0.15500000000E+01 0.  1.
<mgrwt>
<rscale>  2 0.12500019E+03</rscale>
<asrwt>0</asrwt>
<pdfrwt beam="1">  1       21 0.21754654E-01 0.12500019E+03</pdfrwt>
<pdfrwt beam="2">  1       21 0.42499367E-02 0.12500019E+03</pdfrwt>
<totfact> 0.68432303E+06</totfact>
</mgrwt>
</event>
<event>
 5    0  0.1438767E+000  0.1249996E+03  0.7546771E-02  0.1235070E+00
         21   -1    0    0  503  502  0.00000000000E+00  0.00000000000E+00  0.12723655668E+02  0.12723655668E+02  0.00000000000E+00 0. -1.
         21   -1    0    0  502  503 -0.00000000000E+00 -0.00000000000E+00 -0.30700475002E+03  0.30700475002E+03  0.00000000000E+00 0. -1.
         25    2    1    2    0    0  0.00000000000E+00  0.00000000000E+00 -0.29428109435E+03  0.31972840569E+03  0.12499956364E+03 0.  0.
          4    1    3    3  501    0  0.44719658248E+02  0.11052679613E+02 -0.39170447461E+02  0.60487486431E+02  0.15500000000E+01 0.  1.
         -4    1    3    3    0  501 -0.44719658248E+02 -0.11052679613E+02 -0.25511064689E+03  0.25924091925E+03  0.15500000000E+01 0.  1.
<mgrwt>
<rscale>  2 0.12499956E+03</rscale>
<asrwt>0</asrwt>
<pdfrwt beam="1">  1       21 0.19574854E-02 0.12499956E+03</pdfrwt>
<pdfrwt beam="2">  1       21 0.47231502E-01 0.12499956E+03</pdfrwt>
<totfact> 0.53855461E+06</totfact>
</mgrwt>
</event>
<event>
 5    0  0.1442596E+000  0.1250112E+03  0.7546771E-02  0.1235052E+00
         21   -1    0    0  503  502  0.00000000000E+00  0.00000000000E+00  0.16422722137E+03  0.16422722137E+03  0.00000000000E+00 0.  1.
         21   -1    0    0  502  503 -0.00000000000E+00 -0.00000000000E+00 -0.23789889900E+02  0.23789889900E+02  0.00000000000E+00 0.  1.
         25    2    1    2    0    0  0.00000000000E+00  0.00000000000E+00  0.14043733147E+03  0.18801711127E+03  0.12501115974E+03 0.  0.
          4    1    3    3  501    0  0.11294666270E+02  0.27460377727E+02  0.15291013540E+03  0.15577404738E+03  0.15500000000E+01 0. -1.
         -4    1    3    3    0  501 -0.11294666270E+02 -0.27460377727E+02 -0.12472803926E+02  0.32243063887E+02  0.15500000000E+01 0. -1.
<mgrwt>
<rscale>  2 0.12501116E+03</rscale>
<asrwt>0</asrwt>
<pdfrwt beam="1">  1       21 0.25265726E-01 0.12501116E+03</pdfrwt>
<pdfrwt beam="2">  1       21 0.36599832E-02 0.12501116E+03</pdfrwt>
<totfact> 0.66224791E+06</totfact>
</mgrwt>
</event>
<event>
 5    0  0.1249221E+000  0.1249930E+03  0.7546771E-02  0.1235080E+00
         21   -1    0    0  503  502  0.00000000000E+00  0.00000000000E+00  0.43613163394E+03  0.43613163394E+03  0.00000000000E+00 0.  1.
         21   -1    0    0  502  503 -0.00000000000E+00 -0.00000000000E+00 -0.89555816154E+01  0.89555816154E+01  0.00000000000E+00 0.  1.
         25    2    1    2    0    0  0.00000000000E+00  0.00000000000E+00  0.42717605232E+03  0.44508721555E+03  0.12499299889E+03 0.  0.
          4    1    3    3  501    0 -0.29264616397E+02  0.31375979641E+02  0.51869181699E+02  0.67332639792E+02  0.15500000000E+01 0.  1.
         -4    1    3    3    0  501  0.29264616397E+02 -0.31375979641E+02  0.37530687062E+03  0.37775457576E+03  0.15500000000E+01 0.  1.
<mgrwt>
<rscale>  2 0.12499300E+03</rscale>
<asrwt>0</asrwt>
<pdfrwt beam="1">  1       21 0.67097158E-01 0.12499300E+03</pdfrwt>
<pdfrwt beam="2">  1       21 0.13777821E-02 0.12499300E+03</pdfrwt>
<totfact> 0.45195603E+06</totfact>
</mgrwt>
</event>
<event>
 5    0  0.1494017E+000  0.1250074E+03  0.7546771E-02  0.1235058E+00
         21   -1    0    0  503  502  0.00000000000E+00  0.00000000000E+00  0.41697255968E+02  0.41697255968E+02  0.00000000000E+00 0. -1.
         21   -1    0    0  502  503 -0.00000000000E+00 -0.00000000000E+00 -0.93692371201E+02  0.93692371201E+02  0.00000000000E+00 0. -1.
         25    2    1    2    0    0  0.00000000000E+00  0.00000000000E+00 -0.51995115232E+02  0.13538962717E+03  0.12500743633E+03 0.  0.
          4    1    3    3  501    0 -0.31596918038E+02  0.35874530734E+02 -0.69575657192E+02  0.84430573601E+02  0.15500000000E+01 0.  1.
         -4    1    3    3    0  501  0.31596918038E+02 -0.35874530734E+02  0.17580541960E+02  0.50959053568E+02  0.15500000000E+01 0.  1.
<mgrwt>
<rscale>  2 0.12500744E+03</rscale>
<asrwt>0</asrwt>
<pdfrwt beam="1">  1       21 0.64149625E-02 0.12500744E+03</pdfrwt>
<pdfrwt beam="2">  1       21 0.14414211E-01 0.12500744E+03</pdfrwt>
<totfact> 0.72631148E+06</totfact>
</mgrwt>
</event>
<event>
 5    0  0.1575474E+000  0.1250042E+03  0.7546771E-02  0.1235063E+00
         21   -1    0    0  503  502  0.00000000000E+00  0.00000000000E+00  0.69844914922E+02  0.69844914922E+02  0.00000000000E+00 0. -1.
         21   -1    0    0  502  503 -0.00000000000E+00 -0.00000000000E+00 -0.55931258672E+02  0.55931258672E+02  0.00000000000E+00 0. -1.
         25    2    1    2    0    0  0.00000000000E+00  0.00000000000E+00  0.13913656250E+02  0.12577617359E+03  0.12500422398E+03 0.  0.
          4    1    3    3  501    0  0.51694378535E+02  0.15848470757E+02 -0.24551545819E+02  0.59402556338E+02  0.15500000000E+01 0.  1.
         -4    1    3    3    0  501 -0.51694378535E+02 -0.15848470757E+02  0.38465202068E+02  0.66373617256E+02  0.15500000000E+01 0.  1.
<mgrwt>
<rscale>  2 0.12500422E+03</rscale>
<asrwt>0</asrwt>
<pdfrwt beam="1">  1       21 0.10745372E-01 0.12500422E+03</pdfrwt>
<pdfrwt beam="2">  1       21 0.86048090E-02 0.12500422E+03</pdfrwt>
<totfact> 0.73929007E+06</totfact>
</mgrwt>
</event>
<event>
 5    0  0.1267031E+000  0.1250223E+03  0.7546771E-02  0.1235035E+00
         21   -1    0    0  503  502  0.00000000000E+00  0.00000000000E+00  0.58438161590E+03  0.58438161590E+03  0.00000000000E+00 0. -1.
         21   -1    0    0  502  503 -0.00000000000E+00 -0.00000000000E+00 -0.66867962094E+01  0.66867962094E+01  0.00000000000E+00 0. -1.
         25    2    1    2    0    0  0.00000000000E+00  0.00000000000E+00  0.57769481969E+03  0.59106841211E+03  0.12502225040E+03 0.  0.
          4    1    3    3  501    0  0.35050349737E+02 -0.33896823502E+00  0.53343920233E+03  0.53459183215E+03  0.15500000000E+01 0.  1.
         -4    1    3    3    0  501 -0.35050349737E+02  0.33896823502E+00  0.44255617356E+02  0.56476579958E+02  0.15500000000E+01 0.  1.
<mgrwt>
<rscale>  2 0.12502225E+03</rscale>
<asrwt>0</asrwt>
<pdfrwt beam="1">  1       21 0.89904824E-01 0.12502225E+03</pdfrwt>
<pdfrwt beam="2">  1       21 0.10287383E-02 0.12502225E+03</pdfrwt>
<totfact> 0.37478981E+06</totfact>
</mgrwt>
</event>
<event>
 4    0  0.1437167E+000  0.1251153E+03  0.7546771E-02  0.1234889E+00
         21   -1    0    0  503  502  0.00000000000E+00  0.00000000000E+00  0.17421396813E+02  0.17421396813E+02  0.00000000000E+00 0. -1.
         21   -1    0    0  502  503 -0.00000000000E+00 -0.00000000000E+00 -0.22463520973E+03  0.22463520973E+03  0.00000000000E+00 0. -1.
          4    1    1    2  501    0 -0.44618675656E+02  0.17178149340E+02 -0.18159928167E+03  0.18779408040E+03  0.15500000000E+01 0.  1.
         -4    1    1    2    0  501  0.44618675656E+02 -0.17178149340E+02 -0.25614531249E+02  0.54262526141E+02  0.15500000000E+01 0.  1.
<mgrwt>
<rscale>  2 0.12511529E+03</rscale>
<asrwt>0</asrwt>
<pdfrwt beam="1">  1       21 0.26802149E-02 0.12511529E+03</pdfrwt>
<pdfrwt beam="2">  1       21 0.34559262E-01 0.12511529E+03</pdfrwt>
<totfact> 0.60458226E+06</totfact>
</mgrwt>
</event>
<event>
 5    0  0.1440819E+000  0.1250013E+03  0.7546771E-02  0.1235067E+00
         21   -1    0    0  503  502  0.00000000000E+00  0.00000000000E+00  0.26660284732E+03  0.26660284732E+03  0.00000000000E+00 0.  1.
         21   -1    0    0  502  503 -0.00000000000E+00 -0.00000000000E+00 -0.14652257410E+02  0.14652257410E+02  0.00000000000E+00 0.  1.
         25    2    1    2    0    0  0.00000000000E+00  0.00000000000E+00  0.25195058991E+03  0.28125510473E+03  0.12500133672E+03 0.  0.
          4    1    3    3  501    0 -0.16536723374E+02 -0.58332371933E+02  0.92015526318E+02  0.11020611788E+03  0.15500000000E+01 0.  1.
         -4    1    3    3    0  501  0.16536723374E+02  0.58332371933E+02  0.15993506359E+03  0.17104898685E+03  0.15500000000E+01 0.  1.
<mgrwt>
<rscale>  2 0.12500134E+03</rscale>
<asrwt>0</asrwt>
<pdfrwt beam="1">  1       21 0.41015819E-01 0.12500134E+03</pdfrwt>
<pdfrwt beam="2">  1       21 0.22541937E-02 0.12500134E+03</pdfrwt>
<totfact> 0.57048919E+06</totfact>
</mgrwt>
</event>
<event>
 5    0  0.1484411E+000  0.1249795E+03  0.7546771E-02  0.1235101E+00
         21   -1    0    0  503  502  0.00000000000E+00  0.00000000000E+00  0.16574009710E+02  0.16574009710E+02  0.00000000000E+00 0. -1.
         21   -1    0    0  502  503 -0.00000000000E+00 -0.00000000000E+00 -0.23560779150E+03  0.23560779150E+03  0.00000000000E+00 0. -1.
         25    2    1    2    0    0  0.00000000000E+00  0.00000000000E+00 -0.21903378179E+03  0.25218180121E+03  0.12497945150E+03 0.  0.
          4    1    3    3  501    0  0.61240258285E+02 -0.12061448093E+02 -0.11474586168E+03  0.13063254969E+03  0.15500000000E+01 0.  1.
         -4    1    3    3    0  501 -0.61240258285E+02  0.12061448093E+02 -0.10428792011E+03  0.12154925152E+03  0.15500000000E+01 0.  1.
<mgrwt>
<rscale>  2 0.12497945E+03</rscale>
<asrwt>0</asrwt>
<pdfrwt beam="1">  1       21 0.25498478E-02 0.12497945E+03</pdfrwt>
<pdfrwt beam="2">  1       21 0.36247351E-01 0.12497945E+03</pdfrwt>
<totfact> 0.59704298E+06</totfact>
</mgrwt>
</event>
<event>
 5    0  0.1543589E+000  0.1250018E+03  0.7546771E-02  0.1235066E+00
         21   -1    0    0  503  502  0.00000000000E+00  0.00000000000E+00  0.60998864413E+02  0.60998864413E+02  0.00000000000E+00 0. -1.
         21   -1    0    0  502  503 -0.00000000000E+00 -0.00000000000E+00 -0.64039933179E+02  0.64039933179E+02  0.00000000000E+00 0. -1.
         25    2    1    2    0    0  0.00000000000E+00  0.00000000000E+00 -0.30410687664E+01  0.12503879759E+03  0.12500181120E+03 0.  0.
          4    1    3    3  501    0  0.55563637661E+01 -0.59802739354E+02  0.15710121596E+02  0.62100331988E+02  0.15500000000E+01 0. -1.
         -4    1    3    3    0  501 -0.55563637661E+01  0.59802739354E+02 -0.18751190362E+02  0.62938465603E+02  0.15500000000E+01 0. -1.
<mgrwt>
<rscale>  2 0.12500181E+03</rscale>
<asrwt>0</asrwt>
<pdfrwt beam="1">  1       21 0.93844407E-02 0.12500181E+03</pdfrwt>
<pdfrwt beam="2">  1       21 0.98522974E-02 0.12500181E+03</pdfrwt>
<totfact> 0.74034913E+06</totfact>
</mgrwt>
</event>
<event>
 5    0  0.1549145E+000  0.1249986E+03  0.7546771E-02  0.1235071E+00
         21   -1    0    0  503  502  0.00000000000E+00  0.00000000000E+00  0.18982280299E+03  0.18982280299E+03  0.00000000000E+00 0.  1.
         21   -1    0    0  502  503 -0.00000000000E+00 -0.00000000000E+00 -0.20577938978E+02  0.20577938978E+02  0.00000000000E+00 0.  1.
         25    2    1    2    0    0  0.00000000000E+00  0.00000000000E+00  0.16924486402E+03  0.21040074197E+03  0.12499859290E+03 0.  0.
          4    1    3    3  501    0  0.29550260825E+02  0.41754535919E+02  0.24234751214E+02  0.56624949015E+02  0.15500000000E+01 0. -1.
         -4    1    3    3    0  501 -0.29550260825E+02 -0.41754535919E+02  0.14501011280E+03  0.15377579296E+03  0.15500000000E+01 0. -1.
<mgrwt>
<rscale>  2 0.12499859E+03</rscale>
<asrwt>0</asrwt>
<pdfrwt beam="1">  1       21 0.29203507E-01 0.12499859E+03</pdfrwt>
<pdfrwt beam="2">  1       21 0.31658369E-02 0.12499859E+03</pdfrwt>
<totfact> 0.63819670E+06</totfact>
</mgrwt>
</event>
<event>
 5    0  0.1478582E+000  0.1249957E+03  0.7546771E-02  0.1235076E+00
         21   -1    0    0  503  502  0.00000000000E+00  0.00000000000E+00  0.17274357445E+03  0.17274357445E+03  0.00000000000E+00 0. -1.
         21   -1    0    0  502  503 -0.00000000000E+00 -0.00000000000E+00 -0.22611442209E+02  0.22611442209E+02  0.00000000000E+00 0. -1.
         25    2    1    2    0    0  0.00000000000E+00  0.00000000000E+00  0.15013213225E+03  0.19535501666E+03  0.12499570154E+03 0.  0.
          4    1    3    3  501    0  0.49159280149E+02 -0.10240875388E+02  0.16963639111E+02  0.53025257240E+02  0.15500000000E+01 0.  1.
         -4    1    3    3    0  501 -0.49159280149E+02  0.10240875388E+02  0.13316849314E+03  0.14232975942E+03  0.15500000000E+01 0.  1.
<mgrwt>
<rscale>  2 0.12499570E+03</rscale>
<asrwt>0</asrwt>
<pdfrwt beam="1">  1       21 0.26575934E-01 0.12499570E+03</pdfrwt>
<pdfrwt beam="2">  1       21 0.34786835E-02 0.12499570E+03</pdfrwt>
<totfact> 0.65439313E+06</totfact>
</mgrwt>
</event>
<event>
 5    0  0.1507289E+000  0.1249995E+03  0.7546771E-02  0.1235070E+00
         21   -1    0    0  503  502  0.00000000000E+00  0.00000000000E+00  0.74456026877E+02  0.74456026877E+02  0.00000000000E+00 0.  1.
         21   -1    0    0  502  503 -0.00000000000E+00 -0.00000000000E+00 -0.52463457373E+02  0.52463457373E+02  0.00000000000E+00 0.  1.
         25    2    1    2    0    0  0.00000000000E+00  0.00000000000E+00  0.21992569504E+02  0.12691948425E+03  0.12499952948E+03 0.  0.
          4    1    3    3  501    0 -0.11961167175E+01 -0.43187466664E+02 -0.34832671322E+02  0.55518514601E+02  0.15500000000E+01 0. -1.
         -4    1    3    3    0  501  0.11961167175E+01  0.43187466664E+02  0.56825240825E+02  0.71400969650E+02  0.15500000000E+01 0. -1.
<mgrwt>
<rscale>  2 0.12499953E+03</rscale>
<asrwt>0</asrwt>
<pdfrwt beam="1">  1       21 0.11454773E-01 0.12499953E+03</pdfrwt>
<pdfrwt beam="2">  1       21 0.80713011E-02 0.12499953E+03</pdfrwt>
<totfact> 0.73780987E+06</totfact>
</mgrwt>
</event>
<event>
 5    0  0.1350204E+000  0.1249985E+03  0.7546771E-02  0.1235072E+00
         21   -1    0    0  503  502  0.00000000000E+00  0.00000000000E+00  0.42357227116E+03  0.42357227116E+03  0.00000000000E+00 0. -1.
         21   -1    0    0  502  503 -0.00000000000E+00 -0.00000000000E+00 -0.92219292999E+01  0.92219292999E+01  0.00000000000E+00 0. -1.
         25    2    1    2    0    0  0.00000000000E+00  0.00000000000E+00  0.41435034186E+03  0.43279420046E+03  0.12499845660E+03 0.  0.
          4    1    3    3  501    0 -0.28603269699E+02 -0.31399024643E+02  0.48519372454E+02  0.64502540952E+02  0.15500000000E+01 0.  1.
         -4    1    3    3    0  501  0.28603269699E+02  0.31399024643E+02  0.36583096941E+03  0.36829165951E+03  0.15500000000E+01 0.  1.
<mgrwt>
<rscale>  2 0.12499846E+03</rscale>
<asrwt>0</asrwt>
<pdfrwt beam="1">  1       21 0.65164949E-01 0.12499846E+03</pdfrwt>
<pdfrwt beam="2">  1       21 0.14187587E-02 0.12499846E+03</pdfrwt>
<totfact> 0.45941362E+06</totfact>
</mgrwt>
</event>
<event>
 5    0  0.1553527E+000  0.1250010E+03  0.7546771E-02  0.1235068E+00
         21   -1    0    0  503  502  0.00000000000E+00  0.00000000000E+00  0.74886225211E+02  0.74886225211E+02  0.00000000000E+00 0. -1.
         21   -1    0    0  502  503 -0.00000000000E+00 -0.00000000000E+00 -0.52163315065E+02  0.52163315065E+02  0.00000000000E+00 0. -1.
         25    2    1    2    0    0  0.00000000000E+00  0.00000000000E+00  0.22722910146E+02  0.12704954028E+03  0.12500102015E+03 0.  0.
          4    1    3    3  501    0 -0.49936153038E+02  0.14167806313E+02 -0.23987303981E+02  0.57202616796E+02  0.15500000000E+01 0. -1.
         -4    1    3    3    0  501  0.49936153038E+02 -0.14167806313E+02  0.46710214127E+02  0.69846923481E+02  0.15500000000E+01 0. -1.
<mgrwt>
<rscale>  2 0.12500102E+03</rscale>
<asrwt>0</asrwt>
<pdfrwt beam="1">  1       21 0.11520958E-01 0.12500102E+03</pdfrwt>
<pdfrwt beam="2">  1       21 0.80251254E-02 0.12500102E+03</pdfrwt>
<totfact> 0.73760473E+06</totfact>
</mgrwt>
</event>
<event>
 5    0  0.1624488E+000  0.1250156E+03  0.7546771E-02  0.1235045E+00
         21   -1    0    0  503  502  0.00000000000E+00  0.00000000000E+00  0.21559613211E+03  0.21559613211E+03  0.00000000000E+00 0. -1.
         21   -1    0    0  502  503 -0.00000000000E+00 -0.00000000000E+00 -0.18122904395E+02  0.18122904395E+02  0.00000000000E+00 0. -1.
         25    2    1    2    0    0  0.00000000000E+00  0.00000000000E+00  0.19747322772E+03  0.23371903651E+03  0.12501564846E+03 0.  0.
          4    1    3    3  501    0  0.31643014051E+02  0.45485849217E+02  0.15274540010E+03  0.16249246927E+03  0.15500000000E+01 0.  1.
         -4    1    3    3    0  501 -0.31643014051E+02 -0.45485849217E+02  0.44727827615E+02  0.71226567237E+02  0.15500000000E+01 0.  1.
<mgrwt>
<rscale>  2 0.12501565E+03</rscale>
<asrwt>0</asrwt>
<pdfrwt beam="1">  1       21 0.33168634E-01 0.12501565E+03</pdfrwt>
<pdfrwt beam="2">  1       21 0.27881393E-02 0.12501565E+03</pdfrwt>
<totfact> 0.61421547E+06</totfact>
</mgrwt>
</event>
<event>
 5    0  0.1328575E+000  0.1250003E+03  0.7546771E-02  0.1235069E+00
         21   -1    0    0  503  502  0.00000000000E+00  0.00000000000E+00  0.88757932582E+01  0.88757932582E+01  0.00000000000E+00 0.  1.
         21   -1    0    0  502  503 -0.00000000000E+00 -0.00000000000E+00 -0.44010367575E+03  0.44010367575E+03  0.00000000000E+00 0.  1.
         25    2    1    2    0    0  0.00000000000E+00  0.00000000000E+00 -0.43122788249E+03  0.44897946901E+03  0.12500030781E+03 0.  0.
          4    1    3    3  501    0 -0.15283699880E+02 -0.58122774528E+02 -0.27699303353E+03  0.28344204262E+03  0.15500000000E+01 0. -1.
         -4    1    3    3    0  501  0.15283699880E+02  0.58122774528E+02 -0.15423484897E+03  0.16553742639E+03  0.15500000000E+01 0. -1.
<mgrwt>
<rscale>  2 0.12500031E+03</rscale>
<asrwt>0</asrwt>
<pdfrwt beam="1">  1       21 0.13655070E-02 0.12500031E+03</pdfrwt>
<pdfrwt beam="2">  1       21 0.67708243E-01 0.12500031E+03</pdfrwt>
<totfact> 0.44953059E+06</totfact>
</mgrwt>
</event>
<event>
 5    0  0.1388231E+000  0.1250159E+03  0.7546771E-02  0.1235044E+00
         21   -1    0    0  503  502  0.00000000000E+00  0.00000000000E+00  0.13945666005E+02  0.13945666005E+02  0.00000000000E+00 0.  1.
         21   -1    0    0  502  503 -0.00000000000E+00 -0.00000000000E+00 -0.28017633055E+03  0.28017633055E+03  0.00000000000E+00 0.  1.
         25    2    1    2    0    0  0.00000000000E+00  0.00000000000E+00 -0.26623066454E+03  0.29412199655E+03  0.12501592744E+03 0.  0.
          4    1    3    3  501    0  0.90829371565E+01  0.29292144159E+02 -0.50226766719E+01  0.31115257315E+02  0.15500000000E+01 0.  1.
         -4    1    3    3    0  501 -0.90829371565E+01 -0.29292144159E+02 -0.26120798787E+03  0.26300673924E+03  0.15500000000E+01 0.  1.
<mgrwt>
<rscale>  2 0.12501593E+03</rscale>
<asrwt>0</asrwt>
<pdfrwt beam="1">  1       21 0.21454869E-02 0.12501593E+03</pdfrwt>
<pdfrwt beam="2">  1       21 0.43104054E-01 0.12501593E+03</pdfrwt>
<totfact> 0.55925830E+06</totfact>
</mgrwt>
</event>
<event>
 5    0  0.1407877E+000  0.1249999E+03  0.7546771E-02  0.1235070E+00
         21   -1    0    0  503  502  0.00000000000E+00  0.00000000000E+00  0.49840417882E+03  0.49840417882E+03  0.00000000000E+00 0. -1.
         21   -1    0    0  502  503 -0.00000000000E+00 -0.00000000000E+00 -0.78374960012E+01  0.78374960012E+01  0.00000000000E+00 0. -1.
         25    2    1    2    0    0  0.00000000000E+00  0.00000000000E+00  0.49056668282E+03  0.50624167482E+03  0.12499985214E+03 0.  0.
          4    1    3    3  501    0  0.21073581070E+02 -0.56685016599E+02  0.18169140172E+03  0.19149792397E+03  0.15500000000E+01 0.  1.
         -4    1    3    3    0  501 -0.21073581070E+02  0.56685016599E+02  0.30887528110E+03  0.31474375085E+03  0.15500000000E+01 0.  1.
<mgrwt>
<rscale>  2 0.12499985E+03</rscale>
<asrwt>0</asrwt>
<pdfrwt beam="1">  1       21 0.76677541E-01 0.12499985E+03</pdfrwt>
<pdfrwt beam="2">  1       21 0.12057690E-02 0.12499985E+03</pdfrwt>
<totfact> 0.41707743E+06</totfact>
</mgrwt>
</event>
<event>
 5    0  0.1551301E+000  0.1249985E+03  0.7546771E-02  0.1235072E+00
         21   -1    0    0  503  502  0.00000000000E+00  0.00000000000E+00  0.17797536392E+02  0.17797536392E+02  0.00000000000E+00 0. -1.
         21   -1    0    0  502  503 -0.00000000000E+00 -0.00000000000E+00 -0.21947749835E+03  0.21947749835E+03  0.00000000000E+00 0. -1.
         25    2    1    2    0    0  0.00000000000E+00  0.00000000000E+00 -0.20167996195E+03  0.23727503474E+03  0.12499854022E+03 0.  0.
          4    1    3    3  501    0 -0.11643247642E+02  0.61047804350E+02 -0.11304728296E+03  0.12901352765E+03  0.15500000000E+01 0.  1.
         -4    1    3    3    0  501  0.11643247642E+02 -0.61047804350E+02 -0.88632678995E+02  0.10826150709E+03  0.15500000000E+01 0.  1.
<mgrwt>
<rscale>  2 0.12499854E+03</rscale>
<asrwt>0</asrwt>
<pdfrwt beam="1">  1       21 0.27380825E-02 0.12499854E+03</pdfrwt>
<pdfrwt beam="2">  1       21 0.33765770E-01 0.12499854E+03</pdfrwt>
<totfact> 0.61099602E+06</totfact>
</mgrwt>
</event>
<event>
 5    0  0.1330725E+000  0.1250019E+03  0.7546771E-02  0.1235066E+00
         21   -1    0    0  503  502  0.00000000000E+00  0.00000000000E+00  0.33460250381E+03  0.33460250381E+03  0.00000000000E+00 0.  1.
         21   -1    0    0  502  503 -0.00000000000E+00 -0.00000000000E+00 -0.11674663425E+02  0.11674663425E+02  0.00000000000E+00 0.  1.
         25    2    1    2    0    0  0.00000000000E+00  0.00000000000E+00  0.32292784038E+03  0.34627716723E+03  0.12500194580E+03 0.  0.
          4    1    3    3  501    0  0.25586599236E+02 -0.18275842261E+02  0.11892759776E+02  0.33652944981E+02  0.15500000000E+01 0. -1.
         -4    1    3    3    0  501 -0.25586599236E+02  0.18275842261E+02  0.31103508060E+03  0.31262422225E+03  0.15500000000E+01 0. -1.
<mgrwt>
<rscale>  2 0.12500195E+03</rscale>
<asrwt>0</asrwt>
<pdfrwt beam="1">  1       21 0.51477301E-01 0.12500195E+03</pdfrwt>
<pdfrwt beam="2">  1       21 0.17961023E-02 0.12500195E+03</pdfrwt>
<totfact> 0.51812031E+06</totfact>
</mgrwt>
</event>
<event>
 5    0  0.1587366E+000  0.1250022E+03  0.7546771E-02  0.1235066E+00
         21   -1    0    0  503  502  0.00000000000E+00  0.00000000000E+00  0.28019635874E+02  0.28019635874E+02  0.00000000000E+00 0. -1.
         21   -1    0    0  502  503 -0.00000000000E+00 -0.00000000000E+00 -0.13941601788E+03  0.13941601788E+03  0.00000000000E+00 0. -1.
         25    2    1    2    0    0  0.00000000000E+00  0.00000000000E+00 -0.11139638200E+03  0.16743565375E+03  0.12500217688E+03 0.  0.
          4    1    3    3  501    0  0.13944192875E+02  0.60243144956E+02 -0.67701632719E+02  0.91703819996E+02  0.15500000000E+01 0. -1.
         -4    1    3    3    0  501 -0.13944192875E+02 -0.60243144956E+02 -0.43694749286E+02  0.75731833757E+02  0.15500000000E+01 0. -1.
<mgrwt>
<rscale>  2 0.12500218E+03</rscale>
<asrwt>0</asrwt>
<pdfrwt beam="1">  1       21 0.43107132E-02 0.12500218E+03</pdfrwt>
<pdfrwt beam="2">  1       21 0.21448618E-01 0.12500218E+03</pdfrwt>
<totfact> 0.68618365E+06</totfact>
</mgrwt>
</event>
<event>
 5    0  0.1555291E+000  0.1250003E+03  0.7546771E-02  0.1235069E+00
         21   -1    0    0  503  502  0.00000000000E+00  0.00000000000E+00  0.30709829304E+02  0.30709829304E+02  0.00000000000E+00 0. -1.
         21   -1    0    0  502  503 -0.00000000000E+00 -0.00000000000E+00 -0.12719932993E+03  0.12719932993E+03  0.00000000000E+00 0. -1.
         25    2    1    2    0    0  0.00000000000E+00  0.00000000000E+00 -0.96489500628E+02  0.15790915924E+03  0.12500031536E+03 0.  0.
          4    1    3    3  501    0  0.43256736496E+02  0.35441701679E+02 -0.83449160272E+02  0.10046603565E+03  0.15500000000E+01 0.  1.
         -4    1    3    3    0  501 -0.43256736496E+02 -0.35441701679E+02 -0.13040340356E+02  0.57443123581E+02  0.15500000000E+01 0.  1.
<mgrwt>
<rscale>  2 0.12500032E+03</rscale>
<asrwt>0</asrwt>
<pdfrwt beam="1">  1       21 0.47245891E-02 0.12500032E+03</pdfrwt>
<pdfrwt beam="2">  1       21 0.19569128E-01 0.12500032E+03</pdfrwt>
<totfact> 0.69775321E+06</totfact>
</mgrwt>
</event>
<event>
 4    0  0.1443475E+000  0.1251273E+03  0.7546771E-02  0.1234870E+00
         21   -1    0    0  503  502  0.00000000000E+00  0.00000000000E+00  0.19793870103E+03  0.19793870103E+03  0.00000000000E+00 0.  1.
         21   -1    0    0  502  503 -0.00000000000E+00 -0.00000000000E+00 -0.19774863248E+02  0.19774863248E+02  0.00000000000E+00 0.  1.
          4    1    1    2  501    0  0.60343583744E+02  0.11076042160E+01  0.60532463764E+02  0.85493605348E+02  0.15500000000E+01 0. -1.
         -4    1    1    2    0  501 -0.60343583744E+02 -0.11076042160E+01  0.11763137402E+03  0.13221995893E+03  0.15500000000E+01 0. -1.
<mgrwt>
<rscale>  2 0.12512731E+03</rscale>
<asrwt>0</asrwt>
<pdfrwt beam="1">  1       21 0.30452106E-01 0.12512731E+03</pdfrwt>
<pdfrwt beam="2">  1       21 0.30422868E-02 0.12512731E+03</pdfrwt>
<totfact> 0.62854501E+06</totfact>
</mgrwt>
</event>
<event>
 5    0  0.1608301E+000  0.1250012E+03  0.7546771E-02  0.1235067E+00
         21   -1    0    0  503  502  0.00000000000E+00  0.00000000000E+00  0.53329704037E+02  0.53329704037E+02  0.00000000000E+00 0.  1.
         21   -1    0    0  502  503 -0.00000000000E+00 -0.00000000000E+00 -0.73248625040E+02  0.73248625040E+02  0.00000000000E+00 0.  1.
         25    2    1    2    0    0  0.00000000000E+00  0.00000000000E+00 -0.19918921003E+02  0.12657832908E+03  0.12500123991E+03 0.  0.
          4    1    3    3  501    0  0.52640652349E+02  0.27213197826E+02 -0.30016646877E+02  0.66445451352E+02  0.15500000000E+01 0. -1.
         -4    1    3    3    0  501 -0.52640652349E+02 -0.27213197826E+02  0.10097725874E+02  0.60132877725E+02  0.15500000000E+01 0. -1.
<mgrwt>
<rscale>  2 0.12500124E+03</rscale>
<asrwt>0</asrwt>
<pdfrwt beam="1">  1       21 0.82045699E-02 0.12500124E+03</pdfrwt>
<pdfrwt beam="2">  1       21 0.11269019E-01 0.12500124E+03</pdfrwt>
<totfact> 0.73824322E+06</totfact>
</mgrwt>
</event>
<event>
 5    0  0.1222151E+000  0.1250013E+03  0.7546771E-02  0.1235067E+00
         21   -1    0    0  503  502  0.00000000000E+00  0.00000000000E+00  0.90376634627E+03  0.90376634627E+03  0.00000000000E+00 0.  1.
         21   -1    0    0  502  503 -0.00000000000E+00 -0.00000000000E+00 -0.43222776342E+01  0.43222776342E+01  0.00000000000E+00 0.  1.
         25    2    1    2    0    0  0.00000000000E+00  0.00000000000E+00  0.89944406863E+03  0.90808862390E+03  0.12500126503E+03 0.  0.
          4    1    3    3  501    0  0.28230699170E+02  0.55698944731E+02  0.43417207365E+03  0.43864237923E+03  0.15500000000E+01 0.  1.
         -4    1    3    3    0  501 -0.28230699170E+02 -0.55698944731E+02  0.46527199498E+03  0.46944624467E+03  0.15500000000E+01 0.  1.
<mgrwt>
<rscale>  2 0.12500127E+03</rscale>
<asrwt>0</asrwt>
<pdfrwt beam="1">  1       21 0.13904083E+00 0.12500127E+03</pdfrwt>
<pdfrwt beam="2">  1       21 0.66496651E-03 0.12500127E+03</pdfrwt>
<totfact> 0.26067085E+06</totfact>
</mgrwt>
</event>
<event>
 5    0  0.1397004E+000  0.1249999E+03  0.7546771E-02  0.1235069E+00
         21   -1    0    0  503  502  0.00000000000E+00  0.00000000000E+00  0.35542083249E+03  0.35542083249E+03  0.00000000000E+00 0.  1.
         21   -1    0    0  502  503 -0.00000000000E+00 -0.00000000000E+00 -0.10990470853E+02  0.10990470853E+02  0.00000000000E+00 0.  1.
         25    2    1    2    0    0  0.00000000000E+00  0.00000000000E+00  0.34443036164E+03  0.36641130334E+03  0.12499987680E+03 0.  0.
          4    1    3    3  501    0 -0.44012128268E+02 -0.83813224611E+01  0.29987042338E+03  0.30320288145E+03  0.15500000000E+01 0. -1.
         -4    1    3    3    0  501  0.44012128268E+02  0.83813224611E+01  0.44559938261E+02  0.63208421897E+02  0.15500000000E+01 0. -1.
<mgrwt>
<rscale>  2 0.12499988E+03</rscale>
<asrwt>0</asrwt>
<pdfrwt beam="1">  1       21 0.54680119E-01 0.12499988E+03</pdfrwt>
<pdfrwt beam="2">  1       21 0.16908419E-02 0.12499988E+03</pdfrwt>
<totfact> 0.50348941E+06</totfact>
</mgrwt>
</event>
<event>
 5    0  0.1222151E+000  0.1249962E+03  0.7546771E-02  0.1235075E+00
         21   -1    0    0  503  502  0.00000000000E+00  0.00000000000E+00  0.18596898586E+01  0.18596898586E+01  0.00000000000E+00 0. -1.
         21   -1    0    0  502  503 -0.00000000000E+00 -0.00000000000E+00 -0.21003570027E+04  0.21003570027E+04  0.00000000000E+00 0. -1.
         25    2    1    2    0    0  0.00000000000E+00  0.00000000000E+00 -0.20984973129E+04  0.21022166926E+04  0.12499620182E+03 0.  0.
          4    1    3    3  501    0 -0.44470198084E+02  0.14842670980E+02 -0.17438455611E+04  0.17444763246E+04  0.15500000000E+01 0. -1.
         -4    1    3    3    0  501  0.44470198084E+02 -0.14842670980E+02 -0.35465175173E+03  0.35774036801E+03  0.15500000000E+01 0. -1.
<mgrwt>
<rscale>  2 0.12499620E+03</rscale>
<asrwt>0</asrwt>
<pdfrwt beam="1">  1       21 0.28610702E-03 0.12499620E+03</pdfrwt>
<pdfrwt beam="2">  1       21 0.32313084E+00 0.12499620E+03</pdfrwt>
<totfact> 0.69944270E+05</totfact>
</mgrwt>
</event>
<event>
 5    0  0.1363070E+000  0.1250025E+03  0.7546771E-02  0.1235065E+00
         21   -1    0    0  503  502  0.00000000000E+00  0.00000000000E+00  0.34198766290E+03  0.34198766290E+03  0.00000000000E+00 0. -1.
         21   -1    0    0  502  503 -0.00000000000E+00 -0.00000000000E+00 -0.11422643512E+02  0.11422643512E+02  0.00000000000E+00 0. -1.
         25    2    1    2    0    0  0.00000000000E+00  0.00000000000E+00  0.33056501939E+03  0.35341030642E+03  0.12500245052E+03 0.  0.
          4    1    3    3  501    0 -0.30520102764E+02  0.54274285997E+02  0.15063925705E+03  0.16300847542E+03  0.15500000000E+01 0. -1.
         -4    1    3    3    0  501  0.30520102764E+02 -0.54274285997E+02  0.17992576234E+03  0.19040183099E+03  0.15500000000E+01 0. -1.
<mgrwt>
<rscale>  2 0.12500245E+03</rscale>
<asrwt>0</asrwt>
<pdfrwt beam="1">  1       21 0.52613479E-01 0.12500245E+03</pdfrwt>
<pdfrwt beam="2">  1       21 0.17573300E-02 0.12500245E+03</pdfrwt>
<totfact> 0.51284409E+06</totfact>
</mgrwt>
</event>
<event>
 5    0  0.1490275E+000  0.1249977E+03  0.7546771E-02  0.1235073E+00
         21   -1    0    0  503  502  0.00000000000E+00  0.00000000000E+00  0.21104308100E+02  0.21104308100E+02  0.00000000000E+00 0.  1.
         21   -1    0    0  502  503 -0.00000000000E+00 -0.00000000000E+00 -0.18508559899E+03  0.18508559899E+03  0.00000000000E+00 0.  1.
         25    2    1    2    0    0  0.00000000000E+00  0.00000000000E+00 -0.16398129089E+03  0.20618990709E+03  0.12499765607E+03 0.  0.
          4    1    3    3  501    0 -0.39987335904E+02 -0.35379582616E+02 -0.28462828075E+02  0.60524680758E+02  0.15500000000E+01 0.  1.
         -4    1    3    3    0  501  0.39987335904E+02  0.35379582616E+02 -0.13551846282E+03  0.14566522633E+03  0.15500000000E+01 0.  1.
<mgrwt>
<rscale>  2 0.12499766E+03</rscale>
<asrwt>0</asrwt>
<pdfrwt beam="1">  1       21 0.32468168E-02 0.12499766E+03</pdfrwt>
<pdfrwt beam="2">  1       21 0.28474706E-01 0.12499766E+03</pdfrwt>
<totfact> 0.64266456E+06</totfact>
</mgrwt>
</event>
<event>
 5    0  0.1403591E+000  0.1250024E+03  0.7546771E-02  0.1235066E+00
         21   -1    0    0  503  502  0.00000000000E+00  0.00000000000E+00  0.34770194733E+03  0.34770194733E+03  0.00000000000E+00 0. -1.
         21   -1    0    0  502  503 -0.00000000000E+00 -0.00000000000E+00 -0.11234903672E+02  0.11234903672E+02  0.00000000000E+00 0. -1.
         25    2    1    2    0    0  0.00000000000E+00  0.00000000000E+00  0.33646704366E+03  0.35893685101E+03  0.12500236614E+03 0.  0.
          4    1    3    3  501    0  0.42199858666E+02  0.30097103798E+02  0.68048159637E+02  0.85554767596E+02  0.15500000000E+01 0. -1.
         -4    1    3    3    0  501 -0.42199858666E+02 -0.30097103798E+02  0.26841888402E+03  0.27338208341E+03  0.15500000000E+01 0. -1.
<mgrwt>
<rscale>  2 0.12500237E+03</rscale>
<asrwt>0</asrwt>
<pdfrwt beam="1">  1       21 0.53492599E-01 0.12500237E+03</pdfrwt>
<pdfrwt beam="2">  1       21 0.17284470E-02 0.12500237E+03</pdfrwt>
<totfact> 0.50882106E+06</totfact>
</mgrwt>
</event>
<event>
 5    0  0.1412059E+000  0.1250096E+03  0.7546771E-02  0.1235054E+00
         21   -1    0    0  503  502  0.00000000000E+00  0.00000000000E+00  0.13436808704E+02  0.13436808704E+02  0.00000000000E+00 0.  1.
         21   -1    0    0  502  503 -0.00000000000E+00 -0.00000000000E+00 -0.29075719418E+03  0.29075719418E+03  0.00000000000E+00 0.  1.
         25    2    1    2    0    0  0.00000000000E+00  0.00000000000E+00 -0.27732038548E+03  0.30419400288E+03  0.12500958039E+03 0.  0.
          4    1    3    3  501    0  0.39619510031E+02 -0.17828850781E+02 -0.24794168207E+03  0.25172416193E+03  0.15500000000E+01 0. -1.
         -4    1    3    3    0  501 -0.39619510031E+02  0.17828850781E+02 -0.29378703411E+02  0.52469840951E+02  0.15500000000E+01 0. -1.
<mgrwt>
<rscale>  2 0.12500958E+03</rscale>
<asrwt>0</asrwt>
<pdfrwt beam="1">  1       21 0.20672014E-02 0.12500958E+03</pdfrwt>
<pdfrwt beam="2">  1       21 0.44731875E-01 0.12500958E+03</pdfrwt>
<totfact> 0.55096167E+06</totfact>
</mgrwt>
</event>
<event>
 5    0  0.1455365E+000  0.1250002E+03  0.7546771E-02  0.1235069E+00
         21   -1    0    0  503  502  0.00000000000E+00  0.00000000000E+00  0.12414033197E+02  0.12414033197E+02  0.00000000000E+00 0.  1.
         21   -1    0    0  502  503 -0.00000000000E+00 -0.00000000000E+00 -0.31466526511E+03  0.31466526511E+03  0.00000000000E+00 0.  1.
         25    2    1    2    0    0  0.00000000000E+00  0.00000000000E+00 -0.30225123191E+03  0.32707929831E+03  0.12500024075E+03 0.  0.
          4    1    3    3  501    0  0.56718555540E+02  0.22768319987E+02 -0.11716265309E+03  0.13215476048E+03  0.15500000000E+01 0. -1.
         -4    1    3    3    0  501 -0.56718555540E+02 -0.22768319987E+02 -0.18508857882E+03  0.19492453783E+03  0.15500000000E+01 0. -1.
<mgrwt>
<rscale>  2 0.12500024E+03</rscale>
<asrwt>0</asrwt>
<pdfrwt beam="1">  1       21 0.19098514E-02 0.12500024E+03</pdfrwt>
<pdfrwt beam="2">  1       21 0.48410037E-01 0.12500024E+03</pdfrwt>
<totfact> 0.53276750E+06</totfact>
</mgrwt>
</event>
<event>
 5    0  0.1222151E+000  0.1249981E+03  0.7546771E-02  0.1235072E+00
         21   -1    0    0  503  502  0.00000000000E+00  0.00000000000E+00  0.24036719686E+01  0.24036719686E+01  0.00000000000E+00 0. -1.
         21   -1    0    0  502  503 -0.00000000000E+00 -0.00000000000E+00 -0.16250692904E+04  0.16250692904E+04  0.00000000000E+00 0. -1.
         25    2    1    2    0    0  0.00000000000E+00  0.00000000000E+00 -0.16226656184E+04  0.16274729623E+04  0.12499813599E+03 0.  0.
          4    1    3    3  501    0  0.57429891590E+01 -0.57058363215E+02 -0.48842363969E+03  0.49178114344E+03  0.15500000000E+01 0.  1.
         -4    1    3    3    0  501 -0.57429891590E+01  0.57058363215E+02 -0.11342419787E+04  0.11356918189E+04  0.15500000000E+01 0.  1.
<mgrwt>
<rscale>  2 0.12499814E+03</rscale>
<asrwt>0</asrwt>
<pdfrwt beam="1">  1       21 0.36979497E-03 0.12499814E+03</pdfrwt>
<pdfrwt beam="2">  1       21 0.25001114E+00 0.12499814E+03</pdfrwt>
<totfact> 0.12204994E+06</totfact>
</mgrwt>
</event>
<event>
 5    0  0.1511736E+000  0.1250003E+03  0.7546771E-02  0.1235069E+00
         21   -1    0    0  503  502  0.00000000000E+00  0.00000000000E+00  0.31606353583E+02  0.31606353583E+02  0.00000000000E+00 0. -1.
         21   -1    0    0  502  503 -0.00000000000E+00 -0.00000000000E+00 -0.12359121895E+03  0.12359121895E+03  0.00000000000E+00 0. -1.
         25    2    1    2    0    0  0.00000000000E+00  0.00000000000E+00 -0.91984865363E+02  0.15519757253E+03  0.12500028425E+03 0.  0.
          4    1    3    3  501    0  0.61121416751E+02  0.10459065877E+02 -0.55500488416E+02  0.83234165816E+02  0.15500000000E+01 0. -1.
         -4    1    3    3    0  501 -0.61121416751E+02 -0.10459065877E+02 -0.36484376947E+02  0.71963406714E+02  0.15500000000E+01 0. -1.
<mgrwt>
<rscale>  2 0.12500028E+03</rscale>
<asrwt>0</asrwt>
<pdfrwt beam="1">  1       21 0.48625160E-02 0.12500028E+03</pdfrwt>
<pdfrwt beam="2">  1       21 0.19014033E-01 0.12500028E+03</pdfrwt>
<totfact> 0.70110605E+06</totfact>
</mgrwt>
</event>
<event>
 5    0  0.1222151E+000  0.1250017E+03  0.7546771E-02  0.1235067E+00
         21   -1    0    0  503  502  0.00000000000E+00  0.00000000000E+00  0.60100229618E+03  0.60100229618E+03  0.00000000000E+00 0.  1.
         21   -1    0    0  502  503 -0.00000000000E+00 -0.00000000000E+00 -0.64997348167E+01  0.64997348167E+01  0.00000000000E+00 0.  1.
         25    2    1    2    0    0  0.00000000000E+00  0.00000000000E+00  0.59450256136E+03  0.60750203099E+03  0.12500168878E+03 0.  0.
          4    1    3    3  501    0 -0.40525592830E+02 -0.17694116777E+02  0.51178095045E+03  0.51369012954E+03  0.15500000000E+01 0.  1.
         -4    1    3    3    0  501  0.40525592830E+02  0.17694116777E+02  0.82721610906E+02  0.93811901450E+02  0.15500000000E+01 0.  1.
<mgrwt>
<rscale>  2 0.12500169E+03</rscale>
<asrwt>0</asrwt>
<pdfrwt beam="1">  1       21 0.92461848E-01 0.12500169E+03</pdfrwt>
<pdfrwt beam="2">  1       21 0.99995967E-03 0.12500169E+03</pdfrwt>
<totfact> 0.36754015E+06</totfact>
</mgrwt>
</event>
<event>
 5    0  0.1222151E+000  0.1250019E+03  0.7546771E-02  0.1235066E+00
         21   -1    0    0  503  502  0.00000000000E+00  0.00000000000E+00  0.47579752437E+03  0.47579752437E+03  0.00000000000E+00 0. -1.
         21   -1    0    0  502  503 -0.00000000000E+00 -0.00000000000E+00 -0.82101495251E+01  0.82101495251E+01  0.00000000000E+00 0. -1.
         25    2    1    2    0    0  0.00000000000E+00  0.00000000000E+00  0.46758737484E+03  0.48400767389E+03  0.12500190108E+03 0.  0.
          4    1    3    3  501    0 -0.18909537900E+02 -0.14936784028E+02  0.45700676259E+03  0.45764425233E+03  0.15500000000E+01 0. -1.
         -4    1    3    3    0  501  0.18909537900E+02  0.14936784028E+02  0.10580612253E+02  0.26363421560E+02  0.15500000000E+01 0. -1.
<mgrwt>
<rscale>  2 0.12500190E+03</rscale>
<asrwt>0</asrwt>
<pdfrwt beam="1">  1       21 0.73199597E-01 0.12500190E+03</pdfrwt>
<pdfrwt beam="2">  1       21 0.12631003E-02 0.12500190E+03</pdfrwt>
<totfact> 0.42922839E+06</totfact>
</mgrwt>
</event>
<event>
 5    0  0.1284285E+000  0.1250612E+03  0.7546771E-02  0.1234974E+00
         21   -1    0    0  503  502  0.00000000000E+00  0.00000000000E+00  0.45377497511E+03  0.45377497511E+03  0.00000000000E+00 0. -1.
         21   -1    0    0  502  503 -0.00000000000E+00 -0.00000000000E+00 -0.86167739609E+01  0.86167739609E+01  0.00000000000E+00 0. -1.
         25    2    1    2    0    0  0.00000000000E+00  0.00000000000E+00  0.44515820115E+03  0.46239174907E+03  0.12506120725E+03 0.  0.
          4    1    3    3  501    0  0.47136673130E+02  0.15681750714E+02  0.36287733705E+03  0.36626513280E+03  0.15500000000E+01 0. -1.
         -4    1    3    3    0  501 -0.47136673130E+02 -0.15681750714E+02  0.82280864105E+02  0.96126616279E+02  0.15500000000E+01 0. -1.
<mgrwt>
<rscale>  2 0.12506121E+03</rscale>
<asrwt>0</asrwt>
<pdfrwt beam="1">  1       21 0.69811516E-01 0.12506121E+03</pdfrwt>
<pdfrwt beam="2">  1       21 0.13256579E-02 0.12506121E+03</pdfrwt>
<totfact> 0.44092633E+06</totfact>
</mgrwt>
</event>
<event>
 5    0  0.1465291E+000  0.1249985E+03  0.7546771E-02  0.1235072E+00
         21   -1    0    0  503  502  0.00000000000E+00  0.00000000000E+00  0.41871572560E+02  0.41871572560E+02  0.00000000000E+00 0.  1.
         21   -1    0    0  502  503 -0.00000000000E+00 -0.00000000000E+00 -0.93288990636E+02  0.93288990636E+02  0.00000000000E+00 0.  1.
         25    2    1    2    0    0  0.00000000000E+00  0.00000000000E+00 -0.51417418076E+02  0.13516056320E+03  0.12499850784E+03 0.  0.
          4    1    3    3  501    0  0.26257422431E+02 -0.31055688976E+02 -0.76997395713E+02  0.87091385895E+02  0.15500000000E+01 0.  1.
         -4    1    3    3    0  501 -0.26257422431E+02  0.31055688976E+02  0.25579977637E+02  0.48069177301E+02  0.15500000000E+01 0.  1.
<mgrwt>
<rscale>  2 0.12499851E+03</rscale>
<asrwt>0</asrwt>
<pdfrwt beam="1">  1       21 0.64417804E-02 0.12499851E+03</pdfrwt>
<pdfrwt beam="2">  1       21 0.14352152E-01 0.12499851E+03</pdfrwt>
<totfact> 0.72677985E+06</totfact>
</mgrwt>
</event>
<event>
 4    0  0.1421600E+000  0.1254827E+03  0.7546771E-02  0.1234317E+00
         21   -1    0    0  503  502  0.00000000000E+00  0.00000000000E+00  0.25539930439E+02  0.25539930439E+02  0.00000000000E+00 0.  1.
         21   -1    0    0  502  503 -0.00000000000E+00 -0.00000000000E+00 -0.15413018677E+03  0.15413018677E+03  0.00000000000E+00 0.  1.
          4    1    1    2  501    0 -0.40715730293E+01 -0.30185953449E+02  0.14211887660E+02  0.33647432940E+02  0.15500000000E+01 0.  1.
         -4    1    1    2    0  501  0.40715730293E+01  0.30185953449E+02 -0.14280214399E+03  0.14602268426E+03  0.15500000000E+01 0.  1.
<mgrwt>
<rscale>  2 0.12548266E+03</rscale>
<asrwt>0</asrwt>
<pdfrwt beam="1">  1       21 0.39292200E-02 0.12548266E+03</pdfrwt>
<pdfrwt beam="2">  1       21 0.23712337E-01 0.12548266E+03</pdfrwt>
<totfact> 0.66373264E+06</totfact>
</mgrwt>
</event>
<event>
 5    0  0.1587698E+000  0.1250012E+03  0.7546771E-02  0.1235067E+00
         21   -1    0    0  503  502  0.00000000000E+00  0.00000000000E+00  0.12418690939E+03  0.12418690939E+03  0.00000000000E+00 0.  1.
         21   -1    0    0  502  503 -0.00000000000E+00 -0.00000000000E+00 -0.31455199358E+02  0.31455199358E+02  0.00000000000E+00 0.  1.
         25    2    1    2    0    0  0.00000000000E+00  0.00000000000E+00  0.92731710035E+02  0.15564210875E+03  0.12500118388E+03 0.  0.
          4    1    3    3  501    0 -0.56415096309E+02  0.14568713845E+02  0.74457460114E+02  0.94558058256E+02  0.15500000000E+01 0.  1.
         -4    1    3    3    0  501  0.56415096309E+02 -0.14568713845E+02  0.18274249921E+02  0.61084050494E+02  0.15500000000E+01 0.  1.
<mgrwt>
<rscale>  2 0.12500118E+03</rscale>
<asrwt>0</asrwt>
<pdfrwt beam="1">  1       21 0.19105678E-01 0.12500118E+03</pdfrwt>
<pdfrwt beam="2">  1       21 0.48392615E-02 0.12500118E+03</pdfrwt>
<totfact> 0.70053832E+06</totfact>
</mgrwt>
</event>
<event>
 5    0  0.1567443E+000  0.1250014E+03  0.7546771E-02  0.1235067E+00
         21   -1    0    0  503  502  0.00000000000E+00  0.00000000000E+00  0.84559561926E+02  0.84559561926E+02  0.00000000000E+00 0.  1.
         21   -1    0    0  502  503 -0.00000000000E+00 -0.00000000000E+00 -0.46196257677E+02  0.46196257677E+02  0.00000000000E+00 0.  1.
         25    2    1    2    0    0  0.00000000000E+00  0.00000000000E+00  0.38363304250E+02  0.13075581960E+03  0.12500136498E+03 0.  0.
          4    1    3    3  501    0 -0.35342305219E+02  0.50862210758E+02  0.27800485917E+02  0.67906645762E+02  0.15500000000E+01 0.  1.
         -4    1    3    3    0  501  0.35342305219E+02 -0.50862210758E+02  0.10562818333E+02  0.62849173841E+02  0.15500000000E+01 0.  1.
<mgrwt>
<rscale>  2 0.12500136E+03</rscale>
<asrwt>0</asrwt>
<pdfrwt beam="1">  1       21 0.13009163E-01 0.12500136E+03</pdfrwt>
<pdfrwt beam="2">  1       21 0.71071166E-02 0.12500136E+03</pdfrwt>
<totfact> 0.73261045E+06</totfact>
</mgrwt>
</event>
<event>
 5    0  0.1419705E+000  0.1249994E+03  0.7546771E-02  0.1235070E+00
         21   -1    0    0  503  502  0.00000000000E+00  0.00000000000E+00  0.11039454131E+02  0.11039454131E+02  0.00000000000E+00 0.  1.
         21   -1    0    0  502  503 -0.00000000000E+00 -0.00000000000E+00 -0.35384115273E+03  0.35384115273E+03  0.00000000000E+00 0.  1.
         25    2    1    2    0    0  0.00000000000E+00  0.00000000000E+00 -0.34280169860E+03  0.36488060686E+03  0.12499941080E+03 0.  0.
          4    1    3    3  501    0 -0.35305964373E+02 -0.15193392854E+02 -0.27610606582E+02  0.47350801499E+02  0.15500000000E+01 0. -1.
         -4    1    3    3    0  501  0.35305964373E+02  0.15193392854E+02 -0.31519109202E+03  0.31752980537E+03  0.15500000000E+01 0. -1.
<mgrwt>
<rscale>  2 0.12499941E+03</rscale>
<asrwt>0</asrwt>
<pdfrwt beam="1">  1       21 0.16983777E-02 0.12499941E+03</pdfrwt>
<pdfrwt beam="2">  1       21 0.54437096E-01 0.12499941E+03</pdfrwt>
<totfact> 0.50458631E+06</totfact>
</mgrwt>
</event>
<event>
 5    0  0.1503622E+000  0.1249966E+03  0.7546771E-02  0.1235075E+00
         21   -1    0    0  503  502  0.00000000000E+00  0.00000000000E+00  0.17377847319E+03  0.17377847319E+03  0.00000000000E+00 0. -1.
         21   -1    0    0  502  503 -0.00000000000E+00 -0.00000000000E+00 -0.22477125276E+02  0.22477125276E+02  0.00000000000E+00 0. -1.
         25    2    1    2    0    0  0.00000000000E+00  0.00000000000E+00  0.15130134791E+03  0.19625559846E+03  0.12499664815E+03 0.  0.
          4    1    3    3  501    0 -0.43706762751E+02 -0.33885262206E+02  0.30006060515E+02  0.62938527728E+02  0.15500000000E+01 0.  1.
         -4    1    3    3    0  501  0.43706762751E+02  0.33885262206E+02  0.12129528740E+03  0.13331707074E+03  0.15500000000E+01 0.  1.
<mgrwt>
<rscale>  2 0.12499665E+03</rscale>
<asrwt>0</asrwt>
<pdfrwt beam="1">  1       21 0.26735149E-01 0.12499665E+03</pdfrwt>
<pdfrwt beam="2">  1       21 0.34580194E-02 0.12499665E+03</pdfrwt>
<totfact> 0.65339410E+06</totfact>
</mgrwt>
</event>
<event>
 5    0  0.1335945E+000  0.1249396E+03  0.7546771E-02  0.1235164E+00
         21   -1    0    0  503  502  0.00000000000E+00  0.00000000000E+00  0.12231318230E+03  0.12231318230E+03  0.00000000000E+00 0.  1.
         21   -1    0    0  502  503 -0.00000000000E+00 -0.00000000000E+00 -0.31905607189E+02  0.31905607189E+02  0.00000000000E+00 0.  1.
         25    2    1    2    0    0  0.00000000000E+00  0.00000000000E+00  0.90407575110E+02  0.15421878949E+03  0.12493960699E+03 0.  0.
          4    1    3    3  501    0  0.60861305823E+02 -0.61646883673E+01  0.60717905962E+02  0.86204225729E+02  0.15500000000E+01 0. -1.
         -4    1    3    3    0  501 -0.60861305823E+02  0.61646883673E+01  0.29689669148E+02  0.68014563759E+02  0.15500000000E+01 0. -1.
<mgrwt>
<rscale>  2 0.12493961E+03</rscale>
<asrwt>0</asrwt>
<pdfrwt beam="1">  1       21 0.18817412E-01 0.12493961E+03</pdfrwt>
<pdfrwt beam="2">  1       21 0.49085550E-02 0.12493961E+03</pdfrwt>
<totfact> 0.70340890E+06</totfact>
</mgrwt>
</event>
<event>
 5    0  0.1469270E+000  0.1249952E+03  0.7546771E-02  0.1235077E+00
         21   -1    0    0  503  502  0.00000000000E+00  0.00000000000E+00  0.16928252487E+02  0.16928252487E+02  0.00000000000E+00 0. -1.
         21   -1    0    0  502  503 -0.00000000000E+00 -0.00000000000E+00 -0.23073571376E+03  0.23073571376E+03  0.00000000000E+00 0. -1.
         25    2    1    2    0    0  0.00000000000E+00  0.00000000000E+00 -0.21380746128E+03  0.24766396625E+03  0.12499523863E+03 0.  0.
          4    1    3    3  501    0  0.23329217823E+02 -0.54290031310E+02 -0.14711612995E+03  0.15854721093E+03  0.15500000000E+01 0.  1.
         -4    1    3    3    0  501 -0.23329217823E+02  0.54290031310E+02 -0.66691331328E+02  0.89116755317E+02  0.15500000000E+01 0.  1.
<mgrwt>
<rscale>  2 0.12499524E+03</rscale>
<asrwt>0</asrwt>
<pdfrwt beam="1">  1       21 0.26043468E-02 0.12499524E+03</pdfrwt>
<pdfrwt beam="2">  1       21 0.35497798E-01 0.12499524E+03</pdfrwt>
<totfact> 0.60106040E+06</totfact>
</mgrwt>
</event>
<event>
 5    0  0.1399103E+000  0.1250011E+03  0.7546771E-02  0.1235068E+00
         21   -1    0    0  503  502  0.00000000000E+00  0.00000000000E+00  0.37915337621E+03  0.37915337621E+03  0.00000000000E+00 0.  1.
         21   -1    0    0  502  503 -0.00000000000E+00 -0.00000000000E+00 -0.10302746203E+02  0.10302746203E+02  0.00000000000E+00 0.  1.
         25    2    1    2    0    0  0.00000000000E+00  0.00000000000E+00  0.36885063000E+03  0.38945612241E+03  0.12500113611E+03 0.  0.
          4    1    3    3  501    0 -0.53494884262E+02 -0.14166942274E+02  0.27480589996E+03  0.28032675586E+03  0.15500000000E+01 0.  1.
         -4    1    3    3    0  501  0.53494884262E+02  0.14166942274E+02  0.94044730040E+02  0.10912936655E+03  0.15500000000E+01 0.  1.
<mgrwt>
<rscale>  2 0.12500114E+03</rscale>
<asrwt>0</asrwt>
<pdfrwt beam="1">  1       21 0.58331278E-01 0.12500114E+03</pdfrwt>
<pdfrwt beam="2">  1       21 0.15850382E-02 0.12500114E+03</pdfrwt>
<totfact> 0.48747288E+06</totfact>
</mgrwt>
</event>
<event>
 5    0  0.1480768E+000  0.1250016E+03  0.7546771E-02  0.1235067E+00
         21   -1    0    0  503  502  0.00000000000E+00  0.00000000000E+00  0.33590927225E+02  0.33590927225E+02  0.00000000000E+00 0. -1.
         21   -1    0    0  502  503 -0.00000000000E+00 -0.00000000000E+00 -0.11629186930E+03  0.11629186930E+03  0.00000000000E+00 0. -1.
         25    2    1    2    0    0  0.00000000000E+00  0.00000000000E+00 -0.82700942078E+02  0.14988279653E+03  0.12500162749E+03 0.  0.
          4    1    3    3  501    0 -0.48934452765E+02  0.20425155595E+02 -0.17241693121E+01  0.53076764298E+02  0.15500000000E+01 0. -1.
         -4    1    3    3    0  501  0.48934452765E+02 -0.20425155595E+02 -0.80976772766E+02  0.96806032230E+02  0.15500000000E+01 0. -1.
<mgrwt>
<rscale>  2 0.12500163E+03</rscale>
<asrwt>0</asrwt>
<pdfrwt beam="1">  1       21 0.51678349E-02 0.12500163E+03</pdfrwt>
<pdfrwt beam="2">  1       21 0.17891057E-01 0.12500163E+03</pdfrwt>
<totfact> 0.70770995E+06</totfact>
</mgrwt>
</event>
<event>
 5    0  0.1591069E+000  0.1249949E+03  0.7546771E-02  0.1235077E+00
         21   -1    0    0  503  502  0.00000000000E+00  0.00000000000E+00  0.41121970543E+02  0.41121970543E+02  0.00000000000E+00 0.  1.
         21   -1    0    0  502  503 -0.00000000000E+00 -0.00000000000E+00 -0.94984020214E+02  0.94984020214E+02  0.00000000000E+00 0.  1.
         25    2    1    2    0    0  0.00000000000E+00  0.00000000000E+00 -0.53862049671E+02  0.13610599076E+03  0.12499488120E+03 0.  0.
          4    1    3    3  501    0  0.57064277306E+02  0.18150081943E+02 -0.46341747643E+02  0.75734518507E+02  0.15500000000E+01 0. -1.
         -4    1    3    3    0  501 -0.57064277306E+02 -0.18150081943E+02 -0.75203020281E+01  0.60371472249E+02  0.15500000000E+01 0. -1.
<mgrwt>
<rscale>  2 0.12499488E+03</rscale>
<asrwt>0</asrwt>
<pdfrwt beam="1">  1       21 0.63264571E-02 0.12499488E+03</pdfrwt>
<pdfrwt beam="2">  1       21 0.14612926E-01 0.12499488E+03</pdfrwt>
<totfact> 0.72559833E+06</totfact>
</mgrwt>
</event>
<event>
 5    0  0.1513070E+000  0.1250023E+03  0.7546771E-02  0.1235066E+00
         21   -1    0    0  503  502  0.00000000000E+00  0.00000000000E+00  0.37055103535E+02  0.37055103535E+02  0.00000000000E+00 0. -1.
         21   -1    0    0  502  503 -0.00000000000E+00 -0.00000000000E+00 -0.10542127527E+03  0.10542127527E+03  0.00000000000E+00 0. -1.
         25    2    1    2    0    0  0.00000000000E+00  0.00000000000E+00 -0.68366171738E+02  0.14247637881E+03  0.12500234030E+03 0.  0.
          4    1    3    3  501    0 -0.10294079370E+02 -0.34561234895E+02  0.23974639745E+02  0.43331661386E+02  0.15500000000E+01 0. -1.
         -4    1    3    3    0  501  0.10294079370E+02  0.34561234895E+02 -0.92340811482E+02  0.99144717423E+02  0.15500000000E+01 0. -1.
<mgrwt>
<rscale>  2 0.12500234E+03</rscale>
<asrwt>0</asrwt>
<pdfrwt beam="1">  1       21 0.57007851E-02 0.12500234E+03</pdfrwt>
<pdfrwt beam="2">  1       21 0.16218658E-01 0.12500234E+03</pdfrwt>
<totfact> 0.71713373E+06</totfact>
</mgrwt>
</event>
<event>
 5    0  0.1649857E+000  0.1249957E+03  0.7546771E-02  0.1235076E+00
         21   -1    0    0  503  502  0.00000000000E+00  0.00000000000E+00  0.49581819681E+02  0.49581819681E+02  0.00000000000E+00 0. -1.
         21   -1    0    0  502  503 -0.00000000000E+00 -0.00000000000E+00 -0.78778554173E+02  0.78778554173E+02  0.00000000000E+00 0. -1.
         25    2    1    2    0    0  0.00000000000E+00  0.00000000000E+00 -0.29196734493E+02  0.12836037385E+03  0.12499574501E+03 0.  0.
          4    1    3    3  501    0 -0.51409558745E+02 -0.32510605662E+02  0.58142894583E-01  0.60846430392E+02  0.15500000000E+01 0.  1.
         -4    1    3    3    0  501  0.51409558745E+02  0.32510605662E+02 -0.29254877387E+02  0.67513943462E+02  0.15500000000E+01 0.  1.
<mgrwt>
<rscale>  2 0.12499575E+03</rscale>
<asrwt>0</asrwt>
<pdfrwt beam="1">  1       21 0.76279722E-02 0.12499575E+03</pdfrwt>
<pdfrwt beam="2">  1       21 0.12119778E-01 0.12499575E+03</pdfrwt>
<totfact> 0.73592928E+06</totfact>
</mgrwt>
</event>
<event>
 5    0  0.1591960E+000  0.1249985E+03  0.7546771E-02  0.1235072E+00
         21   -1    0    0  503  502  0.00000000000E+00  0.00000000000E+00  0.19128687836E+03  0.19128687836E+03  0.00000000000E+00 0. -1.
         21   -1    0    0  502  503 -0.00000000000E+00 -0.00000000000E+00 -0.20420400176E+02  0.20420400176E+02  0.00000000000E+00 0. -1.
         25    2    1    2    0    0  0.00000000000E+00  0.00000000000E+00  0.17086647818E+03  0.21170727853E+03  0.12499847366E+03 0.  0.
          4    1    3    3  501    0  0.39488449599E+02  0.46694091472E+02  0.63738522926E+02  0.88344086587E+02  0.15500000000E+01 0.  1.
         -4    1    3    3    0  501 -0.39488449599E+02 -0.46694091472E+02  0.10712795525E+03  0.12336319195E+03  0.15500000000E+01 0.  1.
<mgrwt>
<rscale>  2 0.12499847E+03</rscale>
<asrwt>0</asrwt>
<pdfrwt beam="1">  1       21 0.29428749E-01 0.12499847E+03</pdfrwt>
<pdfrwt beam="2">  1       21 0.31416001E-02 0.12499847E+03</pdfrwt>
<totfact> 0.63682816E+06</totfact>
</mgrwt>
</event>
<event>
 5    0  0.1535268E+000  0.1250136E+03  0.7546771E-02  0.1235048E+00
         21   -1    0    0  503  502  0.00000000000E+00  0.00000000000E+00  0.35023767666E+02  0.35023767666E+02  0.00000000000E+00 0. -1.
         21   -1    0    0  502  503 -0.00000000000E+00 -0.00000000000E+00 -0.11155569708E+03  0.11155569708E+03  0.00000000000E+00 0. -1.
         25    2    1    2    0    0  0.00000000000E+00  0.00000000000E+00 -0.76531929415E+02  0.14657946475E+03  0.12501361232E+03 0.  0.
          4    1    3    3  501    0  0.48077326010E+02 -0.11761513751E+02 -0.82989666932E+02  0.96640828843E+02  0.15500000000E+01 0. -1.
         -4    1    3    3    0  501 -0.48077326010E+02  0.11761513751E+02  0.64577375169E+01  0.49938635903E+02  0.15500000000E+01 0. -1.
<mgrwt>
<rscale>  2 0.12501361E+03</rscale>
<asrwt>0</asrwt>
<pdfrwt beam="1">  1       21 0.53882720E-02 0.12501361E+03</pdfrwt>
<pdfrwt beam="2">  1       21 0.17162415E-01 0.12501361E+03</pdfrwt>
<totfact> 0.71166904E+06</totfact>
</mgrwt>
</event>
<event>
 5    0  0.1224144E+000  0.1250008E+03  0.7546771E-02  0.1235068E+00
         21   -1    0    0  503  502  0.00000000000E+00  0.00000000000E+00  0.77210290275E+03  0.77210290275E+03  0.00000000000E+00 0.  1.
         21   -1    0    0  502  503 -0.00000000000E+00 -0.00000000000E+00 -0.50592962742E+01  0.50592962742E+01  0.00000000000E+00 0.  1.
         25    2    1    2    0    0  0.00000000000E+00  0.00000000000E+00  0.76704360647E+03  0.77716219902E+03  0.12500075742E+03 0.  0.
          4    1    3    3  501    0  0.19415038820E+02  0.54789818949E+02  0.52598076645E+03  0.52918525789E+03  0.15500000000E+01 0. -1.
         -4    1    3    3    0  501 -0.19415038820E+02 -0.54789818949E+02  0.24106284002E+03  0.24797694113E+03  0.15500000000E+01 0. -1.
<mgrwt>
<rscale>  2 0.12500076E+03</rscale>
<asrwt>0</asrwt>
<pdfrwt beam="1">  1       21 0.11878497E+00 0.12500076E+03</pdfrwt>
<pdfrwt beam="2">  1       21 0.77835388E-03 0.12500076E+03</pdfrwt>
<totfact> 0.30133008E+06</totfact>
</mgrwt>
</event>
