<event>
 5    1  0.7114032E-003  0.2760930E+02  0.7546771E-02  0.1640634E+00
          2   -1    0    0  502    0  0.00000000000E+00  0.00000000000E+00  0.39515881688E+02  0.39515881688E+02  0.00000000000E+00 0. -1.
          2   -1    0    0  501    0 -0.00000000000E+00 -0.00000000000E+00 -0.13713698942E+04  0.13713698942E+04  0.00000000000E+00 0. -1.
         25    1    1    2    0    0  0.20736222829E+02 -0.44014649070E+02 -0.41827051715E+03  0.43925221205E+03  0.12500000000E+03 0.  0.
          2    1    1    2  501    0 -0.19111840482E+02  0.16720267764E+02 -0.93595843274E+03  0.93630284503E+03  0.00000000000E+00 0. -1.
          2    1    1    2  502    0 -0.16243823470E+01  0.27294381306E+02  0.22374937378E+02  0.35330718809E+02  0.00000000000E+00 0. -1.
<mgrwt>
<rscale>  0 0.26478233E+02</rscale>
<asrwt>0</asrwt>
<pdfrwt beam="1">  1        2 0.60793665E-02 0.27609303E+02</pdfrwt>
<pdfrwt beam="2">  1        2 0.21097998E+00 0.25393499E+02</pdfrwt>
<totfact> 0.29417948E+03</totfact>
</mgrwt>
</event>
<event>
 5    1  0.7114032E-003  0.9981637E+02  0.7546771E-02  0.1436958E+00
          2   -1    0    0  502    0  0.00000000000E+00  0.00000000000E+00  0.42772566843E+03  0.42772566843E+03  0.00000000000E+00 0. -1.
          2   -1    0    0  501    0 -0.00000000000E+00 -0.00000000000E+00 -0.21401032686E+04  0.21401032686E+04  0.00000000000E+00 0. -1.
         25    1    1    2    0    0  0.54327322451E+02 -0.85569488168E+02 -0.47531071722E+02  0.16780285471E+03  0.12500000000E+03 0.  0.
          2    1    1    2  501    0 -0.29538169972E+02  0.95387040470E+02 -0.20307244083E+04  0.20331780083E+04  0.00000000000E+00 0. -1.
          2    1    1    2  502    0 -0.24789152478E+02 -0.98175523014E+01  0.36587787987E+03  0.36684807399E+03  0.00000000000E+00 0. -1.
<mgrwt>
<rscale>  0 0.51588268E+02</rscale>
<asrwt>0</asrwt>
<pdfrwt beam="1">  1        2 0.65803947E-01 0.26662453E+02</pdfrwt>
<pdfrwt beam="2">  1        2 0.32924667E+00 0.99816374E+02</pdfrwt>
<totfact> 0.82040400E+01</totfact>
</mgrwt>
</event>
<event>
 5    1  0.7114032E-003  0.8367566E+02  0.7546771E-02  0.1466331E+00
          1   -1    0    0  502    0 -0.00000000000E+00  0.00000000000E+00  0.28831586788E+04  0.28831586788E+04  0.00000000000E+00 0. -1.
          2   -1    0    0  501    0  0.00000000000E+00 -0.00000000000E+00 -0.21704274550E+02  0.21704274550E+02  0.00000000000E+00 0. -1.
         25    1    1    2    0    0  0.60052367002E+02  0.15857717077E+02  0.87033855226E+03  0.88146012361E+03  0.12500000000E+03 0.  0.
          2    1    1    2  501    0  0.25575568986E+02  0.16544692013E+01 -0.43742397095E+01  0.25999634042E+02  0.00000000000E+00 0. -1.
          1    1    1    2  502    0 -0.85627935987E+02 -0.17512186278E+02  0.19954900917E+04  0.19974031957E+04  0.00000000000E+00 0. -1.
<mgrwt>
<rscale>  0 0.46309023E+02</rscale>
<asrwt>0</asrwt>
<pdfrwt beam="2">  1        2 0.33391214E-02 0.25629026E+02</pdfrwt>
<pdfrwt beam="1">  1        1 0.44356257E+00 0.83675656E+02</pdfrwt>
<totfact> 0.29539553E+02</totfact>
</mgrwt>
</event>
<event>
 5    1  0.7114032E-003  0.6123310E+02  0.7546771E-02  0.1407283E+00
          2   -1    0    0  502    0  0.00000000000E+00  0.00000000000E+00  0.35083804714E+02  0.35083804714E+02  0.00000000000E+00 0. -1.
         -1   -1    0    0    0  501 -0.00000000000E+00 -0.00000000000E+00 -0.21754214130E+04  0.21754214130E+04  0.00000000000E+00 0.  1.
         25    1    1    2    0    0  0.79564248340E+02 -0.94420377263E+01 -0.15552839268E+04  0.15623548619E+04  0.12500000000E+03 0.  0.
          2    1    1    2  502    0 -0.41240195567E+02 -0.35733534385E+02  0.53065608921E+01  0.54825165741E+02  0.00000000000E+00 0. -1.
         -1    1    1    2    0  501 -0.38324052773E+02  0.45175572111E+02 -0.59036024240E+03  0.59332519005E+03  0.00000000000E+00 0.  1.
<mgrwt>
<rscale>  0 0.57804431E+02</rscale>
<asrwt>0</asrwt>
<pdfrwt beam="1">  1        2 0.53975084E-02 0.54567749E+02</pdfrwt>
<pdfrwt beam="2">  1       -1 0.33468022E+00 0.61233098E+02</pdfrwt>
<totfact> 0.40600558E+01</totfact>
</mgrwt>
</event>
<event>
 5    1  0.7114032E-003  0.2151603E+03  0.7546771E-02  0.1193004E+00
          2   -1    0    0  501    0  0.00000000000E+00  0.00000000000E+00  0.23154433642E+04  0.23154433642E+04  0.00000000000E+00 0. -1.
          2   -1    0    0  502    0 -0.00000000000E+00 -0.00000000000E+00 -0.26895721270E+03  0.26895721270E+03  0.00000000000E+00 0. -1.
         25    1    1    2    0    0 -0.28474405836E+03 -0.16483105147E+02  0.56338343718E+03  0.64372103338E+03  0.12500000000E+03 0.  0.
          2    1    1    2  501    0  0.82981013502E+02  0.77378237461E+02  0.16610072450E+04  0.16648778658E+04  0.00000000000E+00 0. -1.
          2    1    1    2  502    0  0.20176304486E+03 -0.60895132314E+02 -0.17790453063E+03  0.27580167772E+03  0.00000000000E+00 0. -1.
<mgrwt>
<rscale>  0 0.15624391E+03</rscale>
<asrwt>0</asrwt>
<pdfrwt beam="1">  1        2 0.35622204E+00 0.11346030E+03</pdfrwt>
<pdfrwt beam="2">  1        2 0.41378034E-01 0.21516035E+03</pdfrwt>
<totfact> 0.10703744E+02</totfact>
</mgrwt>
</event>
<event>
 5    1  0.7114032E-003  0.7295781E+02  0.7546771E-02  0.1401860E+00
          1   -1    0    0  501    0  0.00000000000E+00  0.00000000000E+00  0.24753168704E+03  0.24753168704E+03  0.00000000000E+00 0. -1.
          1   -1    0    0  502    0 -0.00000000000E+00 -0.00000000000E+00 -0.21260585245E+03  0.21260585245E+03  0.00000000000E+00 0. -1.
         25    1    1    2    0    0  0.15106596239E+02 -0.23927628380E+02  0.86494671301E+02  0.15461910882E+03  0.12500000000E+03 0.  0.
          1    1    1    2  501    0  0.22443648822E+02 -0.42196704012E+02  0.11384089690E+03  0.12346671215E+03  0.00000000000E+00 0. -1.
          1    1    1    2  502    0 -0.37550245061E+02  0.66124332392E+02 -0.16540973361E+03  0.18205171851E+03  0.00000000000E+00 0. -1.
<mgrwt>
<rscale>  0 0.59050449E+02</rscale>
<asrwt>0</asrwt>
<pdfrwt beam="1">  1        1 0.38081798E-01 0.47794134E+02</pdfrwt>
<pdfrwt beam="2">  1        1 0.32708593E-01 0.72957814E+02</pdfrwt>
<totfact> 0.17509682E+03</totfact>
</mgrwt>
</event>
<event>
 5    1  0.7114032E-003  0.3128315E+02  0.7546771E-02  0.1611034E+00
          1   -1    0    0  502    0  0.00000000000E+00  0.00000000000E+00  0.12601537679E+04  0.12601537679E+04  0.00000000000E+00 0. -1.
         -2   -1    0    0    0  501 -0.00000000000E+00 -0.00000000000E+00 -0.11347045348E+02  0.11347045348E+02  0.00000000000E+00 0.  1.
         25    1    1    2    0    0  0.42727220484E+02  0.12146038115E+02  0.50430830572E+03  0.52146429295E+03  0.12500000000E+03 0.  0.
          1    1    1    2  502    0 -0.19132493321E+02 -0.24484058055E+02  0.67339196460E+03  0.67410849229E+03  0.00000000000E+00 0. -1.
         -2    1    1    2    0  501 -0.23594727163E+02  0.12338019939E+02  0.71106452235E+02  0.75928027996E+02  0.00000000000E+00 0.  1.
<mgrwt>
<rscale>  0 0.28860727E+02</rscale>
<asrwt>0</asrwt>
<pdfrwt beam="1">  1        1 0.19386970E+00 0.31283148E+02</pdfrwt>
<pdfrwt beam="2">  1       -2 0.17457003E-02 0.26625888E+02</pdfrwt>
<totfact> 0.73608720E+03</totfact>
</mgrwt>
</event>
<event>
 5    1  0.7114032E-003  0.4691318E+02  0.7546771E-02  0.1487927E+00
          2   -1    0    0  502    0  0.00000000000E+00  0.00000000000E+00  0.12429549714E+04  0.12429549714E+04  0.00000000000E+00 0. -1.
          2   -1    0    0  501    0 -0.00000000000E+00 -0.00000000000E+00 -0.12486712537E+04  0.12486712537E+04  0.00000000000E+00 0. -1.
         25    1    1    2    0    0  0.31381907625E+02 -0.98098952096E+01 -0.31588978473E+02  0.13305608491E+03  0.12500000000E+03 0.  0.
          2    1    1    2  501    0 -0.14103647049E+02  0.45020008450E+02 -0.11655488240E+04  0.11665032255E+04  0.00000000000E+00 0. -1.
          2    1    1    2  502    0 -0.17278260577E+02 -0.35210113241E+02  0.11914215202E+04  0.11920669147E+04  0.00000000000E+00 0. -1.
<mgrwt>
<rscale>  0 0.42895036E+02</rscale>
<asrwt>0</asrwt>
<pdfrwt beam="1">  1        2 0.19122384E+00 0.39221045E+02</pdfrwt>
<pdfrwt beam="2">  1        2 0.19210327E+00 0.46913185E+02</pdfrwt>
<totfact> 0.70835209E+01</totfact>
</mgrwt>
</event>
<event>
 5    1  0.7114032E-003  0.3476694E+02  0.7546771E-02  0.1572620E+00
         -1   -1    0    0    0  501 -0.00000000000E+00  0.00000000000E+00  0.50608999225E+01  0.50608999225E+01  0.00000000000E+00 0.  1.
          2   -1    0    0  502    0  0.00000000000E+00 -0.00000000000E+00 -0.22291641145E+04  0.22291641145E+04  0.00000000000E+00 0. -1.
         25    1    1    2    0    0 -0.12073472899E+02  0.41524754380E+01 -0.15887670130E+04  0.15937279044E+04  0.12500000000E+03 0.  0.
          2    1    1    2  502    0  0.41603237729E+02 -0.10769656504E+02 -0.49878055278E+03  0.50062845976E+03  0.00000000000E+00 0. -1.
         -1    1    1    2    0  501 -0.29529764830E+02  0.66171810657E+01 -0.13655564886E+03  0.13986865028E+03  0.00000000000E+00 0.  1.
<mgrwt>
<rscale>  0 0.32436403E+02</rscale>
<asrwt>0</asrwt>
<pdfrwt beam="2">  1        2 0.34294782E+00 0.34766939E+02</pdfrwt>
<pdfrwt beam="1">  1       -1 0.77860114E-03 0.30262090E+02</pdfrwt>
<totfact> 0.15141811E+04</totfact>
</mgrwt>
</event>
<event>
 5    1  0.7114032E-003  0.7508165E+02  0.7546771E-02  0.1446453E+00
         -3   -1    0    0    0  501 -0.00000000000E+00  0.00000000000E+00  0.17462364517E+03  0.17462364517E+03  0.00000000000E+00 0.  1.
          1   -1    0    0  502    0  0.00000000000E+00 -0.00000000000E+00 -0.67013507353E+03  0.67013507353E+03  0.00000000000E+00 0. -1.
         25    1    1    2    0    0  0.90273892872E+02  0.51149647843E+02 -0.11789213126E+03  0.20072173978E+03  0.12500000000E+03 0.  0.
          1    1    1    2  502    0 -0.32466266042E+02 -0.60432048216E+01 -0.50015218450E+03  0.50124124573E+03  0.00000000000E+00 0. -1.
         -3    1    1    2    0  501 -0.57807626830E+02 -0.45106443021E+02  0.12253288740E+03  0.14279573318E+03  0.00000000000E+00 0.  1.
<mgrwt>
<rscale>  0 0.49794474E+02</rscale>
<asrwt>0</asrwt>
<pdfrwt beam="2">  1        1 0.10309770E+00 0.33023912E+02</pdfrwt>
<pdfrwt beam="1">  1       -3 0.26865176E-01 0.75081645E+02</pdfrwt>
<totfact> 0.21718926E+02</totfact>
</mgrwt>
</event>
<event>
 5    1  0.7114032E-003  0.2371610E+03  0.7546771E-02  0.1263860E+00
          2   -1    0    0  501    0  0.00000000000E+00  0.00000000000E+00  0.53802792886E+03  0.53802792886E+03  0.00000000000E+00 0. -1.
          1   -1    0    0  502    0 -0.00000000000E+00 -0.00000000000E+00 -0.72920873527E+03  0.72920873527E+03  0.00000000000E+00 0. -1.
         25    1    1    2    0    0 -0.14002991342E+03  0.13617234169E+03 -0.10490850974E+03  0.25452323805E+03  0.12500000000E+03 0.  0.
          2    1    1    2  501    0  0.17427617190E+03 -0.17177907028E+03  0.42964070332E+03  0.49444045853E+03  0.00000000000E+00 0. -1.
          1    1    1    2  502    0 -0.34246258475E+02  0.35606728593E+02 -0.51591299999E+03  0.51827296755E+03  0.00000000000E+00 0. -1.
<mgrwt>
<rscale>  0 0.10824251E+03</rscale>
<asrwt>0</asrwt>
<pdfrwt beam="1">  1        2 0.82773528E-01 0.23716105E+03</pdfrwt>
<pdfrwt beam="2">  1        1 0.11218596E+00 0.49402888E+02</pdfrwt>
<totfact> 0.22460887E+02</totfact>
</mgrwt>
</event>
<event>
 5    1  0.7114032E-003  0.1449217E+03  0.7546771E-02  0.1362763E+00
          2   -1    0    0  501    0  0.00000000000E+00  0.00000000000E+00  0.81582301686E+03  0.81582301686E+03  0.00000000000E+00 0. -1.
          1   -1    0    0  502    0 -0.00000000000E+00 -0.00000000000E+00 -0.10859995591E+03  0.10859995591E+03  0.00000000000E+00 0. -1.
         25    1    1    2    0    0  0.36854635221E+02  0.11901111612E+03  0.33475921020E+03  0.37843181514E+03  0.12500000000E+03 0.  0.
          2    1    1    2  501    0 -0.45187026640E+02 -0.15100678144E+03  0.44185399545E+03  0.46912670859E+03  0.00000000000E+00 0. -1.
          1    1    1    2  502    0  0.83323914183E+01  0.31995665314E+02 -0.69390144695E+02  0.76864449041E+02  0.00000000000E+00 0. -1.
<mgrwt>
<rscale>  0 0.69220822E+02</rscale>
<asrwt>0</asrwt>
<pdfrwt beam="1">  1        2 0.12551123E+00 0.14492168E+03</pdfrwt>
<pdfrwt beam="2">  1        1 0.16707686E-01 0.33062839E+02</pdfrwt>
<totfact> 0.14167823E+03</totfact>
</mgrwt>
</event>
<event>
 5    1  0.7114032E-003  0.6077099E+02  0.7546771E-02  0.1395845E+00
          1   -1    0    0  501    0  0.00000000000E+00  0.00000000000E+00  0.81252178788E+03  0.81252178788E+03  0.00000000000E+00 0. -1.
          3   -1    0    0  502    0 -0.00000000000E+00 -0.00000000000E+00 -0.47517009122E+02  0.47517009122E+02  0.00000000000E+00 0. -1.
         25    1    1    2    0    0 -0.19724332043E+02  0.34119583125E+02  0.37238018627E+03  0.39477233737E+03  0.12500000000E+03 0.  0.
          1    1    1    2  501    0 -0.43333597471E+02 -0.42606482958E+02  0.39687251506E+03  0.40149832661E+03  0.00000000000E+00 0. -1.
          3    1    1    2  502    0  0.63057929513E+02  0.84868998323E+01 -0.42479225683E+01  0.63768133024E+02  0.00000000000E+00 0. -1.
<mgrwt>
<rscale>  0 0.60475984E+02</rscale>
<asrwt>0</asrwt>
<pdfrwt beam="1">  1        1 0.12500334E+00 0.60770989E+02</pdfrwt>
<pdfrwt beam="2">  1        3 0.73103097E-02 0.60182412E+02</pdfrwt>
<totfact> 0.13955255E+03</totfact>
</mgrwt>
</event>
<event>
 5    1  0.7114032E-003  0.5666850E+02  0.7546771E-02  0.1459129E+00
         -1   -1    0    0    0  501 -0.00000000000E+00  0.00000000000E+00  0.31986928715E+02  0.31986928715E+02  0.00000000000E+00 0.  1.
          2   -1    0    0  502    0  0.00000000000E+00 -0.00000000000E+00 -0.52185617879E+03  0.52185617879E+03  0.00000000000E+00 0. -1.
         25    1    1    2    0    0 -0.15653458574E+02  0.74276067924E+02 -0.23104577185E+03  0.27343941509E+03  0.12500000000E+03 0.  0.
          2    1    1    2  502    0  0.31804995591E+02 -0.24039375376E+02 -0.18744126878E+03  0.19163423116E+03  0.00000000000E+00 0. -1.
         -1    1    1    2    0  501 -0.16151537017E+02 -0.50236692548E+02 -0.71382209448E+02  0.88769461257E+02  0.00000000000E+00 0.  1.
<mgrwt>
<rscale>  0 0.47531610E+02</rscale>
<asrwt>0</asrwt>
<pdfrwt beam="2">  1        2 0.80285560E-01 0.39867898E+02</pdfrwt>
<pdfrwt beam="1">  1       -1 0.49210663E-02 0.56668500E+02</pdfrwt>
<totfact> 0.10814829E+04</totfact>
</mgrwt>
</event>
<event>
 5    1  0.7114032E-003  0.9039482E+02  0.7546771E-02  0.1341344E+00
          1   -1    0    0  502    0  0.00000000000E+00  0.00000000000E+00  0.16621893610E+04  0.16621893610E+04  0.00000000000E+00 0. -1.
         -3   -1    0    0    0  501 -0.00000000000E+00 -0.00000000000E+00 -0.17738740017E+03  0.17738740017E+03  0.00000000000E+00 0. -1.
         25    1    1    2    0    0  0.55437419111E+02 -0.10231051770E+03  0.91153847592E+02  0.19358402155E+03  0.12500000000E+03 0.  0.
          1    1    1    2  502    0 -0.79120308130E+02  0.43286109748E+02  0.15103745994E+04  0.15130648172E+04  0.00000000000E+00 0. -1.
         -3    1    1    2    0  501  0.23682889019E+02  0.59024407957E+02 -0.11672648622E+03  0.13292792239E+03  0.00000000000E+00 0. -1.
<mgrwt>
<rscale>  0 0.75821950E+02</rscale>
<asrwt>0</asrwt>
<pdfrwt beam="1">  1        1 0.25572143E+00 0.90394816E+02</pdfrwt>
<pdfrwt beam="2">  1       -3 0.27290370E-01 0.63598427E+02</pdfrwt>
<totfact> 0.39969402E+01</totfact>
</mgrwt>
</event>
<event>
 5    1  0.7114032E-003  0.3055991E+03  0.7546771E-02  0.1203920E+00
          2   -1    0    0  502    0  0.00000000000E+00  0.00000000000E+00  0.28734512575E+03  0.28734512575E+03  0.00000000000E+00 0.  1.
          2   -1    0    0  501    0 -0.00000000000E+00 -0.00000000000E+00 -0.17038449703E+04  0.17038449703E+04  0.00000000000E+00 0. -1.
         25    1    1    2    0    0 -0.29999576948E+03 -0.14082168558E+03 -0.13548651686E+03  0.37922263261E+03  0.12500000000E+03 0.  0.
          2    1    1    2  501    0  0.14358045729E+02  0.69461920347E+02 -0.13138158603E+04  0.13157291616E+04  0.00000000000E+00 0. -1.
          2    1    1    2  502    0  0.28563772375E+03  0.71359765229E+02  0.32802532634E+02  0.29623830183E+03  0.00000000000E+00 0.  1.
<mgrwt>
<rscale>  0 0.14722854E+03</rscale>
<asrwt>0</asrwt>
<pdfrwt beam="1">  1        2 0.44206942E-01 0.30559907E+03</pdfrwt>
<pdfrwt beam="2">  1        2 0.26213000E+00 0.70930331E+02</pdfrwt>
<totfact> 0.21381020E+02</totfact>
</mgrwt>
</event>
<event>
 5    1  0.7114032E-003  0.5314821E+02  0.7546771E-02  0.1468966E+00
          2   -1    0    0  501    0  0.00000000000E+00  0.00000000000E+00  0.15577316134E+04  0.15577316134E+04  0.00000000000E+00 0. -1.
          1   -1    0    0  502    0 -0.00000000000E+00 -0.00000000000E+00 -0.85045018388E+02  0.85045018388E+02  0.00000000000E+00 0. -1.
         25    1    1    2    0    0  0.14664385148E+02  0.36776623174E+00  0.87379534461E+02  0.15321671739E+03  0.12500000000E+03 0.  0.
          2    1    1    2  501    0 -0.52034836998E+02 -0.13447309629E+02  0.14293365220E+04  0.14303465830E+04  0.00000000000E+00 0. -1.
          1    1    1    2  502    0  0.37370451850E+02  0.13079543397E+02 -0.44029461509E+02  0.59213331335E+02  0.00000000000E+00 0. -1.
<mgrwt>
<rscale>  0 0.45872761E+02</rscale>
<asrwt>0</asrwt>
<pdfrwt beam="1">  1        2 0.23965100E+00 0.53148211E+02</pdfrwt>
<pdfrwt beam="2">  1        1 0.13083850E-01 0.39593246E+02</pdfrwt>
<totfact> 0.79963164E+02</totfact>
</mgrwt>
</event>
<event>
 5    1  0.7114032E-003  0.6099287E+02  0.7546771E-02  0.1424241E+00
          1   -1    0    0  502    0 -0.00000000000E+00  0.00000000000E+00  0.54011835034E+03  0.54011835034E+03  0.00000000000E+00 0. -1.
          2   -1    0    0  501    0  0.00000000000E+00 -0.00000000000E+00 -0.33346212392E+03  0.33346212392E+03  0.00000000000E+00 0.  1.
         25    1    1    2    0    0  0.57406252268E+02 -0.98063065209E+01 -0.20841746812E+02  0.13946691313E+03  0.12500000000E+03 0.  0.
          2    1    1    2  501    0 -0.49673058315E+02 -0.37613022672E+02 -0.24824798459E+03  0.25594767835E+03  0.00000000000E+00 0.  1.
          1    1    1    2  502    0 -0.77331939531E+01  0.47419329193E+02  0.47574595782E+03  0.47816588278E+03  0.00000000000E+00 0. -1.
<mgrwt>
<rscale>  0 0.54133621E+02</rscale>
<asrwt>0</asrwt>
<pdfrwt beam="2">  1        2 0.51301866E-01 0.60992872E+02</pdfrwt>
<pdfrwt beam="1">  1        1 0.83095130E-01 0.48045760E+02</pdfrwt>
<totfact> 0.56474263E+02</totfact>
</mgrwt>
</event>
<event>
 5    1  0.7114032E-003  0.8476790E+02  0.7546771E-02  0.1336690E+00
          2   -1    0    0  502    0  0.00000000000E+00  0.00000000000E+00  0.37387714097E+04  0.37387714097E+04  0.00000000000E+00 0. -1.
          2   -1    0    0  501    0 -0.00000000000E+00 -0.00000000000E+00 -0.16780108863E+03  0.16780108863E+03  0.00000000000E+00 0. -1.
         25    1    1    2    0    0 -0.41878209513E+02 -0.14307447594E+03  0.22115302389E+03  0.29454668573E+03  0.12500000000E+03 0.  0.
          2    1    1    2  501    0  0.38487040569E+02  0.59204547049E+02 -0.12105138083E+03  0.14014231154E+03  0.00000000000E+00 0. -1.
          2    1    1    2  502    0  0.33911689444E+01  0.83869928893E+02  0.34708686780E+04  0.34718835011E+04  0.00000000000E+00 0. -1.
<mgrwt>
<rscale>  0 0.77368317E+02</rscale>
<asrwt>0</asrwt>
<pdfrwt beam="1">  1        2 0.57519554E+00 0.84767897E+02</pdfrwt>
<pdfrwt beam="2">  1        2 0.25815555E-01 0.70614663E+02</pdfrwt>
<totfact> 0.27094713E+01</totfact>
</mgrwt>
</event>
<event>
 5    1  0.7114032E-003  0.9941631E+02  0.7546771E-02  0.1309587E+00
          2   -1    0    0  501    0  0.00000000000E+00  0.00000000000E+00  0.33916534814E+03  0.33916534814E+03  0.00000000000E+00 0. -1.
          2   -1    0    0  502    0 -0.00000000000E+00 -0.00000000000E+00 -0.31566955603E+04  0.31566955603E+04  0.00000000000E+00 0. -1.
         25    1    1    2    0    0 -0.31074152847E+02  0.51336701246E+01 -0.23647111137E+03  0.26932423593E+03  0.12500000000E+03 0.  0.
          2    1    1    2  501    0  0.77007893368E+02 -0.66454529497E+02  0.31420484744E+03  0.33025915020E+03  0.00000000000E+00 0. -1.
          2    1    1    2  502    0 -0.45933740521E+02  0.61320859373E+02 -0.28952639482E+04  0.28962775223E+04  0.00000000000E+00 0. -1.
<mgrwt>
<rscale>  0 0.87275276E+02</rscale>
<asrwt>0</asrwt>
<pdfrwt beam="1">  1        2 0.52179284E-01 0.99416307E+02</pdfrwt>
<pdfrwt beam="2">  1        2 0.48564547E+00 0.76616945E+02</pdfrwt>
<totfact> 0.30687237E+01</totfact>
</mgrwt>
</event>
<event>
 5    1  0.7114032E-003  0.5848465E+02  0.7546771E-02  0.1510149E+00
          1   -1    0    0  502    0  0.00000000000E+00  0.00000000000E+00  0.41107553786E+02  0.41107553786E+02  0.00000000000E+00 0. -1.
         -2   -1    0    0    0  501 -0.00000000000E+00 -0.00000000000E+00 -0.56629263420E+03  0.56629263420E+03  0.00000000000E+00 0.  1.
         25    1    1    2    0    0 -0.49624306081E+02 -0.66429086813E+02 -0.43810767191E+03  0.46307529357E+03  0.12500000000E+03 0.  0.
          1    1    1    2  502    0  0.29170647939E+02  0.48803558212E+02 -0.40311523252E+01  0.56999685827E+02  0.00000000000E+00 0. -1.
         -2    1    1    2    0  501  0.20453658141E+02  0.17625528601E+02 -0.83046256178E+02  0.87325208588E+02  0.00000000000E+00 0.  1.
<mgrwt>
<rscale>  0 0.39737863E+02</rscale>
<asrwt>0</asrwt>
<pdfrwt beam="1">  1        1 0.63242394E-02 0.58484645E+02</pdfrwt>
<pdfrwt beam="2">  1       -2 0.87121939E-01 0.27000211E+02</pdfrwt>
<totfact> 0.11535028E+03</totfact>
</mgrwt>
</event>
<event>
 5    1  0.7114032E-003  0.9212256E+02  0.7546771E-02  0.1331649E+00
          2   -1    0    0  501    0  0.00000000000E+00  0.00000000000E+00  0.12059632305E+04  0.12059632305E+04  0.00000000000E+00 0. -1.
          1   -1    0    0  502    0 -0.00000000000E+00 -0.00000000000E+00 -0.59691573699E+02  0.59691573699E+02  0.00000000000E+00 0. -1.
         25    1    1    2    0    0  0.13552529570E+03  0.61315164015E+02  0.40015374374E+03  0.44483106203E+03  0.12500000000E+03 0.  0.
          2    1    1    2  501    0 -0.84663456692E+02 -0.16326243283E+02  0.74794189004E+03  0.75289542301E+03  0.00000000000E+00 0. -1.
          1    1    1    2  502    0 -0.50861839005E+02 -0.44988920732E+02 -0.18239769555E+01  0.67928319186E+02  0.00000000000E+00 0. -1.
<mgrwt>
<rscale>  0 0.79091558E+02</rscale>
<asrwt>0</asrwt>
<pdfrwt beam="1">  1        2 0.18553279E+00 0.92122563E+02</pdfrwt>
<pdfrwt beam="2">  1        1 0.91833199E-02 0.67903827E+02</pdfrwt>
<totfact> 0.18995497E+03</totfact>
</mgrwt>
</event>
<event>
 5    1  0.7114032E-003  0.8523465E+02  0.7546771E-02  0.1385177E+00
         -1   -1    0    0    0  501 -0.00000000000E+00  0.00000000000E+00  0.12887791411E+02  0.12887791411E+02  0.00000000000E+00 0.  1.
          1   -1    0    0  502    0  0.00000000000E+00 -0.00000000000E+00 -0.19064572152E+04  0.19064572152E+04  0.00000000000E+00 0. -1.
         25    1    1    2    0    0 -0.52775750345E+02  0.97367503277E+02 -0.12690372804E+04  0.12799790348E+04  0.12500000000E+03 0.  0.
          1    1    1    2  502    0  0.12697095365E+02 -0.73306214761E+02 -0.51398244002E+03  0.51933897024E+03  0.00000000000E+00 0. -1.
         -1    1    1    2    0  501  0.40078654980E+02 -0.24061288516E+02 -0.11054970338E+03  0.12002700158E+03  0.00000000000E+00 0.  1.
<mgrwt>
<rscale>  0 0.63122339E+02</rscale>
<asrwt>0</asrwt>
<pdfrwt beam="2">  1        1 0.29330090E+00 0.85234650E+02</pdfrwt>
<pdfrwt beam="1">  1       -1 0.19827386E-02 0.46746595E+02</pdfrwt>
<totfact> 0.24466537E+03</totfact>
</mgrwt>
</event>
<event>
 5    1  0.7114032E-003  0.3630195E+02  0.7546771E-02  0.1610730E+00
          1   -1    0    0  502    0  0.00000000000E+00  0.00000000000E+00  0.20650453977E+04  0.20650453977E+04  0.00000000000E+00 0. -1.
         -2   -1    0    0    0  501 -0.00000000000E+00 -0.00000000000E+00 -0.10003155137E+02  0.10003155137E+02  0.00000000000E+00 0.  1.
         25    1    1    2    0    0 -0.54016871428E+02 -0.68196606764E+01  0.89699903171E+03  0.90730182027E+03  0.12500000000E+03 0.  0.
          1    1    1    2  502    0  0.19333846796E+02  0.12432543732E+02  0.10975502456E+04  0.10977909215E+04  0.00000000000E+00 0. -1.
         -2    1    1    2    0  501  0.34683024631E+02 -0.56128830554E+01  0.60492965276E+02  0.69955811065E+02  0.00000000000E+00 0.  1.
<mgrwt>
<rscale>  0 0.28886749E+02</rscale>
<asrwt>0</asrwt>
<pdfrwt beam="1">  1        1 0.31769895E+00 0.22986208E+02</pdfrwt>
<pdfrwt beam="2">  1       -2 0.15389486E-02 0.36301954E+02</pdfrwt>
<totfact> 0.31677251E+03</totfact>
</mgrwt>
</event>
<event>
 5    1  0.7114032E-003  0.6974192E+02  0.7546771E-02  0.1423084E+00
          1   -1    0    0  502    0 -0.00000000000E+00  0.00000000000E+00  0.53389405245E+03  0.53389405245E+03  0.00000000000E+00 0. -1.
          2   -1    0    0  501    0  0.00000000000E+00 -0.00000000000E+00 -0.11688354178E+04  0.11688354178E+04  0.00000000000E+00 0. -1.
         25    1    1    2    0    0 -0.23373515917E+02  0.10769510481E+03 -0.14196529821E+03  0.21891482988E+03  0.12500000000E+03 0.  0.
          2    1    1    2  501    0  0.17159138121E+02 -0.38764179108E+02 -0.98552027337E+03  0.98643160271E+03  0.00000000000E+00 0. -1.
          1    1    1    2  502    0  0.62143777956E+01 -0.68930925702E+02  0.49254420625E+03  0.49738303763E+03  0.00000000000E+00 0. -1.
<mgrwt>
<rscale>  0 0.54373822E+02</rscale>
<asrwt>0</asrwt>
<pdfrwt beam="2">  1        2 0.17982083E+00 0.42392188E+02</pdfrwt>
<pdfrwt beam="1">  1        1 0.82137546E-01 0.69741919E+02</pdfrwt>
<totfact> 0.13726363E+02</totfact>
</mgrwt>
</event>
<event>
 5    1  0.7114032E-003  0.6563412E+02  0.7546771E-02  0.1438541E+00
          1   -1    0    0  502    0  0.00000000000E+00  0.00000000000E+00  0.16527209312E+03  0.16527209312E+03  0.00000000000E+00 0. -1.
         -2   -1    0    0    0  501 -0.00000000000E+00 -0.00000000000E+00 -0.12232613303E+03  0.12232613303E+03  0.00000000000E+00 0.  1.
         25    1    1    2    0    0 -0.71712538739E+02 -0.23409848547E+02  0.85067345695E+02  0.16897385160E+03  0.12500000000E+03 0.  0.
          1    1    1    2  502    0  0.79935515922E+01  0.39264723779E+02  0.97634555508E+00  0.40082024040E+02  0.00000000000E+00 0. -1.
         -2    1    1    2    0  501  0.63718987147E+02 -0.15854875233E+02 -0.43097731165E+02  0.78542350508E+02  0.00000000000E+00 0.  1.
<mgrwt>
<rscale>  0 0.51283211E+02</rscale>
<asrwt>0</asrwt>
<pdfrwt beam="1">  1        1 0.25426476E-01 0.40070131E+02</pdfrwt>
<pdfrwt beam="2">  1       -2 0.18819405E-01 0.65634119E+02</pdfrwt>
<totfact> 0.34521526E+03</totfact>
</mgrwt>
</event>
<event>
 5    1  0.7114032E-003  0.2021724E+03  0.7546771E-02  0.1253975E+00
         -3   -1    0    0    0  501 -0.00000000000E+00  0.00000000000E+00  0.35914752332E+03  0.35914752332E+03  0.00000000000E+00 0.  1.
          2   -1    0    0  502    0  0.00000000000E+00 -0.00000000000E+00 -0.14325456930E+04  0.14325456930E+04  0.00000000000E+00 0. -1.
         25    1    1    2    0    0  0.34352653590E+02 -0.13880539096E+03 -0.49116632413E+03  0.52660839276E+03  0.12500000000E+03 0.  0.
          2    1    1    2  502    0  0.28455731136E+02 -0.57187063555E+02 -0.89139592398E+03  0.89368158880E+03  0.00000000000E+00 0. -1.
         -3    1    1    2    0  501 -0.62808384726E+02  0.19599245452E+03  0.30916407842E+03  0.37140323478E+03  0.00000000000E+00 0.  1.
<mgrwt>
<rscale>  0 0.11363924E+03</rscale>
<asrwt>0</asrwt>
<pdfrwt beam="2">  1        2 0.22039165E+00 0.63875573E+02</pdfrwt>
<pdfrwt beam="1">  1       -3 0.55253465E-01 0.20217239E+03</pdfrwt>
<totfact> 0.33447119E+01</totfact>
</mgrwt>
</event>
<event>
 5    1  0.7114032E-003  0.1002448E+03  0.7546771E-02  0.1472059E+00
          2   -1    0    0  502    0  0.00000000000E+00  0.00000000000E+00  0.12066290794E+03  0.12066290794E+03  0.00000000000E+00 0. -1.
         -2   -1    0    0    0  501 -0.00000000000E+00 -0.00000000000E+00 -0.34314085918E+03  0.34314085918E+03  0.00000000000E+00 0.  1.
         25    1    1    2    0    0  0.42437204547E+02  0.71889418303E+02  0.66852549765E+01  0.15046161447E+03  0.12500000000E+03 0.  0.
          2    1    1    2  502    0  0.17077600879E+02  0.11398311121E+02  0.29052627755E+02  0.35575569253E+02  0.00000000000E+00 0. -1.
         -2    1    1    2    0  501 -0.59514805426E+02 -0.83287729424E+02 -0.25821583397E+03  0.27776658340E+03  0.00000000000E+00 0.  1.
<mgrwt>
<rscale>  0 0.45367764E+02</rscale>
<asrwt>0</asrwt>
<pdfrwt beam="1">  1        2 0.18563525E-01 0.20532071E+02</pdfrwt>
<pdfrwt beam="2">  1       -2 0.52790900E-01 0.10024483E+03</pdfrwt>
<totfact> 0.93325381E+02</totfact>
</mgrwt>
</event>
<event>
 5    1  0.7114032E-003  0.5825748E+02  0.7546771E-02  0.1453231E+00
         -2   -1    0    0    0  501 -0.00000000000E+00  0.00000000000E+00  0.42685130287E+02  0.42685130287E+02  0.00000000000E+00 0.  1.
          2   -1    0    0  502    0  0.00000000000E+00 -0.00000000000E+00 -0.38314269350E+03  0.38314269350E+03  0.00000000000E+00 0. -1.
         25    1    1    2    0    0  0.15808606791E+02  0.64645459867E+02 -0.19284188366E+03  0.23925287799E+03  0.12500000000E+03 0.  0.
          2    1    1    2  502    0  0.23267901115E+02 -0.54050682768E+02 -0.12945290009E+03  0.14220029842E+03  0.00000000000E+00 0.  1.
         -2    1    1    2    0  501 -0.39076507907E+02 -0.10594777099E+02 -0.18162779456E+02  0.44374647374E+02  0.00000000000E+00 0. -1.
<mgrwt>
<rscale>  0 0.48566335E+02</rscale>
<asrwt>0</asrwt>
<pdfrwt beam="2">  1        2 0.58945025E-01 0.58257477E+02</pdfrwt>
<pdfrwt beam="1">  1       -2 0.65669436E-02 0.40487316E+02</pdfrwt>
<totfact> 0.91656844E+03</totfact>
</mgrwt>
</event>
<event>
 5    1  0.7114032E-003  0.3513484E+02  0.7546771E-02  0.1574453E+00
         -1   -1    0    0    0  501  0.00000000000E+00  0.00000000000E+00  0.30755237811E+02  0.30755237811E+02  0.00000000000E+00 0.  1.
         -1   -1    0    0    0  502 -0.00000000000E+00 -0.00000000000E+00 -0.31787396226E+03  0.31787396226E+03  0.00000000000E+00 0.  1.
         25    1    1    2    0    0  0.53649272199E+01 -0.48772973022E+02 -0.17895308060E+03  0.22373374890E+03  0.12500000000E+03 0.  0.
         -1    1    1    2    0  502  0.16592810167E+02  0.24518639280E+02 -0.47530833120E+02  0.55997009906E+02  0.00000000000E+00 0.  1.
         -1    1    1    2    0  501 -0.21957737387E+02  0.24254333742E+02 -0.60634810728E+02  0.68898441262E+02  0.00000000000E+00 0.  1.
<mgrwt>
<rscale>  0 0.32251884E+02</rscale>
<asrwt>0</asrwt>
<pdfrwt beam="1">  1       -1 0.47315754E-02 0.35134835E+02</pdfrwt>
<pdfrwt beam="2">  1       -1 0.48903683E-01 0.29605490E+02</pdfrwt>
<totfact> 0.56434247E+03</totfact>
</mgrwt>
</event>
<event>
 5    1  0.7114032E-003  0.9890776E+02  0.7546771E-02  0.1383781E+00
          1   -1    0    0  502    0  0.00000000000E+00  0.00000000000E+00  0.11777333796E+04  0.11777333796E+04  0.00000000000E+00 0. -1.
         -2   -1    0    0    0  501 -0.00000000000E+00 -0.00000000000E+00 -0.52219260997E+02  0.52219260997E+02  0.00000000000E+00 0.  1.
         25    1    1    2    0    0 -0.15530067263E+02 -0.86727956905E+02  0.38021911516E+03  0.40982251894E+03  0.12500000000E+03 0.  0.
          1    1    1    2  502    0  0.38762875692E+02 -0.12545766499E+02  0.71157819183E+03  0.71274362843E+03  0.00000000000E+00 0. -1.
         -2    1    1    2    0  501 -0.23232808429E+02  0.99273723403E+02  0.33716811650E+02  0.10738649326E+03  0.00000000000E+00 0.  1.
<mgrwt>
<rscale>  0 0.63480359E+02</rscale>
<asrwt>0</asrwt>
<pdfrwt beam="1">  1        1 0.18118973E+00 0.40742567E+02</pdfrwt>
<pdfrwt beam="2">  1       -2 0.80337333E-02 0.98907759E+02</pdfrwt>
<totfact> 0.10594142E+03</totfact>
</mgrwt>
</event>
<event>
 5    1  0.7114032E-003  0.7660466E+02  0.7546771E-02  0.1380017E+00
         -1   -1    0    0    0  501  0.00000000000E+00  0.00000000000E+00  0.56687961945E+03  0.56687961945E+03  0.00000000000E+00 0.  1.
         -1   -1    0    0    0  502 -0.00000000000E+00 -0.00000000000E+00 -0.20684161264E+03  0.20684161264E+03  0.00000000000E+00 0.  1.
         25    1    1    2    0    0  0.57011298142E+02  0.32099162950E+02  0.23667524834E+03  0.27553732516E+03  0.12500000000E+03 0.  0.
         -1    1    1    2    0  501  0.18137560254E+02 -0.51117310219E+02  0.30022200650E+03  0.30508229001E+03  0.00000000000E+00 0.  1.
         -1    1    1    2    0  502 -0.75148858396E+02  0.19018147269E+02 -0.17685924803E+03  0.19310161692E+03  0.00000000000E+00 0.  1.
<mgrwt>
<rscale>  0 0.64459427E+02</rscale>
<asrwt>0</asrwt>
<pdfrwt beam="1">  1       -1 0.87212248E-01 0.54239750E+02</pdfrwt>
<pdfrwt beam="2">  1       -1 0.31821787E-01 0.76604662E+02</pdfrwt>
<totfact> 0.11090676E+02</totfact>
</mgrwt>
</event>
<event>
 5    1  0.7114032E-003  0.4998845E+02  0.7546771E-02  0.1487393E+00
          1   -1    0    0  502    0  0.00000000000E+00  0.00000000000E+00  0.22171939931E+04  0.22171939931E+04  0.00000000000E+00 0. -1.
         -1   -1    0    0    0  501 -0.00000000000E+00 -0.00000000000E+00 -0.32750644646E+02  0.32750644646E+02  0.00000000000E+00 0.  1.
         25    1    1    2    0    0  0.17569430422E+02  0.20964433805E+02  0.91157685951E+03  0.92051374958E+03  0.12500000000E+03 0.  0.
          1    1    1    2  502    0 -0.16217948362E+00 -0.53552658815E+02  0.12882843628E+04  0.12893969571E+04  0.00000000000E+00 0. -1.
         -1    1    1    2    0  501 -0.17407250939E+02  0.32588225011E+02 -0.15417873920E+02  0.40033930994E+02  0.00000000000E+00 0.  1.
<mgrwt>
<rscale>  0 0.42975246E+02</rscale>
<asrwt>0</asrwt>
<pdfrwt beam="1">  1        1 0.34110665E+00 0.49988448E+02</pdfrwt>
<pdfrwt beam="2">  1       -1 0.50385624E-02 0.36945971E+02</pdfrwt>
<totfact> 0.43843194E+02</totfact>
</mgrwt>
</event>
<event>
 5    1  0.7114032E-003  0.8602519E+02  0.7546771E-02  0.1364860E+00
         -3   -1    0    0    0  501 -0.00000000000E+00  0.00000000000E+00  0.21004540804E+04  0.21004540804E+04  0.00000000000E+00 0.  1.
          2   -1    0    0  502    0  0.00000000000E+00 -0.00000000000E+00 -0.11295082218E+04  0.11295082218E+04  0.00000000000E+00 0. -1.
         25    1    1    2    0    0 -0.45418761233E+02  0.12744185251E+03 -0.11077398482E+03  0.21494223726E+03  0.12500000000E+03 0.  0.
          2    1    1    2  502    0  0.42664297310E+02 -0.72779690187E+02 -0.96444281694E+03  0.96812554595E+03  0.00000000000E+00 0. -1.
         -3    1    1    2    0  501  0.27544639234E+01 -0.54662162325E+02  0.20461626604E+04  0.20468945190E+04  0.00000000000E+00 0.  1.
<mgrwt>
<rscale>  0 0.68616975E+02</rscale>
<asrwt>0</asrwt>
<pdfrwt beam="2">  1        2 0.17377050E+00 0.86025190E+02</pdfrwt>
<pdfrwt beam="1">  1       -3 0.32314678E+00 0.54731518E+02</pdfrwt>
<totfact> 0.55112117E-01</totfact>
</mgrwt>
</event>
<event>
 5    1  0.7114032E-003  0.4586047E+02  0.7546771E-02  0.1541644E+00
         -1   -1    0    0    0  501 -0.00000000000E+00  0.00000000000E+00  0.17339444833E+03  0.17339444833E+03  0.00000000000E+00 0.  1.
          2   -1    0    0  502    0  0.00000000000E+00 -0.00000000000E+00 -0.11840697862E+03  0.11840697862E+03  0.00000000000E+00 0. -1.
         25    1    1    2    0    0 -0.30533823984E+02  0.55783976204E+02  0.10744599586E+03  0.17667430043E+03  0.12500000000E+03 0.  0.
          2    1    1    2  502    0  0.21986793724E+02 -0.17240455030E+02 -0.67363064701E+02  0.72927600220E+02  0.00000000000E+00 0. -1.
         -1    1    1    2    0  501  0.85470302599E+01 -0.38543521174E+02  0.14904538555E+02  0.42199526304E+02  0.00000000000E+00 0.  1.
<mgrwt>
<rscale>  0 0.35795930E+02</rscale>
<asrwt>0</asrwt>
<pdfrwt beam="2">  1        2 0.18216458E-01 0.27940157E+02</pdfrwt>
<pdfrwt beam="1">  1       -1 0.26676069E-01 0.45860465E+02</pdfrwt>
<totfact> 0.38129625E+03</totfact>
</mgrwt>
</event>
<event>
 5    1  0.7114032E-003  0.7535580E+02  0.7546771E-02  0.1514964E+00
         -1   -1    0    0    0  501 -0.00000000000E+00  0.00000000000E+00  0.25936969483E+03  0.25936969483E+03  0.00000000000E+00 0.  1.
          3   -1    0    0  502    0  0.00000000000E+00 -0.00000000000E+00 -0.28189337068E+03  0.28189337068E+03  0.00000000000E+00 0. -1.
         25    1    1    2    0    0 -0.66057344313E+02  0.38320659048E+02  0.10242044877E+03  0.17873722045E+03  0.12500000000E+03 0.  0.
          3    1    1    2  502    0  0.52900397883E+02 -0.53759687997E+02 -0.23696746224E+03  0.24868078798E+03  0.00000000000E+00 0. -1.
         -1    1    1    2    0  501  0.13156946429E+02  0.15439028949E+02  0.11202333762E+03  0.11384505709E+03  0.00000000000E+00 0.  1.
<mgrwt>
<rscale>  0 0.39096923E+02</rscale>
<asrwt>0</asrwt>
<pdfrwt beam="2">  1        3 0.43368211E-01 0.75355800E+02</pdfrwt>
<pdfrwt beam="1">  1       -1 0.39903030E-01 0.20284695E+02</pdfrwt>
<totfact> 0.13904161E+02</totfact>
</mgrwt>
</event>
<event>
 5    1  0.7114032E-003  0.1720106E+03  0.7546771E-02  0.1297413E+00
          2   -1    0    0  502    0  0.00000000000E+00  0.00000000000E+00  0.61994595811E+02  0.61994595811E+02  0.00000000000E+00 0. -1.
          2   -1    0    0  501    0 -0.00000000000E+00 -0.00000000000E+00 -0.28774440309E+04  0.28774440309E+04  0.00000000000E+00 0. -1.
         25    1    1    2    0    0  0.79128766763E+02 -0.13356828381E+03 -0.37292165637E+03  0.42284442761E+03  0.12500000000E+03 0.  0.
          2    1    1    2  501    0 -0.44534810674E+02  0.16898789871E+03 -0.24583985670E+04  0.24646021532E+04  0.00000000000E+00 0. -1.
          2    1    1    2  502    0 -0.34593956089E+02 -0.35419614905E+02  0.15870788280E+02  0.51992045916E+02  0.00000000000E+00 0. -1.
<mgrwt>
<rscale>  0 0.92283973E+02</rscale>
<asrwt>0</asrwt>
<pdfrwt beam="1">  1        2 0.95376316E-02 0.49510513E+02</pdfrwt>
<pdfrwt beam="2">  1        2 0.44268363E+00 0.17201057E+03</pdfrwt>
<totfact> 0.24772605E+02</totfact>
</mgrwt>
</event>
<event>
 5    1  0.7114032E-003  0.6417594E+02  0.7546771E-02  0.1473112E+00
          2   -1    0    0  502    0  0.00000000000E+00  0.00000000000E+00  0.37757693606E+03  0.37757693606E+03  0.00000000000E+00 0. -1.
         -3   -1    0    0    0  501 -0.00000000000E+00 -0.00000000000E+00 -0.54382671729E+03  0.54382671729E+03  0.00000000000E+00 0.  1.
         25    1    1    2    0    0  0.11146360968E+02  0.52828168036E+02  0.31482309949E+02  0.13975404302E+03  0.12500000000E+03 0.  0.
          2    1    1    2  502    0  0.31534831179E+02 -0.43357646476E+01  0.28895040790E+03  0.29069843938E+03  0.00000000000E+00 0. -1.
         -3    1    1    2    0  501 -0.42681192147E+02 -0.48492403389E+02 -0.48668249908E+03  0.49095117095E+03  0.00000000000E+00 0.  1.
<mgrwt>
<rscale>  0 0.45197528E+02</rscale>
<asrwt>0</asrwt>
<pdfrwt beam="1">  1        2 0.58088760E-01 0.31831501E+02</pdfrwt>
<pdfrwt beam="2">  1       -3 0.83665648E-01 0.64175943E+02</pdfrwt>
<totfact> 0.68981296E+01</totfact>
</mgrwt>
</event>
<event>
 5    1  0.7114032E-003  0.8197077E+02  0.7546771E-02  0.1387627E+00
          1   -1    0    0  502    0  0.00000000000E+00  0.00000000000E+00  0.10875424168E+04  0.10875424168E+04  0.00000000000E+00 0. -1.
         -2   -1    0    0    0  501 -0.00000000000E+00 -0.00000000000E+00 -0.20424123531E+04  0.20424123531E+04  0.00000000000E+00 0.  1.
         25    1    1    2    0    0  0.32292521234E+02  0.49906371019E+02 -0.13058618897E+04  0.13131769598E+04  0.12500000000E+03 0.  0.
          1    1    1    2  502    0  0.36588342024E+02  0.30534134638E+02  0.10795307819E+04  0.10805821344E+04  0.00000000000E+00 0. -1.
         -2    1    1    2    0  501 -0.68880863258E+02 -0.80440505657E+02 -0.72853882842E+03  0.73619567561E+03  0.00000000000E+00 0.  1.
<mgrwt>
<rscale>  0 0.62500819E+02</rscale>
<asrwt>0</asrwt>
<pdfrwt beam="1">  1        1 0.16731422E+00 0.47655431E+02</pdfrwt>
<pdfrwt beam="2">  1       -2 0.31421728E+00 0.81970768E+02</pdfrwt>
<totfact> 0.48293429E-01</totfact>
</mgrwt>
</event>
<event>
 5    1  0.7114032E-003  0.3787900E+02  0.7546771E-02  0.1582633E+00
          2   -1    0    0  502    0  0.00000000000E+00  0.00000000000E+00  0.57120295036E+03  0.57120295036E+03  0.00000000000E+00 0. -1.
         -1   -1    0    0    0  501 -0.00000000000E+00 -0.00000000000E+00 -0.25048802579E+02  0.25048802579E+02  0.00000000000E+00 0.  1.
         25    1    1    2    0    0  0.14128072117E+02 -0.21702920967E+02  0.43765437561E+03  0.45589140340E+03  0.12500000000E+03 0.  0.
          2    1    1    2  502    0 -0.38158262310E+02 -0.75779321900E+01  0.19251127888E+02  0.43406036029E+02  0.00000000000E+00 0. -1.
         -1    1    1    2    0  501  0.24030190193E+02  0.29280853157E+02  0.89248644281E+02  0.96954313511E+02  0.00000000000E+00 0.  1.
<mgrwt>
<rscale>  0 0.31446058E+02</rscale>
<asrwt>0</asrwt>
<pdfrwt beam="1">  1        2 0.87877367E-01 0.26105617E+02</pdfrwt>
<pdfrwt beam="2">  1       -1 0.38536624E-02 0.37878997E+02</pdfrwt>
<totfact> 0.13359375E+04</totfact>
</mgrwt>
</event>
<event>
 5    1  0.7114032E-003  0.3020473E+02  0.7546771E-02  0.1645637E+00
         -1   -1    0    0    0  501 -0.00000000000E+00  0.00000000000E+00  0.17759405832E+02  0.17759405832E+02  0.00000000000E+00 0.  1.
          2   -1    0    0  502    0  0.00000000000E+00 -0.00000000000E+00 -0.78947080019E+03  0.78947080019E+03  0.00000000000E+00 0. -1.
         25    1    1    2    0    0  0.48113554156E+02  0.96044026545E+01 -0.35326165079E+03  0.37792320988E+03  0.12500000000E+03 0.  0.
          2    1    1    2  502    0 -0.19833442559E+02 -0.10750130355E+02 -0.38426211410E+03  0.38492376269E+03  0.00000000000E+00 0. -1.
         -1    1    1    2    0  501 -0.28280111596E+02  0.11457277003E+01 -0.34187629465E+02  0.44383233459E+02  0.00000000000E+00 0.  1.
<mgrwt>
<rscale>  0 0.26103706E+02</rscale>
<asrwt>0</asrwt>
<pdfrwt beam="2">  1        2 0.12145704E+00 0.22559493E+02</pdfrwt>
<pdfrwt beam="1">  1       -1 0.27322164E-02 0.30204731E+02</pdfrwt>
<totfact> 0.14798149E+04</totfact>
</mgrwt>
</event>
<event>
 5    1  0.7114032E-003  0.6346108E+02  0.7546771E-02  0.1492227E+00
          2   -1    0    0  502    0  0.00000000000E+00  0.00000000000E+00  0.13082835184E+04  0.13082835184E+04  0.00000000000E+00 0. -1.
         -2   -1    0    0    0  501 -0.00000000000E+00 -0.00000000000E+00 -0.15349956103E+02  0.15349956103E+02  0.00000000000E+00 0.  1.
         25    1    1    2    0    0 -0.54970997827E+02  0.30213782055E+02  0.10068953494E+04  0.10165618171E+04  0.12500000000E+03 0.  0.
          2    1    1    2  502    0  0.39711582251E+02 -0.53855247273E+02  0.26088576877E+03  0.26933024667E+03  0.00000000000E+00 0. -1.
         -2    1    1    2    0  501  0.15259415576E+02  0.23641465218E+02  0.25152444063E+02  0.37741410728E+02  0.00000000000E+00 0.  1.
<mgrwt>
<rscale>  0 0.42257451E+02</rscale>
<asrwt>0</asrwt>
<pdfrwt beam="1">  1        2 0.20127430E+00 0.63461078E+02</pdfrwt>
<pdfrwt beam="2">  1       -2 0.23615327E-02 0.28138384E+02</pdfrwt>
<totfact> 0.85978845E+03</totfact>
</mgrwt>
</event>
<event>
 5    1  0.7114032E-003  0.5572060E+02  0.7546771E-02  0.1508096E+00
         -2   -1    0    0    0  501 -0.00000000000E+00  0.00000000000E+00  0.26216987366E+02  0.26216987366E+02  0.00000000000E+00 0. -1.
          2   -1    0    0  502    0  0.00000000000E+00 -0.00000000000E+00 -0.55851267906E+03  0.55851267906E+03  0.00000000000E+00 0.  1.
         25    1    1    2    0    0 -0.22750254215E+02 -0.37621853580E+02 -0.22229169811E+03  0.25878867244E+03  0.12500000000E+03 0.  0.
          2    1    1    2  502    0  0.29836259603E+01 -0.28581899099E+02 -0.59386634226E+02  0.65974232126E+02  0.00000000000E+00 0. -1.
         -2    1    1    2    0  501  0.19766628255E+02  0.66203752679E+02 -0.25061735937E+03  0.25996676187E+03  0.00000000000E+00 0.  1.
<mgrwt>
<rscale>  0 0.40015677E+02</rscale>
<asrwt>0</asrwt>
<pdfrwt beam="2">  1        2 0.85925029E-01 0.28737206E+02</pdfrwt>
<pdfrwt beam="1">  1       -2 0.40333826E-02 0.55720603E+02</pdfrwt>
<totfact> 0.13187951E+04</totfact>
</mgrwt>
</event>
<event>
 5    1  0.7114032E-003  0.5192837E+02  0.7546771E-02  0.1544530E+00
          1   -1    0    0  502    0  0.00000000000E+00  0.00000000000E+00  0.56360256083E+02  0.56360256083E+02  0.00000000000E+00 0. -1.
         -2   -1    0    0    0  501 -0.00000000000E+00 -0.00000000000E+00 -0.24513595334E+03  0.24513595334E+03  0.00000000000E+00 0.  1.
         25    1    1    2    0    0 -0.41444221268E+02  0.34211494249E+02 -0.99507712881E+02  0.16856700371E+03  0.12500000000E+03 0.  0.
          1    1    1    2  502    0  0.51210028163E+02 -0.12049756495E+02 -0.14842054452E+02  0.54662145918E+02  0.00000000000E+00 0. -1.
         -2    1    1    2    0  501 -0.97658068953E+01 -0.22161737754E+02 -0.74425929920E+02  0.78267059795E+02  0.00000000000E+00 0.  1.
<mgrwt>
<rscale>  0 0.35462705E+02</rscale>
<asrwt>0</asrwt>
<pdfrwt beam="1">  1        1 0.86708086E-02 0.51928367E+02</pdfrwt>
<pdfrwt beam="2">  1       -2 0.37713223E-01 0.24218043E+02</pdfrwt>
<totfact> 0.39193810E+03</totfact>
</mgrwt>
</event>
<event>
 5    1  0.7114032E-003  0.4028626E+02  0.7546771E-02  0.1538797E+00
         -3   -1    0    0    0  501 -0.00000000000E+00  0.00000000000E+00  0.11569628304E+03  0.11569628304E+03  0.00000000000E+00 0.  1.
          2   -1    0    0  502    0  0.00000000000E+00 -0.00000000000E+00 -0.26751454409E+04  0.26751454409E+04  0.00000000000E+00 0.  1.
         25    1    1    2    0    0  0.11019902433E+01  0.10359359841E+02 -0.40854845876E+03  0.42737030065E+03  0.12500000000E+03 0.  0.
          2    1    1    2  502    0  0.24725356988E+02  0.20939685915E+02 -0.22531920801E+04  0.22534250295E+04  0.00000000000E+00 0.  1.
         -3    1    1    2    0  501 -0.25827347231E+02 -0.31299045756E+02  0.10229138108E+03  0.11004639373E+03  0.00000000000E+00 0.  1.
<mgrwt>
<rscale>  0 0.36129047E+02</rscale>
<asrwt>0</asrwt>
<pdfrwt beam="2">  1        2 0.41156082E+00 0.32400829E+02</pdfrwt>
<pdfrwt beam="1">  1       -3 0.17799429E-01 0.40286255E+02</pdfrwt>
<totfact> 0.63605836E+01</totfact>
</mgrwt>
</event>
<event>
 5    1  0.7114032E-003  0.1042917E+03  0.7546771E-02  0.1372339E+00
          2   -1    0    0  501    0  0.00000000000E+00  0.00000000000E+00  0.17983631014E+04  0.17983631014E+04  0.00000000000E+00 0. -1.
          1   -1    0    0  502    0 -0.00000000000E+00 -0.00000000000E+00 -0.20344783491E+03  0.20344783491E+03  0.00000000000E+00 0. -1.
         25    1    1    2    0    0  0.14173239967E+02  0.69134827938E+02  0.31919841176E+03  0.34999018734E+03  0.12500000000E+03 0.  0.
          2    1    1    2  501    0  0.34234887798E+02  0.25064764636E+02  0.14485215031E+04  0.14491427863E+04  0.00000000000E+00 0. -1.
          1    1    1    2  502    0 -0.48408127765E+02 -0.94199592574E+02 -0.17280464837E+03  0.20267796273E+03  0.00000000000E+00 0. -1.
<mgrwt>
<rscale>  0 0.66521085E+02</rscale>
<asrwt>0</asrwt>
<pdfrwt beam="1">  1        2 0.27667124E+00 0.42429588E+02</pdfrwt>
<pdfrwt beam="2">  1        1 0.31299668E-01 0.10429172E+03</pdfrwt>
<totfact> 0.21991372E+02</totfact>
</mgrwt>
</event>
<event>
 5    1  0.7114032E-003  0.9456180E+02  0.7546771E-02  0.1428630E+00
          1   -1    0    0  502    0  0.00000000000E+00  0.00000000000E+00  0.11115314201E+04  0.11115314201E+04  0.00000000000E+00 0. -1.
         -2   -1    0    0    0  501 -0.00000000000E+00 -0.00000000000E+00 -0.72847464424E+02  0.72847464424E+02  0.00000000000E+00 0.  1.
         25    1    1    2    0    0 -0.11520308037E+03  0.82359458201E+01  0.27444885024E+03  0.32293459388E+03  0.12500000000E+03 0.  0.
          1    1    1    2  502    0  0.89425718990E+02 -0.23525072162E+02  0.80530795636E+03  0.81059934173E+03  0.00000000000E+00 0. -1.
         -2    1    1    2    0  501  0.25777361378E+02  0.15289126342E+02 -0.41072850937E+02  0.50844948894E+02  0.00000000000E+00 0.  1.
<mgrwt>
<rscale>  0 0.53235916E+02</rscale>
<asrwt>0</asrwt>
<pdfrwt beam="1">  1        1 0.17100482E+00 0.94561803E+02</pdfrwt>
<pdfrwt beam="2">  1       -2 0.11207303E-01 0.29970481E+02</pdfrwt>
<totfact> 0.59959096E+02</totfact>
</mgrwt>
</event>
<event>
 5    1  0.7114032E-003  0.6864351E+02  0.7546771E-02  0.1459960E+00
          1   -1    0    0  502    0 -0.00000000000E+00  0.00000000000E+00  0.15624594885E+04  0.15624594885E+04  0.00000000000E+00 0. -1.
          2   -1    0    0  501    0  0.00000000000E+00 -0.00000000000E+00 -0.13657959919E+03  0.13657959919E+03  0.00000000000E+00 0. -1.
         25    1    1    2    0    0 -0.25941434384E+02 -0.42914121121E+02  0.12259487963E+03  0.18212381591E+03  0.12500000000E+03 0.  0.
          2    1    1    2  501    0  0.75734841718E+01  0.69985525526E+02 -0.95005082388E+02  0.11824253518E+03  0.00000000000E+00 0. -1.
          1    1    1    2  502    0  0.18367950212E+02 -0.27071404405E+02  0.13982900921E+04  0.13986727366E+04  0.00000000000E+00 0. -1.
<mgrwt>
<rscale>  0 0.47388210E+02</rscale>
<asrwt>0</asrwt>
<pdfrwt beam="2">  1        2 0.21012247E-01 0.68643512E+02</pdfrwt>
<pdfrwt beam="1">  1        1 0.24037837E+00 0.32714561E+02</pdfrwt>
<totfact> 0.27522897E+02</totfact>
</mgrwt>
</event>
<event>
 5    1  0.7114032E-003  0.6436601E+02  0.7546771E-02  0.1449686E+00
         -1   -1    0    0    0  501 -0.00000000000E+00  0.00000000000E+00  0.11383813580E+03  0.11383813580E+03  0.00000000000E+00 0.  1.
          1   -1    0    0  502    0  0.00000000000E+00 -0.00000000000E+00 -0.70680594214E+03  0.70680594214E+03  0.00000000000E+00 0. -1.
         25    1    1    2    0    0  0.68173598061E+02  0.64313321357E+02 -0.18854769415E+03  0.24486542375E+03  0.12500000000E+03 0.  0.
          1    1    1    2  502    0 -0.32114247091E+02 -0.53615959494E+02 -0.48386251821E+03  0.48788208873E+03  0.00000000000E+00 0. -1.
         -1    1    1    2    0  501 -0.36059350970E+02 -0.10697361863E+02  0.79442406031E+02  0.87896565458E+02  0.00000000000E+00 0.  1.
<mgrwt>
<rscale>  0 0.49203406E+02</rscale>
<asrwt>0</asrwt>
<pdfrwt beam="2">  1        1 0.10873938E+00 0.64366007E+02</pdfrwt>
<pdfrwt beam="1">  1       -1 0.17513559E-01 0.37612635E+02</pdfrwt>
<totfact> 0.68170955E+02</totfact>
</mgrwt>
</event>
<event>
 5    1  0.7114032E-003  0.6898274E+02  0.7546771E-02  0.1433688E+00
          3   -1    0    0  502    0  0.00000000000E+00  0.00000000000E+00  0.12204968594E+04  0.12204968594E+04  0.00000000000E+00 0. -1.
         -2   -1    0    0    0  501 -0.00000000000E+00 -0.00000000000E+00 -0.10084516238E+03  0.10084516238E+03  0.00000000000E+00 0.  1.
         25    1    1    2    0    0  0.65816127790E+02 -0.37398352803E+02  0.99235927015E+01  0.14647142097E+03  0.12500000000E+03 0.  0.
          3    1    1    2  502    0 -0.32079761469E+02 -0.23116390547E+02  0.11046974748E+04  0.11054048984E+04  0.00000000000E+00 0. -1.
         -2    1    1    2    0  501 -0.33736366322E+02  0.60514743351E+02  0.50306295159E+01  0.69465702391E+02  0.00000000000E+00 0.  1.
<mgrwt>
<rscale>  0 0.52226774E+02</rscale>
<asrwt>0</asrwt>
<pdfrwt beam="1">  1        3 0.18776874E+00 0.39540847E+02</pdfrwt>
<pdfrwt beam="2">  1       -2 0.15514641E-01 0.68982739E+02</pdfrwt>
<totfact> 0.24089998E+01</totfact>
</mgrwt>
</event>
<event>
 5    1  0.7114032E-003  0.3839316E+02  0.7546771E-02  0.1548510E+00
          1   -1    0    0  502    0  0.00000000000E+00  0.00000000000E+00  0.66455937712E+03  0.66455937712E+03  0.00000000000E+00 0. -1.
         -2   -1    0    0    0  501 -0.00000000000E+00 -0.00000000000E+00 -0.10576909843E+03  0.10576909843E+03  0.00000000000E+00 0.  1.
         25    1    1    2    0    0 -0.82542776319E+01  0.51141832797E+02  0.63249848500E+03  0.64680982807E+03  0.12500000000E+03 0.  0.
          1    1    1    2  502    0  0.26706287708E+02 -0.17493020927E+02  0.82903148829E+01  0.32984252381E+02  0.00000000000E+00 0. -1.
         -2    1    1    2    0  501 -0.18452010076E+02 -0.33648811869E+02 -0.81998521197E+02  0.90534395092E+02  0.00000000000E+00 0.  1.
<mgrwt>
<rscale>  0 0.35010243E+02</rscale>
<asrwt>0</asrwt>
<pdfrwt beam="1">  1        1 0.10223990E+00 0.31925407E+02</pdfrwt>
<pdfrwt beam="2">  1       -2 0.16272169E-01 0.38393155E+02</pdfrwt>
<totfact> 0.79180238E+02</totfact>
</mgrwt>
</event>
<event>
 5    1  0.7114032E-003  0.2550666E+03  0.7546771E-02  0.1246706E+00
          1   -1    0    0  502    0  0.00000000000E+00  0.00000000000E+00  0.18346870849E+04  0.18346870849E+04  0.00000000000E+00 0. -1.
         -1   -1    0    0    0  501 -0.00000000000E+00 -0.00000000000E+00 -0.13244672050E+03  0.13244672050E+03  0.00000000000E+00 0.  1.
         25    1    1    2    0    0  0.41071492553E+02 -0.29223734278E+03  0.39015550346E+03  0.50491172386E+03  0.12500000000E+03 0.  0.
          1    1    1    2  502    0 -0.58229458238E+02  0.24057178640E+03  0.13644298663E+04  0.13866990712E+04  0.00000000000E+00 0. -1.
         -1    1    1    2    0  501  0.17157965685E+02  0.51665556381E+02 -0.52345005323E+02  0.75523010301E+02  0.00000000000E+00 0.  1.
<mgrwt>
<rscale>  0 0.11783825E+03</rscale>
<asrwt>0</asrwt>
<pdfrwt beam="1">  1        1 0.28225953E+00 0.25506660E+03</pdfrwt>
<pdfrwt beam="2">  1       -1 0.20376420E-01 0.54440109E+02</pdfrwt>
<totfact> 0.81266916E+01</totfact>
</mgrwt>
</event>
<event>
 5    1  0.7114032E-003  0.1036985E+03  0.7546771E-02  0.1423000E+00
         -1   -1    0    0    0  501 -0.00000000000E+00  0.00000000000E+00  0.10464336493E+04  0.10464336493E+04  0.00000000000E+00 0.  1.
          1   -1    0    0  502    0  0.00000000000E+00 -0.00000000000E+00 -0.13381956971E+04  0.13381956971E+04  0.00000000000E+00 0. -1.
         25    1    1    2    0    0 -0.13879597285E+02 -0.75423872355E+02 -0.89715041943E+02  0.17191623685E+03  0.12500000000E+03 0.  0.
          1    1    1    2  502    0  0.17998362553E+02  0.10365387833E+03 -0.12048850621E+04  0.12094693383E+04  0.00000000000E+00 0. -1.
         -1    1    1    2    0  501 -0.41187652673E+01 -0.28230005970E+02  0.10028380562E+04  0.10032437712E+04  0.00000000000E+00 0.  1.
<mgrwt>
<rscale>  0 0.54391192E+02</rscale>
<asrwt>0</asrwt>
<pdfrwt beam="2">  1        1 0.20587626E+00 0.10369846E+03</pdfrwt>
<pdfrwt beam="1">  1       -1 0.16098979E+00 0.28528888E+02</pdfrwt>
<totfact> 0.37266957E+00</totfact>
</mgrwt>
</event>
<event>
 5    1  0.7114032E-003  0.6673122E+02  0.7546771E-02  0.1384078E+00
          2   -1    0    0  502    0  0.00000000000E+00  0.00000000000E+00  0.27520420691E+04  0.27520420691E+04  0.00000000000E+00 0. -1.
         -3   -1    0    0    0  501 -0.00000000000E+00 -0.00000000000E+00 -0.99596777449E+01  0.99596777449E+01  0.00000000000E+00 0. -1.
         25    1    1    2    0    0 -0.50362814573E+01  0.54617993337E+02  0.12844973997E+04  0.12917302579E+04  0.12500000000E+03 0.  0.
          2    1    1    2  502    0  0.63744746169E+02 -0.41108803898E+02  0.12892884599E+04  0.12915177348E+04  0.00000000000E+00 0. -1.
         -3    1    1    2    0  501 -0.58708464711E+02 -0.13509189440E+02  0.16829653173E+03  0.17875375414E+03  0.00000000000E+00 0. -1.
<mgrwt>
<rscale>  0 0.63404009E+02</rscale>
<asrwt>0</asrwt>
<pdfrwt beam="1">  1        2 0.42339048E+00 0.66731219E+02</pdfrwt>
<pdfrwt beam="2">  1       -3 0.15322603E-02 0.60242693E+02</pdfrwt>
<totfact> 0.25309799E+03</totfact>
</mgrwt>
</event>
<event>
 5    1  0.7114032E-003  0.1338167E+03  0.7546771E-02  0.1328541E+00
         -2   -1    0    0    0  501  0.00000000000E+00  0.00000000000E+00  0.77201010700E+03  0.77201010700E+03  0.00000000000E+00 0.  1.
         -1   -1    0    0    0  502 -0.00000000000E+00 -0.00000000000E+00 -0.63169100814E+02  0.63169100814E+02  0.00000000000E+00 0.  1.
         25    1    1    2    0    0 -0.44646243413E+02 -0.90346832034E+02  0.21112310575E+03  0.26524291299E+03  0.12500000000E+03 0.  0.
         -2    1    1    2    0  501  0.50113413188E+02  0.13807684178E+03  0.50069998413E+03  0.52180172722E+03  0.00000000000E+00 0.  1.
         -1    1    1    2    0  502 -0.54671697748E+01 -0.47730009745E+02 -0.29820836960E+01  0.48134567607E+02  0.00000000000E+00 0.  1.
<mgrwt>
<rscale>  0 0.80180009E+02</rscale>
<asrwt>0</asrwt>
<pdfrwt beam="1">  1       -2 0.11877078E+00 0.13381666E+03</pdfrwt>
<pdfrwt beam="2">  1       -1 0.97183238E-02 0.48042104E+02</pdfrwt>
<totfact> 0.24620208E+02</totfact>
</mgrwt>
</event>
<event>
 5    1  0.7114032E-003  0.3743839E+02  0.7546771E-02  0.1529097E+00
         -1   -1    0    0    0  501 -0.00000000000E+00  0.00000000000E+00  0.20167440461E+02  0.20167440461E+02  0.00000000000E+00 0.  1.
          2   -1    0    0  502    0  0.00000000000E+00 -0.00000000000E+00 -0.60200609559E+03  0.60200609559E+03  0.00000000000E+00 0. -1.
         25    1    1    2    0    0 -0.15503142616E+02  0.59788880388E+01 -0.44277149830E+03  0.46037777340E+03  0.12500000000E+03 0.  0.
          2    1    1    2  502    0  0.65889567193E+01  0.36567909047E+02 -0.46439456772E+02  0.59474780101E+02  0.00000000000E+00 0. -1.
         -1    1    1    2    0  501  0.89141858970E+01 -0.42546797086E+02 -0.92627700059E+02  0.10232098255E+03  0.00000000000E+00 0.  1.
<mgrwt>
<rscale>  0 0.37297322E+02</rscale>
<asrwt>0</asrwt>
<pdfrwt beam="2">  1        2 0.92616310E-01 0.37156780E+02</pdfrwt>
<pdfrwt beam="1">  1       -1 0.31026836E-02 0.37438395E+02</pdfrwt>
<totfact> 0.17004103E+04</totfact>
</mgrwt>
</event>
<event>
 5    1  0.7114032E-003  0.4267481E+02  0.7546771E-02  0.1583721E+00
          2   -1    0    0  501    0  0.00000000000E+00  0.00000000000E+00  0.68406011890E+02  0.68406011890E+02  0.00000000000E+00 0. -1.
          1   -1    0    0  502    0 -0.00000000000E+00 -0.00000000000E+00 -0.20596602793E+04  0.20596602793E+04  0.00000000000E+00 0. -1.
         25    1    1    2    0    0  0.25349861926E+02  0.37949869358E+01 -0.42468836671E+03  0.44344359984E+03  0.12500000000E+03 0.  0.
          2    1    1    2  501    0 -0.40990330591E+02  0.13092265178E+02  0.51093578704E+02  0.66799464027E+02  0.00000000000E+00 0. -1.
          1    1    1    2  502    0  0.15640468666E+02 -0.16887252114E+02 -0.16176594794E+04  0.16178232273E+04  0.00000000000E+00 0. -1.
<mgrwt>
<rscale>  0 0.31341119E+02</rscale>
<asrwt>0</asrwt>
<pdfrwt beam="1">  1        2 0.10524003E-01 0.42674807E+02</pdfrwt>
<pdfrwt beam="2">  1        1 0.31687079E+00 0.23017462E+02</pdfrwt>
<totfact> 0.31162822E+02</totfact>
</mgrwt>
</event>
<event>
 5    1  0.7114032E-003  0.4333954E+02  0.7546771E-02  0.1592605E+00
          1   -1    0    0  502    0 -0.00000000000E+00  0.00000000000E+00  0.57260553506E+03  0.57260553506E+03  0.00000000000E+00 0. -1.
          2   -1    0    0  501    0  0.00000000000E+00 -0.00000000000E+00 -0.92890096906E+03  0.92890096906E+03  0.00000000000E+00 0. -1.
         25    1    1    2    0    0  0.20530638570E+02  0.96314038505E+01  0.70032568323E+02  0.14506492231E+03  0.12500000000E+03 0.  0.
          2    1    1    2  501    0  0.20882457259E+02  0.49757190734E+01 -0.89021845181E+03  0.89047724661E+03  0.00000000000E+00 0. -1.
          1    1    1    2  502    0 -0.41413095829E+02 -0.14607122924E+02  0.46389044948E+03  0.46596433519E+03  0.00000000000E+00 0. -1.
<mgrwt>
<rscale>  0 0.30502010E+02</rscale>
<asrwt>0</asrwt>
<pdfrwt beam="2">  1        2 0.14290784E+00 0.21467063E+02</pdfrwt>
<pdfrwt beam="1">  1        1 0.88093160E-01 0.43339539E+02</pdfrwt>
<totfact> 0.17834213E+02</totfact>
</mgrwt>
</event>
<event>
 5    1  0.7114032E-003  0.7867897E+02  0.7546771E-02  0.1414857E+00
         -1   -1    0    0    0  501 -0.00000000000E+00  0.00000000000E+00  0.32160666903E+03  0.32160666903E+03  0.00000000000E+00 0.  1.
          2   -1    0    0  502    0  0.00000000000E+00 -0.00000000000E+00 -0.10088576954E+04  0.10088576954E+04  0.00000000000E+00 0. -1.
         25    1    1    2    0    0 -0.95502562352E+02  0.16123796232E+02 -0.10078509209E+03  0.18751893507E+03  0.12500000000E+03 0.  0.
          2    1    1    2  502    0  0.19523069816E+02 -0.34952093304E+02 -0.85872457651E+03  0.85965731393E+03  0.00000000000E+00 0. -1.
         -1    1    1    2    0  501  0.75979492536E+02  0.18828297072E+02  0.27225864225E+03  0.28328811542E+03  0.00000000000E+00 0.  1.
<mgrwt>
<rscale>  0 0.56124064E+02</rscale>
<asrwt>0</asrwt>
<pdfrwt beam="2">  1        2 0.15520888E+00 0.40034973E+02</pdfrwt>
<pdfrwt beam="1">  1       -1 0.49477949E-01 0.78678973E+02</pdfrwt>
<totfact> 0.13939930E+02</totfact>
</mgrwt>
</event>
<event>
 5    1  0.7114032E-003  0.4575752E+02  0.7546771E-02  0.1471525E+00
          2   -1    0    0  502    0  0.00000000000E+00  0.00000000000E+00  0.21316289132E+04  0.21316289132E+04  0.00000000000E+00 0. -1.
         -1   -1    0    0    0  501 -0.00000000000E+00 -0.00000000000E+00 -0.71518168440E+01  0.71518168440E+01  0.00000000000E+00 0.  1.
         25    1    1    2    0    0  0.33257400599E+02 -0.45208383285E+02  0.90087434260E+03  0.91123511443E+03  0.12500000000E+03 0.  0.
          2    1    1    2  502    0 -0.46152882868E+02  0.13055684668E+01  0.83170755258E+03  0.83298814285E+03  0.00000000000E+00 0. -1.
         -1    1    1    2    0  501  0.12895482270E+02  0.43902814818E+02  0.39189520121E+03  0.39455747281E+03  0.00000000000E+00 0.  1.
<mgrwt>
<rscale>  0 0.45454288E+02</rscale>
<asrwt>0</asrwt>
<pdfrwt beam="1">  1        2 0.32794240E+00 0.45153066E+02</pdfrwt>
<pdfrwt beam="2">  1       -1 0.11002812E-02 0.45757520E+02</pdfrwt>
<totfact> 0.11062725E+04</totfact>
</mgrwt>
</event>
<event>
 5    1  0.7114032E-003  0.5688513E+02  0.7546771E-02  0.1469800E+00
          1   -1    0    0  502    0  0.00000000000E+00  0.00000000000E+00  0.43039223819E+02  0.43039223819E+02  0.00000000000E+00 0. -1.
         -1   -1    0    0    0  501 -0.00000000000E+00 -0.00000000000E+00 -0.48127680014E+03  0.48127680014E+03  0.00000000000E+00 0.  1.
         25    1    1    2    0    0  0.62604785257E+02  0.23799447820E+02 -0.36101444721E+03  0.38786879734E+03  0.12500000000E+03 0.  0.
          1    1    1    2  502    0 -0.92525035691E+01 -0.35588685702E+02  0.56293093681E+01  0.37200167960E+02  0.00000000000E+00 0. -1.
         -1    1    1    2    0  501 -0.53352281688E+02  0.11789237882E+02 -0.82852438479E+02  0.99247058662E+02  0.00000000000E+00 0.  1.
<mgrwt>
<rscale>  0 0.45735842E+02</rscale>
<asrwt>0</asrwt>
<pdfrwt beam="1">  1        1 0.66214191E-02 0.36771774E+02</pdfrwt>
<pdfrwt beam="2">  1       -1 0.74042584E-01 0.56885132E+02</pdfrwt>
<totfact> 0.19111060E+03</totfact>
</mgrwt>
</event>
<event>
 5    1  0.7114032E-003  0.1289448E+03  0.7546771E-02  0.1315666E+00
          1   -1    0    0  502    0 -0.00000000000E+00  0.00000000000E+00  0.27269577299E+04  0.27269577299E+04  0.00000000000E+00 0. -1.
          2   -1    0    0  501    0  0.00000000000E+00 -0.00000000000E+00 -0.61300440903E+03  0.61300440903E+03  0.00000000000E+00 0.  1.
         25    1    1    2    0    0  0.13566915127E+03  0.48323891002E+02  0.91880726310E+02  0.21167991146E+03  0.12500000000E+03 0.  0.
          2    1    1    2  501    0 -0.12852951345E+03  0.71325916542E+01 -0.54530643408E+03  0.56029440184E+03  0.00000000000E+00 0.  1.
          1    1    1    2  502    0 -0.71396378205E+01 -0.55456482656E+02  0.25673790287E+04  0.25679878257E+04  0.00000000000E+00 0. -1.
<mgrwt>
<rscale>  0 0.84910796E+02</rscale>
<asrwt>0</asrwt>
<pdfrwt beam="2">  1        2 0.94308372E-01 0.12894480E+03</pdfrwt>
<pdfrwt beam="1">  1        1 0.41953195E+00 0.55914183E+02</pdfrwt>
<totfact> 0.98195283E+00</totfact>
</mgrwt>
</event>
<event>
 5    1  0.7114032E-003  0.8841351E+02  0.7546771E-02  0.1444773E+00
          2   -1    0    0  502    0  0.00000000000E+00  0.00000000000E+00  0.43345056272E+03  0.43345056272E+03  0.00000000000E+00 0. -1.
         -1   -1    0    0    0  501 -0.00000000000E+00 -0.00000000000E+00 -0.46796107746E+02  0.46796107746E+02  0.00000000000E+00 0.  1.
         25    1    1    2    0    0 -0.93393790340E+02  0.24210308619E+02  0.24800527040E+03  0.29400706329E+03  0.12500000000E+03 0.  0.
          2    1    1    2  502    0  0.71172946873E+02 -0.41889310833E+02  0.58490403829E+02  0.10119995093E+03  0.00000000000E+00 0. -1.
         -1    1    1    2    0  501  0.22220843467E+02  0.17679002214E+02  0.80158780748E+02  0.85039656247E+02  0.00000000000E+00 0.  1.
<mgrwt>
<rscale>  0 0.50105481E+02</rscale>
<asrwt>0</asrwt>
<pdfrwt beam="1">  1        2 0.66684699E-01 0.88413510E+02</pdfrwt>
<pdfrwt beam="2">  1       -1 0.71994015E-02 0.28395651E+02</pdfrwt>
<totfact> 0.69918363E+03</totfact>
</mgrwt>
</event>
<event>
 5    1  0.7114032E-003  0.9636618E+02  0.7546771E-02  0.1302250E+00
         -2   -1    0    0    0  501 -0.00000000000E+00  0.00000000000E+00  0.23790749543E+02  0.23790749543E+02  0.00000000000E+00 0.  1.
          2   -1    0    0  502    0  0.00000000000E+00 -0.00000000000E+00 -0.13993868472E+04  0.13993868472E+04  0.00000000000E+00 0.  1.
         25    1    1    2    0    0  0.26320761667E+02  0.12841693331E+02 -0.52861436999E+03  0.54398147371E+03  0.12500000000E+03 0.  0.
          2    1    1    2  502    0  0.20413199019E+02  0.94179305631E+02 -0.57770423338E+03  0.58568645330E+03  0.00000000000E+00 0.  1.
         -2    1    1    2    0  501 -0.46733960686E+02 -0.10702099896E+03 -0.26927749427E+03  0.29350966972E+03  0.00000000000E+00 0.  1.
<mgrwt>
<rscale>  0 0.90248845E+02</rscale>
<asrwt>0</asrwt>
<pdfrwt beam="2">  1        2 0.21529030E+00 0.96366178E+02</pdfrwt>
<pdfrwt beam="1">  1       -2 0.36601150E-02 0.84519840E+02</pdfrwt>
<totfact> 0.46727750E+03</totfact>
</mgrwt>
</event>
<event>
 5    1  0.7114032E-003  0.3541479E+02  0.7546771E-02  0.1586589E+00
         -1   -1    0    0    0  501 -0.00000000000E+00  0.00000000000E+00  0.77837407507E+01  0.77837407507E+01  0.00000000000E+00 0.  1.
          2   -1    0    0  502    0  0.00000000000E+00 -0.00000000000E+00 -0.16999872960E+04  0.16999872960E+04  0.00000000000E+00 0. -1.
         25    1    1    2    0    0  0.17201538366E+02  0.20770684731E+02 -0.13048184780E+04  0.13110696301E+04  0.12500000000E+03 0.  0.
          2    1    1    2  502    0 -0.40399067026E+02 -0.64681528323E+01 -0.33649984445E+03  0.33897797411E+03  0.00000000000E+00 0. -1.
         -1    1    1    2    0  501  0.23197528659E+02 -0.14302531899E+02 -0.50885232787E+02  0.57723432594E+02  0.00000000000E+00 0.  1.
<mgrwt>
<rscale>  0 0.31066612E+02</rscale>
<asrwt>0</asrwt>
<pdfrwt beam="2">  1        2 0.26153696E+00 0.35414789E+02</pdfrwt>
<pdfrwt beam="1">  1       -1 0.11974965E-02 0.27252298E+02</pdfrwt>
<totfact> 0.14747060E+04</totfact>
</mgrwt>
</event>
<event>
 5    1  0.7114032E-003  0.1128849E+03  0.7546771E-02  0.1310201E+00
         -1   -1    0    0    0  501 -0.00000000000E+00  0.00000000000E+00  0.32880864693E+03  0.32880864693E+03  0.00000000000E+00 0.  1.
          1   -1    0    0  502    0  0.00000000000E+00 -0.00000000000E+00 -0.10619088934E+03  0.10619088934E+03  0.00000000000E+00 0. -1.
         25    1    1    2    0    0  0.23282087339E+02 -0.14394974893E+03  0.16213207097E+03  0.25134715882E+03  0.12500000000E+03 0.  0.
          1    1    1    2  502    0  0.28489685255E+02  0.10126213806E+03  0.26716983127E+02  0.10853331266E+03  0.00000000000E+00 0. -1.
         -1    1    1    2    0  501 -0.51771772594E+02  0.42687610874E+02  0.33768703489E+02  0.75119064790E+02  0.00000000000E+00 0.  1.
<mgrwt>
<rscale>  0 0.87032724E+02</rscale>
<asrwt>0</asrwt>
<pdfrwt beam="2">  1        1 0.16337060E-01 0.11288492E+03</pdfrwt>
<pdfrwt beam="1">  1       -1 0.50585945E-01 0.67101032E+02</pdfrwt>
<totfact> 0.13107428E+03</totfact>
</mgrwt>
</event>
<event>
 5    1  0.7114032E-003  0.1092017E+03  0.7546771E-02  0.1353342E+00
          2   -1    0    0  502    0  0.00000000000E+00  0.00000000000E+00  0.10268649471E+04  0.10268649471E+04  0.00000000000E+00 0. -1.
         -1   -1    0    0    0  501 -0.00000000000E+00 -0.00000000000E+00 -0.10016332733E+03  0.10016332733E+03  0.00000000000E+00 0.  1.
         25    1    1    2    0    0  0.38359590412E+02  0.65962084074E+02  0.12788621143E+03  0.19442823299E+03  0.12500000000E+03 0.  0.
          2    1    1    2  502    0  0.33269907458E+01  0.47386889866E+02  0.80992658672E+03  0.81131847142E+03  0.00000000000E+00 0. -1.
         -1    1    1    2    0  501 -0.41686581157E+02 -0.11334897394E+03 -0.11111178367E+02  0.12128157002E+03  0.00000000000E+00 0.  1.
<mgrwt>
<rscale>  0 0.72024067E+02</rscale>
<asrwt>0</asrwt>
<pdfrwt beam="1">  1        2 0.15797922E+00 0.47503539E+02</pdfrwt>
<pdfrwt beam="2">  1       -1 0.15409743E-01 0.10920168E+03</pdfrwt>
<totfact> 0.93824865E+02</totfact>
</mgrwt>
</event>
<event>
 5    1  0.7114032E-003  0.5576388E+02  0.7546771E-02  0.1493820E+00
          1   -1    0    0  502    0  0.00000000000E+00  0.00000000000E+00  0.11694245564E+04  0.11694245564E+04  0.00000000000E+00 0. -1.
         -3   -1    0    0    0  501 -0.00000000000E+00 -0.00000000000E+00 -0.32009260171E+02  0.32009260171E+02  0.00000000000E+00 0.  1.
         25    1    1    2    0    0 -0.26096095326E+02 -0.20278967556E+02  0.18461661851E+03  0.22538974810E+03  0.12500000000E+03 0.  0.
          1    1    1    2  502    0  0.56013125091E+02  0.98871508741E+01  0.94026475971E+03  0.94198356901E+03  0.00000000000E+00 0. -1.
         -3    1    1    2    0  501 -0.29917029765E+02  0.10391816682E+02  0.12533918026E+02  0.34060499482E+02  0.00000000000E+00 0.  1.
<mgrwt>
<rscale>  0 0.42024615E+02</rscale>
<asrwt>0</asrwt>
<pdfrwt beam="1">  1        1 0.17991144E+00 0.55763882E+02</pdfrwt>
<pdfrwt beam="2">  1       -3 0.49245025E-02 0.31670468E+02</pdfrwt>
<totfact> 0.12812105E+03</totfact>
</mgrwt>
</event>
<event>
 5    1  0.7114032E-003  0.1697781E+03  0.7546771E-02  0.1311853E+00
          1   -1    0    0  502    0 -0.00000000000E+00  0.00000000000E+00  0.66788817478E+02  0.66788817478E+02  0.00000000000E+00 0. -1.
          2   -1    0    0  501    0  0.00000000000E+00 -0.00000000000E+00 -0.16309033992E+04  0.16309033992E+04  0.00000000000E+00 0. -1.
         25    1    1    2    0    0  0.53871082193E+02 -0.17872360695E+03 -0.49759658278E+03  0.54595932117E+03  0.12500000000E+03 0.  0.
          2    1    1    2  501    0 -0.41790134173E+02  0.13616734358E+02 -0.94585916647E+03  0.94687982002E+03  0.00000000000E+00 0. -1.
          1    1    1    2  502    0 -0.12080948019E+02  0.16510687259E+03 -0.12065883246E+03  0.20485307548E+03  0.00000000000E+00 0. -1.
<mgrwt>
<rscale>  0 0.86383950E+02</rscale>
<asrwt>0</asrwt>
<pdfrwt beam="2">  1        2 0.25090823E+00 0.43952597E+02</pdfrwt>
<pdfrwt beam="1">  1        1 0.10275202E-01 0.16977806E+03</pdfrwt>
<totfact> 0.11170310E+03</totfact>
</mgrwt>
</event>
<event>
 5    1  0.7114032E-003  0.9194533E+02  0.7546771E-02  0.1417983E+00
         -2   -1    0    0    0  501 -0.00000000000E+00  0.00000000000E+00  0.34025076042E+03  0.34025076042E+03  0.00000000000E+00 0.  1.
          2   -1    0    0  502    0  0.00000000000E+00 -0.00000000000E+00 -0.23547128848E+03  0.23547128848E+03  0.00000000000E+00 0. -1.
         25    1    1    2    0    0 -0.96681371964E+02 -0.54923188282E+01 -0.96590040914E+01  0.15841638050E+03  0.12500000000E+03 0.  0.
          2    1    1    2  502    0  0.84372325273E+02  0.36584866556E+02 -0.13625844671E+03  0.16438827827E+03  0.00000000000E+00 0. -1.
         -2    1    1    2    0  501  0.12309046691E+02 -0.31092547728E+02  0.25069692275E+03  0.25291739013E+03  0.00000000000E+00 0.  1.
<mgrwt>
<rscale>  0 0.55449859E+02</rscale>
<asrwt>0</asrwt>
<pdfrwt beam="2">  1        2 0.36226352E-01 0.91945326E+02</pdfrwt>
<pdfrwt beam="1">  1       -2 0.52346271E-01 0.33440382E+02</pdfrwt>
<totfact> 0.49369192E+02</totfact>
</mgrwt>
</event>
<event>
 5    1  0.7114032E-003  0.4017431E+03  0.7546771E-02  0.1137101E+00
         -3   -1    0    0    0  501 -0.00000000000E+00  0.00000000000E+00  0.25037382370E+03  0.25037382370E+03  0.00000000000E+00 0.  1.
          1   -1    0    0  502    0  0.00000000000E+00 -0.00000000000E+00 -0.24413544905E+04  0.24413544905E+04  0.00000000000E+00 0. -1.
         25    1    1    2    0    0 -0.29433344248E+03  0.35426685229E+03 -0.14673356781E+04  0.15429958425E+04  0.12500000000E+03 0.  0.
          1    1    1    2  502    0  0.24714026463E+03 -0.24846237397E+03 -0.88398591822E+03  0.95091690767E+03  0.00000000000E+00 0. -1.
         -3    1    1    2    0  501  0.47193177845E+02 -0.10580447832E+03  0.16034092951E+03  0.19781556396E+03  0.00000000000E+00 0.  1.
<mgrwt>
<rscale>  0 0.21573805E+03</rscale>
<asrwt>0</asrwt>
<pdfrwt beam="2">  1        1 0.37559298E+00 0.40174305E+03</pdfrwt>
<pdfrwt beam="1">  1       -3 0.38519051E-01 0.11585242E+03</pdfrwt>
<totfact> 0.58390951E+00</totfact>
</mgrwt>
</event>
<event>
 5    1  0.7114032E-003  0.4249298E+02  0.7546771E-02  0.1532626E+00
          2   -1    0    0  502    0  0.00000000000E+00  0.00000000000E+00  0.65031698496E+02  0.65031698496E+02  0.00000000000E+00 0. -1.
         -1   -1    0    0    0  501 -0.00000000000E+00 -0.00000000000E+00 -0.24469880947E+03  0.24469880947E+03  0.00000000000E+00 0.  1.
         25    1    1    2    0    0  0.66556801346E+01  0.34582025484E+02 -0.29632381774E+02  0.13320395120E+03  0.12500000000E+03 0.  0.
          2    1    1    2  502    0 -0.31968481624E+02  0.10173507419E+01 -0.16420655599E+02  0.35953535990E+02  0.00000000000E+00 0. -1.
         -1    1    1    2    0  501  0.25312801490E+02 -0.35599376226E+02 -0.13361407361E+03  0.14057302078E+03  0.00000000000E+00 0.  1.
<mgrwt>
<rscale>  0 0.36866294E+02</rscale>
<asrwt>0</asrwt>
<pdfrwt beam="1">  1        2 0.10004877E-01 0.31984665E+02</pdfrwt>
<pdfrwt beam="2">  1       -1 0.37645971E-01 0.42492977E+02</pdfrwt>
<totfact> 0.42860778E+03</totfact>
</mgrwt>
</event>
<event>
 5    1  0.7114032E-003  0.1139896E+03  0.7546771E-02  0.1273416E+00
          2   -1    0    0  501    0  0.00000000000E+00  0.00000000000E+00  0.30060285579E+04  0.30060285579E+04  0.00000000000E+00 0. -1.
          1   -1    0    0  502    0 -0.00000000000E+00 -0.00000000000E+00 -0.18652556306E+03  0.18652556306E+03  0.00000000000E+00 0. -1.
         25    1    1    2    0    0  0.97020340346E+02  0.87965419887E+02  0.89132140998E+03  0.90952169707E+03  0.12500000000E+03 0.  0.
          2    1    1    2  501    0 -0.11647774385E+03  0.36859224357E+01  0.20915014575E+04  0.20947455686E+04  0.00000000000E+00 0. -1.
          1    1    1    2  502    0  0.19457403503E+02 -0.91651342323E+02 -0.16331987256E+03  0.18828685529E+03  0.00000000000E+00 0. -1.
<mgrwt>
<rscale>  0 0.10334476E+03</rscale>
<asrwt>0</asrwt>
<pdfrwt beam="1">  1        2 0.46246590E+00 0.11398962E+03</pdfrwt>
<pdfrwt beam="2">  1        1 0.28696243E-01 0.93693965E+02</pdfrwt>
<totfact> 0.50667683E+01</totfact>
</mgrwt>
</event>
<event>
 5    1  0.7114032E-003  0.5970853E+02  0.7546771E-02  0.1445370E+00
          1   -1    0    0  502    0  0.00000000000E+00  0.00000000000E+00  0.20637639829E+04  0.20637639829E+04  0.00000000000E+00 0. -1.
          1   -1    0    0  501    0 -0.00000000000E+00 -0.00000000000E+00 -0.21878810147E+03  0.21878810147E+03  0.00000000000E+00 0. -1.
         25    1    1    2    0    0  0.28944749259E+02  0.88526779262E+02  0.58110869809E+02  0.16636304381E+03  0.12500000000E+03 0.  0.
          1    1    1    2  501    0 -0.30124169419E+02 -0.29067102821E+02 -0.16154041252E+03  0.16687620240E+03  0.00000000000E+00 0. -1.
          1    1    1    2  502    0  0.11794201594E+01 -0.59459676441E+02  0.19484054241E+04  0.19493128381E+04  0.00000000000E+00 0. -1.
<mgrwt>
<rscale>  0 0.49994721E+02</rscale>
<asrwt>0</asrwt>
<pdfrwt beam="1">  1        1 0.31750214E+00 0.59708531E+02</pdfrwt>
<pdfrwt beam="2">  1        1 0.33659709E-01 0.41861224E+02</pdfrwt>
<totfact> 0.56611193E+01</totfact>
</mgrwt>
</event>
<event>
 5    1  0.7114032E-003  0.1009820E+03  0.7546771E-02  0.1441540E+00
          2   -1    0    0  501    0  0.00000000000E+00  0.00000000000E+00  0.88580598075E+03  0.88580598075E+03  0.00000000000E+00 0. -1.
          1   -1    0    0  502    0 -0.00000000000E+00 -0.00000000000E+00 -0.21567683391E+04  0.21567683391E+04  0.00000000000E+00 0. -1.
         25    1    1    2    0    0 -0.92800713996E+01  0.10622624138E+03 -0.46261724223E+03  0.49092753731E+03  0.12500000000E+03 0.  0.
          2    1    1    2  501    0 -0.23026332560E+02 -0.10878709725E+02  0.86995616243E+03  0.87032883606E+03  0.00000000000E+00 0. -1.
          1    1    1    2  502    0  0.32306403959E+02 -0.95347531653E+02 -0.16783012785E+04  0.16813179465E+04  0.00000000000E+00 0. -1.
<mgrwt>
<rscale>  0 0.50711830E+02</rscale>
<asrwt>0</asrwt>
<pdfrwt beam="1">  1        2 0.13627784E+00 0.25466808E+02</pdfrwt>
<pdfrwt beam="2">  1        1 0.33181051E+00 0.10098202E+03</pdfrwt>
<totfact> 0.14280391E+01</totfact>
</mgrwt>
</event>
<event>
 5    1  0.7114032E-003  0.9340616E+02  0.7546771E-02  0.1352840E+00
          2   -1    0    0  501    0  0.00000000000E+00  0.00000000000E+00  0.28550415204E+03  0.28550415204E+03  0.00000000000E+00 0. -1.
          1   -1    0    0  502    0 -0.00000000000E+00 -0.00000000000E+00 -0.46580151927E+03  0.46580151927E+03  0.00000000000E+00 0. -1.
         25    1    1    2    0    0  0.14171429733E+03 -0.22861531562E+02 -0.47543117785E+02  0.19619107967E+03  0.12500000000E+03 0.  0.
          2    1    1    2  501    0 -0.89471758320E+02  0.33307139179E+01  0.19925857644E+03  0.21844969553E+03  0.00000000000E+00 0. -1.
          1    1    1    2  502    0 -0.52242539012E+02  0.19530817644E+02 -0.33201282589E+03  0.33666489611E+03  0.00000000000E+00 0. -1.
<mgrwt>
<rscale>  0 0.72177781E+02</rscale>
<asrwt>0</asrwt>
<pdfrwt beam="1">  1        2 0.43923716E-01 0.93406156E+02</pdfrwt>
<pdfrwt beam="2">  1        1 0.71661772E-01 0.55773970E+02</pdfrwt>
<totfact> 0.79882229E+02</totfact>
</mgrwt>
</event>
<event>
 5    1  0.7114032E-003  0.5253293E+02  0.7546771E-02  0.1508024E+00
          1   -1    0    0  502    0  0.00000000000E+00  0.00000000000E+00  0.62213167492E+02  0.62213167492E+02  0.00000000000E+00 0. -1.
         -2   -1    0    0    0  501 -0.00000000000E+00 -0.00000000000E+00 -0.22284130629E+03  0.22284130629E+03  0.00000000000E+00 0.  1.
         25    1    1    2    0    0  0.34005635765E+02 -0.43987249735E+02 -0.97497235215E+02  0.16799396500E+03  0.12500000000E+03 0.  0.
          1    1    1    2  502    0 -0.49455877522E+01  0.53234906650E+02 -0.80030237866E+01  0.54059804975E+02  0.00000000000E+00 0. -1.
         -2    1    1    2    0  501 -0.29060048012E+02 -0.92476569146E+01 -0.55127879797E+02  0.63000703804E+02  0.00000000000E+00 0.  1.
<mgrwt>
<rscale>  0 0.40025539E+02</rscale>
<asrwt>0</asrwt>
<pdfrwt beam="1">  1        1 0.95712564E-02 0.52532928E+02</pdfrwt>
<pdfrwt beam="2">  1       -2 0.34283278E-01 0.30495992E+02</pdfrwt>
<totfact> 0.41242245E+03</totfact>
</mgrwt>
</event>
<event>
 5    1  0.7114032E-003  0.1109820E+03  0.7546771E-02  0.1327555E+00
          2   -1    0    0  502    0  0.00000000000E+00  0.00000000000E+00  0.18009166228E+03  0.18009166228E+03  0.00000000000E+00 0.  1.
          2   -1    0    0  501    0 -0.00000000000E+00 -0.00000000000E+00 -0.16035804920E+04  0.16035804920E+04  0.00000000000E+00 0. -1.
         25    1    1    2    0    0 -0.40925127628E+02  0.15689423323E+03 -0.86239434392E+03  0.88636317101E+03  0.12500000000E+03 0.  0.
          2    1    1    2  501    0 -0.71853812663E+01 -0.57989556007E+02 -0.70988227879E+03  0.71228313756E+03  0.00000000000E+00 0. -1.
          2    1    1    2  502    0  0.48110508895E+02 -0.98904677226E+02  0.14878779298E+03  0.18502584572E+03  0.00000000000E+00 0.  1.
<mgrwt>
<rscale>  0 0.80529582E+02</rscale>
<asrwt>0</asrwt>
<pdfrwt beam="1">  1        2 0.27706409E-01 0.11098199E+03</pdfrwt>
<pdfrwt beam="2">  1        2 0.24670470E+00 0.58433024E+02</pdfrwt>
<totfact> 0.39970872E+02</totfact>
</mgrwt>
</event>
<event>
 5    1  0.7114032E-003  0.7033701E+02  0.7546771E-02  0.1413360E+00
         -1   -1    0    0    0  501 -0.00000000000E+00  0.00000000000E+00  0.10823080446E+02  0.10823080446E+02  0.00000000000E+00 0.  1.
          1   -1    0    0  502    0  0.00000000000E+00 -0.00000000000E+00 -0.26914149696E+04  0.26914149696E+04  0.00000000000E+00 0. -1.
         25    1    1    2    0    0 -0.33141834032E+02  0.86462091404E+01 -0.10223962821E+04  0.10305786219E+04  0.12500000000E+03 0.  0.
          1    1    1    2  502    0  0.73781910890E+02 -0.28671701328E+02 -0.15744959907E+04  0.15764845263E+04  0.00000000000E+00 0. -1.
         -1    1    1    2    0  501 -0.40640076858E+02  0.20025492188E+02 -0.83699616309E+02  0.95174901916E+02  0.00000000000E+00 0.  1.
<mgrwt>
<rscale>  0 0.56450781E+02</rscale>
<asrwt>0</asrwt>
<pdfrwt beam="2">  1        1 0.41406424E+00 0.70337013E+02</pdfrwt>
<pdfrwt beam="1">  1       -1 0.16650877E-02 0.45306028E+02</pdfrwt>
<totfact> 0.10165721E+03</totfact>
</mgrwt>
</event>
<event>
 5    1  0.7114032E-003  0.4759501E+02  0.7546771E-02  0.1522972E+00
          1   -1    0    0  502    0  0.00000000000E+00  0.00000000000E+00  0.27085411309E+03  0.27085411309E+03  0.00000000000E+00 0. -1.
         -1   -1    0    0    0  501 -0.00000000000E+00 -0.00000000000E+00 -0.52864694897E+02  0.52864694897E+02  0.00000000000E+00 0.  1.
         25    1    1    2    0    0 -0.11402536222E+02 -0.28228463100E+02  0.68645152543E+02  0.14582188083E+03  0.12500000000E+03 0.  0.
          1    1    1    2  502    0 -0.18356590831E+02 -0.24281575838E+02  0.81980656944E+02  0.87449342280E+02  0.00000000000E+00 0. -1.
         -1    1    1    2    0  501  0.29759127053E+02  0.52510038938E+02  0.67363608704E+02  0.90447584876E+02  0.00000000000E+00 0.  1.
<mgrwt>
<rscale>  0 0.38062651E+02</rscale>
<asrwt>0</asrwt>
<pdfrwt beam="1">  1        1 0.41669863E-01 0.30439437E+02</pdfrwt>
<pdfrwt beam="2">  1       -1 0.81330301E-02 0.47595013E+02</pdfrwt>
<totfact> 0.72331647E+03</totfact>
</mgrwt>
</event>
<event>
 5    1  0.7114032E-003  0.1446356E+03  0.7546771E-02  0.1337670E+00
          1   -1    0    0  502    0  0.00000000000E+00  0.00000000000E+00  0.20098797541E+04  0.20098797541E+04  0.00000000000E+00 0. -1.
         -2   -1    0    0    0  501 -0.00000000000E+00 -0.00000000000E+00 -0.31827892437E+02  0.31827892437E+02  0.00000000000E+00 0.  1.
         25    1    1    2    0    0 -0.66968922060E+02 -0.16771332875E+03  0.44728717664E+03  0.49830052734E+03  0.12500000000E+03 0.  0.
          1    1    1    2  502    0  0.49150327908E+02  0.13074967547E+03  0.13834622145E+04  0.13904959300E+04  0.00000000000E+00 0. -1.
         -2    1    1    2    0  501  0.17818594152E+02  0.36963653282E+02  0.14730247046E+03  0.15291118915E+03  0.00000000000E+00 0.  1.
<mgrwt>
<rscale>  0 0.77039081E+02</rscale>
<asrwt>0</asrwt>
<pdfrwt beam="1">  1        1 0.30921217E+00 0.14463558E+03</pdfrwt>
<pdfrwt beam="2">  1       -2 0.48966004E-02 0.41034302E+02</pdfrwt>
<totfact> 0.52983844E+02</totfact>
</mgrwt>
</event>
<event>
 5    1  0.7114032E-003  0.8174321E+02  0.7546771E-02  0.1357742E+00
         -1   -1    0    0    0  501 -0.00000000000E+00  0.00000000000E+00  0.52038927845E+02  0.52038927845E+02  0.00000000000E+00 0.  1.
          2   -1    0    0  502    0  0.00000000000E+00 -0.00000000000E+00 -0.51789091317E+03  0.51789091317E+03  0.00000000000E+00 0. -1.
         25    1    1    2    0    0  0.77460551322E+02  0.64067877609E+02 -0.38437754146E+03  0.41650441094E+03  0.12500000000E+03 0.  0.
          2    1    1    2  502    0 -0.16381407885E+02 -0.66832033278E+02 -0.45322723783E+02  0.82395512545E+02  0.00000000000E+00 0. -1.
         -1    1    1    2    0  501 -0.61079143437E+02  0.27641556697E+01 -0.36151720079E+02  0.71029917529E+02  0.00000000000E+00 0.  1.
<mgrwt>
<rscale>  0 0.70695938E+02</rscale>
<asrwt>0</asrwt>
<pdfrwt beam="2">  1        2 0.79675527E-01 0.81743215E+02</pdfrwt>
<pdfrwt beam="1">  1       -1 0.80059887E-02 0.61141658E+02</pdfrwt>
<totfact> 0.53494591E+03</totfact>
</mgrwt>
</event>
<event>
 5    1  0.7114032E-003  0.6080647E+02  0.7546771E-02  0.1513840E+00
          1   -1    0    0  502    0  0.00000000000E+00  0.00000000000E+00  0.93907536861E+03  0.93907536861E+03  0.00000000000E+00 0. -1.
         -2   -1    0    0    0  501 -0.00000000000E+00 -0.00000000000E+00 -0.14201884551E+02  0.14201884551E+02  0.00000000000E+00 0.  1.
         25    1    1    2    0    0 -0.48164226659E+02  0.18201831826E+01  0.49029799487E+03  0.50827180678E+03  0.12500000000E+03 0.  0.
          1    1    1    2  502    0 -0.17207594722E+02  0.18587114728E+02  0.16146596242E+03  0.16344062888E+03  0.00000000000E+00 0. -1.
         -2    1    1    2    0  501  0.65371821381E+02 -0.20407297911E+02  0.27310952677E+03  0.28156481750E+03  0.00000000000E+00 0.  1.
<mgrwt>
<rscale>  0 0.39245328E+02</rscale>
<asrwt>0</asrwt>
<pdfrwt beam="1">  1        1 0.14447308E+00 0.25329472E+02</pdfrwt>
<pdfrwt beam="2">  1       -2 0.21849061E-02 0.60806471E+02</pdfrwt>
<totfact> 0.10211617E+04</totfact>
</mgrwt>
</event>
<event>
 5    1  0.7114032E-003  0.7756599E+02  0.7546771E-02  0.1402536E+00
          2   -1    0    0  501    0  0.00000000000E+00  0.00000000000E+00  0.42794208316E+03  0.42794208316E+03  0.00000000000E+00 0. -1.
          1   -1    0    0  502    0 -0.00000000000E+00 -0.00000000000E+00 -0.13958439605E+04  0.13958439605E+04  0.00000000000E+00 0. -1.
         25    1    1    2    0    0 -0.39634184380E+02 -0.57182429801E+02 -0.34008270054E+03  0.36894707216E+03  0.12500000000E+03 0.  0.
          2    1    1    2  501    0 -0.57298433296E-01  0.77775715411E+02  0.40936675663E+03  0.41668958065E+03  0.00000000000E+00 0. -1.
          1    1    1    2  502    0  0.39691482813E+02 -0.20593285610E+02 -0.10371859334E+04  0.10381493908E+04  0.00000000000E+00 0. -1.
<mgrwt>
<rscale>  0 0.58893296E+02</rscale>
<asrwt>0</asrwt>
<pdfrwt beam="1">  1        2 0.65837245E-01 0.77565986E+02</pdfrwt>
<pdfrwt beam="2">  1        1 0.21474522E+00 0.44715738E+02</pdfrwt>
<totfact> 0.10126871E+02</totfact>
</mgrwt>
</event>
<event>
 5    1  0.7114032E-003  0.1138878E+03  0.7546771E-02  0.1385936E+00
         -1   -1    0    0    0  501 -0.00000000000E+00  0.00000000000E+00  0.14645434717E+03  0.14645434717E+03  0.00000000000E+00 0.  1.
          2   -1    0    0  502    0  0.00000000000E+00 -0.00000000000E+00 -0.92351583525E+03  0.92351583525E+03  0.00000000000E+00 0. -1.
         25    1    1    2    0    0  0.44964844550E+02  0.10578100746E+03 -0.87957548430E+03  0.89581777799E+03  0.12500000000E+03 0.  0.
          2    1    1    2  502    0 -0.10299546616E+02 -0.10306600177E+03  0.89936792268E+02  0.13717619321E+03  0.00000000000E+00 0. -1.
         -1    1    1    2    0  501 -0.34665297934E+02 -0.27150056928E+01  0.12577203955E+02  0.36976211219E+02  0.00000000000E+00 0.  1.
<mgrwt>
<rscale>  0 0.62928897E+02</rscale>
<asrwt>0</asrwt>
<pdfrwt beam="2">  1        2 0.14207936E+00 0.11388784E+03</pdfrwt>
<pdfrwt beam="1">  1       -1 0.22531438E-01 0.34771456E+02</pdfrwt>
<totfact> 0.54125514E+02</totfact>
</mgrwt>
</event>
<event>
 5    1  0.7114032E-003  0.8930747E+02  0.7546771E-02  0.1389985E+00
          1   -1    0    0  502    0  0.00000000000E+00  0.00000000000E+00  0.25661749032E+04  0.25661749032E+04  0.00000000000E+00 0. -1.
         -2   -1    0    0    0  501 -0.00000000000E+00 -0.00000000000E+00 -0.29251168228E+03  0.29251168228E+03  0.00000000000E+00 0.  1.
         25    1    1    2    0    0  0.23813747292E+02 -0.78072922636E+02 -0.53057772036E+02  0.15843800990E+03  0.12500000000E+03 0.  0.
          1    1    1    2  502    0  0.41206171339E+02  0.12000536076E+02  0.25017866883E+04  0.25021547904E+04  0.00000000000E+00 0. -1.
         -2    1    1    2    0  501 -0.65019918631E+02  0.66072386560E+02 -0.17506569527E+03  0.19809378523E+03  0.00000000000E+00 0.  1.
<mgrwt>
<rscale>  0 0.61910459E+02</rscale>
<asrwt>0</asrwt>
<pdfrwt beam="1">  1        1 0.39479613E+00 0.42918078E+02</pdfrwt>
<pdfrwt beam="2">  1       -2 0.45001799E-01 0.89307470E+02</pdfrwt>
<totfact> 0.79671781E+00</totfact>
</mgrwt>
</event>
<event>
 5    1  0.7114032E-003  0.7544447E+02  0.7546771E-02  0.1367039E+00
          2   -1    0    0  501    0  0.00000000000E+00  0.00000000000E+00  0.54872212822E+03  0.54872212822E+03  0.00000000000E+00 0. -1.
          2   -1    0    0  502    0 -0.00000000000E+00 -0.00000000000E+00 -0.10411927907E+04  0.10411927907E+04  0.00000000000E+00 0. -1.
         25    1    1    2    0    0 -0.10060947829E+03  0.16291955572E+02 -0.20676656747E+03  0.26223102098E+03  0.12500000000E+03 0.  0.
          2    1    1    2  501    0  0.66830510030E+02  0.34843886054E+02  0.51709006590E+03  0.52255387255E+03  0.00000000000E+00 0. -1.
          2    1    1    2  502    0  0.33778968261E+02 -0.51135841626E+02 -0.80279416094E+03  0.80513002542E+03  0.00000000000E+00 0. -1.
<mgrwt>
<rscale>  0 0.67997352E+02</rscale>
<asrwt>0</asrwt>
<pdfrwt beam="1">  1        2 0.84418789E-01 0.75444467E+02</pdfrwt>
<pdfrwt beam="2">  1        2 0.16018351E+00 0.61285341E+02</pdfrwt>
<totfact> 0.23954460E+02</totfact>
</mgrwt>
</event>
<event>
 5    1  0.7114032E-003  0.7603404E+02  0.7546771E-02  0.1352008E+00
          1   -1    0    0  502    0 -0.00000000000E+00  0.00000000000E+00  0.12901035946E+04  0.12901035946E+04  0.00000000000E+00 0. -1.
          2   -1    0    0  501    0  0.00000000000E+00 -0.00000000000E+00 -0.46351922203E+03  0.46351922203E+03  0.00000000000E+00 0. -1.
         25    1    1    2    0    0  0.79135072094E+02 -0.97579898661E+02  0.17936661339E+03  0.25215387813E+03  0.12500000000E+03 0.  0.
          2    1    1    2  501    0 -0.64599601997E+02  0.24256995419E+02 -0.42302649644E+03  0.42861746009E+03  0.00000000000E+00 0. -1.
          1    1    1    2  502    0 -0.14535470097E+02  0.73322903242E+02  0.10702442557E+04  0.10728514784E+04  0.00000000000E+00 0. -1.
<mgrwt>
<rscale>  0 0.72433626E+02</rscale>
<asrwt>0</asrwt>
<pdfrwt beam="2">  1        2 0.71310650E-01 0.69003698E+02</pdfrwt>
<pdfrwt beam="1">  1        1 0.19847748E+00 0.76034043E+02</pdfrwt>
<totfact> 0.10372025E+02</totfact>
</mgrwt>
</event>
<event>
 5    1  0.7114032E-003  0.8553208E+02  0.7546771E-02  0.1358727E+00
          2   -1    0    0  502    0  0.00000000000E+00  0.00000000000E+00  0.47402916278E+03  0.47402916278E+03  0.00000000000E+00 0. -1.
         -1   -1    0    0    0  501 -0.00000000000E+00 -0.00000000000E+00 -0.45318401503E+03  0.45318401503E+03  0.00000000000E+00 0.  1.
         25    1    1    2    0    0 -0.60927313084E+02  0.90087117097E+02 -0.17689648311E+03  0.24237407428E+03  0.12500000000E+03 0.  0.
          2    1    1    2  502    0  0.57537853265E+02 -0.69046227558E+01  0.43218505608E+03  0.43605297966E+03  0.00000000000E+00 0. -1.
         -1    1    1    2    0  501  0.33894598188E+01 -0.83182494341E+02 -0.23444342522E+03  0.24878612388E+03  0.00000000000E+00 0.  1.
<mgrwt>
<rscale>  0 0.70403410E+02</rscale>
<asrwt>0</asrwt>
<pdfrwt beam="1">  1        2 0.72927564E-01 0.57950655E+02</pdfrwt>
<pdfrwt beam="2">  1       -1 0.69720618E-01 0.85532082E+02</pdfrwt>
<totfact> 0.17207496E+02</totfact>
</mgrwt>
</event>
<event>
 5    1  0.7114032E-003  0.1682688E+03  0.7546771E-02  0.1272015E+00
          1   -1    0    0  501    0  0.00000000000E+00  0.00000000000E+00  0.31615603725E+03  0.31615603725E+03  0.00000000000E+00 0. -1.
          1   -1    0    0  502    0 -0.00000000000E+00 -0.00000000000E+00 -0.56845934546E+03  0.56845934546E+03  0.00000000000E+00 0. -1.
         25    1    1    2    0    0 -0.65628902558E+02 -0.17712170736E+03 -0.33856515904E+03  0.40734582235E+03  0.12500000000E+03 0.  0.
          1    1    1    2  501    0  0.59915782415E+02  0.23424478162E+02  0.24674009131E+03  0.25498878371E+03  0.00000000000E+00 0. -1.
          1    1    1    2  502    0  0.57131201428E+01  0.15369722919E+03 -0.16047824048E+03  0.22228077666E+03  0.00000000000E+00 0. -1.
<mgrwt>
<rscale>  0 0.10404361E+03</rscale>
<asrwt>0</asrwt>
<pdfrwt beam="1">  1        1 0.48639391E-01 0.64332007E+02</pdfrwt>
<pdfrwt beam="2">  1        1 0.87455283E-01 0.16826884E+03</pdfrwt>
<totfact> 0.37962703E+02</totfact>
</mgrwt>
</event>
<event>
 5    1  0.7114032E-003  0.3155873E+02  0.7546771E-02  0.1598167E+00
          2   -1    0    0  501    0  0.00000000000E+00  0.00000000000E+00  0.47177059836E+03  0.47177059836E+03  0.00000000000E+00 0.  1.
          1   -1    0    0  502    0 -0.00000000000E+00 -0.00000000000E+00 -0.13340295196E+04  0.13340295196E+04  0.00000000000E+00 0. -1.
         25    1    1    2    0    0 -0.39434092183E+02  0.38065776313E+02 -0.21594516353E+03  0.25546303961E+03  0.12500000000E+03 0.  0.
          2    1    1    2  501    0  0.29383500432E+02 -0.11391740941E+02  0.45127709691E+03  0.45237614886E+03  0.00000000000E+00 0.  1.
          1    1    1    2  502    0  0.10050591750E+02 -0.26674035372E+02 -0.10975908546E+04  0.10979609295E+04  0.00000000000E+00 0. -1.
<mgrwt>
<rscale>  0 0.29992876E+02</rscale>
<asrwt>0</asrwt>
<pdfrwt beam="1">  1        2 0.72580093E-01 0.31558734E+02</pdfrwt>
<pdfrwt beam="2">  1        1 0.20523531E+00 0.28504711E+02</pdfrwt>
<totfact> 0.10515579E+02</totfact>
</mgrwt>
</event>
<event>
 5    1  0.7114032E-003  0.5138519E+02  0.7546771E-02  0.1535202E+00
          1   -1    0    0  502    0  0.00000000000E+00  0.00000000000E+00  0.39178188440E+02  0.39178188440E+02  0.00000000000E+00 0. -1.
         -1   -1    0    0    0  501 -0.00000000000E+00 -0.00000000000E+00 -0.32748172966E+03  0.32748172966E+03  0.00000000000E+00 0.  1.
         25    1    1    2    0    0 -0.11331428953E+02 -0.30793905058E+02 -0.18383854615E+03  0.22471821671E+03  0.12500000000E+03 0.  0.
          1    1    1    2  502    0 -0.56067497855E+01 -0.25394648337E+02 -0.50420196080E+01  0.26490484500E+02  0.00000000000E+00 0. -1.
         -1    1    1    2    0  501  0.16938178739E+02  0.56188553395E+02 -0.99422975464E+02  0.11545121689E+03  0.00000000000E+00 0.  1.
<mgrwt>
<rscale>  0 0.36555916E+02</rscale>
<asrwt>0</asrwt>
<pdfrwt beam="1">  1        1 0.60274137E-02 0.26006226E+02</pdfrwt>
<pdfrwt beam="2">  1       -1 0.50381804E-01 0.51385194E+02</pdfrwt>
<totfact> 0.42554076E+03</totfact>
</mgrwt>
</event>
<event>
 5    1  0.7114032E-003  0.1809731E+03  0.7546771E-02  0.1295234E+00
          2   -1    0    0  501    0  0.00000000000E+00  0.00000000000E+00  0.12458223998E+04  0.12458223998E+04  0.00000000000E+00 0. -1.
          3   -1    0    0  502    0 -0.00000000000E+00 -0.00000000000E+00 -0.15120424468E+03  0.15120424468E+03  0.00000000000E+00 0. -1.
         25    1    1    2    0    0  0.20546392245E+02 -0.15984748628E+03  0.35398456782E+03  0.40853818347E+03  0.12500000000E+03 0.  0.
          2    1    1    2  501    0  0.46214928822E+02 -0.13038589839E+02  0.79414007550E+03  0.79559052532E+03  0.00000000000E+00 0. -1.
          3    1    1    2  502    0 -0.66761321067E+02  0.17288607612E+03 -0.53506488215E+02  0.19289793567E+03  0.00000000000E+00 0. -1.
<mgrwt>
<rscale>  0 0.93220973E+02</rscale>
<asrwt>0</asrwt>
<pdfrwt beam="1">  1        2 0.19166498E+00 0.48019001E+02</pdfrwt>
<pdfrwt beam="2">  1        3 0.23262192E-01 0.18097315E+03</pdfrwt>
<totfact> 0.22187714E+02</totfact>
</mgrwt>
</event>
<event>
 5    1  0.7114032E-003  0.2979270E+02  0.7546771E-02  0.1612840E+00
          2   -1    0    0  501    0  0.00000000000E+00  0.00000000000E+00  0.20511527369E+03  0.20511527369E+03  0.00000000000E+00 0. -1.
          3   -1    0    0  502    0 -0.00000000000E+00 -0.00000000000E+00 -0.13788841005E+03  0.13788841005E+03  0.00000000000E+00 0. -1.
         25    1    1    2    0    0 -0.31636817500E+02  0.76097275954E+00  0.12176190669E+03  0.17734832737E+03  0.12500000000E+03 0.  0.
          2    1    1    2  501    0  0.13163775655E+02 -0.24327179757E+02  0.49877575272E+02  0.57033930072E+02  0.00000000000E+00 0. -1.
          3    1    1    2  502    0  0.18473041845E+02  0.23566206997E+02 -0.10441261832E+03  0.10862142630E+03  0.00000000000E+00 0. -1.
<mgrwt>
<rscale>  0 0.28706751E+02</rscale>
<asrwt>0</asrwt>
<pdfrwt beam="1">  1        2 0.31556196E-01 0.27660381E+02</pdfrwt>
<pdfrwt beam="2">  1        3 0.21213602E-01 0.29792704E+02</pdfrwt>
<totfact> 0.16093563E+03</totfact>
</mgrwt>
</event>
<event>
 5    1  0.7114032E-003  0.6769689E+02  0.7546771E-02  0.1522480E+00
          1   -1    0    0  502    0  0.00000000000E+00  0.00000000000E+00  0.16537341508E+03  0.16537341508E+03  0.00000000000E+00 0. -1.
         -2   -1    0    0    0  501 -0.00000000000E+00 -0.00000000000E+00 -0.95946903013E+02  0.95946903013E+02  0.00000000000E+00 0.  1.
         25    1    1    2    0    0 -0.57231188933E+02 -0.18900163988E+02  0.72442925085E+02  0.15654265419E+03  0.12500000000E+03 0.  0.
          1    1    1    2  502    0  0.32145988328E+00 -0.21468588624E+02  0.21918304310E+02  0.30682498232E+02  0.00000000000E+00 0. -1.
         -2    1    1    2    0  501  0.56909729049E+02  0.40368752612E+02 -0.24934717327E+02  0.74095165673E+02  0.00000000000E+00 0.  1.
<mgrwt>
<rscale>  0 0.38125051E+02</rscale>
<asrwt>0</asrwt>
<pdfrwt beam="1">  1        1 0.25442064E-01 0.21470995E+02</pdfrwt>
<pdfrwt beam="2">  1       -2 0.14761062E-01 0.67696886E+02</pdfrwt>
<totfact> 0.49971670E+03</totfact>
</mgrwt>
</event>
<event>
 5    1  0.7114032E-003  0.7173763E+02  0.7546771E-02  0.1485757E+00
          2   -1    0    0  502    0  0.00000000000E+00  0.00000000000E+00  0.32631375130E+03  0.32631375130E+03  0.00000000000E+00 0. -1.
          2   -1    0    0  501    0 -0.00000000000E+00 -0.00000000000E+00 -0.55204061755E+03  0.55204061755E+03  0.00000000000E+00 0.  1.
         25    1    1    2    0    0  0.94204128984E+01  0.86025213935E+02 -0.24766168972E+02  0.15403715376E+03  0.12500000000E+03 0.  0.
          2    1    1    2  501    0  0.11354983065E+02 -0.70323937353E+02 -0.45923822589E+03  0.46473017970E+03  0.00000000000E+00 0.  1.
          2    1    1    2  502    0 -0.20775395963E+02 -0.15701276582E+02  0.25827752860E+03  0.25958703540E+03  0.00000000000E+00 0. -1.
<mgrwt>
<rscale>  0 0.43221963E+02</rscale>
<asrwt>0</asrwt>
<pdfrwt beam="1">  1        2 0.50202116E-01 0.26041259E+02</pdfrwt>
<pdfrwt beam="2">  1        2 0.84929324E-01 0.71737625E+02</pdfrwt>
<totfact> 0.87008352E+02</totfact>
</mgrwt>
</event>
<event>
 5    1  0.7114032E-003  0.3055475E+03  0.7546771E-02  0.1216084E+00
         -1   -1    0    0    0  501  0.00000000000E+00  0.00000000000E+00  0.36048117479E+03  0.36048117479E+03  0.00000000000E+00 0. -1.
         -3   -1    0    0    0  502 -0.00000000000E+00 -0.00000000000E+00 -0.75300301336E+03  0.75300301336E+03  0.00000000000E+00 0.  1.
         25    1    1    2    0    0  0.85218194900E+00  0.42742850719E+01  0.98623838630E+02  0.15928169158E+03  0.12500000000E+03 0.  0.
         -1    1    1    2    0  501 -0.30312118932E+03 -0.48914441881E+02  0.70310779322E+02  0.31498997402E+03  0.00000000000E+00 0. -1.
         -3    1    1    2    0  502  0.30226900738E+03  0.44640156809E+02 -0.56145645652E+03  0.63921252256E+03  0.00000000000E+00 0.  1.
<mgrwt>
<rscale>  0 0.13797236E+03</rscale>
<asrwt>0</asrwt>
<pdfrwt beam="1">  1       -1 0.55458642E-01 0.62302486E+02</pdfrwt>
<pdfrwt beam="2">  1       -3 0.11584662E+00 0.30554754E+03</pdfrwt>
<totfact> 0.10059082E+01</totfact>
</mgrwt>
</event>
<event>
 5    1  0.7114032E-003  0.7563787E+02  0.7546771E-02  0.1385489E+00
          2   -1    0    0  502    0  0.00000000000E+00  0.00000000000E+00  0.20300738579E+04  0.20300738579E+04  0.00000000000E+00 0. -1.
         -1   -1    0    0    0  501 -0.00000000000E+00 -0.00000000000E+00 -0.24192902597E+02  0.24192902597E+02  0.00000000000E+00 0.  1.
         25    1    1    2    0    0 -0.28894106540E+02 -0.25831966700E+02  0.11631609225E+04  0.11705001031E+04  0.12500000000E+03 0.  0.
          2    1    1    2  502    0  0.12467290117E+02 -0.51044353640E+02  0.78371434820E+03  0.78547383084E+03  0.00000000000E+00 0. -1.
         -1    1    1    2    0  501  0.16426816423E+02  0.76876320340E+02  0.59005684655E+02  0.98292826535E+02  0.00000000000E+00 0.  1.
<mgrwt>
<rscale>  0 0.63042677E+02</rscale>
<asrwt>0</asrwt>
<pdfrwt beam="1">  1        2 0.31231892E+00 0.52544832E+02</pdfrwt>
<pdfrwt beam="2">  1       -1 0.37219866E-02 0.75637869E+02</pdfrwt>
<totfact> 0.23538937E+03</totfact>
</mgrwt>
</event>
<event>
 5    1  0.7114032E-003  0.1120799E+03  0.7546771E-02  0.1403429E+00
          2   -1    0    0  501    0  0.00000000000E+00  0.00000000000E+00  0.19717478297E+03  0.19717478297E+03  0.00000000000E+00 0. -1.
          1   -1    0    0  502    0 -0.00000000000E+00 -0.00000000000E+00 -0.43484538964E+03  0.43484538964E+03  0.00000000000E+00 0. -1.
         25    1    1    2    0    0  0.11155433196E+03  0.34336461507E+02  0.99582454174E+00  0.17102442292E+03  0.12500000000E+03 0.  0.
          2    1    1    2  501    0  0.37055704729E+00 -0.30726648429E+02  0.99832319698E+02  0.10445456569E+03  0.00000000000E+00 0. -1.
          1    1    1    2  502    0 -0.11192488901E+03 -0.36098130777E+01 -0.33849875091E+03  0.35654118401E+03  0.00000000000E+00 0. -1.
<mgrwt>
<rscale>  0 0.58686372E+02</rscale>
<asrwt>0</asrwt>
<pdfrwt beam="1">  1        2 0.30334582E-01 0.30728883E+02</pdfrwt>
<pdfrwt beam="2">  1        1 0.66899290E-01 0.11207990E+03</pdfrwt>
<totfact> 0.12320063E+03</totfact>
</mgrwt>
</event>
<event>
 5    1  0.7114032E-003  0.8978890E+02  0.7546771E-02  0.1374468E+00
          2   -1    0    0  502    0  0.00000000000E+00  0.00000000000E+00  0.55915870950E+03  0.55915870950E+03  0.00000000000E+00 0. -1.
          2   -1    0    0  501    0 -0.00000000000E+00 -0.00000000000E+00 -0.26803322306E+04  0.26803322306E+04  0.00000000000E+00 0. -1.
         25    1    1    2    0    0  0.70841043096E+02 -0.21415333373E+02  0.13061026227E+03  0.19534868953E+03  0.12500000000E+03 0.  0.
          2    1    1    2  501    0  0.20538811968E+02  0.43855250596E+02 -0.26421510004E+04  0.26425947541E+04  0.00000000000E+00 0. -1.
          2    1    1    2  502    0 -0.91379855065E+02 -0.22439917223E+02  0.39036721699E+03  0.40154749644E+03  0.00000000000E+00 0. -1.
<mgrwt>
<rscale>  0 0.65940594E+02</rscale>
<asrwt>0</asrwt>
<pdfrwt beam="1">  1        2 0.86024416E-01 0.89788896E+02</pdfrwt>
<pdfrwt beam="2">  1        2 0.41235881E+00 0.48426499E+02</pdfrwt>
<totfact> 0.35645204E+01</totfact>
</mgrwt>
</event>
<event>
 5    1  0.7114032E-003  0.5616865E+02  0.7546771E-02  0.1446591E+00
         -2   -1    0    0    0  501 -0.00000000000E+00  0.00000000000E+00  0.38380485489E+02  0.38380485489E+02  0.00000000000E+00 0.  1.
          2   -1    0    0  502    0  0.00000000000E+00 -0.00000000000E+00 -0.42055682937E+03  0.42055682937E+03  0.00000000000E+00 0. -1.
         25    1    1    2    0    0  0.17951952452E+02  0.51278828579E+02 -0.14689994148E+03  0.20039057778E+03  0.12500000000E+03 0.  0.
          2    1    1    2  502    0 -0.53537623547E+02 -0.25233382147E+02 -0.16785529087E+03  0.17798426724E+03  0.00000000000E+00 0. -1.
         -2    1    1    2    0  501  0.35585671094E+02 -0.26045446431E+02 -0.67421111533E+02  0.80562469844E+02  0.00000000000E+00 0.  1.
<mgrwt>
<rscale>  0 0.49769175E+02</rscale>
<asrwt>0</asrwt>
<pdfrwt beam="2">  1        2 0.64701048E-01 0.56168650E+02</pdfrwt>
<pdfrwt beam="1">  1       -2 0.59046903E-02 0.44098813E+02</pdfrwt>
<totfact> 0.98242025E+03</totfact>
</mgrwt>
</event>
<event>
 5    1  0.7114032E-003  0.1705325E+03  0.7546771E-02  0.1323018E+00
          2   -1    0    0  501    0  0.00000000000E+00  0.00000000000E+00  0.15427397737E+04  0.15427397737E+04  0.00000000000E+00 0.  1.
          1   -1    0    0  502    0 -0.00000000000E+00 -0.00000000000E+00 -0.42701989961E+03  0.42701989961E+03  0.00000000000E+00 0. -1.
         25    1    1    2    0    0 -0.19424018186E+03  0.48539495613E+02  0.50468214115E+03  0.55714844923E+03  0.12500000000E+03 0.  0.
          2    1    1    2  501    0  0.16091924680E+03 -0.27163671158E+02  0.10042436821E+04  0.10174174374E+04  0.00000000000E+00 0.  1.
          1    1    1    2  502    0  0.33320935057E+02 -0.21375824455E+02 -0.39320594912E+03  0.39519378666E+03  0.00000000000E+00 0. -1.
<mgrwt>
<rscale>  0 0.82164723E+02</rscale>
<asrwt>0</asrwt>
<pdfrwt beam="1">  1        2 0.23734458E+00 0.17053248E+03</pdfrwt>
<pdfrwt beam="2">  1        1 0.65695370E-01 0.39588011E+02</pdfrwt>
<totfact> 0.10560100E+02</totfact>
</mgrwt>
</event>
<event>
 5    1  0.7114032E-003  0.1111026E+03  0.7546771E-02  0.1457293E+00
         -1   -1    0    0    0  501 -0.00000000000E+00  0.00000000000E+00  0.36034856755E+02  0.36034856755E+02  0.00000000000E+00 0.  1.
          1   -1    0    0  502    0  0.00000000000E+00 -0.00000000000E+00 -0.67891957650E+03  0.67891957650E+03  0.00000000000E+00 0. -1.
         25    1    1    2    0    0  0.10232387078E+02 -0.11030965540E+03 -0.37354793960E+03  0.40918942435E+03  0.12500000000E+03 0.  0.
          1    1    1    2  502    0  0.10336993169E+02  0.11157953017E+03 -0.26003996197E+03  0.28315654116E+03  0.00000000000E+00 0. -1.
         -1    1    1    2    0  501 -0.20569380247E+02 -0.12698747701E+01 -0.92968181792E+01  0.22608467749E+02  0.00000000000E+00 0.  1.
<mgrwt>
<rscale>  0 0.47850421E+02</rscale>
<asrwt>0</asrwt>
<pdfrwt beam="2">  1        1 0.10444916E+00 0.11110261E+03</pdfrwt>
<pdfrwt beam="1">  1       -1 0.55438247E-02 0.20608542E+02</pdfrwt>
<totfact> 0.35443918E+03</totfact>
</mgrwt>
</event>
<event>
 5    1  0.7114032E-003  0.8716986E+02  0.7546771E-02  0.1482001E+00
          1   -1    0    0  502    0 -0.00000000000E+00  0.00000000000E+00  0.27269736545E+03  0.27269736545E+03  0.00000000000E+00 0. -1.
          2   -1    0    0  501    0  0.00000000000E+00 -0.00000000000E+00 -0.12172738883E+04  0.12172738883E+04  0.00000000000E+00 0. -1.
         25    1    1    2    0    0 -0.77065722723E+02  0.70756117831E+02 -0.40117562333E+02  0.16786891504E+03  0.12500000000E+03 0.  0.
          2    1    1    2  501    0  0.55438530295E+02 -0.66701374677E+02 -0.11110061147E+04  0.11143864191E+04  0.00000000000E+00 0. -1.
          1    1    1    2  502    0  0.21627192428E+02 -0.40547431532E+01  0.20654715417E+03  0.20771591969E+03  0.00000000000E+00 0. -1.
<mgrwt>
<rscale>  0 0.43795962E+02</rscale>
<asrwt>0</asrwt>
<pdfrwt beam="2">  1        2 0.18727291E+00 0.87169856E+02</pdfrwt>
<pdfrwt beam="1">  1        1 0.41953441E-01 0.22004009E+02</pdfrwt>
<totfact> 0.27858457E+02</totfact>
</mgrwt>
</event>
<event>
 5    1  0.7114032E-003  0.9078902E+02  0.7546771E-02  0.1397544E+00
          2   -1    0    0  501    0  0.00000000000E+00  0.00000000000E+00  0.89112670334E+03  0.89112670334E+03  0.00000000000E+00 0. -1.
          1   -1    0    0  502    0 -0.00000000000E+00 -0.00000000000E+00 -0.25464560671E+03  0.25464560671E+03  0.00000000000E+00 0. -1.
         25    1    1    2    0    0  0.80039872907E+02  0.80171634899E+02  0.13226500267E+02  0.16921528479E+03  0.12500000000E+03 0.  0.
          2    1    1    2  501    0 -0.39723368178E+02 -0.12526112349E+01  0.78825898621E+03  0.78926025135E+03  0.00000000000E+00 0. -1.
          1    1    1    2  502    0 -0.40316504729E+02 -0.78919023664E+02 -0.16500438985E+03  0.18729677392E+03  0.00000000000E+00 0. -1.
<mgrwt>
<rscale>  0 0.60068612E+02</rscale>
<asrwt>0</asrwt>
<pdfrwt beam="1">  1        2 0.13709641E+00 0.39743113E+02</pdfrwt>
<pdfrwt beam="2">  1        1 0.39176248E-01 0.90789017E+02</pdfrwt>
<totfact> 0.49001198E+02</totfact>
</mgrwt>
</event>
<event>
 5    1  0.7114032E-003  0.6336195E+02  0.7546771E-02  0.1508210E+00
         -1   -1    0    0    0  501 -0.00000000000E+00  0.00000000000E+00  0.59646277201E+03  0.59646277201E+03  0.00000000000E+00 0.  1.
          1   -1    0    0  502    0  0.00000000000E+00 -0.00000000000E+00 -0.29116811073E+02  0.29116811073E+02  0.00000000000E+00 0. -1.
         25    1    1    2    0    0  0.63593943364E+02  0.25134224063E+02  0.21812257488E+03  0.26053478947E+03  0.12500000000E+03 0.  0.
          1    1    1    2  502    0 -0.62229180432E+02  0.80870118602E-01  0.12737027622E+03  0.14175917855E+03  0.00000000000E+00 0. -1.
         -1    1    1    2    0  501 -0.13647629325E+01 -0.25215094182E+02  0.22185310984E+03  0.22328561507E+03  0.00000000000E+00 0.  1.
<mgrwt>
<rscale>  0 0.40000201E+02</rscale>
<asrwt>0</asrwt>
<pdfrwt beam="2">  1        1 0.44795098E-02 0.63361952E+02</pdfrwt>
<pdfrwt beam="1">  1       -1 0.91763494E-01 0.25252001E+02</pdfrwt>
<totfact> 0.22599433E+03</totfact>
</mgrwt>
</event>
<event>
 5    1  0.7114032E-003  0.7841025E+02  0.7546771E-02  0.1426307E+00
         -3   -1    0    0    0  501 -0.00000000000E+00  0.00000000000E+00  0.10221209892E+04  0.10221209892E+04  0.00000000000E+00 0.  1.
          1   -1    0    0  502    0  0.00000000000E+00 -0.00000000000E+00 -0.38774502633E+03  0.38774502633E+03  0.00000000000E+00 0. -1.
         25    1    1    2    0    0 -0.85305213625E+02  0.24618524104E+01  0.29415216819E+03  0.33080740355E+03  0.12500000000E+03 0.  0.
          1    1    1    2  502    0  0.69773865411E+02 -0.35811341493E+02 -0.36476985617E+03  0.37310573896E+03  0.00000000000E+00 0. -1.
         -3    1    1    2    0  501  0.15531348214E+02  0.33349489083E+02  0.70499365088E+03  0.70595287306E+03  0.00000000000E+00 0.  1.
<mgrwt>
<rscale>  0 0.53708603E+02</rscale>
<asrwt>0</asrwt>
<pdfrwt beam="2">  1        1 0.59653081E-01 0.78410249E+02</pdfrwt>
<pdfrwt beam="1">  1       -3 0.15724938E+00 0.36788737E+02</pdfrwt>
<totfact> 0.10690519E+01</totfact>
</mgrwt>
</event>
<event>
 5    1  0.7114032E-003  0.5726174E+02  0.7546771E-02  0.1410250E+00
         -1   -1    0    0    0  501  0.00000000000E+00  0.00000000000E+00  0.86714784095E+02  0.86714784095E+02  0.00000000000E+00 0.  1.
         -1   -1    0    0    0  502 -0.00000000000E+00 -0.00000000000E+00 -0.30714577304E+03  0.30714577304E+03  0.00000000000E+00 0.  1.
         25    1    1    2    0    0 -0.25357835636E+02  0.21882524454E+02  0.11353099975E+01  0.12941465772E+03  0.12500000000E+03 0.  0.
         -1    1    1    2    0  502  0.53179516842E+02  0.28166063321E+02 -0.18948134272E+03  0.19880786547E+03  0.00000000000E+00 0.  1.
         -1    1    1    2    0  501 -0.27821681207E+02 -0.50048587775E+02 -0.32084956216E+02  0.65638033935E+02  0.00000000000E+00 0.  1.
<mgrwt>
<rscale>  0 0.57138096E+02</rscale>
<asrwt>0</asrwt>
<pdfrwt beam="1">  1       -1 0.13340736E-01 0.57261742E+02</pdfrwt>
<pdfrwt beam="2">  1       -1 0.47253196E-01 0.57014717E+02</pdfrwt>
<totfact> 0.13816748E+03</totfact>
</mgrwt>
</event>
<event>
 5    1  0.1636776E-002  0.1142274E+03  0.7546771E-02  0.1300694E+00
         -1   -1    0    0    0  501 -0.00000000000E+00  0.00000000000E+00  0.20865384520E+03  0.20865384520E+03  0.00000000000E+00 0.  1.
          2   -1    0    0  502    0  0.00000000000E+00 -0.00000000000E+00 -0.20375118820E+03  0.20375118820E+03  0.00000000000E+00 0. -1.
         25    1    1    2    0    0  0.84076988615E+02 -0.12487876351E+03  0.97191608536E+02  0.21848307568E+03  0.12500000000E+03 0.  0.
          2    1    1    2  502    0 -0.58389428553E+02  0.42690845040E+02 -0.78453463712E+02  0.10670885430E+03  0.00000000000E+00 0. -1.
         -1    1    1    2    0  501 -0.25687560062E+02  0.82187918473E+02 -0.13835487821E+02  0.87213103420E+02  0.00000000000E+00 0.  1.
<mgrwt>
<rscale>  0 0.90896793E+02</rscale>
<asrwt>0</asrwt>
<pdfrwt beam="2">  1        2 0.31346337E-01 0.72331415E+02</pdfrwt>
<pdfrwt beam="1">  1       -1 0.32100592E-01 0.11422737E+03</pdfrwt>
<totfact> 0.16720928E+03</totfact>
</mgrwt>
</event>
<event>
 5    1  0.7114032E-003  0.1339651E+03  0.7546771E-02  0.1243959E+00
          2   -1    0    0  502    0  0.00000000000E+00  0.00000000000E+00  0.83365421533E+02  0.83365421533E+02  0.00000000000E+00 0. -1.
         -2   -1    0    0    0  501 -0.00000000000E+00 -0.00000000000E+00 -0.22363855546E+04  0.22363855546E+04  0.00000000000E+00 0. -1.
         25    1    1    2    0    0 -0.42086554304E+02  0.27458283546E+02 -0.43884415724E+03  0.45905819863E+03  0.12500000000E+03 0.  0.
          2    1    1    2  502    0  0.14823234961E+03 -0.18075080637E+02 -0.62658993842E+01  0.14946169913E+03  0.00000000000E+00 0. -1.
         -2    1    1    2    0  501 -0.10614579531E+03 -0.93832029081E+01 -0.17079100764E+04  0.17112310783E+04  0.00000000000E+00 0. -1.
<mgrwt>
<rscale>  0 0.11947922E+03</rscale>
<asrwt>0</asrwt>
<pdfrwt beam="1">  1        2 0.12825451E-01 0.13396511E+03</pdfrwt>
<pdfrwt beam="2">  1       -2 0.34405928E+00 0.10655972E+03</pdfrwt>
<totfact> 0.10324307E+01</totfact>
</mgrwt>
</event>
<event>
 5    1  0.7114032E-003  0.1315311E+03  0.7546771E-02  0.1325319E+00
          1   -1    0    0  502    0  0.00000000000E+00  0.00000000000E+00  0.11673760620E+03  0.11673760620E+03  0.00000000000E+00 0. -1.
         -2   -1    0    0    0  501 -0.00000000000E+00 -0.00000000000E+00 -0.30428123288E+03  0.30428123288E+03  0.00000000000E+00 0.  1.
         25    1    1    2    0    0 -0.14787221233E+03  0.26855041275E+01 -0.16181791293E+03  0.25235578070E+03  0.12500000000E+03 0.  0.
          1    1    1    2  502    0  0.37322737754E+02  0.33704456875E+02 -0.88310911585E+01  0.51058450209E+02  0.00000000000E+00 0. -1.
         -2    1    1    2    0  501  0.11054947457E+03 -0.36389961002E+02 -0.16894622597E+02  0.11760460817E+03  0.00000000000E+00 0.  1.
<mgrwt>
<rscale>  0 0.81329938E+02</rscale>
<asrwt>0</asrwt>
<pdfrwt beam="1">  1        1 0.17959632E-01 0.50288937E+02</pdfrwt>
<pdfrwt beam="2">  1       -2 0.46812497E-01 0.13153109E+03</pdfrwt>
<totfact> 0.10631847E+03</totfact>
</mgrwt>
</event>
<event>
 5    1  0.7114032E-003  0.1582849E+03  0.7546771E-02  0.1308547E+00
          2   -1    0    0  502    0  0.00000000000E+00  0.00000000000E+00  0.26178221575E+04  0.26178221575E+04  0.00000000000E+00 0. -1.
         -2   -1    0    0    0  501 -0.00000000000E+00 -0.00000000000E+00 -0.12197095102E+04  0.12197095102E+04  0.00000000000E+00 0.  1.
         25    1    1    2    0    0 -0.76539394168E+01  0.20508034301E+03  0.51561591650E+03  0.56885965160E+03  0.12500000000E+03 0.  0.
          2    1    1    2  502    0  0.11148883415E+02 -0.47282646821E+02  0.20700780208E+04  0.20706479562E+04  0.00000000000E+00 0. -1.
         -2    1    1    2    0  501 -0.34949439985E+01 -0.15779769619E+03 -0.11875812900E+04  0.11980240598E+04  0.00000000000E+00 0.  1.
<mgrwt>
<rscale>  0 0.87689040E+02</rscale>
<asrwt>0</asrwt>
<pdfrwt beam="1">  1        2 0.40274187E+00 0.48579278E+02</pdfrwt>
<pdfrwt beam="2">  1       -2 0.18764762E+00 0.15828493E+03</pdfrwt>
<totfact> 0.80130517E-01</totfact>
</mgrwt>
</event>
<event>
 5    1  0.7114032E-003  0.8783733E+02  0.7546771E-02  0.1429147E+00
         -1   -1    0    0    0  501 -0.00000000000E+00  0.00000000000E+00  0.38259969155E+03  0.38259969155E+03  0.00000000000E+00 0.  1.
          2   -1    0    0  502    0  0.00000000000E+00 -0.00000000000E+00 -0.37136840853E+03  0.37136840853E+03  0.00000000000E+00 0. -1.
         25    1    1    2    0    0 -0.55464085995E+02 -0.94649720804E+02  0.17255134446E+03  0.23965350187E+03  0.12500000000E+03 0.  0.
          2    1    1    2  502    0  0.26108105830E+01  0.32032286786E+02 -0.32747748136E+03  0.32905073245E+03  0.00000000000E+00 0. -1.
         -1    1    1    2    0  501  0.52853275412E+02  0.62617434018E+02  0.16615741991E+03  0.18526386576E+03  0.00000000000E+00 0.  1.
<mgrwt>
<rscale>  0 0.53131541E+02</rscale>
<asrwt>0</asrwt>
<pdfrwt beam="2">  1        2 0.57133601E-01 0.32138509E+02</pdfrwt>
<pdfrwt beam="1">  1       -1 0.58861491E-01 0.87837327E+02</pdfrwt>
<totfact> 0.30548575E+02</totfact>
</mgrwt>
</event>
<event>
 5    1  0.7114032E-003  0.8627915E+02  0.7546771E-02  0.1361283E+00
          2   -1    0    0  502    0  0.00000000000E+00  0.00000000000E+00  0.20620186847E+03  0.20620186847E+03  0.00000000000E+00 0. -1.
          2   -1    0    0  501    0 -0.00000000000E+00 -0.00000000000E+00 -0.17484686041E+03  0.17484686041E+03  0.00000000000E+00 0. -1.
         25    1    1    2    0    0 -0.62778045055E+02  0.33459836887E+01 -0.60490727844E+02  0.15243492613E+03  0.12500000000E+03 0.  0.
          2    1    1    2  501    0  0.11344389139E+03  0.21037442375E+02 -0.62485903594E+01  0.11554711315E+03  0.00000000000E+00 0. -1.
          2    1    1    2  502    0 -0.50665846337E+02 -0.24383426064E+02  0.98094326267E+02  0.11306668960E+03  0.00000000000E+00 0. -1.
<mgrwt>
<rscale>  0 0.69651257E+02</rscale>
<asrwt>0</asrwt>
<pdfrwt beam="1">  1        2 0.31723364E-01 0.56227924E+02</pdfrwt>
<pdfrwt beam="2">  1        2 0.26899517E-01 0.86279152E+02</pdfrwt>
<totfact> 0.47361082E+03</totfact>
</mgrwt>
</event>
<event>
 5    1  0.7114032E-003  0.1553458E+03  0.7546771E-02  0.1389756E+00
         -3   -1    0    0    0  501 -0.00000000000E+00  0.00000000000E+00  0.22547702651E+02  0.22547702651E+02  0.00000000000E+00 0.  1.
          2   -1    0    0  502    0  0.00000000000E+00 -0.00000000000E+00 -0.25489284383E+04  0.25489284383E+04  0.00000000000E+00 0. -1.
         25    1    1    2    0    0  0.14227700865E+03 -0.12526373829E+02 -0.96273954534E+03  0.98127065043E+03  0.12500000000E+03 0.  0.
          2    1    1    2  502    0 -0.16121084692E+03 -0.33647486709E+01 -0.15560001212E+04  0.15643326487E+04  0.00000000000E+00 0. -1.
         -3    1    1    2    0  501  0.18933838271E+02  0.15891122500E+02 -0.76410691218E+01  0.25872841810E+02  0.00000000000E+00 0.  1.
<mgrwt>
<rscale>  0 0.61967408E+02</rscale>
<asrwt>0</asrwt>
<pdfrwt beam="2">  1        2 0.39214323E+00 0.15534585E+03</pdfrwt>
<pdfrwt beam="1">  1       -3 0.34688739E-02 0.24718778E+02</pdfrwt>
<totfact> 0.69627437E+02</totfact>
</mgrwt>
</event>
<event>
 5    1  0.7114032E-003  0.1057488E+03  0.7546771E-02  0.1430927E+00
         -1   -1    0    0    0  501 -0.00000000000E+00  0.00000000000E+00  0.11845515177E+03  0.11845515177E+03  0.00000000000E+00 0.  1.
          2   -1    0    0  502    0  0.00000000000E+00 -0.00000000000E+00 -0.24673457420E+03  0.24673457420E+03  0.00000000000E+00 0. -1.
         25    1    1    2    0    0 -0.14507866906E+02  0.10653321196E+03  0.18420928045E+02  0.16590399044E+03  0.12500000000E+03 0.  0.
          2    1    1    2  502    0  0.26236475410E+02 -0.23016387074E+01 -0.50527980957E+02  0.56980058286E+02  0.00000000000E+00 0. -1.
         -1    1    1    2    0  501 -0.11728608505E+02 -0.10423157325E+03 -0.96172369520E+02  0.14230567726E+03  0.00000000000E+00 0.  1.
<mgrwt>
<rscale>  0 0.52774333E+02</rscale>
<asrwt>0</asrwt>
<pdfrwt beam="2">  1        2 0.37959165E-01 0.26337239E+02</pdfrwt>
<pdfrwt beam="1">  1       -1 0.18223869E-01 0.10574875E+03</pdfrwt>
<totfact> 0.33607305E+03</totfact>
</mgrwt>
</event>
<event>
 5    1  0.7114032E-003  0.2539426E+02  0.7546771E-02  0.1685883E+00
          3   -1    0    0  502    0 -0.00000000000E+00  0.00000000000E+00  0.19863253301E+03  0.19863253301E+03  0.00000000000E+00 0. -1.
          1   -1    0    0  501    0  0.00000000000E+00 -0.00000000000E+00 -0.72271531079E+03  0.72271531079E+03  0.00000000000E+00 0. -1.
         25    1    1    2    0    0  0.38508012597E+02  0.86933423639E+01 -0.76558195407E+02  0.15180447464E+03  0.12500000000E+03 0.  0.
          1    1    1    2  501    0 -0.14280282357E+02 -0.16035148382E+02 -0.60734797505E+03  0.60772741854E+03  0.00000000000E+00 0. -1.
          3    1    1    2  502    0 -0.24227730240E+02  0.73418060183E+01  0.15982339268E+03  0.16181595062E+03  0.00000000000E+00 0. -1.
<mgrwt>
<rscale>  0 0.23350992E+02</rscale>
<asrwt>0</asrwt>
<pdfrwt beam="2">  1        1 0.11118697E+00 0.21472132E+02</pdfrwt>
<pdfrwt beam="1">  1        3 0.30558852E-01 0.25394256E+02</pdfrwt>
<totfact> 0.14135461E+02</totfact>
</mgrwt>
</event>
<event>
 5    1  0.7114032E-003  0.2686223E+03  0.7546771E-02  0.1194392E+00
          1   -1    0    0  502    0  0.00000000000E+00  0.00000000000E+00  0.69500740765E+03  0.69500740765E+03  0.00000000000E+00 0. -1.
         -1   -1    0    0    0  501 -0.00000000000E+00 -0.00000000000E+00 -0.10051810491E+04  0.10051810491E+04  0.00000000000E+00 0.  1.
         25    1    1    2    0    0 -0.32167651752E+02  0.21895807922E+03 -0.81278133480E+02  0.26684927067E+03  0.12500000000E+03 0.  0.
          1    1    1    2  502    0  0.64841688537E+02  0.61697470091E+02  0.57464258929E+03  0.58157125773E+03  0.00000000000E+00 0. -1.
         -1    1    1    2    0  501 -0.32674036785E+02 -0.28065554931E+03 -0.80353809729E+03  0.85176792839E+03  0.00000000000E+00 0.  1.
<mgrwt>
<rscale>  0 0.15505759E+03</rscale>
<asrwt>0</asrwt>
<pdfrwt beam="1">  1        1 0.10692422E+00 0.89504315E+02</pdfrwt>
<pdfrwt beam="2">  1       -1 0.15464324E+00 0.26862233E+03</pdfrwt>
<totfact> 0.10580967E+01</totfact>
</mgrwt>
</event>
<event>
 5    1  0.7114032E-003  0.7943768E+02  0.7546771E-02  0.1486491E+00
         -1   -1    0    0    0  501 -0.00000000000E+00  0.00000000000E+00  0.60743399220E+02  0.60743399220E+02  0.00000000000E+00 0.  1.
          2   -1    0    0  502    0  0.00000000000E+00 -0.00000000000E+00 -0.51737839427E+03  0.51737839427E+03  0.00000000000E+00 0. -1.
         25    1    1    2    0    0 -0.24190225530E+02 -0.55128288306E+02 -0.10190207019E+03  0.17214333299E+03  0.12500000000E+03 0.  0.
          2    1    1    2  502    0  0.23481924631E+02  0.78514002022E+02 -0.36938920171E+03  0.37837049520E+03  0.00000000000E+00 0. -1.
         -1    1    1    2    0  501  0.70830089899E+00 -0.23385713717E+02  0.14656276861E+02  0.27607965293E+02  0.00000000000E+00 0.  1.
<mgrwt>
<rscale>  0 0.43111004E+02</rscale>
<asrwt>0</asrwt>
<pdfrwt beam="2">  1        2 0.79596674E-01 0.79437679E+02</pdfrwt>
<pdfrwt beam="1">  1       -1 0.93451385E-02 0.23396438E+02</pdfrwt>
<totfact> 0.39010259E+03</totfact>
</mgrwt>
</event>
<event>
 5    1  0.7114032E-003  0.5469746E+02  0.7546771E-02  0.1440690E+00
          2   -1    0    0  502    0  0.00000000000E+00  0.00000000000E+00  0.59829067936E+03  0.59829067936E+03  0.00000000000E+00 0. -1.
         -3   -1    0    0    0  501 -0.00000000000E+00 -0.00000000000E+00 -0.16132738732E+03  0.16132738732E+03  0.00000000000E+00 0.  1.
         25    1    1    2    0    0 -0.66925015436E+02  0.42641741100E+02  0.41287539112E+03  0.43862098031E+03  0.12500000000E+03 0.  0.
          2    1    1    2  502    0  0.50303949449E+02  0.16584875865E+01  0.16491991773E+03  0.17242916568E+03  0.00000000000E+00 0. -1.
         -3    1    1    2    0  501  0.16621065986E+02 -0.44300228687E+02 -0.14083201682E+03  0.14856792069E+03  0.00000000000E+00 0.  1.
<mgrwt>
<rscale>  0 0.50872835E+02</rscale>
<asrwt>0</asrwt>
<pdfrwt beam="1">  1        2 0.92044719E-01 0.54697457E+02</pdfrwt>
<pdfrwt beam="2">  1       -3 0.24819598E-01 0.47315643E+02</pdfrwt>
<totfact> 0.43647083E+02</totfact>
</mgrwt>
</event>
<event>
 5    1  0.7114032E-003  0.9646918E+02  0.7546771E-02  0.1435068E+00
          1   -1    0    0  502    0 -0.00000000000E+00  0.00000000000E+00  0.46785809667E+02  0.46785809667E+02  0.00000000000E+00 0. -1.
          2   -1    0    0  501    0  0.00000000000E+00 -0.00000000000E+00 -0.14633496993E+04  0.14633496993E+04  0.00000000000E+00 0. -1.
         25    1    1    2    0    0 -0.58759079882E+02  0.94694231090E+02 -0.72038540658E+03  0.73959432183E+03  0.12500000000E+03 0.  0.
          2    1    1    2  501    0 -0.82272044214E+01 -0.26745530573E+02 -0.67137002170E+03  0.67195291230E+03  0.00000000000E+00 0. -1.
          1    1    1    2  502    0  0.66986284303E+02 -0.67948700517E+02 -0.24808461382E+02  0.98588274875E+02  0.00000000000E+00 0. -1.
<mgrwt>
<rscale>  0 0.51956054E+02</rscale>
<asrwt>0</asrwt>
<pdfrwt beam="2">  1        2 0.22513072E+00 0.27982321E+02</pdfrwt>
<pdfrwt beam="1">  1        1 0.71978169E-02 0.96469180E+02</pdfrwt>
<totfact> 0.21771582E+03</totfact>
</mgrwt>
</event>
<event>
 5    1  0.7114032E-003  0.5999914E+02  0.7546771E-02  0.1438413E+00
          2   -1    0    0  502    0  0.00000000000E+00  0.00000000000E+00  0.39426363339E+03  0.39426363339E+03  0.00000000000E+00 0. -1.
         -1   -1    0    0    0  501 -0.00000000000E+00 -0.00000000000E+00 -0.46981081438E+02  0.46981081438E+02  0.00000000000E+00 0.  1.
         25    1    1    2    0    0  0.12851912188E+02 -0.87980106351E+02  0.18309174042E+03  0.23885823446E+03  0.12500000000E+03 0.  0.
          2    1    1    2  502    0 -0.26330795126E+02  0.35095934912E+02  0.13182787129E+03  0.13893747899E+03  0.00000000000E+00 0. -1.
         -1    1    1    2    0  501  0.13478882938E+02  0.52884171439E+02  0.32362940237E+02  0.63449001369E+02  0.00000000000E+00 0.  1.
<mgrwt>
<rscale>  0 0.51307660E+02</rscale>
<asrwt>0</asrwt>
<pdfrwt beam="1">  1        2 0.60655941E-01 0.43875226E+02</pdfrwt>
<pdfrwt beam="2">  1       -1 0.72278589E-02 0.59999144E+02</pdfrwt>
<totfact> 0.83009424E+03</totfact>
</mgrwt>
</event>
<event>
 5    1  0.8270890E-003  0.3543847E+02  0.7546771E-02  0.1556382E+00
          1   -1    0    0  502    0  0.00000000000E+00  0.00000000000E+00  0.17406337236E+03  0.17406337236E+03  0.00000000000E+00 0. -1.
         -2   -1    0    0    0  501 -0.00000000000E+00 -0.00000000000E+00 -0.61428018123E+02  0.61428018123E+02  0.00000000000E+00 0.  1.
         25    1    1    2    0    0  0.63390075021E+01 -0.20476917017E-01  0.57129954038E+02  0.13758275722E+03  0.12500000000E+03 0.  0.
          1    1    1    2  502    0  0.29407693361E+02  0.19775566519E+02  0.41861432949E+02  0.54847652899E+02  0.00000000000E+00 0. -1.
         -2    1    1    2    0  501 -0.35746700863E+02 -0.19755089602E+02  0.13643967251E+02  0.43060980366E+02  0.00000000000E+00 0.  1.
<mgrwt>
<rscale>  0 0.34138970E+02</rscale>
<asrwt>0</asrwt>
<pdfrwt beam="1">  1        1 0.26778980E-01 0.35438474E+02</pdfrwt>
<pdfrwt beam="2">  1       -2 0.94504644E-02 0.32887118E+02</pdfrwt>
<totfact> 0.90708877E+03</totfact>
</mgrwt>
</event>
<event>
 5    1  0.7114032E-003  0.1183382E+03  0.7546771E-02  0.1259694E+00
          2   -1    0    0  501    0  0.00000000000E+00  0.00000000000E+00  0.25843776775E+04  0.25843776775E+04  0.00000000000E+00 0. -1.
          1   -1    0    0  502    0 -0.00000000000E+00 -0.00000000000E+00 -0.61270314330E+03  0.61270314330E+03  0.00000000000E+00 0. -1.
         25    1    1    2    0    0  0.14391751516E+03  0.80813357930E+02 -0.24529495579E+02  0.20849399546E+03  0.12500000000E+03 0.  0.
          2    1    1    2  501    0 -0.99355970775E+02  0.27654998290E+02  0.24843822579E+04  0.24865219909E+04  0.00000000000E+00 0. -1.
          1    1    1    2  502    0 -0.44561544386E+02 -0.10846835622E+03 -0.48817822814E+03  0.50206483443E+03  0.00000000000E+00 0. -1.
<mgrwt>
<rscale>  0 0.11047430E+03</rscale>
<asrwt>0</asrwt>
<pdfrwt beam="1">  1        2 0.39759656E+00 0.10313296E+03</pdfrwt>
<pdfrwt beam="2">  1        1 0.94262023E-01 0.11833822E+03</pdfrwt>
<totfact> 0.19774374E+01</totfact>
</mgrwt>
</event>
<event>
 5    1  0.7114032E-003  0.3551033E+02  0.7546771E-02  0.1569765E+00
          2   -1    0    0  502    0  0.00000000000E+00  0.00000000000E+00  0.69040611280E+03  0.69040611280E+03  0.00000000000E+00 0. -1.
         -1   -1    0    0    0  501 -0.00000000000E+00 -0.00000000000E+00 -0.15641081460E+02  0.15641081460E+02  0.00000000000E+00 0.  1.
         25    1    1    2    0    0  0.10324582029E+02  0.75017347446E+00  0.40880258555E+03  0.42761163888E+03  0.12500000000E+03 0.  0.
          2    1    1    2  502    0 -0.40166334496E+02 -0.51319411553E+01  0.21835439195E+03  0.22207726523E+03  0.00000000000E+00 0. -1.
         -1    1    1    2    0  501  0.29841752467E+02  0.43817676809E+01  0.47608053838E+02  0.56358290150E+02  0.00000000000E+00 0.  1.
<mgrwt>
<rscale>  0 0.32726947E+02</rscale>
<asrwt>0</asrwt>
<pdfrwt beam="1">  1        2 0.10621630E+00 0.35510329E+02</pdfrwt>
<pdfrwt beam="2">  1       -1 0.24063208E-02 0.30161732E+02</pdfrwt>
<totfact> 0.20185090E+04</totfact>
</mgrwt>
</event>
<event>
 5    1  0.7675657E-003  0.1134810E+03  0.7546771E-02  0.1374224E+00
         -1   -1    0    0    0  501 -0.00000000000E+00  0.00000000000E+00  0.12696794678E+03  0.12696794678E+03  0.00000000000E+00 0.  1.
          2   -1    0    0  502    0  0.00000000000E+00 -0.00000000000E+00 -0.25158481236E+03  0.25158481236E+03  0.00000000000E+00 0. -1.
         25    1    1    2    0    0  0.11226379065E+03  0.57570076578E+02  0.91257414263E+01  0.17783630553E+03  0.12500000000E+03 0.  0.
          2    1    1    2  502    0 -0.10953631794E+03 -0.19274081286E+02 -0.97039106542E+02  0.14760177287E+03  0.00000000000E+00 0. -1.
         -1    1    1    2    0  501 -0.27274727085E+01 -0.38295995292E+02 -0.36703500463E+02  0.53114680730E+02  0.00000000000E+00 0.  1.
<mgrwt>
<rscale>  0 0.66006636E+02</rscale>
<asrwt>0</asrwt>
<pdfrwt beam="2">  1        2 0.38705355E-01 0.11348100E+03</pdfrwt>
<pdfrwt beam="1">  1       -1 0.19533531E-01 0.38392999E+02</pdfrwt>
<totfact> 0.29011472E+03</totfact>
</mgrwt>
</event>
<event>
 5    1  0.7114032E-003  0.5445056E+02  0.7546771E-02  0.1558158E+00
          1   -1    0    0  501    0  0.00000000000E+00  0.00000000000E+00  0.13538717410E+04  0.13538717410E+04  0.00000000000E+00 0. -1.
          1   -1    0    0  502    0 -0.00000000000E+00 -0.00000000000E+00 -0.20905556608E+03  0.20905556608E+03  0.00000000000E+00 0. -1.
         25    1    1    2    0    0  0.28015753235E+02 -0.30532110535E+02  0.97747646325E+03  0.98630742084E+03  0.12500000000E+03 0.  0.
          1    1    1    2  501    0  0.20425635274E+02  0.55407697063E+01  0.36804069097E+03  0.36864869037E+03  0.00000000000E+00 0. -1.
          1    1    1    2  502    0 -0.48441388509E+02  0.24991340828E+02 -0.20070097928E+03  0.20797119589E+03  0.00000000000E+00 0. -1.
<mgrwt>
<rscale>  0 0.33946740E+02</rscale>
<asrwt>0</asrwt>
<pdfrwt beam="1">  1        1 0.20828796E+00 0.21163806E+02</pdfrwt>
<pdfrwt beam="2">  1        1 0.32162396E-01 0.54450562E+02</pdfrwt>
<totfact> 0.18373719E+02</totfact>
</mgrwt>
</event>
<event>
 5    1  0.7114032E-003  0.6263057E+02  0.7546771E-02  0.1397397E+00
         -1   -1    0    0    0  501 -0.00000000000E+00  0.00000000000E+00  0.47936640545E+03  0.47936640545E+03  0.00000000000E+00 0.  1.
          2   -1    0    0  502    0  0.00000000000E+00 -0.00000000000E+00 -0.15630749198E+04  0.15630749198E+04  0.00000000000E+00 0. -1.
         25    1    1    2    0    0 -0.15891255139E+02  0.15522939519E+01 -0.51826801389E+02  0.13625695927E+03  0.12500000000E+03 0.  0.
          2    1    1    2  502    0  0.24602348488E+02 -0.58569479250E+02 -0.14664397922E+04  0.14678151531E+04  0.00000000000E+00 0. -1.
         -1    1    1    2    0  501 -0.87110933490E+01  0.57017185298E+02  0.43455807925E+03  0.43836921289E+03  0.00000000000E+00 0.  1.
<mgrwt>
<rscale>  0 0.60103705E+02</rscale>
<asrwt>0</asrwt>
<pdfrwt beam="2">  1        2 0.24047306E+00 0.62630571E+02</pdfrwt>
<pdfrwt beam="1">  1       -1 0.73748678E-01 0.57678788E+02</pdfrwt>
<totfact> 0.33137578E+01</totfact>
</mgrwt>
</event>
<event>
 5    1  0.7114032E-003  0.1016142E+03  0.7546771E-02  0.1280975E+00
          2   -1    0    0  501    0  0.00000000000E+00  0.00000000000E+00  0.10054281487E+03  0.10054281487E+03  0.00000000000E+00 0. -1.
          1   -1    0    0  502    0 -0.00000000000E+00 -0.00000000000E+00 -0.14425042553E+04  0.14425042553E+04  0.00000000000E+00 0. -1.
         25    1    1    2    0    0  0.90927167892E+01  0.56353103426E+02 -0.16681598327E+03  0.21612709696E+03  0.12500000000E+03 0.  0.
          2    1    1    2  501    0  0.91980703654E+02 -0.66822478670E+02  0.29932467574E+02  0.11756549713E+03  0.00000000000E+00 0. -1.
          1    1    1    2  502    0 -0.10107342044E+03  0.10469375244E+02 -0.12050779247E+04  0.12093544760E+04  0.00000000000E+00 0. -1.
<mgrwt>
<rscale>  0 0.99677860E+02</rscale>
<asrwt>0</asrwt>
<pdfrwt beam="1">  1        2 0.15468125E-01 0.97778426E+02</pdfrwt>
<pdfrwt beam="2">  1        1 0.22192374E+00 0.10161419E+03</pdfrwt>
<totfact> 0.41768571E+02</totfact>
</mgrwt>
</event>
<event>
 5    1  0.7114032E-003  0.2618074E+02  0.7546771E-02  0.1683482E+00
         -1   -1    0    0    0  501 -0.00000000000E+00  0.00000000000E+00  0.10208326978E+02  0.10208326978E+02  0.00000000000E+00 0.  1.
          2   -1    0    0  502    0  0.00000000000E+00 -0.00000000000E+00 -0.10992759377E+04  0.10992759377E+04  0.00000000000E+00 0. -1.
         25    1    1    2    0    0  0.18855555083E+02  0.10601707161E+02 -0.69438315149E+03  0.70587597298E+03  0.12500000000E+03 0.  0.
          2    1    1    2  502    0 -0.52114894501E+01 -0.26695910747E+02 -0.37056745910E+03  0.37156435918E+03  0.00000000000E+00 0. -1.
         -1    1    1    2    0  501 -0.13644065633E+02  0.16094203586E+02 -0.24117000153E+02  0.32043932537E+02  0.00000000000E+00 0.  1.
<mgrwt>
<rscale>  0 0.23503138E+02</rscale>
<asrwt>0</asrwt>
<pdfrwt beam="2">  1        2 0.16911938E+00 0.26180743E+02</pdfrwt>
<pdfrwt beam="1">  1       -1 0.15705118E-02 0.21099382E+02</pdfrwt>
<totfact> 0.19598900E+04</totfact>
</mgrwt>
</event>
<event>
 5    1  0.7114032E-003  0.8878377E+02  0.7546771E-02  0.1419494E+00
          2   -1    0    0  501    0  0.00000000000E+00  0.00000000000E+00  0.23781016432E+04  0.23781016432E+04  0.00000000000E+00 0. -1.
          1   -1    0    0  502    0 -0.00000000000E+00 -0.00000000000E+00 -0.22681455298E+03  0.22681455298E+03  0.00000000000E+00 0. -1.
         25    1    1    2    0    0 -0.92780358552E+01 -0.11472911838E+03  0.34014216370E+03  0.38022433389E+03  0.12500000000E+03 0.  0.
          2    1    1    2  501    0 -0.15988600611E+02  0.30266917287E+02  0.20083688385E+04  0.20086605271E+04  0.00000000000E+00 0. -1.
          1    1    1    2  502    0  0.25266636466E+02  0.84462201091E+02 -0.19722391198E+03  0.21603133520E+03  0.00000000000E+00 0. -1.
<mgrwt>
<rscale>  0 0.55128083E+02</rscale>
<asrwt>0</asrwt>
<pdfrwt beam="1">  1        2 0.36586177E+00 0.34230420E+02</pdfrwt>
<pdfrwt beam="2">  1        1 0.34894548E-01 0.88783766E+02</pdfrwt>
<totfact> 0.10342767E+02</totfact>
</mgrwt>
</event>
<event>
 5    1  0.7114032E-003  0.3624169E+03  0.7546771E-02  0.1250041E+00
          1   -1    0    0  502    0 -0.00000000000E+00  0.00000000000E+00  0.24626513593E+04  0.24626513593E+04  0.00000000000E+00 0.  1.
          2   -1    0    0  501    0  0.00000000000E+00 -0.00000000000E+00 -0.35105126375E+03  0.35105126375E+03  0.00000000000E+00 0. -1.
         25    1    1    2    0    0  0.26087149245E+03 -0.22796534936E+03  0.41274571191E+03  0.55317823419E+03  0.12500000000E+03 0.  0.
          2    1    1    2  501    0 -0.29604295147E+03  0.21629838899E+03 -0.16090500874E+03  0.40039585916E+03  0.00000000000E+00 0. -1.
          1    1    1    2  502    0  0.35171459024E+02  0.11666960362E+02  0.18597593923E+04  0.18601285297E+04  0.00000000000E+00 0.  1.
<mgrwt>
<rscale>  0 0.11588671E+03</rscale>
<asrwt>0</asrwt>
<pdfrwt beam="2">  1        2 0.54007888E-01 0.36241686E+03</pdfrwt>
<pdfrwt beam="1">  1        1 0.37886943E+00 0.37056032E+02</pdfrwt>
<totfact> 0.28351169E+01</totfact>
</mgrwt>
</event>
<event>
 5    1  0.7114032E-003  0.4700493E+02  0.7546771E-02  0.1496860E+00
          1   -1    0    0  501    0  0.00000000000E+00  0.00000000000E+00  0.99759379829E+03  0.99759379829E+03  0.00000000000E+00 0. -1.
          1   -1    0    0  502    0 -0.00000000000E+00 -0.00000000000E+00 -0.18837823466E+03  0.18837823466E+03  0.00000000000E+00 0. -1.
         25    1    1    2    0    0 -0.10890852220E+02  0.12226192627E+01  0.62581265249E+03  0.63826842432E+03  0.12500000000E+03 0.  0.
          1    1    1    2  501    0 -0.32643189620E+02  0.16969351184E+02  0.36154861189E+03  0.36341565111E+03  0.00000000000E+00 0. -1.
          1    1    1    2  502    0  0.43534041840E+02 -0.18191970446E+02 -0.17814570077E+03  0.18428795753E+03  0.00000000000E+00 0. -1.
<mgrwt>
<rscale>  0 0.41585239E+02</rscale>
<asrwt>0</asrwt>
<pdfrwt beam="1">  1        1 0.15347597E+00 0.36790443E+02</pdfrwt>
<pdfrwt beam="2">  1        1 0.28981267E-01 0.47004927E+02</pdfrwt>
<totfact> 0.33506052E+02</totfact>
</mgrwt>
</event>
<event>
 5    1  0.7114032E-003  0.8031326E+02  0.7546771E-02  0.1348303E+00
          3   -1    0    0  502    0 -0.00000000000E+00  0.00000000000E+00  0.55215992759E+03  0.55215992759E+03  0.00000000000E+00 0. -1.
          2   -1    0    0  501    0  0.00000000000E+00 -0.00000000000E+00 -0.17284066019E+04  0.17284066019E+04  0.00000000000E+00 0.  1.
         25    1    1    2    0    0  0.52364210207E+02  0.84625143123E+02 -0.88766122869E+03  0.90192620667E+03  0.12500000000E+03 0.  0.
          2    1    1    2  501    0  0.24908629369E+02 -0.62654637044E+02 -0.82927689997E+03  0.83201335337E+03  0.00000000000E+00 0.  1.
          3    1    1    2  502    0 -0.77272839575E+02 -0.21970506080E+02  0.54069145437E+03  0.54662696943E+03  0.00000000000E+00 0. -1.
<mgrwt>
<rscale>  0 0.73587157E+02</rscale>
<asrwt>0</asrwt>
<pdfrwt beam="2">  1        2 0.26590870E+00 0.67424353E+02</pdfrwt>
<pdfrwt beam="1">  1        3 0.84947683E-01 0.80313262E+02</pdfrwt>
<totfact> 0.93255840E+00</totfact>
</mgrwt>
</event>
<event>
 5    1  0.7114032E-003  0.3800624E+02  0.7546771E-02  0.1592400E+00
         -1   -1    0    0    0  501 -0.00000000000E+00  0.00000000000E+00  0.62551350053E+03  0.62551350053E+03  0.00000000000E+00 0. -1.
          1   -1    0    0  502    0  0.00000000000E+00 -0.00000000000E+00 -0.21491087089E+02  0.21491087089E+02  0.00000000000E+00 0.  1.
         25    1    1    2    0    0 -0.12621543944E+02  0.88095602164E+01  0.45358305557E+03  0.47074356079E+03  0.12500000000E+03 0.  0.
          1    1    1    2  502    0  0.18758849989E+02  0.33054192492E+02  0.11484056155E+03  0.12096622946E+03  0.00000000000E+00 0. -1.
         -1    1    1    2    0  501 -0.61373060450E+01 -0.41863752708E+02  0.35598796326E+02  0.55294797370E+02  0.00000000000E+00 0.  1.
<mgrwt>
<rscale>  0 0.30520983E+02</rscale>
<asrwt>0</asrwt>
<pdfrwt beam="2">  1        1 0.33063216E-02 0.38006238E+02</pdfrwt>
<pdfrwt beam="1">  1       -1 0.96232833E-01 0.24509935E+02</pdfrwt>
<totfact> 0.28901867E+03</totfact>
</mgrwt>
</event>
<event>
 5    1  0.7114032E-003  0.9436113E+02  0.7546771E-02  0.1320405E+00
          2   -1    0    0  502    0  0.00000000000E+00  0.00000000000E+00  0.73160768764E+03  0.73160768764E+03  0.00000000000E+00 0. -1.
         -2   -1    0    0    0  501 -0.00000000000E+00 -0.00000000000E+00 -0.11025074429E+04  0.11025074429E+04  0.00000000000E+00 0.  1.
         25    1    1    2    0    0 -0.94236497704E+02 -0.61911402503E+02  0.30777155246E+03  0.35080174995E+03  0.12500000000E+03 0.  0.
          2    1    1    2  502    0  0.67410175767E+02 -0.28608840850E+02  0.39690369453E+03  0.40360270106E+03  0.00000000000E+00 0. -1.
         -2    1    1    2    0  501  0.26826321937E+02  0.90520243353E+02 -0.10755750022E+04  0.10797106795E+04  0.00000000000E+00 0.  1.
<mgrwt>
<rscale>  0 0.83126668E+02</rscale>
<asrwt>0</asrwt>
<pdfrwt beam="1">  1        2 0.11255503E+00 0.73229759E+02</pdfrwt>
<pdfrwt beam="2">  1       -2 0.16961653E+00 0.94361132E+02</pdfrwt>
<totfact> 0.10216767E+01</totfact>
</mgrwt>
</event>
<event>
 5    1  0.7114032E-003  0.7496908E+02  0.7546771E-02  0.1376105E+00
         -1   -1    0    0    0  501 -0.00000000000E+00  0.00000000000E+00  0.29127564248E+03  0.29127564248E+03  0.00000000000E+00 0.  1.
          1   -1    0    0  502    0  0.00000000000E+00 -0.00000000000E+00 -0.10236459574E+04  0.10236459574E+04  0.00000000000E+00 0. -1.
         25    1    1    2    0    0 -0.85630248782E+02  0.79533272930E+02 -0.18396154827E+03  0.25124675570E+03  0.12500000000E+03 0.  0.
          1    1    1    2  502    0  0.15617364863E+02 -0.55052442098E+02 -0.79965994199E+03  0.80170486858E+03  0.00000000000E+00 0. -1.
         -1    1    1    2    0  501  0.70012883919E+02 -0.24480830832E+02  0.25125117535E+03  0.26196997559E+03  0.00000000000E+00 0.  1.
<mgrwt>
<rscale>  0 0.65498763E+02</rscale>
<asrwt>0</asrwt>
<pdfrwt beam="2">  1        1 0.15748399E+00 0.57224763E+02</pdfrwt>
<pdfrwt beam="1">  1       -1 0.44811638E-01 0.74969082E+02</pdfrwt>
<totfact> 0.86848931E+01</totfact>
</mgrwt>
</event>
<event>
 5    1  0.7114032E-003  0.1013549E+03  0.7546771E-02  0.1309403E+00
          2   -1    0    0  502    0  0.00000000000E+00  0.00000000000E+00  0.11722683861E+04  0.11722683861E+04  0.00000000000E+00 0. -1.
         -3   -1    0    0    0  501 -0.00000000000E+00 -0.00000000000E+00 -0.56424896738E+03  0.56424896738E+03  0.00000000000E+00 0.  1.
         25    1    1    2    0    0 -0.62323294715E+02  0.14522652945E+03  0.30310320959E+03  0.36396633579E+03  0.12500000000E+03 0.  0.
          2    1    1    2  502    0  0.46802475215E+01 -0.96812419765E+02  0.83325658814E+03  0.83887489593E+03  0.00000000000E+00 0. -1.
         -3    1    1    2    0  501  0.57643047194E+02 -0.48414109680E+02 -0.52834037898E+03  0.53367612179E+03  0.00000000000E+00 0.  1.
<mgrwt>
<rscale>  0 0.87348209E+02</rscale>
<asrwt>0</asrwt>
<pdfrwt beam="1">  1        2 0.18034898E+00 0.10135494E+03</pdfrwt>
<pdfrwt beam="2">  1       -3 0.86807534E-01 0.75277134E+02</pdfrwt>
<totfact> 0.16611379E+01</totfact>
</mgrwt>
</event>
<event>
 5    1  0.7114032E-003  0.1590201E+03  0.7546771E-02  0.1240881E+00
          2   -1    0    0  501    0  0.00000000000E+00  0.00000000000E+00  0.26742959445E+04  0.26742959445E+04  0.00000000000E+00 0. -1.
          1   -1    0    0  502    0 -0.00000000000E+00 -0.00000000000E+00 -0.16549670503E+04  0.16549670503E+04  0.00000000000E+00 0. -1.
         25    1    1    2    0    0 -0.18661335656E+03  0.15034650259E+03  0.87299535648E+03  0.91387882573E+03  0.12500000000E+03 0.  0.
          2    1    1    2  501    0  0.11503693007E+03 -0.91583423935E+02  0.17765072351E+04  0.17825821089E+04  0.00000000000E+00 0. -1.
          1    1    1    2  502    0  0.71576426488E+02 -0.58763078651E+02 -0.16301736974E+04  0.16328020602E+04  0.00000000000E+00 0. -1.
<mgrwt>
<rscale>  0 0.12135308E+03</rscale>
<asrwt>0</asrwt>
<pdfrwt beam="1">  1        2 0.41143015E+00 0.15902010E+03</pdfrwt>
<pdfrwt beam="2">  1        1 0.25461032E+00 0.92608230E+02</pdfrwt>
<totfact> 0.29965705E+00</totfact>
</mgrwt>
</event>
<event>
 5    1  0.7114032E-003  0.6672968E+02  0.7546771E-02  0.1471667E+00
          1   -1    0    0  502    0 -0.00000000000E+00  0.00000000000E+00  0.11584685488E+04  0.11584685488E+04  0.00000000000E+00 0. -1.
          2   -1    0    0  501    0  0.00000000000E+00 -0.00000000000E+00 -0.11945204574E+04  0.11945204574E+04  0.00000000000E+00 0. -1.
         25    1    1    2    0    0  0.97194423034E+01  0.34539920451E+02  0.34231879733E+03  0.36618933992E+03  0.12500000000E+03 0.  0.
          2    1    1    2  501    0 -0.17911294400E+02 -0.64366234345E+02 -0.11813435336E+04  0.11832313260E+04  0.00000000000E+00 0. -1.
          1    1    1    2  502    0  0.81918520965E+01  0.29826313894E+02  0.80297282766E+03  0.80356834022E+03  0.00000000000E+00 0. -1.
<mgrwt>
<rscale>  0 0.45431306E+02</rscale>
<asrwt>0</asrwt>
<pdfrwt beam="2">  1        2 0.18377238E+00 0.66729680E+02</pdfrwt>
<pdfrwt beam="1">  1        1 0.17822593E+00 0.30930817E+02</pdfrwt>
<totfact> 0.43699184E+01</totfact>
</mgrwt>
</event>
<event>
 5    1  0.7114032E-003  0.5282744E+02  0.7546771E-02  0.1470864E+00
          1   -1    0    0  502    0  0.00000000000E+00  0.00000000000E+00  0.11867719383E+03  0.11867719383E+03  0.00000000000E+00 0. -1.
         -2   -1    0    0    0  501 -0.00000000000E+00 -0.00000000000E+00 -0.12087272281E+03  0.12087272281E+03  0.00000000000E+00 0.  1.
         25    1    1    2    0    0 -0.56278907125E+02 -0.13616856526E+01  0.24809958331E+02  0.13931871234E+03  0.12500000000E+03 0.  0.
          1    1    1    2  502    0  0.16295875915E+02 -0.35757467791E+02  0.13549320865E+00  0.39295934053E+02  0.00000000000E+00 0. -1.
         -2    1    1    2    0  501  0.39983031210E+02  0.37119153444E+02 -0.27140980513E+02  0.60935270249E+02  0.00000000000E+00 0.  1.
<mgrwt>
<rscale>  0 0.45561948E+02</rscale>
<asrwt>0</asrwt>
<pdfrwt beam="1">  1        1 0.18258030E-01 0.39295700E+02</pdfrwt>
<pdfrwt beam="2">  1       -2 0.18595804E-01 0.52827437E+02</pdfrwt>
<totfact> 0.52013154E+03</totfact>
</mgrwt>
</event>
<event>
 5    1  0.7114032E-003  0.4224267E+03  0.7546771E-02  0.1118936E+00
          2   -1    0    0  501    0  0.00000000000E+00  0.00000000000E+00  0.13805892205E+04  0.13805892205E+04  0.00000000000E+00 0. -1.
          1   -1    0    0  502    0 -0.00000000000E+00 -0.00000000000E+00 -0.26729685414E+04  0.26729685414E+04  0.00000000000E+00 0. -1.
         25    1    1    2    0    0  0.29136828335E+03  0.39296948662E+02  0.17794560357E+03  0.36569025766E+03  0.12500000000E+03 0.  0.
          2    1    1    2  501    0  0.13282969563E+03  0.36771340485E+02  0.10863835133E+04  0.10950913192E+04  0.00000000000E+00 0. -1.
          1    1    1    2  502    0 -0.42419797897E+03 -0.76068289147E+02 -0.25567084378E+04  0.25927761850E+04  0.00000000000E+00 0. -1.
<mgrwt>
<rscale>  0 0.24129062E+03</rscale>
<asrwt>0</asrwt>
<pdfrwt beam="1">  1        2 0.21239834E+00 0.13782547E+03</pdfrwt>
<pdfrwt beam="2">  1        1 0.41122593E+00 0.42242674E+03</pdfrwt>
<totfact> 0.26223803E+00</totfact>
</mgrwt>
</event>
<event>
 5    1  0.7114032E-003  0.7014962E+02  0.7546771E-02  0.1375904E+00
          2   -1    0    0  501    0  0.00000000000E+00  0.00000000000E+00  0.34493864096E+03  0.34493864096E+03  0.00000000000E+00 0. -1.
          1   -1    0    0  502    0 -0.00000000000E+00 -0.00000000000E+00 -0.27411874547E+03  0.27411874547E+03  0.00000000000E+00 0. -1.
         25    1    1    2    0    0 -0.43869258398E+02 -0.10596690597E+03  0.87757408033E+02  0.19099701479E+03  0.12500000000E+03 0.  0.
          2    1    1    2  501    0  0.48889066855E+02  0.44915822969E+02  0.19576326677E+03  0.20671436483E+03  0.00000000000E+00 0. -1.
          1    1    1    2  502    0 -0.50198084574E+01  0.61051083005E+02 -0.21270077930E+03  0.22134600681E+03  0.00000000000E+00 0. -1.
<mgrwt>
<rscale>  0 0.65552747E+02</rscale>
<asrwt>0</asrwt>
<pdfrwt beam="1">  1        2 0.53067483E-01 0.70149617E+02</pdfrwt>
<pdfrwt beam="2">  1        1 0.42172115E-01 0.61257107E+02</pdfrwt>
<totfact> 0.12464044E+03</totfact>
</mgrwt>
</event>
<event>
 5    1  0.7114032E-003  0.4231634E+02  0.7546771E-02  0.1552505E+00
         -2   -1    0    0    0  501 -0.00000000000E+00  0.00000000000E+00  0.37826396864E+02  0.37826396864E+02  0.00000000000E+00 0.  1.
          1   -1    0    0  502    0  0.00000000000E+00 -0.00000000000E+00 -0.30674170189E+03  0.30674170189E+03  0.00000000000E+00 0. -1.
         25    1    1    2    0    0 -0.20978210729E+02  0.13061328037E+02 -0.18996977900E+03  0.22874483721E+03  0.12500000000E+03 0.  0.
          1    1    1    2  502    0  0.30845559612E+02 -0.39513097799E+02 -0.70214570788E+02  0.86271776360E+02  0.00000000000E+00 0. -1.
         -2    1    1    2    0  501 -0.98673488832E+01  0.26451769762E+02 -0.87309552420E+01  0.29551485191E+02  0.00000000000E+00 0.  1.
<mgrwt>
<rscale>  0 0.34564233E+02</rscale>
<asrwt>0</asrwt>
<pdfrwt beam="2">  1        1 0.47191029E-01 0.42316344E+02</pdfrwt>
<pdfrwt beam="1">  1       -2 0.58194459E-02 0.28232263E+02</pdfrwt>
<totfact> 0.93294744E+03</totfact>
</mgrwt>
</event>
<event>
 5    1  0.7114032E-003  0.3751702E+02  0.7546771E-02  0.1539766E+00
          1   -1    0    0  502    0  0.00000000000E+00  0.00000000000E+00  0.13451161556E+04  0.13451161556E+04  0.00000000000E+00 0. -1.
         -2   -1    0    0    0  501 -0.00000000000E+00 -0.00000000000E+00 -0.88587591603E+01  0.88587591603E+01  0.00000000000E+00 0.  1.
         25    1    1    2    0    0  0.38243763872E+02 -0.90906119019E+01  0.72595183268E+03  0.73768305394E+03  0.12500000000E+03 0.  0.
          1    1    1    2  502    0 -0.21330161165E+02 -0.27209246698E+02  0.43935709328E+03  0.44071529846E+03  0.00000000000E+00 0. -1.
         -2    1    1    2    0  501 -0.16913602707E+02  0.36299858600E+02  0.17094847051E+03  0.17557656239E+03  0.00000000000E+00 0.  1.
<mgrwt>
<rscale>  0 0.36015140E+02</rscale>
<asrwt>0</asrwt>
<pdfrwt beam="1">  1        1 0.20694078E+00 0.34573384E+02</pdfrwt>
<pdfrwt beam="2">  1       -2 0.13628871E-02 0.37517018E+02</pdfrwt>
<totfact> 0.96876561E+03</totfact>
</mgrwt>
</event>
<event>
 5    1  0.7114032E-003  0.1028969E+03  0.7546771E-02  0.1334324E+00
          2   -1    0    0  501    0  0.00000000000E+00  0.00000000000E+00  0.13182223870E+04  0.13182223870E+04  0.00000000000E+00 0. -1.
          2   -1    0    0  502    0 -0.00000000000E+00 -0.00000000000E+00 -0.61464466987E+02  0.61464466987E+02  0.00000000000E+00 0.  1.
         25    1    1    2    0    0  0.96807551518E+02 -0.20659003090E+02  0.73371864385E+02  0.17551902154E+03  0.12500000000E+03 0.  0.
          2    1    1    2  501    0  0.16518543763E+01 -0.59363620736E+02  0.75645681900E+03  0.75878434822E+03  0.00000000000E+00 0. -1.
          2    1    1    2  502    0 -0.98459405894E+02  0.80022623825E+02  0.42692923658E+03  0.44538348418E+03  0.00000000000E+00 0.  1.
<mgrwt>
<rscale>  0 0.78170936E+02</rscale>
<asrwt>0</asrwt>
<pdfrwt beam="1">  1        2 0.20280342E+00 0.59386599E+02</pdfrwt>
<pdfrwt beam="2">  1        2 0.94560728E-02 0.10289687E+03</pdfrwt>
<totfact> 0.19112979E+03</totfact>
</mgrwt>
</event>
<event>
 5    1  0.7114032E-003  0.2798425E+02  0.7546771E-02  0.1656559E+00
         -1   -1    0    0    0  501 -0.00000000000E+00  0.00000000000E+00  0.83566798697E+02  0.83566798697E+02  0.00000000000E+00 0.  1.
          2   -1    0    0  502    0  0.00000000000E+00 -0.00000000000E+00 -0.67651095087E+03  0.67651095087E+03  0.00000000000E+00 0. -1.
         25    1    1    2    0    0 -0.58873227424E+01  0.21790894276E+02 -0.25670015211E+03  0.28640787652E+03  0.12500000000E+03 0.  0.
          2    1    1    2  502    0  0.22886547419E+02  0.62756321345E+00 -0.40173731854E+03  0.40238919095E+03  0.00000000000E+00 0. -1.
         -1    1    1    2    0  501 -0.16999224677E+02 -0.22418457490E+02  0.65493318470E+02  0.71280682096E+02  0.00000000000E+00 0.  1.
<mgrwt>
<rscale>  0 0.25312125E+02</rscale>
<asrwt>0</asrwt>
<pdfrwt beam="2">  1        2 0.10407861E+00 0.22895150E+02</pdfrwt>
<pdfrwt beam="1">  1       -1 0.12856430E-01 0.27984252E+02</pdfrwt>
<totfact> 0.19155712E+03</totfact>
</mgrwt>
</event>
<event>
 5    1  0.7114032E-003  0.9237838E+02  0.7546771E-02  0.1436046E+00
          2   -1    0    0  501    0  0.00000000000E+00  0.00000000000E+00  0.22342057494E+03  0.22342057494E+03  0.00000000000E+00 0. -1.
          1   -1    0    0  502    0 -0.00000000000E+00 -0.00000000000E+00 -0.98611921484E+03  0.98611921484E+03  0.00000000000E+00 0. -1.
         25    1    1    2    0    0 -0.66663877241E+02 -0.73013517966E+02  0.18371467330E+02  0.16042929018E+03  0.12500000000E+03 0.  0.
          2    1    1    2  501    0  0.27082823091E+02 -0.10389812400E+02  0.13009033559E+03  0.13328511891E+03  0.00000000000E+00 0. -1.
          1    1    1    2  502    0  0.39581054150E+02  0.83403330366E+02 -0.91116044282E+03  0.91582538070E+03  0.00000000000E+00 0. -1.
<mgrwt>
<rscale>  0 0.51765374E+02</rscale>
<asrwt>0</asrwt>
<pdfrwt beam="1">  1        2 0.34372396E-01 0.29007370E+02</pdfrwt>
<pdfrwt beam="2">  1        1 0.15171065E+00 0.92378384E+02</pdfrwt>
<totfact> 0.34498803E+02</totfact>
</mgrwt>
</event>
<event>
 5    1  0.7114032E-003  0.4895663E+02  0.7546771E-02  0.1579857E+00
          2   -1    0    0  502    0  0.00000000000E+00  0.00000000000E+00  0.20829823196E+03  0.20829823196E+03  0.00000000000E+00 0.  1.
         -1   -1    0    0    0  501 -0.00000000000E+00 -0.00000000000E+00 -0.11362826286E+03  0.11362826286E+03  0.00000000000E+00 0.  1.
         25    1    1    2    0    0  0.42151222872E+02 -0.52423062650E+02 -0.71123777510E+01  0.14212842434E+03  0.12500000000E+03 0.  0.
          2    1    1    2  502    0 -0.34437430474E+02  0.33378700595E+02  0.13358612065E+03  0.14193423090E+03  0.00000000000E+00 0.  1.
         -1    1    1    2    0  501 -0.77137923985E+01  0.19044362055E+02 -0.31803773802E+02  0.37863839574E+02  0.00000000000E+00 0.  1.
<mgrwt>
<rscale>  0 0.31716324E+02</rscale>
<asrwt>0</asrwt>
<pdfrwt beam="1">  1        2 0.32045882E-01 0.48956633E+02</pdfrwt>
<pdfrwt beam="2">  1       -1 0.17481271E-01 0.20547270E+02</pdfrwt>
<totfact> 0.39594248E+03</totfact>
</mgrwt>
</event>
<event>
 5    1  0.7114032E-003  0.8122869E+02  0.7546771E-02  0.1343964E+00
          1   -1    0    0  502    0  0.00000000000E+00  0.00000000000E+00  0.96850851166E+03  0.96850851166E+03  0.00000000000E+00 0. -1.
         -2   -1    0    0    0  501 -0.00000000000E+00 -0.00000000000E+00 -0.45972373596E+02  0.45972373596E+02  0.00000000000E+00 0.  1.
         25    1    1    2    0    0  0.23961474184E+02  0.47815638575E+02  0.24074840188E+03  0.27648739672E+03  0.12500000000E+03 0.  0.
          1    1    1    2  502    0 -0.54900523118E+02  0.42114909056E+02  0.62161120566E+03  0.62545041690E+03  0.00000000000E+00 0. -1.
         -2    1    1    2    0  501  0.30939048934E+02 -0.89930547631E+02  0.60176530524E+02  0.11254307163E+03  0.00000000000E+00 0.  1.
<mgrwt>
<rscale>  0 0.74969946E+02</rscale>
<asrwt>0</asrwt>
<pdfrwt beam="1">  1        1 0.14900129E+00 0.69193446E+02</pdfrwt>
<pdfrwt beam="2">  1       -2 0.70726736E-02 0.81228688E+02</pdfrwt>
<totfact> 0.16931241E+03</totfact>
</mgrwt>
</event>
<event>
 5    1  0.7114032E-003  0.1200821E+03  0.7546771E-02  0.1278046E+00
          1   -1    0    0  502    0  0.00000000000E+00  0.00000000000E+00  0.19759115534E+04  0.19759115534E+04  0.00000000000E+00 0. -1.
         -2   -1    0    0    0  501 -0.00000000000E+00 -0.00000000000E+00 -0.44477773993E+02  0.44477773993E+02  0.00000000000E+00 0.  1.
         25    1    1    2    0    0 -0.12200794439E+03  0.13443299656E+03  0.69395445715E+03  0.72811809321E+03  0.12500000000E+03 0.  0.
          1    1    1    2  502    0  0.24300937900E+02 -0.81536321076E+02  0.11437495810E+04  0.11469096787E+04  0.00000000000E+00 0. -1.
         -2    1    1    2    0  501  0.97707006488E+02 -0.52896675485E+02  0.93729741256E+02  0.14536155541E+03  0.00000000000E+00 0.  1.
<mgrwt>
<rscale>  0 0.10107746E+03</rscale>
<asrwt>0</asrwt>
<pdfrwt beam="1">  1        1 0.30398633E+00 0.85080593E+02</pdfrwt>
<pdfrwt beam="2">  1       -2 0.68427360E-02 0.12008206E+03</pdfrwt>
<totfact> 0.40117739E+02</totfact>
</mgrwt>
</event>
<event>
 5    1  0.7114032E-003  0.1702160E+03  0.7546771E-02  0.1292344E+00
          2   -1    0    0  502    0  0.00000000000E+00  0.00000000000E+00  0.73864261624E+03  0.73864261624E+03  0.00000000000E+00 0. -1.
         -2   -1    0    0    0  501 -0.00000000000E+00 -0.00000000000E+00 -0.10947297990E+04  0.10947297990E+04  0.00000000000E+00 0.  1.
         25    1    1    2    0    0  0.15147374079E+03  0.26832119541E+02 -0.39551610226E+03  0.44240506771E+03  0.12500000000E+03 0.  0.
          2    1    1    2  502    0 -0.16929997992E+03  0.22490930900E+02  0.70395432454E+03  0.72437560437E+03  0.00000000000E+00 0. -1.
         -2    1    1    2    0  501  0.17826239127E+02 -0.49323050441E+02 -0.66452540507E+03  0.66659174319E+03  0.00000000000E+00 0.  1.
<mgrwt>
<rscale>  0 0.94483207E+02</rscale>
<asrwt>0</asrwt>
<pdfrwt beam="1">  1        2 0.11363733E+00 0.17021602E+03</pdfrwt>
<pdfrwt beam="2">  1       -2 0.16841997E+00 0.52445573E+02</pdfrwt>
<totfact> 0.10333819E+01</totfact>
</mgrwt>
</event>
<event>
 5    1  0.7114032E-003  0.1049128E+03  0.7546771E-02  0.1337296E+00
          2   -1    0    0  501    0  0.00000000000E+00  0.00000000000E+00  0.92148329969E+03  0.92148329969E+03  0.00000000000E+00 0. -1.
          2   -1    0    0  502    0 -0.00000000000E+00 -0.00000000000E+00 -0.17137482425E+04  0.17137482425E+04  0.00000000000E+00 0. -1.
         25    1    1    2    0    0  0.96873778286E+02  0.11206389068E+03 -0.89693214914E+03  0.91763561651E+03  0.12500000000E+03 0.  0.
          2    1    1    2  501    0 -0.45953137578E+02 -0.33308972289E+02  0.90751558583E+03  0.90928857741E+03  0.00000000000E+00 0. -1.
          2    1    1    2  502    0 -0.50920640708E+02 -0.78754918390E+02 -0.80284837946E+03  0.80830734824E+03  0.00000000000E+00 0. -1.
<mgrwt>
<rscale>  0 0.77164586E+02</rscale>
<asrwt>0</asrwt>
<pdfrwt beam="1">  1        2 0.14176666E+00 0.56755427E+02</pdfrwt>
<pdfrwt beam="2">  1        2 0.26365357E+00 0.10491285E+03</pdfrwt>
<totfact> 0.56544769E+01</totfact>
</mgrwt>
</event>
<event>
 5    1  0.7114032E-003  0.3447178E+02  0.7546771E-02  0.1611947E+00
          2   -1    0    0  501    0  0.00000000000E+00  0.00000000000E+00  0.16884543007E+04  0.16884543007E+04  0.00000000000E+00 0. -1.
          1   -1    0    0  502    0 -0.00000000000E+00 -0.00000000000E+00 -0.66193334674E+03  0.66193334674E+03  0.00000000000E+00 0. -1.
         25    1    1    2    0    0  0.24839853540E+02 -0.66155350917E+01 -0.66972846933E+02  0.14412198255E+03  0.12500000000E+03 0.  0.
          2    1    1    2  501    0 -0.17754487832E+02  0.29579872838E+02  0.16494397597E+04  0.16498005066E+04  0.00000000000E+00 0. -1.
          1    1    1    2  502    0 -0.70853657079E+01 -0.22964337746E+02 -0.55594595883E+03  0.55646515826E+03  0.00000000000E+00 0. -1.
<mgrwt>
<rscale>  0 0.28782715E+02</rscale>
<asrwt>0</asrwt>
<pdfrwt beam="1">  1        2 0.25976220E+00 0.34471784E+02</pdfrwt>
<pdfrwt beam="2">  1        1 0.10183590E+00 0.24032545E+02</pdfrwt>
<totfact> 0.60568391E+01</totfact>
</mgrwt>
</event>
<event>
 5    1  0.7114032E-003  0.1409417E+03  0.7546771E-02  0.1382703E+00
          1   -1    0    0  502    0 -0.00000000000E+00  0.00000000000E+00  0.59102551421E+02  0.59102551421E+02  0.00000000000E+00 0. -1.
          2   -1    0    0  501    0  0.00000000000E+00 -0.00000000000E+00 -0.15872113196E+04  0.15872113196E+04  0.00000000000E+00 0. -1.
         25    1    1    2    0    0 -0.71949989928E+02 -0.10803001172E+03 -0.14012257180E+03  0.22826874427E+03  0.12500000000E+03 0.  0.
          2    1    1    2  501    0  0.54654471090E+02  0.13111194341E+03 -0.13811078565E+04  0.13883934472E+04  0.00000000000E+00 0. -1.
          1    1    1    2  502    0  0.17295518838E+02 -0.23081931695E+02 -0.68783399092E+01  0.29651679591E+02  0.00000000000E+00 0. -1.
<mgrwt>
<rscale>  0 0.63758613E+02</rscale>
<asrwt>0</asrwt>
<pdfrwt beam="2">  1        2 0.24418637E+00 0.14094167E+03</pdfrwt>
<pdfrwt beam="1">  1        1 0.90926996E-02 0.28842859E+02</pdfrwt>
<totfact> 0.10939979E+03</totfact>
</mgrwt>
</event>
<event>
 5    1  0.7114032E-003  0.1110967E+03  0.7546771E-02  0.1405580E+00
          2   -1    0    0  501    0  0.00000000000E+00  0.00000000000E+00  0.33020026040E+03  0.33020026040E+03  0.00000000000E+00 0. -1.
          1   -1    0    0  502    0 -0.00000000000E+00 -0.00000000000E+00 -0.35160813218E+03  0.35160813218E+03  0.00000000000E+00 0. -1.
         25    1    1    2    0    0 -0.10936112213E+03 -0.13555489442E+02  0.80865870066E+02  0.18522390577E+03  0.12500000000E+03 0.  0.
          2    1    1    2  501    0  0.10359316970E+03  0.43485324378E+02  0.18026305261E+03  0.21240830111E+03  0.00000000000E+00 0. -1.
          1    1    1    2  502    0  0.57679524283E+01 -0.29929834936E+02 -0.28253679446E+03  0.28417618570E+03  0.00000000000E+00 0. -1.
<mgrwt>
<rscale>  0 0.58191829E+02</rscale>
<asrwt>0</asrwt>
<pdfrwt beam="1">  1        2 0.50800041E-01 0.11109669E+03</pdfrwt>
<pdfrwt beam="2">  1        1 0.54093558E-01 0.30480556E+02</pdfrwt>
<totfact> 0.96909861E+02</totfact>
</mgrwt>
</event>
<event>
 5    1  0.7114032E-003  0.3665121E+02  0.7546771E-02  0.1548113E+00
          1   -1    0    0  502    0  0.00000000000E+00  0.00000000000E+00  0.20225242602E+03  0.20225242602E+03  0.00000000000E+00 0. -1.
         -1   -1    0    0    0  501 -0.00000000000E+00 -0.00000000000E+00 -0.86315534235E+02  0.86315534235E+02  0.00000000000E+00 0.  1.
         25    1    1    2    0    0  0.40760061310E+02 -0.39721434930E+02  0.10686454200E+03  0.17402357693E+03  0.12500000000E+03 0.  0.
          1    1    1    2  502    0 -0.52708744923E+01  0.33111275644E+02  0.49854532271E+02  0.60080055598E+02  0.00000000000E+00 0. -1.
         -1    1    1    2    0  501 -0.35489186818E+02  0.66101592861E+01 -0.40782182484E+02  0.54464327729E+02  0.00000000000E+00 0.  1.
<mgrwt>
<rscale>  0 0.35054930E+02</rscale>
<asrwt>0</asrwt>
<pdfrwt beam="1">  1        1 0.31115758E-01 0.33528178E+02</pdfrwt>
<pdfrwt beam="2">  1       -1 0.13279313E-01 0.36651206E+02</pdfrwt>
<totfact> 0.48413284E+03</totfact>
</mgrwt>
</event>
<event>
 5    1  0.7114032E-003  0.7403352E+02  0.7546771E-02  0.1423658E+00
          2   -1    0    0  502    0  0.00000000000E+00  0.00000000000E+00  0.33409388960E+03  0.33409388960E+03  0.00000000000E+00 0. -1.
         -2   -1    0    0    0  501 -0.00000000000E+00 -0.00000000000E+00 -0.54193043872E+03  0.54193043872E+03  0.00000000000E+00 0.  1.
         25    1    1    2    0    0  0.47982790029E+02  0.51761942839E+02 -0.16841544764E+03  0.22129258883E+03  0.12500000000E+03 0.  0.
          2    1    1    2  502    0 -0.32660671811E+02  0.22673788715E+02  0.30217733800E+03  0.30478182980E+03  0.00000000000E+00 0. -1.
         -2    1    1    2    0  501 -0.15322118218E+02 -0.74435731555E+02 -0.34159843948E+03  0.34994990969E+03  0.00000000000E+00 0.  1.
<mgrwt>
<rscale>  0 0.54254382E+02</rscale>
<asrwt>0</asrwt>
<pdfrwt beam="1">  1        2 0.51399061E-01 0.39759529E+02</pdfrwt>
<pdfrwt beam="2">  1       -2 0.83373913E-01 0.74033520E+02</pdfrwt>
<totfact> 0.13028590E+02</totfact>
</mgrwt>
</event>
<event>
 5    1  0.7114032E-003  0.1607267E+03  0.7546771E-02  0.1203831E+00
          1   -1    0    0  502    0  0.00000000000E+00  0.00000000000E+00  0.28173487051E+03  0.28173487051E+03  0.00000000000E+00 0. -1.
          1   -1    0    0  501    0 -0.00000000000E+00 -0.00000000000E+00 -0.28776023812E+04  0.28776023812E+04  0.00000000000E+00 0. -1.
         25    1    1    2    0    0 -0.31761491302E+02  0.16868647219E+03  0.65621776842E+01  0.21244288740E+03  0.12500000000E+03 0.  0.
          1    1    1    2  501    0 -0.11259370233E+03 -0.74471805156E+02 -0.27294401709E+04  0.27327764340E+04  0.00000000000E+00 0. -1.
          1    1    1    2  502    0  0.14435519363E+03 -0.94214667034E+02  0.12701048254E+03  0.21411793033E+03  0.00000000000E+00 0. -1.
<mgrwt>
<rscale>  0 0.14729952E+03</rscale>
<asrwt>0</asrwt>
<pdfrwt beam="1">  1        1 0.43343828E-01 0.16072672E+03</pdfrwt>
<pdfrwt beam="2">  1        1 0.44270804E+00 0.13499404E+03</pdfrwt>
<totfact> 0.11183083E+01</totfact>
</mgrwt>
</event>
<event>
 5    1  0.7114032E-003  0.8638777E+02  0.7546771E-02  0.1469224E+00
          2   -1    0    0  502    0  0.00000000000E+00  0.00000000000E+00  0.61615199507E+03  0.61615199507E+03  0.00000000000E+00 0. -1.
          2   -1    0    0  501    0 -0.00000000000E+00 -0.00000000000E+00 -0.29912906273E+03  0.29912906273E+03  0.00000000000E+00 0. -1.
         25    1    1    2    0    0 -0.23928778560E+02 -0.60934050667E+02  0.14645845028E+03  0.20337311187E+03  0.12500000000E+03 0.  0.
          2    1    1    2  501    0 -0.75774241569E+01 -0.23102799272E+02 -0.26554680790E+03  0.26665757794E+03  0.00000000000E+00 0. -1.
          2    1    1    2  502    0  0.31506202717E+02  0.84036849939E+02  0.43611128996E+03  0.44525036798E+03  0.00000000000E+00 0. -1.
<mgrwt>
<rscale>  0 0.45830202E+02</rscale>
<asrwt>0</asrwt>
<pdfrwt beam="1">  1        2 0.94792614E-01 0.86387766E+02</pdfrwt>
<pdfrwt beam="2">  1        2 0.46019856E-01 0.24313714E+02</pdfrwt>
<totfact> 0.83567743E+02</totfact>
</mgrwt>
</event>
<event>
 5    1  0.7114032E-003  0.8942450E+02  0.7546771E-02  0.1315801E+00
          1   -1    0    0  502    0  0.00000000000E+00  0.00000000000E+00  0.58992761788E+03  0.58992761788E+03  0.00000000000E+00 0. -1.
         -2   -1    0    0    0  501 -0.00000000000E+00 -0.00000000000E+00 -0.11261833513E+04  0.11261833513E+04  0.00000000000E+00 0.  1.
         25    1    1    2    0    0  0.30125553889E+02  0.83182776881E+02 -0.26770731061E+00  0.15314044219E+03  0.12500000000E+03 0.  0.
          1    1    1    2  502    0 -0.87344506357E+02 -0.26520849165E+02  0.50787148740E+03  0.51600955994E+03  0.00000000000E+00 0. -1.
         -2    1    1    2    0  501  0.57218952468E+02 -0.56661927716E+02 -0.10438595135E+04  0.10469609671E+04  0.00000000000E+00 0.  1.
<mgrwt>
<rscale>  0 0.84859168E+02</rscale>
<asrwt>0</asrwt>
<pdfrwt beam="1">  1        1 0.90758096E-01 0.89424502E+02</pdfrwt>
<pdfrwt beam="2">  1       -2 0.17325898E+00 0.80526906E+02</pdfrwt>
<totfact> 0.77118437E+00</totfact>
</mgrwt>
</event>
<event>
 5    1  0.7114032E-003  0.3209845E+03  0.7546771E-02  0.1157412E+00
          1   -1    0    0  502    0 -0.00000000000E+00  0.00000000000E+00  0.11928881445E+04  0.11928881445E+04  0.00000000000E+00 0. -1.
          2   -1    0    0  501    0  0.00000000000E+00 -0.00000000000E+00 -0.93473360399E+03  0.93473360399E+03  0.00000000000E+00 0. -1.
         25    1    1    2    0    0  0.37594747124E+03  0.11908658967E+03  0.27709474865E+03  0.49792029151E+03  0.12500000000E+03 0.  0.
          2    1    1    2  501    0 -0.74325970180E+02 -0.86244795531E+02 -0.79152767526E+03  0.79967404316E+03  0.00000000000E+00 0. -1.
          1    1    1    2  502    0 -0.30162150106E+03 -0.32841794143E+02  0.77258746711E+03  0.83002741381E+03  0.00000000000E+00 0. -1.
<mgrwt>
<rscale>  0 0.19116762E+03</rscale>
<asrwt>0</asrwt>
<pdfrwt beam="2">  1        2 0.14380517E+00 0.11385304E+03</pdfrwt>
<pdfrwt beam="1">  1        1 0.18352125E+00 0.32098447E+03</pdfrwt>
<totfact> 0.47335558E+01</totfact>
</mgrwt>
</event>
<event>
 5    1  0.7114032E-003  0.1470410E+03  0.7546771E-02  0.1347185E+00
          1   -1    0    0  502    0 -0.00000000000E+00  0.00000000000E+00  0.10153624064E+03  0.10153624064E+03  0.00000000000E+00 0. -1.
          2   -1    0    0  501    0  0.00000000000E+00 -0.00000000000E+00 -0.11617115945E+04  0.11617115945E+04  0.00000000000E+00 0. -1.
         25    1    1    2    0    0  0.14440462526E+03  0.95148598662E+02 -0.88984309909E+02  0.23119074167E+03  0.12500000000E+03 0.  0.
          2    1    1    2  501    0 -0.13226899347E+03 -0.60003867174E+02 -0.98251300611E+03  0.99319049425E+03  0.00000000000E+00 0. -1.
          1    1    1    2  502    0 -0.12135631784E+02 -0.35144731487E+02  0.11321962135E+02  0.38866599243E+02  0.00000000000E+00 0. -1.
<mgrwt>
<rscale>  0 0.73940049E+02</rscale>
<asrwt>0</asrwt>
<pdfrwt beam="2">  1        2 0.17872485E+00 0.14704104E+03</pdfrwt>
<pdfrwt beam="1">  1        1 0.15620961E-01 0.37180986E+02</pdfrwt>
<totfact> 0.95523910E+02</totfact>
</mgrwt>
</event>
<event>
 5    1  0.7114032E-003  0.7624805E+02  0.7546771E-02  0.1367466E+00
         -1   -1    0    0    0  501 -0.00000000000E+00  0.00000000000E+00  0.93679892082E+02  0.93679892082E+02  0.00000000000E+00 0.  1.
          2   -1    0    0  502    0  0.00000000000E+00 -0.00000000000E+00 -0.35158119209E+03  0.35158119209E+03  0.00000000000E+00 0. -1.
         25    1    1    2    0    0 -0.80016809671E+02 -0.89458592877E+02 -0.30461881465E+02  0.17595015172E+03  0.12500000000E+03 0.  0.
          2    1    1    2  502    0  0.65903448081E+02  0.30705603723E+02 -0.17425494288E+03  0.18881441599E+03  0.00000000000E+00 0. -1.
         -1    1    1    2    0  501  0.14113361590E+02  0.58752989154E+02 -0.53184475670E+02  0.80496516459E+02  0.00000000000E+00 0.  1.
<mgrwt>
<rscale>  0 0.67876637E+02</rscale>
<asrwt>0</asrwt>
<pdfrwt beam="2">  1        2 0.54089414E-01 0.76248047E+02</pdfrwt>
<pdfrwt beam="1">  1       -1 0.14412291E-01 0.60424339E+02</pdfrwt>
<totfact> 0.33337690E+03</totfact>
</mgrwt>
</event>
<event>
 5    1  0.7114032E-003  0.9197624E+02  0.7546771E-02  0.1415080E+00
          3   -1    0    0  502    0 -0.00000000000E+00  0.00000000000E+00  0.38044094465E+03  0.38044094465E+03  0.00000000000E+00 0. -1.
          2   -1    0    0  501    0  0.00000000000E+00 -0.00000000000E+00 -0.17439968747E+03  0.17439968747E+03  0.00000000000E+00 0. -1.
         25    1    1    2    0    0 -0.58333755867E+02 -0.55596271426E+02  0.14593610844E+03  0.20836535273E+03  0.12500000000E+03 0.  0.
          2    1    1    2  501    0  0.86246075762E+02  0.35855333325E+02 -0.12623063147E+03  0.15702917828E+03  0.00000000000E+00 0. -1.
          3    1    1    2  502    0 -0.27912319895E+02  0.19740938101E+02  0.18633578021E+03  0.18944610111E+03  0.00000000000E+00 0. -1.
<mgrwt>
<rscale>  0 0.56075490E+02</rscale>
<asrwt>0</asrwt>
<pdfrwt beam="2">  1        2 0.26830721E-01 0.91976236E+02</pdfrwt>
<pdfrwt beam="1">  1        3 0.58529376E-01 0.34187750E+02</pdfrwt>
<totfact> 0.31489003E+02</totfact>
</mgrwt>
</event>
<event>
 5    1  0.7114032E-003  0.1103410E+03  0.7546771E-02  0.1303482E+00
          2   -1    0    0  501    0  0.00000000000E+00  0.00000000000E+00  0.41413894896E+03  0.41413894896E+03  0.00000000000E+00 0. -1.
          1   -1    0    0  502    0 -0.00000000000E+00 -0.00000000000E+00 -0.52191678748E+03  0.52191678748E+03  0.00000000000E+00 0. -1.
         25    1    1    2    0    0 -0.64266489911E+02  0.16004148456E+03 -0.11183679689E+03  0.24057416246E+03  0.12500000000E+03 0.  0.
          2    1    1    2  501    0  0.14520581831E+02 -0.10663552671E+03  0.33744978288E+03  0.35419533991E+03  0.00000000000E+00 0. -1.
          1    1    1    2  502    0  0.49745908080E+02 -0.53405957848E+02 -0.33339082450E+03  0.34128623407E+03  0.00000000000E+00 0. -1.
<mgrwt>
<rscale>  0 0.89740023E+02</rscale>
<asrwt>0</asrwt>
<pdfrwt beam="1">  1        2 0.63713685E-01 0.11034103E+03</pdfrwt>
<pdfrwt beam="2">  1        1 0.80294890E-01 0.72985284E+02</pdfrwt>
<totfact> 0.46522267E+02</totfact>
</mgrwt>
</event>
<event>
 5    1  0.7114032E-003  0.7683806E+02  0.7546771E-02  0.1352474E+00
          2   -1    0    0  502    0  0.00000000000E+00  0.00000000000E+00  0.90050751965E+02  0.90050751965E+02  0.00000000000E+00 0. -1.
         -1   -1    0    0    0  501 -0.00000000000E+00 -0.00000000000E+00 -0.12048085846E+04  0.12048085846E+04  0.00000000000E+00 0.  1.
         25    1    1    2    0    0  0.37554814368E+02  0.65038397879E+02 -0.43538770563E+03  0.45915989753E+03  0.12500000000E+03 0.  0.
          2    1    1    2  502    0 -0.77542809754E+02 -0.10024966432E+02  0.56643730644E+02  0.96549984556E+02  0.00000000000E+00 0. -1.
         -1    1    1    2    0  501  0.39987995386E+02 -0.55013431447E+02 -0.73601385763E+03  0.73914945447E+03  0.00000000000E+00 0.  1.
<mgrwt>
<rscale>  0 0.72290008E+02</rscale>
<asrwt>0</asrwt>
<pdfrwt beam="1">  1        2 0.13853962E-01 0.76838060E+02</pdfrwt>
<pdfrwt beam="2">  1       -1 0.18535516E+00 0.68011157E+02</pdfrwt>
<totfact> 0.10840988E+02</totfact>
</mgrwt>
</event>
<event>
 5    1  0.7114032E-003  0.4663168E+02  0.7546771E-02  0.1555238E+00
         -1   -1    0    0    0  501 -0.00000000000E+00  0.00000000000E+00  0.44713510396E+02  0.44713510396E+02  0.00000000000E+00 0.  1.
          1   -1    0    0  502    0  0.00000000000E+00 -0.00000000000E+00 -0.37894686579E+03  0.37894686579E+03  0.00000000000E+00 0. -1.
         25    1    1    2    0    0  0.24589352207E+02 -0.22330852081E+02 -0.28928677216E+03  0.31688347976E+03  0.12500000000E+03 0.  0.
          1    1    1    2  502    0 -0.98656149362E+01 -0.23162480461E+02 -0.52634931733E+02  0.58346095822E+02  0.00000000000E+00 0. -1.
         -1    1    1    2    0  501 -0.14723737270E+02  0.45493332542E+02  0.76883484959E+01  0.48430800609E+02  0.00000000000E+00 0.  1.
<mgrwt>
<rscale>  0 0.34263672E+02</rscale>
<asrwt>0</asrwt>
<pdfrwt beam="2">  1        1 0.58299517E-01 0.25175998E+02</pdfrwt>
<pdfrwt beam="1">  1       -1 0.68790016E-02 0.46631685E+02</pdfrwt>
<totfact> 0.62213758E+03</totfact>
</mgrwt>
</event>
<event>
 5    1  0.7114032E-003  0.1120591E+03  0.7546771E-02  0.1433714E+00
         -2   -1    0    0    0  501 -0.00000000000E+00  0.00000000000E+00  0.27712814441E+03  0.27712814441E+03  0.00000000000E+00 0.  1.
          1   -1    0    0  502    0  0.00000000000E+00 -0.00000000000E+00 -0.43814285983E+03  0.43814285983E+03  0.00000000000E+00 0. -1.
         25    1    1    2    0    0 -0.20863584096E+02  0.12796255602E+03 -0.60970142345E+02  0.19013695891E+03  0.12500000000E+03 0.  0.
          1    1    1    2  502    0 -0.99506340418E+01 -0.22209065101E+02 -0.29778802821E+03  0.29878080165E+03  0.00000000000E+00 0. -1.
         -2    1    1    2    0  501  0.30814218138E+02 -0.10575349092E+03  0.19774345513E+03  0.22635324368E+03  0.00000000000E+00 0.  1.
<mgrwt>
<rscale>  0 0.52221729E+02</rscale>
<asrwt>0</asrwt>
<pdfrwt beam="2">  1        1 0.67406593E-01 0.24336345E+02</pdfrwt>
<pdfrwt beam="1">  1       -2 0.42635099E-01 0.11205910E+03</pdfrwt>
<totfact> 0.25995615E+02</totfact>
</mgrwt>
</event>
<event>
 5    1  0.7114032E-003  0.1282178E+03  0.7546771E-02  0.1258411E+00
         -1   -1    0    0    0  501 -0.00000000000E+00  0.00000000000E+00  0.16034380583E+03  0.16034380583E+03  0.00000000000E+00 0.  1.
          1   -1    0    0  502    0  0.00000000000E+00 -0.00000000000E+00 -0.29333989314E+04  0.29333989314E+04  0.00000000000E+00 0. -1.
         25    1    1    2    0    0 -0.88013614014E+02 -0.89708770764E+00 -0.51649840904E+02  0.16136885413E+03  0.12500000000E+03 0.  0.
          1    1    1    2  502    0  0.88361030052E+02 -0.95498552448E+02 -0.28030382269E+04  0.28060561196E+04  0.00000000000E+00 0. -1.
         -1    1    1    2    0  501 -0.34741603767E+00  0.96395640155E+02  0.81632942148E+02  0.12631776353E+03  0.00000000000E+00 0.  1.
<mgrwt>
<rscale>  0 0.11117426E+03</rscale>
<asrwt>0</asrwt>
<pdfrwt beam="2">  1        1 0.45129214E+00 0.12821779E+03</pdfrwt>
<pdfrwt beam="1">  1       -1 0.24668278E-01 0.96396266E+02</pdfrwt>
<totfact> 0.12723849E+01</totfact>
</mgrwt>
</event>
<event>
 5    1  0.7114032E-003  0.3657091E+02  0.7546771E-02  0.1569724E+00
         -2   -1    0    0    0  501 -0.00000000000E+00  0.00000000000E+00  0.19997359101E+04  0.19997359101E+04  0.00000000000E+00 0. -1.
          2   -1    0    0  502    0  0.00000000000E+00 -0.00000000000E+00 -0.99144031670E+02  0.99144031670E+02  0.00000000000E+00 0. -1.
         25    1    1    2    0    0 -0.69137381332E+01 -0.30478888497E+02  0.16898176246E+03  0.21250081991E+03  0.12500000000E+03 0.  0.
          2    1    1    2  502    0 -0.25815364724E+02  0.13846869583E+02 -0.74418832139E+02  0.79977068151E+02  0.00000000000E+00 0. -1.
         -2    1    1    2    0  501  0.32729102857E+02  0.16632018914E+02  0.18060289481E+04  0.18064020537E+04  0.00000000000E+00 0. -1.
<mgrwt>
<rscale>  0 0.32731134E+02</rscale>
<asrwt>0</asrwt>
<pdfrwt beam="2">  1        2 0.15252929E-01 0.29294519E+02</pdfrwt>
<pdfrwt beam="1">  1       -2 0.30765165E+00 0.36570907E+02</pdfrwt>
<totfact> 0.14329973E+01</totfact>
</mgrwt>
</event>
<event>
 5    1  0.7114032E-003  0.1217396E+03  0.7546771E-02  0.1284293E+00
          1   -1    0    0  502    0 -0.00000000000E+00  0.00000000000E+00  0.54134528938E+02  0.54134528938E+02  0.00000000000E+00 0. -1.
          2   -1    0    0  501    0  0.00000000000E+00 -0.00000000000E+00 -0.73878480993E+03  0.73878480993E+03  0.00000000000E+00 0. -1.
         25    1    1    2    0    0 -0.21397384720E+01  0.11323073223E+03 -0.22513630968E+03  0.28131323314E+03  0.12500000000E+03 0.  0.
          2    1    1    2  501    0  0.78856553744E+02  0.60483345195E+01 -0.21299002923E+03  0.22719967203E+03  0.00000000000E+00 0. -1.
          1    1    1    2  502    0 -0.76716815272E+02 -0.11927906675E+03 -0.24652394208E+03  0.28440643370E+03  0.00000000000E+00 0. -1.
<mgrwt>
<rscale>  0 0.98123187E+02</rscale>
<asrwt>0</asrwt>
<pdfrwt beam="2">  1        2 0.11365921E+00 0.79088169E+02</pdfrwt>
<pdfrwt beam="1">  1        1 0.83283887E-02 0.12173957E+03</pdfrwt>
<totfact> 0.43255397E+03</totfact>
</mgrwt>
</event>
<event>
 5    1  0.7114032E-003  0.6925311E+02  0.7546771E-02  0.1421398E+00
          2   -1    0    0  501    0  0.00000000000E+00  0.00000000000E+00  0.16716322032E+04  0.16716322032E+04  0.00000000000E+00 0. -1.
          2   -1    0    0  502    0 -0.00000000000E+00 -0.00000000000E+00 -0.12472161567E+04  0.12472161567E+04  0.00000000000E+00 0. -1.
         25    1    1    2    0    0 -0.29796097667E+02 -0.23012541441E+02  0.26019338253E+03  0.29110647676E+03  0.12500000000E+03 0.  0.
          2    1    1    2  501    0  0.70807880803E+02  0.92905697120E+01  0.13946888043E+04  0.13965159976E+04  0.00000000000E+00 0. -1.
          2    1    1    2  502    0 -0.41011783136E+02  0.13721971729E+02 -0.12304661403E+04  0.12312258856E+04  0.00000000000E+00 0. -1.
<mgrwt>
<rscale>  0 0.54726172E+02</rscale>
<asrwt>0</asrwt>
<pdfrwt beam="1">  1        2 0.25717419E+00 0.69253109E+02</pdfrwt>
<pdfrwt beam="2">  1        2 0.19187941E+00 0.43246490E+02</pdfrwt>
<totfact> 0.41508844E+01</totfact>
</mgrwt>
</event>
<event>
 5    1  0.7114032E-003  0.5164649E+02  0.7546771E-02  0.1443442E+00
          1   -1    0    0  502    0  0.00000000000E+00  0.00000000000E+00  0.20409713595E+04  0.20409713595E+04  0.00000000000E+00 0. -1.
         -2   -1    0    0    0  501 -0.00000000000E+00 -0.00000000000E+00 -0.76265162831E+01  0.76265162831E+01  0.00000000000E+00 0.  1.
         25    1    1    2    0    0  0.48404139831E+02 -0.41854193821E+02  0.13884159123E+04  0.13954993658E+04  0.12500000000E+03 0.  0.
          1    1    1    2  502    0 -0.47863935322E+02 -0.10919031285E+02  0.35879604814E+03  0.36213918003E+03  0.00000000000E+00 0. -1.
         -2    1    1    2    0  501 -0.54020450889E+00  0.52773225107E+02  0.28613288271E+03  0.29095932993E+03  0.00000000000E+00 0.  1.
<mgrwt>
<rscale>  0 0.50353868E+02</rscale>
<asrwt>0</asrwt>
<pdfrwt beam="1">  1        1 0.31399516E+00 0.49093600E+02</pdfrwt>
<pdfrwt beam="2">  1       -2 0.11733118E-02 0.51646487E+02</pdfrwt>
<totfact> 0.45565467E+03</totfact>
</mgrwt>
</event>
<event>
 5    1  0.7114032E-003  0.4723053E+02  0.7546771E-02  0.1483982E+00
          1   -1    0    0  501    0  0.00000000000E+00  0.00000000000E+00  0.15287743673E+04  0.15287743673E+04  0.00000000000E+00 0. -1.
          1   -1    0    0  502    0 -0.00000000000E+00 -0.00000000000E+00 -0.99371913559E+02  0.99371913559E+02  0.00000000000E+00 0. -1.
         25    1    1    2    0    0  0.15572847433E+02 -0.74531306386E+01  0.50467382325E+03  0.52021027538E+03  0.12500000000E+03 0.  0.
          1    1    1    2  501    0 -0.15696095356E+02  0.47502057650E+02  0.10113068735E+04  0.10125435325E+04  0.00000000000E+00 0. -1.
          1    1    1    2  502    0  0.12324792296E+00 -0.40048927011E+02 -0.86578242975E+02  0.95392472981E+02  0.00000000000E+00 0. -1.
<mgrwt>
<rscale>  0 0.43491849E+02</rscale>
<asrwt>0</asrwt>
<pdfrwt beam="1">  1        1 0.23519604E+00 0.47230527E+02</pdfrwt>
<pdfrwt beam="2">  1        1 0.15287988E-01 0.40049117E+02</pdfrwt>
<totfact> 0.32279261E+02</totfact>
</mgrwt>
</event>
<event>
 5    1  0.7114032E-003  0.3355649E+02  0.7546771E-02  0.1633388E+00
         -1   -1    0    0    0  501 -0.00000000000E+00  0.00000000000E+00  0.61770391946E+03  0.61770391946E+03  0.00000000000E+00 0.  1.
          1   -1    0    0  502    0  0.00000000000E+00 -0.00000000000E+00 -0.22546786005E+02  0.22546786005E+02  0.00000000000E+00 0. -1.
         25    1    1    2    0    0  0.28161322093E+02  0.36220413894E+02  0.34752642408E+03  0.37216205325E+03  0.12500000000E+03 0.  0.
          1    1    1    2  502    0 -0.21390767693E+02 -0.41009082141E+01  0.38623550248E+01  0.22120130583E+02  0.00000000000E+00 0. -1.
         -1    1    1    2    0  501 -0.67705543997E+01 -0.32119505680E+02  0.24376835435E+03  0.24596852164E+03  0.00000000000E+00 0.  1.
<mgrwt>
<rscale>  0 0.27034627E+02</rscale>
<asrwt>0</asrwt>
<pdfrwt beam="2">  1        1 0.34687368E-02 0.21780321E+02</pdfrwt>
<pdfrwt beam="1">  1       -1 0.95031359E-01 0.33556486E+02</pdfrwt>
<totfact> 0.25348166E+03</totfact>
</mgrwt>
</event>
<event>
 5    1  0.7114032E-003  0.6122966E+02  0.7546771E-02  0.1475977E+00
          1   -1    0    0  502    0  0.00000000000E+00  0.00000000000E+00  0.17002886378E+03  0.17002886378E+03  0.00000000000E+00 0. -1.
         -2   -1    0    0    0  501 -0.00000000000E+00 -0.00000000000E+00 -0.11498980979E+03  0.11498980979E+03  0.00000000000E+00 0.  1.
         25    1    1    2    0    0  0.21869137069E+02 -0.56291504971E+02 -0.34816634271E+02  0.14312299155E+03  0.12500000000E+03 0.  0.
          1    1    1    2  502    0 -0.31430669914E+02 -0.89850783555E+01  0.62386758153E+02  0.70432423195E+02  0.00000000000E+00 0. -1.
         -2    1    1    2    0  501  0.95615328446E+01  0.65276583326E+02  0.27468930107E+02  0.71463258828E+02  0.00000000000E+00 0.  1.
<mgrwt>
<rscale>  0 0.44739035E+02</rscale>
<asrwt>0</asrwt>
<pdfrwt beam="1">  1        1 0.26158287E-01 0.32689733E+02</pdfrwt>
<pdfrwt beam="2">  1       -2 0.17690740E-01 0.61229660E+02</pdfrwt>
<totfact> 0.36532535E+03</totfact>
</mgrwt>
</event>
<event>
 5    1  0.7114032E-003  0.5944005E+02  0.7546771E-02  0.1461163E+00
          1   -1    0    0  502    0  0.00000000000E+00  0.00000000000E+00  0.18172324738E+03  0.18172324738E+03  0.00000000000E+00 0. -1.
          1   -1    0    0  501    0 -0.00000000000E+00 -0.00000000000E+00 -0.25890586572E+03  0.25890586572E+03  0.00000000000E+00 0. -1.
         25    1    1    2    0    0  0.35518519181E+01  0.31607064642E+02  0.36009694036E+02  0.13391534734E+03  0.12500000000E+03 0.  0.
          1    1    1    2  501    0  0.24104768226E+02  0.28663453664E+02 -0.19661242305E+03  0.20014764132E+03  0.00000000000E+00 0. -1.
          1    1    1    2  502    0 -0.27656620144E+02 -0.60270518306E+02  0.83420110676E+02  0.10656612445E+03  0.00000000000E+00 0. -1.
<mgrwt>
<rscale>  0 0.47181920E+02</rscale>
<asrwt>0</asrwt>
<pdfrwt beam="1">  1        1 0.27957423E-01 0.59440046E+02</pdfrwt>
<pdfrwt beam="2">  1        1 0.39831671E-01 0.37451748E+02</pdfrwt>
<totfact> 0.19928792E+03</totfact>
</mgrwt>
</event>
<event>
 5    1  0.7879874E-003  0.4913199E+02  0.7546771E-02  0.1451923E+00
          1   -1    0    0  502    0  0.00000000000E+00  0.00000000000E+00  0.38113714741E+04  0.38113714741E+04  0.00000000000E+00 0. -1.
         -2   -1    0    0    0  501 -0.00000000000E+00 -0.00000000000E+00 -0.39959955853E+01  0.39959955853E+01  0.00000000000E+00 0.  1.
         25    1    1    2    0    0  0.59048398639E+02  0.13330837940E+02  0.17344512577E+04  0.17400030431E+04  0.12500000000E+03 0.  0.
          1    1    1    2  502    0 -0.39749059947E+02  0.31131575599E+02  0.12441508871E+04  0.12451749245E+04  0.00000000000E+00 0. -1.
         -2    1    1    2    0  501 -0.19299338691E+02 -0.44462413539E+02  0.82877333373E+03  0.83018950210E+03  0.00000000000E+00 0.  1.
<mgrwt>
<rscale>  0 0.48800029E+02</rscale>
<asrwt>0</asrwt>
<pdfrwt beam="1">  1        1 0.58636193E+00 0.49131993E+02</pdfrwt>
<pdfrwt beam="2">  1       -2 0.61477160E-03 0.48470307E+02</pdfrwt>
<totfact> 0.72067096E+02</totfact>
</mgrwt>
</event>
<event>
 5    1  0.7114032E-003  0.8636029E+02  0.7546771E-02  0.1327482E+00
          3   -1    0    0  502    0 -0.00000000000E+00  0.00000000000E+00  0.30070007771E+03  0.30070007771E+03  0.00000000000E+00 0. -1.
          1   -1    0    0  501    0  0.00000000000E+00 -0.00000000000E+00 -0.17286992408E+04  0.17286992408E+04  0.00000000000E+00 0. -1.
         25    1    1    2    0    0  0.10741743353E+03 -0.99946418591E+00 -0.20862813526E+03  0.26587629224E+03  0.12500000000E+03 0.  0.
          1    1    1    2  501    0 -0.44525416113E+02  0.60527931044E+02 -0.14835814547E+04  0.14854831120E+04  0.00000000000E+00 0. -1.
          3    1    1    2  502    0 -0.62892017421E+02 -0.59528466858E+02  0.26421042693E+03  0.27803991426E+03  0.00000000000E+00 0. -1.
<mgrwt>
<rscale>  0 0.80555467E+02</rscale>
<asrwt>0</asrwt>
<pdfrwt beam="2">  1        1 0.26595373E+00 0.75140822E+02</pdfrwt>
<pdfrwt beam="1">  1        3 0.46261550E-01 0.86360291E+02</pdfrwt>
<totfact> 0.14147457E+01</totfact>
</mgrwt>
</event>
<event>
 5    1  0.7114032E-003  0.6030073E+02  0.7546771E-02  0.1403313E+00
         -3   -1    0    0    0  501 -0.00000000000E+00  0.00000000000E+00  0.30155146990E+02  0.30155146990E+02  0.00000000000E+00 0.  1.
          2   -1    0    0  502    0  0.00000000000E+00 -0.00000000000E+00 -0.16077764430E+04  0.16077764430E+04  0.00000000000E+00 0.  1.
         25    1    1    2    0    0  0.55303887283E+01  0.19728460034E+02 -0.65983011017E+03  0.67187839051E+03  0.12500000000E+03 0.  0.
          2    1    1    2  502    0 -0.59993902169E+02 -0.37102165255E+02 -0.90464844396E+03  0.90739442698E+03  0.00000000000E+00 0.  1.
         -3    1    1    2    0  501  0.54463513440E+02  0.17373705222E+02 -0.13142741901E+02  0.58658772524E+02  0.00000000000E+00 0.  1.
<mgrwt>
<rscale>  0 0.58713203E+02</rscale>
<asrwt>0</asrwt>
<pdfrwt beam="2">  1        2 0.24735025E+00 0.60300727E+02</pdfrwt>
<pdfrwt beam="1">  1       -3 0.46392529E-02 0.57167473E+02</pdfrwt>
<totfact> 0.18008625E+03</totfact>
</mgrwt>
</event>
<event>
 5    1  0.7114032E-003  0.1729593E+03  0.7546771E-02  0.1236701E+00
          2   -1    0    0  502    0  0.00000000000E+00  0.00000000000E+00  0.24182941353E+04  0.24182941353E+04  0.00000000000E+00 0. -1.
         -1   -1    0    0    0  501 -0.00000000000E+00 -0.00000000000E+00 -0.13377157222E+03  0.13377157222E+03  0.00000000000E+00 0.  1.
         25    1    1    2    0    0 -0.23668171616E+03 -0.16536764607E+02  0.28833484492E+03  0.39376856418E+03  0.12500000000E+03 0.  0.
          2    1    1    2  502    0  0.15866024538E+03  0.59034480559E+02  0.20483086465E+04  0.20552923039E+04  0.00000000000E+00 0. -1.
         -1    1    1    2    0  501  0.78021470784E+02 -0.42497715952E+02 -0.52120928343E+02  0.10300483938E+03  0.00000000000E+00 0.  1.
<mgrwt>
<rscale>  0 0.12396185E+03</rscale>
<asrwt>0</asrwt>
<pdfrwt beam="1">  1        2 0.37204522E+00 0.17295929E+03</pdfrwt>
<pdfrwt beam="2">  1       -1 0.20580244E-01 0.88844841E+02</pdfrwt>
<totfact> 0.10014940E+02</totfact>
</mgrwt>
</event>
<event>
 5    1  0.7114032E-003  0.3981688E+02  0.7546771E-02  0.1522110E+00
          2   -1    0    0  501    0  0.00000000000E+00  0.00000000000E+00  0.20790363647E+04  0.20790363647E+04  0.00000000000E+00 0. -1.
          1   -1    0    0  502    0 -0.00000000000E+00 -0.00000000000E+00 -0.23143615919E+04  0.23143615919E+04  0.00000000000E+00 0. -1.
         25    1    1    2    0    0  0.47444682871E+02  0.20288865729E+02  0.85591896039E+03  0.86653615202E+03  0.12500000000E+03 0.  0.
          2    1    1    2  501    0 -0.32586888461E+02  0.16652735355E+02  0.12173621711E+04  0.12179120963E+04  0.00000000000E+00 0. -1.
          1    1    1    2  502    0 -0.14857794410E+02 -0.36941601084E+02 -0.23086063587E+04  0.23089497082E+04  0.00000000000E+00 0. -1.
<mgrwt>
<rscale>  0 0.38172139E+02</rscale>
<asrwt>0</asrwt>
<pdfrwt beam="1">  1        2 0.31985175E+00 0.36595340E+02</pdfrwt>
<pdfrwt beam="2">  1        1 0.35605563E+00 0.39816878E+02</pdfrwt>
<totfact> 0.32153862E+00</totfact>
</mgrwt>
</event>
<event>
 5    1  0.7114032E-003  0.9442705E+02  0.7546771E-02  0.1337944E+00
          2   -1    0    0  502    0  0.00000000000E+00  0.00000000000E+00  0.19623848308E+04  0.19623848308E+04  0.00000000000E+00 0. -1.
         -2   -1    0    0    0  501 -0.00000000000E+00 -0.00000000000E+00 -0.24533199702E+02  0.24533199702E+02  0.00000000000E+00 0.  1.
         25    1    1    2    0    0 -0.11796695682E+03 -0.38886965802E+01  0.10688515405E+04  0.10825894607E+04  0.12500000000E+03 0.  0.
          2    1    1    2  502    0  0.40300799229E+02 -0.48037757244E+02  0.75197412885E+03  0.75458390587E+03  0.00000000000E+00 0. -1.
         -2    1    1    2    0  501  0.77666157586E+02  0.51926453825E+02  0.11702596172E+03  0.14974466387E+03  0.00000000000E+00 0.  1.
<mgrwt>
<rscale>  0 0.76947681E+02</rscale>
<asrwt>0</asrwt>
<pdfrwt beam="1">  1        2 0.30190524E+00 0.62703912E+02</pdfrwt>
<pdfrwt beam="2">  1       -2 0.37743400E-02 0.94427054E+02</pdfrwt>
<totfact> 0.24565831E+03</totfact>
</mgrwt>
</event>
<event>
 5    1  0.7114032E-003  0.5085158E+02  0.7546771E-02  0.1447695E+00
          1   -1    0    0  501    0  0.00000000000E+00  0.00000000000E+00  0.53521605712E+03  0.53521605712E+03  0.00000000000E+00 0. -1.
          1   -1    0    0  502    0 -0.00000000000E+00 -0.00000000000E+00 -0.61005881079E+03  0.61005881079E+03  0.00000000000E+00 0. -1.
         25    1    1    2    0    0  0.54762955633E+02 -0.56274248746E+02 -0.21289493116E+02  0.14914427545E+03  0.12500000000E+03 0.  0.
          1    1    1    2  501    0 -0.49981479874E+02  0.81979872383E+01  0.46880986924E+03  0.47153796117E+03  0.00000000000E+00 0. -1.
          1    1    1    2  502    0 -0.47814757589E+01  0.48076261508E+02 -0.52236312980E+03  0.52459263129E+03  0.00000000000E+00 0. -1.
<mgrwt>
<rscale>  0 0.49566273E+02</rscale>
<asrwt>0</asrwt>
<pdfrwt beam="1">  1        1 0.82340932E-01 0.50851584E+02</pdfrwt>
<pdfrwt beam="2">  1        1 0.93855201E-01 0.48313450E+02</pdfrwt>
<totfact> 0.18875405E+02</totfact>
</mgrwt>
</event>
<event>
 5    1  0.7114032E-003  0.4005775E+02  0.7546771E-02  0.1542562E+00
          1   -1    0    0  502    0  0.00000000000E+00  0.00000000000E+00  0.27107572403E+03  0.27107572403E+03  0.00000000000E+00 0. -1.
         -3   -1    0    0    0  501 -0.00000000000E+00 -0.00000000000E+00 -0.63794143212E+02  0.63794143212E+02  0.00000000000E+00 0.  1.
         25    1    1    2    0    0  0.24800779765E+01  0.13970062569E+02  0.67209247283E+02  0.14263027854E+03  0.12500000000E+03 0.  0.
          1    1    1    2  502    0  0.16255652028E+02  0.27328342215E+02  0.14329026477E+03  0.14677596700E+03  0.00000000000E+00 0. -1.
         -3    1    1    2    0  501 -0.18735730004E+02 -0.41298404783E+02 -0.32179312428E+01  0.45463621698E+02  0.00000000000E+00 0.  1.
<mgrwt>
<rscale>  0 0.35689475E+02</rscale>
<asrwt>0</asrwt>
<pdfrwt beam="1">  1        1 0.41703957E-01 0.31797555E+02</pdfrwt>
<pdfrwt beam="2">  1       -3 0.98144837E-02 0.40057753E+02</pdfrwt>
<totfact> 0.33015686E+03</totfact>
</mgrwt>
</event>
<event>
 5    1  0.7114032E-003  0.4997322E+02  0.7546771E-02  0.1562896E+00
          1   -1    0    0  501    0  0.00000000000E+00  0.00000000000E+00  0.23260607799E+03  0.23260607799E+03  0.00000000000E+00 0. -1.
          3   -1    0    0  502    0 -0.00000000000E+00 -0.00000000000E+00 -0.12330159610E+04  0.12330159610E+04  0.00000000000E+00 0. -1.
         25    1    1    2    0    0  0.10592339689E+02 -0.26002652958E+02  0.11659768061E+03  0.17322919714E+03  0.12500000000E+03 0.  0.
          1    1    1    2  501    0  0.13389428653E+02 -0.17930577485E+02  0.85735938554E+02  0.88608315458E+02  0.00000000000E+00 0. -1.
          3    1    1    2  502    0 -0.23981768342E+02  0.43933230443E+02 -0.12027435021E+04  0.12037845263E+04  0.00000000000E+00 0. -1.
<mgrwt>
<rscale>  0 0.33441131E+02</rscale>
<asrwt>0</asrwt>
<pdfrwt beam="1">  1        1 0.35785551E-01 0.22378168E+02</pdfrwt>
<pdfrwt beam="2">  1        3 0.18969476E+00 0.49973224E+02</pdfrwt>
<totfact> 0.12216809E+01</totfact>
</mgrwt>
</event>
<event>
 5    1  0.7114032E-003  0.5565004E+02  0.7546771E-02  0.1519436E+00
         -2   -1    0    0    0  501 -0.00000000000E+00  0.00000000000E+00  0.28460074194E+02  0.28460074194E+02  0.00000000000E+00 0.  1.
          1   -1    0    0  502    0  0.00000000000E+00 -0.00000000000E+00 -0.50835503672E+03  0.50835503672E+03  0.00000000000E+00 0. -1.
         25    1    1    2    0    0  0.32369624561E+02 -0.93423620136E+01 -0.16161095886E+03  0.20707045744E+03  0.12500000000E+03 0.  0.
          1    1    1    2  502    0 -0.53748800860E+02  0.25262138183E+02 -0.22800487264E+03  0.23561267192E+03  0.00000000000E+00 0. -1.
         -2    1    1    2    0  501  0.21379176299E+02 -0.15919776169E+02 -0.90279131028E+02  0.94131981556E+02  0.00000000000E+00 0.  1.
<mgrwt>
<rscale>  0 0.38514570E+02</rscale>
<asrwt>0</asrwt>
<pdfrwt beam="2">  1        1 0.78208469E-01 0.55650039E+02</pdfrwt>
<pdfrwt beam="1">  1       -2 0.43784728E-02 0.26655364E+02</pdfrwt>
<totfact> 0.75081961E+03</totfact>
</mgrwt>
</event>
<event>
 5    1  0.7114032E-003  0.1237099E+03  0.7546771E-02  0.1351100E+00
          1   -1    0    0  502    0  0.00000000000E+00  0.00000000000E+00  0.74543015529E+03  0.74543015529E+03  0.00000000000E+00 0. -1.
         -1   -1    0    0    0  501 -0.00000000000E+00 -0.00000000000E+00 -0.47758618605E+02  0.47758618605E+02  0.00000000000E+00 0.  1.
         25    1    1    2    0    0  0.74679210219E+01  0.13929339677E+03  0.37507998678E+03  0.41924744091E+03  0.12500000000E+03 0.  0.
          1    1    1    2  502    0 -0.39421590430E+02 -0.11090963200E+03  0.30641020436E+03  0.32824110284E+03  0.00000000000E+00 0. -1.
         -1    1    1    2    0  501  0.31953669408E+02 -0.28383764768E+02  0.16181345550E+02  0.45700230139E+02  0.00000000000E+00 0.  1.
<mgrwt>
<rscale>  0 0.72713921E+02</rscale>
<asrwt>0</asrwt>
<pdfrwt beam="1">  1        1 0.11468155E+00 0.12370991E+03</pdfrwt>
<pdfrwt beam="2">  1       -1 0.73474803E-02 0.42739620E+02</pdfrwt>
<totfact> 0.22548642E+03</totfact>
</mgrwt>
</event>
<event>
 5    1  0.7114032E-003  0.6333350E+02  0.7546771E-02  0.1501915E+00
         -2   -1    0    0    0  501  0.00000000000E+00  0.00000000000E+00  0.12809375721E+03  0.12809375721E+03  0.00000000000E+00 0.  1.
         -3   -1    0    0    0  502 -0.00000000000E+00 -0.00000000000E+00 -0.12183397808E+03  0.12183397808E+03  0.00000000000E+00 0.  1.
         25    1    1    2    0    0  0.50368137992E+02  0.20086494473E+02 -0.33949590586E+02  0.14042076515E+03  0.12500000000E+03 0.  0.
         -2    1    1    2    0  501 -0.65757630600E+02  0.13298365472E+01  0.48659158586E+02  0.81814107351E+02  0.00000000000E+00 0.  1.
         -3    1    1    2    0  502  0.15389492608E+02 -0.21416331021E+02 -0.84497888700E+01  0.27692862782E+02  0.00000000000E+00 0.  1.
<mgrwt>
<rscale>  0 0.40868658E+02</rscale>
<asrwt>0</asrwt>
<pdfrwt beam="1">  1       -2 0.19706732E-01 0.63333504E+02</pdfrwt>
<pdfrwt beam="2">  1       -3 0.18743689E-01 0.26372253E+02</pdfrwt>
<totfact> 0.16410419E+03</totfact>
</mgrwt>
</event>
<event>
 5    1  0.7114032E-003  0.8316572E+02  0.7546771E-02  0.1416815E+00
         -2   -1    0    0    0  501 -0.00000000000E+00  0.00000000000E+00  0.58337384149E+03  0.58337384149E+03  0.00000000000E+00 0.  1.
          1   -1    0    0  502    0  0.00000000000E+00 -0.00000000000E+00 -0.46826542471E+02  0.46826542471E+02  0.00000000000E+00 0. -1.
         25    1    1    2    0    0  0.32154725177E+02 -0.10351683041E+03  0.42698255512E+03  0.45791785607E+03  0.12500000000E+03 0.  0.
          1    1    1    2  502    0 -0.30774197476E+01  0.80145451025E+02  0.32264213711E+02  0.86450814447E+02  0.00000000000E+00 0. -1.
         -2    1    1    2    0  501 -0.29077305429E+02  0.23371379387E+02  0.77300530189E+02  0.85831713446E+02  0.00000000000E+00 0.  1.
<mgrwt>
<rscale>  0 0.55700544E+02</rscale>
<asrwt>0</asrwt>
<pdfrwt beam="2">  1        1 0.72040839E-02 0.83165716E+02</pdfrwt>
<pdfrwt beam="1">  1       -2 0.89749817E-01 0.37305644E+02</pdfrwt>
<totfact> 0.93416421E+02</totfact>
</mgrwt>
</event>
<event>
 5    1  0.7114032E-003  0.1133962E+03  0.7546771E-02  0.1331180E+00
         -3   -1    0    0    0  501 -0.00000000000E+00  0.00000000000E+00  0.21957522980E+03  0.21957522980E+03  0.00000000000E+00 0.  1.
          1   -1    0    0  502    0  0.00000000000E+00 -0.00000000000E+00 -0.17030420203E+04  0.17030420203E+04  0.00000000000E+00 0. -1.
         25    1    1    2    0    0  0.15935701170E+03 -0.50950886546E+02 -0.74898583417E+02  0.22186808652E+03  0.12500000000E+03 0.  0.
          1    1    1    2  502    0 -0.10672163770E+03  0.33692279396E+02 -0.15473132950E+04  0.15513552496E+04  0.00000000000E+00 0. -1.
         -3    1    1    2    0  501 -0.52635373999E+02  0.17258607151E+02  0.13874508790E+03  0.14939391398E+03  0.00000000000E+00 0.  1.
<mgrwt>
<rscale>  0 0.79254748E+02</rscale>
<asrwt>0</asrwt>
<pdfrwt beam="2">  1        1 0.26200646E+00 0.11339625E+03</pdfrwt>
<pdfrwt beam="1">  1       -3 0.33780805E-01 0.55392618E+02</pdfrwt>
<totfact> 0.24648737E+01</totfact>
</mgrwt>
</event>
<event>
 5    1  0.7114032E-003  0.7378121E+02  0.7546771E-02  0.1372036E+00
          2   -1    0    0  501    0  0.00000000000E+00  0.00000000000E+00  0.32889362742E+03  0.32889362742E+03  0.00000000000E+00 0. -1.
          2   -1    0    0  502    0 -0.00000000000E+00 -0.00000000000E+00 -0.19925660706E+04  0.19925660706E+04  0.00000000000E+00 0. -1.
         25    1    1    2    0    0  0.34053815753E+02 -0.98074431712E+02 -0.51468034491E+03  0.53972132991E+03  0.12500000000E+03 0.  0.
          2    1    1    2  501    0  0.24561793504E+02  0.54880017648E+02  0.31260200863E+03  0.31833176693E+03  0.00000000000E+00 0. -1.
          2    1    1    2  502    0 -0.58615609257E+02  0.43194414063E+02 -0.14615941069E+04  0.14634066011E+04  0.00000000000E+00 0. -1.
<mgrwt>
<rscale>  0 0.66604398E+02</rscale>
<asrwt>0</asrwt>
<pdfrwt beam="1">  1        2 0.50599020E-01 0.60125685E+02</pdfrwt>
<pdfrwt beam="2">  1        2 0.30654862E+00 0.73781210E+02</pdfrwt>
<totfact> 0.13186083E+02</totfact>
</mgrwt>
</event>
<event>
 5    1  0.7114032E-003  0.9790577E+02  0.7546771E-02  0.1322822E+00
         -2   -1    0    0    0  501  0.00000000000E+00  0.00000000000E+00  0.15581181948E+04  0.15581181948E+04  0.00000000000E+00 0.  1.
         -1   -1    0    0    0  502 -0.00000000000E+00 -0.00000000000E+00 -0.10334967428E+03  0.10334967428E+03  0.00000000000E+00 0.  1.
         25    1    1    2    0    0 -0.39678189340E+02  0.10908667158E+03  0.31729527932E+03  0.36024374374E+03  0.12500000000E+03 0.  0.
         -2    1    1    2    0  501 -0.42061381677E+02 -0.54792328729E+02  0.11885793093E+04  0.11905847864E+04  0.00000000000E+00 0.  1.
         -1    1    1    2    0  502  0.81739571017E+02 -0.54294342851E+02 -0.51106068057E+02  0.11063933897E+03  0.00000000000E+00 0.  1.
<mgrwt>
<rscale>  0 0.82236512E+02</rscale>
<asrwt>0</asrwt>
<pdfrwt beam="1">  1       -2 0.23971047E+00 0.69075025E+02</pdfrwt>
<pdfrwt beam="2">  1       -1 0.15899951E-01 0.97905775E+02</pdfrwt>
<totfact> 0.19325530E+01</totfact>
</mgrwt>
</event>
<event>
 5    1  0.7114032E-003  0.7170693E+02  0.7546771E-02  0.1513703E+00
          1   -1    0    0  502    0  0.00000000000E+00  0.00000000000E+00  0.58720368282E+02  0.58720368282E+02  0.00000000000E+00 0. -1.
         -1   -1    0    0    0  501 -0.00000000000E+00 -0.00000000000E+00 -0.38516471021E+03  0.38516471021E+03  0.00000000000E+00 0.  1.
         25    1    1    2    0    0  0.20541276581E+02 -0.80437176757E+02 -0.26777509486E+03  0.30695371781E+03  0.12500000000E+03 0.  0.
          1    1    1    2  502    0 -0.14241145503E+01  0.70601771814E+02  0.39478104968E+01  0.70726398842E+02  0.00000000000E+00 0. -1.
         -1    1    1    2    0  501 -0.19117162030E+02  0.98354049430E+01 -0.62617057559E+02  0.66204961837E+02  0.00000000000E+00 0.  1.
<mgrwt>
<rscale>  0 0.39263435E+02</rscale>
<asrwt>0</asrwt>
<pdfrwt beam="1">  1        1 0.90339024E-02 0.71706926E+02</pdfrwt>
<pdfrwt beam="2">  1       -1 0.59256112E-01 0.21498862E+02</pdfrwt>
<totfact> 0.20802751E+03</totfact>
</mgrwt>
</event>
<event>
 5    1  0.7114032E-003  0.1214497E+03  0.7546771E-02  0.1388709E+00
         -1   -1    0    0    0  501 -0.00000000000E+00  0.00000000000E+00  0.16426881324E+04  0.16426881324E+04  0.00000000000E+00 0.  1.
          3   -1    0    0  502    0  0.00000000000E+00 -0.00000000000E+00 -0.20499533399E+03  0.20499533399E+03  0.00000000000E+00 0. -1.
         25    1    1    2    0    0  0.77984330420E+02  0.48274434698E+02  0.12954593736E+03  0.20203743891E+03  0.12500000000E+03 0.  0.
          3    1    1    2  502    0  0.27910790860E+02  0.15416006012E+02 -0.16463241941E+03  0.16769167841E+03  0.00000000000E+00 0. -1.
         -1    1    1    2    0  501 -0.10589512128E+03 -0.63690440710E+02  0.14727792804E+04  0.14779543490E+04  0.00000000000E+00 0.  1.
<mgrwt>
<rscale>  0 0.62229001E+02</rscale>
<asrwt>0</asrwt>
<pdfrwt beam="2">  1        3 0.31537745E-01 0.31885192E+02</pdfrwt>
<pdfrwt beam="1">  1       -1 0.25272124E+00 0.12144975E+03</pdfrwt>
<totfact> 0.31984070E+00</totfact>
</mgrwt>
</event>
<event>
 5    1  0.7114032E-003  0.7970910E+02  0.7546771E-02  0.1505299E+00
          2   -1    0    0  502    0  0.00000000000E+00  0.00000000000E+00  0.81576667041E+03  0.81576667041E+03  0.00000000000E+00 0. -1.
         -1   -1    0    0    0  501 -0.00000000000E+00 -0.00000000000E+00 -0.27616674689E+02  0.27616674689E+02  0.00000000000E+00 0.  1.
         25    1    1    2    0    0 -0.74043799821E+02 -0.50395265566E+02  0.59120180806E+03  0.61087375532E+03  0.12500000000E+03 0.  0.
          2    1    1    2  502    0  0.15343471870E+01  0.20417454045E+02  0.12299836989E+03  0.12469092046E+03  0.00000000000E+00 0. -1.
         -1    1    1    2    0  501  0.72509452634E+02  0.29977811521E+02  0.73949817778E+02  0.10781866932E+03  0.00000000000E+00 0.  1.
<mgrwt>
<rscale>  0 0.40398587E+02</rscale>
<asrwt>0</asrwt>
<pdfrwt beam="1">  1        2 0.12550255E+00 0.20475025E+02</pdfrwt>
<pdfrwt beam="2">  1       -1 0.42487198E-02 0.79709102E+02</pdfrwt>
<totfact> 0.87038324E+03</totfact>
</mgrwt>
</event>
<event>
 5    1  0.7114032E-003  0.9704037E+02  0.7546771E-02  0.1448534E+00
          1   -1    0    0  502    0  0.00000000000E+00  0.00000000000E+00  0.49899626255E+02  0.49899626255E+02  0.00000000000E+00 0. -1.
         -2   -1    0    0    0  501 -0.00000000000E+00 -0.00000000000E+00 -0.40312928866E+03  0.40312928866E+03  0.00000000000E+00 0.  1.
         25    1    1    2    0    0  0.78905557651E+02  0.55449193224E+02 -0.21025077715E+03  0.26292791664E+03  0.12500000000E+03 0.  0.
          1    1    1    2  502    0 -0.15266242611E+02  0.20000467656E+02 -0.18461955091E+02  0.31207701865E+02  0.00000000000E+00 0. -1.
         -2    1    1    2    0  501 -0.63639315040E+02 -0.75449660880E+02 -0.12451693016E+03  0.15889329640E+03  0.00000000000E+00 0.  1.
<mgrwt>
<rscale>  0 0.49412898E+02</rscale>
<asrwt>0</asrwt>
<pdfrwt beam="1">  1        1 0.76768656E-02 0.25161019E+02</pdfrwt>
<pdfrwt beam="2">  1       -2 0.62019890E-01 0.97040367E+02</pdfrwt>
<totfact> 0.16682226E+03</totfact>
</mgrwt>
</event>
<event>
 5    1  0.7114032E-003  0.2333003E+03  0.7546771E-02  0.1291774E+00
          2   -1    0    0  502    0  0.00000000000E+00  0.00000000000E+00  0.20472594167E+03  0.20472594167E+03  0.00000000000E+00 0.  1.
         -1   -1    0    0    0  501 -0.00000000000E+00 -0.00000000000E+00 -0.10330866227E+04  0.10330866227E+04  0.00000000000E+00 0.  1.
         25    1    1    2    0    0  0.19983918439E+03  0.84669912050E+02 -0.23713792837E+03  0.34491171435E+03  0.12500000000E+03 0.  0.
          2    1    1    2  502    0 -0.20522740507E+03 -0.12275929290E+03  0.55123081291E+02  0.24541125866E+03  0.00000000000E+00 0.  1.
         -1    1    1    2    0  501  0.53882206757E+01  0.38089380850E+02 -0.64634583393E+03  0.64748959134E+03  0.00000000000E+00 0.  1.
<mgrwt>
<rscale>  0 0.94735084E+02</rscale>
<asrwt>0</asrwt>
<pdfrwt beam="1">  1        2 0.31496299E-01 0.23330026E+03</pdfrwt>
<pdfrwt beam="2">  1       -1 0.15893640E+00 0.38468609E+02</pdfrwt>
<totfact> 0.70607105E+01</totfact>
</mgrwt>
</event>
<event>
 5    1  0.7114032E-003  0.9331556E+02  0.7546771E-02  0.1406160E+00
          1   -1    0    0  502    0  0.00000000000E+00  0.00000000000E+00  0.89342728770E+02  0.89342728770E+02  0.00000000000E+00 0. -1.
          1   -1    0    0  501    0 -0.00000000000E+00 -0.00000000000E+00 -0.56973898059E+03  0.56973898059E+03  0.00000000000E+00 0. -1.
         25    1    1    2    0    0  0.96845432674E+02  0.66851434724E+02 -0.21764128548E+03  0.27720187824E+03  0.12500000000E+03 0.  0.
          1    1    1    2  501    0 -0.12887398276E+02 -0.33746818984E+02 -0.28633227656E+03  0.28860198444E+03  0.00000000000E+00 0. -1.
          1    1    1    2  502    0 -0.83958034398E+02 -0.33104615740E+02  0.23577310218E+02  0.93277846676E+02  0.00000000000E+00 0. -1.
<mgrwt>
<rscale>  0 0.58059606E+02</rscale>
<asrwt>0</asrwt>
<pdfrwt beam="1">  1        1 0.13745036E-01 0.93315564E+02</pdfrwt>
<pdfrwt beam="2">  1        1 0.87652149E-01 0.36123854E+02</pdfrwt>
<totfact> 0.19068929E+03</totfact>
</mgrwt>
</event>
<event>
 5    1  0.7114032E-003  0.7634534E+02  0.7546771E-02  0.1380476E+00
          2   -1    0    0  501    0  0.00000000000E+00  0.00000000000E+00  0.37780726135E+03  0.37780726135E+03  0.00000000000E+00 0. -1.
          2   -1    0    0  502    0 -0.00000000000E+00 -0.00000000000E+00 -0.74798112263E+03  0.74798112263E+03  0.00000000000E+00 0. -1.
         25    1    1    2    0    0  0.41857701347E+02  0.12305416301E+03 -0.37260296847E+03  0.41394729895E+03  0.12500000000E+03 0.  0.
          2    1    1    2  501    0 -0.25833032618E+02 -0.71255712700E+02  0.35099401392E+03  0.35908427976E+03  0.00000000000E+00 0. -1.
          2    1    1    2  502    0 -0.16024668729E+02 -0.51798450305E+02 -0.34856490673E+03  0.35275680527E+03  0.00000000000E+00 0. -1.
<mgrwt>
<rscale>  0 0.64338848E+02</rscale>
<asrwt>0</asrwt>
<pdfrwt beam="1">  1        2 0.58124194E-01 0.76345342E+02</pdfrwt>
<pdfrwt beam="2">  1        2 0.11507402E+00 0.54220563E+02</pdfrwt>
<totfact> 0.54062442E+02</totfact>
</mgrwt>
</event>
<event>
 5    1  0.7114032E-003  0.7948034E+02  0.7546771E-02  0.1365776E+00
         -3   -1    0    0    0  501 -0.00000000000E+00  0.00000000000E+00  0.44697845323E+02  0.44697845323E+02  0.00000000000E+00 0.  1.
          2   -1    0    0  502    0  0.00000000000E+00 -0.00000000000E+00 -0.17586156404E+04  0.17586156404E+04  0.00000000000E+00 0. -1.
         25    1    1    2    0    0  0.23267547616E+02  0.29417608527E+02 -0.68402773136E+03  0.69636607595E+03  0.12500000000E+03 0.  0.
          2    1    1    2  502    0  0.57608566362E+02 -0.11717231979E+02 -0.10221022831E+04  0.10237915401E+04  0.00000000000E+00 0. -1.
         -3    1    1    2    0  501 -0.80876113978E+02 -0.17700376548E+02 -0.77877806597E+01  0.83155869725E+02  0.00000000000E+00 0.  1.
<mgrwt>
<rscale>  0 0.68355674E+02</rscale>
<asrwt>0</asrwt>
<pdfrwt beam="2">  1        2 0.27055630E+00 0.58788098E+02</pdfrwt>
<pdfrwt beam="1">  1       -3 0.68765904E-02 0.79480343E+02</pdfrwt>
<totfact> 0.86593675E+02</totfact>
</mgrwt>
</event>
<event>
 5    1  0.7114032E-003  0.8591836E+02  0.7546771E-02  0.1360676E+00
          2   -1    0    0  502    0  0.00000000000E+00  0.00000000000E+00  0.41442061391E+02  0.41442061391E+02  0.00000000000E+00 0. -1.
         -2   -1    0    0    0  501 -0.00000000000E+00 -0.00000000000E+00 -0.79157453997E+03  0.79157453997E+03  0.00000000000E+00 0.  1.
         25    1    1    2    0    0 -0.13416871801E+03 -0.16207762102E+02 -0.50701526894E+03  0.53940098200E+03  0.12500000000E+03 0.  0.
          2    1    1    2  502    0  0.78951340994E+02  0.30979871460E+01 -0.52833293401E+02  0.95048769907E+02  0.00000000000E+00 0. -1.
         -2    1    1    2    0  501  0.55217377014E+02  0.13109774956E+02 -0.19028391623E+03  0.19856684945E+03  0.00000000000E+00 0.  1.
<mgrwt>
<rscale>  0 0.69828831E+02</rscale>
<asrwt>0</asrwt>
<pdfrwt beam="1">  1        2 0.63757023E-02 0.85918361E+02</pdfrwt>
<pdfrwt beam="2">  1       -2 0.12178069E+00 0.56752312E+02</pdfrwt>
<totfact> 0.59569832E+02</totfact>
</mgrwt>
</event>
<event>
 5    1  0.7114032E-003  0.1205524E+03  0.7546771E-02  0.1335047E+00
          1   -1    0    0  502    0 -0.00000000000E+00  0.00000000000E+00  0.17068696931E+04  0.17068696931E+04  0.00000000000E+00 0. -1.
          2   -1    0    0  501    0  0.00000000000E+00 -0.00000000000E+00 -0.57763226032E+03  0.57763226032E+03  0.00000000000E+00 0. -1.
         25    1    1    2    0    0  0.78465228469E+02 -0.56403868417E+01  0.63118409310E+03  0.64823372747E+03  0.12500000000E+03 0.  0.
          2    1    1    2  501    0 -0.11837520217E+03 -0.25089272054E+02 -0.56207063621E+03  0.57494831085E+03  0.00000000000E+00 0. -1.
          1    1    1    2  502    0  0.39909973704E+02  0.30729658895E+02  0.10601239759E+04  0.10613199151E+04  0.00000000000E+00 0. -1.
<mgrwt>
<rscale>  0 0.77924346E+02</rscale>
<asrwt>0</asrwt>
<pdfrwt beam="2">  1        2 0.88866503E-01 0.12055244E+03</pdfrwt>
<pdfrwt beam="1">  1        1 0.26259533E+00 0.50369812E+02</pdfrwt>
<totfact> 0.46102964E+01</totfact>
</mgrwt>
</event>
<event>
 5    1  0.7114032E-003  0.2151456E+03  0.7546771E-02  0.1324432E+00
          2   -1    0    0  502    0  0.00000000000E+00  0.00000000000E+00  0.10701586069E+04  0.10701586069E+04  0.00000000000E+00 0. -1.
         -1   -1    0    0    0  501 -0.00000000000E+00 -0.00000000000E+00 -0.15195116358E+03  0.15195116358E+03  0.00000000000E+00 0.  1.
         25    1    1    2    0    0  0.21632955999E+03  0.71594794998E+02  0.18530650816E+03  0.31919867663E+03  0.12500000000E+03 0.  0.
          2    1    1    2  502    0 -0.20869857731E+03 -0.41561803352E+02  0.80063171450E+03  0.82842840483E+03  0.00000000000E+00 0. -1.
         -1    1    1    2    0  501 -0.76309826797E+01 -0.30032991645E+02 -0.67730779374E+02  0.74482688985E+02  0.00000000000E+00 0.  1.
<mgrwt>
<rscale>  0 0.81650345E+02</rscale>
<asrwt>0</asrwt>
<pdfrwt beam="1">  1        2 0.16463978E+00 0.21514555E+03</pdfrwt>
<pdfrwt beam="2">  1       -1 0.23377103E-01 0.30987296E+02</pdfrwt>
<totfact> 0.40190863E+02</totfact>
</mgrwt>
</event>
<event>
 5    1  0.7114032E-003  0.1066875E+03  0.7546771E-02  0.1274966E+00
          1   -1    0    0  501    0  0.00000000000E+00  0.00000000000E+00  0.19373021681E+04  0.19373021681E+04  0.00000000000E+00 0. -1.
          1   -1    0    0  502    0 -0.00000000000E+00 -0.00000000000E+00 -0.18012344014E+04  0.18012344014E+04  0.00000000000E+00 0. -1.
         25    1    1    2    0    0  0.17906868243E+03  0.92191915857E+02 -0.20938109263E+03  0.31627580421E+03  0.12500000000E+03 0.  0.
          1    1    1    2  501    0 -0.84461455079E+02 -0.64322311417E+02  0.18807755321E+04  0.18837695452E+04  0.00000000000E+00 0. -1.
          1    1    1    2  502    0 -0.94607227346E+02 -0.27869604440E+02 -0.15353266727E+04  0.15384912201E+04  0.00000000000E+00 0. -1.
<mgrwt>
<rscale>  0 0.10257800E+03</rscale>
<asrwt>0</asrwt>
<pdfrwt beam="1">  1        1 0.29804649E+00 0.10668751E+03</pdfrwt>
<pdfrwt beam="2">  1        1 0.27711298E+00 0.98626783E+02</pdfrwt>
<totfact> 0.25276294E+00</totfact>
</mgrwt>
</event>
<event>
 5    1  0.7114032E-003  0.9833858E+02  0.7546771E-02  0.1371450E+00
          1   -1    0    0  502    0  0.00000000000E+00  0.00000000000E+00  0.16529944231E+04  0.16529944231E+04  0.00000000000E+00 0. -1.
         -1   -1    0    0    0  501 -0.00000000000E+00 -0.00000000000E+00 -0.22346222142E+03  0.22346222142E+03  0.00000000000E+00 0.  1.
         25    1    1    2    0    0  0.47275318942E+02 -0.98507690842E+02  0.10113694238E+04  0.10249057675E+04  0.12500000000E+03 0.  0.
          1    1    1    2  502    0 -0.20294857068E+01  0.95749887482E+02  0.62882020518E+03  0.63607154488E+03  0.00000000000E+00 0. -1.
         -1    1    1    2    0  501 -0.45245833235E+02  0.27578033604E+01 -0.21065742728E+03  0.21547933212E+03  0.00000000000E+00 0.  1.
<mgrwt>
<rscale>  0 0.66765771E+02</rscale>
<asrwt>0</asrwt>
<pdfrwt beam="1">  1        1 0.25430683E+00 0.98338576E+02</pdfrwt>
<pdfrwt beam="2">  1       -1 0.34378804E-01 0.45329802E+02</pdfrwt>
<totfact> 0.50239653E+01</totfact>
</mgrwt>
</event>
<event>
 5    1  0.7114032E-003  0.9678373E+02  0.7546771E-02  0.1340965E+00
         -3   -1    0    0    0  501 -0.00000000000E+00  0.00000000000E+00  0.19484028838E+03  0.19484028838E+03  0.00000000000E+00 0.  1.
          1   -1    0    0  502    0  0.00000000000E+00 -0.00000000000E+00 -0.87391860529E+03  0.87391860529E+03  0.00000000000E+00 0. -1.
         25    1    1    2    0    0  0.25516449319E+02 -0.69512897482E+02 -0.46577213851E+03  0.48790554118E+03  0.12500000000E+03 0.  0.
          1    1    1    2  502    0 -0.83071399090E+02  0.84973119473E+02 -0.38299337964E+03  0.40100525835E+03  0.00000000000E+00 0. -1.
         -3    1    1    2    0  501  0.57554949771E+02 -0.15460221991E+02  0.16968720123E+03  0.17984809415E+03  0.00000000000E+00 0.  1.
<mgrwt>
<rscale>  0 0.75946350E+02</rscale>
<asrwt>0</asrwt>
<pdfrwt beam="2">  1        1 0.13444902E+00 0.96783729E+02</pdfrwt>
<pdfrwt beam="1">  1       -3 0.29975428E-01 0.59595224E+02</pdfrwt>
<totfact> 0.11349254E+02</totfact>
</mgrwt>
</event>
<event>
 5    1  0.7114032E-003  0.1597438E+03  0.7546771E-02  0.1276325E+00
          2   -1    0    0  501    0  0.00000000000E+00  0.00000000000E+00  0.27167657474E+04  0.27167657474E+04  0.00000000000E+00 0. -1.
          2   -1    0    0  502    0 -0.00000000000E+00 -0.00000000000E+00 -0.79546944491E+02  0.79546944491E+02  0.00000000000E+00 0.  1.
         25    1    1    2    0    0 -0.13747050080E+03  0.24230453426E+02  0.26899988734E+03  0.32782799278E+03  0.12500000000E+03 0.  0.
          2    1    1    2  501    0 -0.11554287342E+02  0.63982517760E+02  0.22669301666E+04  0.22678623513E+04  0.00000000000E+00 0. -1.
          2    1    1    2  502    0  0.14902478815E+03 -0.88212971185E+02  0.10128874892E+03  0.20062234777E+03  0.00000000000E+00 0.  1.
<mgrwt>
<rscale>  0 0.10191237E+03</rscale>
<asrwt>0</asrwt>
<pdfrwt beam="1">  1        2 0.41796389E+00 0.65017414E+02</pdfrwt>
<pdfrwt beam="2">  1        2 0.12237994E-01 0.15974383E+03</pdfrwt>
<totfact> 0.27995403E+02</totfact>
</mgrwt>
</event>
<event>
 5    1  0.7114032E-003  0.2870648E+02  0.7546771E-02  0.1656998E+00
          2   -1    0    0  501    0  0.00000000000E+00  0.00000000000E+00  0.55147861619E+02  0.55147861619E+02  0.00000000000E+00 0. -1.
          1   -1    0    0  502    0 -0.00000000000E+00 -0.00000000000E+00 -0.12375711561E+04  0.12375711561E+04  0.00000000000E+00 0. -1.
         25    1    1    2    0    0  0.10373425259E+02  0.70330517513E+01 -0.63537275535E+03  0.64767322780E+03  0.12500000000E+03 0.  0.
          2    1    1    2  501    0 -0.28118006204E+02  0.64142582211E+01  0.44526096596E+02  0.53050337034E+02  0.00000000000E+00 0. -1.
          1    1    1    2  502    0  0.17744580946E+02 -0.13447309972E+02 -0.59157663575E+03  0.59199545290E+03  0.00000000000E+00 0. -1.
<mgrwt>
<rscale>  0 0.25281031E+02</rscale>
<asrwt>0</asrwt>
<pdfrwt beam="1">  1        2 0.84842862E-02 0.28706482E+02</pdfrwt>
<pdfrwt beam="2">  1        1 0.19039557E+00 0.22264328E+02</pdfrwt>
<totfact> 0.12046125E+03</totfact>
</mgrwt>
</event>
<event>
 5    1  0.7114032E-003  0.1409281E+03  0.7546771E-02  0.1322543E+00
         -1   -1    0    0    0  501 -0.00000000000E+00  0.00000000000E+00  0.44654887560E+02  0.44654887560E+02  0.00000000000E+00 0.  1.
          2   -1    0    0  502    0  0.00000000000E+00 -0.00000000000E+00 -0.91256228316E+03  0.91256228316E+03  0.00000000000E+00 0. -1.
         25    1    1    2    0    0 -0.78269964113E+02 -0.15423025244E+03 -0.43898173678E+03  0.48810155016E+03  0.12500000000E+03 0.  0.
          2    1    1    2  502    0  0.69574025328E+02  0.10691583407E+03 -0.37852890130E+03  0.39944420098E+03  0.00000000000E+00 0. -1.
         -1    1    1    2    0  501  0.86959387846E+01  0.47314418373E+02 -0.50396757525E+02  0.69671419581E+02  0.00000000000E+00 0.  1.
<mgrwt>
<rscale>  0 0.82338421E+02</rscale>
<asrwt>0</asrwt>
<pdfrwt beam="2">  1        2 0.14039419E+00 0.14092814E+03</pdfrwt>
<pdfrwt beam="1">  1       -1 0.68699829E-02 0.48106897E+02</pdfrwt>
<totfact> 0.33036864E+03</totfact>
</mgrwt>
</event>
<event>
 5    1  0.7114032E-003  0.4551429E+02  0.7546771E-02  0.1583796E+00
          1   -1    0    0  502    0  0.00000000000E+00  0.00000000000E+00  0.92933919030E+02  0.92933919030E+02  0.00000000000E+00 0. -1.
         -2   -1    0    0    0  501 -0.00000000000E+00 -0.00000000000E+00 -0.13899149249E+03  0.13899149249E+03  0.00000000000E+00 0.  1.
         25    1    1    2    0    0 -0.27857767543E+02  0.24190902229E+02 -0.59471640584E+02  0.14325896480E+03  0.12500000000E+03 0.  0.
          1    1    1    2  502    0 -0.19882035628E+02 -0.83685853468E+01  0.28881573260E+02  0.36048215425E+02  0.00000000000E+00 0. -1.
         -2    1    1    2    0  501  0.47739803171E+02 -0.15822316882E+02 -0.15467506138E+02  0.52618231293E+02  0.00000000000E+00 0.  1.
<mgrwt>
<rscale>  0 0.31333855E+02</rscale>
<asrwt>0</asrwt>
<pdfrwt beam="1">  1        1 0.14297526E-01 0.21571476E+02</pdfrwt>
<pdfrwt beam="2">  1       -2 0.21383306E-01 0.45514293E+02</pdfrwt>
<totfact> 0.53156632E+03</totfact>
</mgrwt>
</event>
<event>
 5    1  0.7114032E-003  0.1256010E+03  0.7546771E-02  0.1408416E+00
          1   -1    0    0  502    0  0.00000000000E+00  0.00000000000E+00  0.44780527979E+02  0.44780527979E+02  0.00000000000E+00 0. -1.
          1   -1    0    0  501    0 -0.00000000000E+00 -0.00000000000E+00 -0.10623218345E+04  0.10623218345E+04  0.00000000000E+00 0. -1.
         25    1    1    2    0    0  0.87148755332E+02 -0.10024191658E+03 -0.36444944694E+03  0.40754355199E+03  0.12500000000E+03 0.  0.
          1    1    1    2  501    0  0.99693075229E+01  0.24410895129E+02 -0.51018901079E+03  0.51086994982E+03  0.00000000000E+00 0. -1.
          1    1    1    2  502    0 -0.97118062855E+02  0.75831021454E+02 -0.14290284878E+03  0.18868886066E+03  0.00000000000E+00 0. -1.
<mgrwt>
<rscale>  0 0.57548795E+02</rscale>
<asrwt>0</asrwt>
<pdfrwt beam="1">  1        1 0.68893126E-02 0.12560096E+03</pdfrwt>
<pdfrwt beam="2">  1        1 0.16343411E+00 0.26368142E+02</pdfrwt>
<totfact> 0.20403421E+03</totfact>
</mgrwt>
</event>
<event>
 5    1  0.7114032E-003  0.1104500E+03  0.7546771E-02  0.1323544E+00
          3   -1    0    0  502    0 -0.00000000000E+00  0.00000000000E+00  0.23096324577E+02  0.23096324577E+02  0.00000000000E+00 0. -1.
          1   -1    0    0  501    0  0.00000000000E+00 -0.00000000000E+00 -0.17654235504E+04  0.17654235504E+04  0.00000000000E+00 0. -1.
         25    1    1    2    0    0 -0.81521957946E+02  0.56217060540E+02 -0.55014021528E+03  0.57278743351E+03  0.12500000000E+03 0.  0.
          1    1    1    2  501    0  0.11666844648E+03 -0.65581104117E+01 -0.10940140098E+04  0.11002368785E+04  0.00000000000E+00 0. -1.
          3    1    1    2  502    0 -0.35146488538E+02 -0.49658950128E+02 -0.98173000729E+02  0.11549556293E+03  0.00000000000E+00 0. -1.
<mgrwt>
<rscale>  0 0.81973031E+02</rscale>
<asrwt>0</asrwt>
<pdfrwt beam="2">  1        1 0.27160376E+00 0.11044997E+03</pdfrwt>
<pdfrwt beam="1">  1        3 0.35532790E-02 0.60838203E+02</pdfrwt>
<totfact> 0.93334936E+02</totfact>
</mgrwt>
</event>
<event>
 5    1  0.7114032E-003  0.6938517E+02  0.7546771E-02  0.1369807E+00
         -2   -1    0    0    0  501 -0.00000000000E+00  0.00000000000E+00  0.43344665887E+02  0.43344665887E+02  0.00000000000E+00 0.  1.
          2   -1    0    0  502    0  0.00000000000E+00 -0.00000000000E+00 -0.66587027096E+03  0.66587027096E+03  0.00000000000E+00 0. -1.
         25    1    1    2    0    0  0.55412646992E+01  0.27172568026E+02 -0.12396461525E+03  0.17821694617E+03  0.12500000000E+03 0.  0.
          2    1    1    2  502    0  0.54050006911E+02 -0.53440612837E+02 -0.42911086106E+03  0.43579058437E+03  0.00000000000E+00 0. -1.
         -2    1    1    2    0  501 -0.59591271610E+02  0.26268044811E+02 -0.69450128752E+02  0.95207406298E+02  0.00000000000E+00 0.  1.
<mgrwt>
<rscale>  0 0.67220805E+02</rscale>
<asrwt>0</asrwt>
<pdfrwt beam="2">  1        2 0.10244158E+00 0.69385166E+02</pdfrwt>
<pdfrwt beam="1">  1       -2 0.66684102E-02 0.65123957E+02</pdfrwt>
<totfact> 0.51865362E+03</totfact>
</mgrwt>
</event>
<event>
 5    1  0.7114032E-003  0.7101414E+02  0.7546771E-02  0.1442565E+00
         -3   -1    0    0    0  501 -0.00000000000E+00  0.00000000000E+00  0.29183559339E+02  0.29183559339E+02  0.00000000000E+00 0.  1.
          1   -1    0    0  502    0  0.00000000000E+00 -0.00000000000E+00 -0.11565881247E+04  0.11565881247E+04  0.00000000000E+00 0. -1.
         25    1    1    2    0    0 -0.37705523818E+02 -0.62358525652E+02 -0.55320311585E+03  0.57181201425E+03  0.12500000000E+03 0.  0.
          1    1    1    2  502    0  0.31577398203E+01  0.72258005661E+02 -0.57347112718E+03  0.57801412129E+03  0.00000000000E+00 0. -1.
         -3    1    1    2    0  501  0.34547783998E+02 -0.98994800088E+01 -0.73032228864E+00  0.35945548462E+02  0.00000000000E+00 0.  1.
<mgrwt>
<rscale>  0 0.50518464E+02</rscale>
<asrwt>0</asrwt>
<pdfrwt beam="2">  1        1 0.17793663E+00 0.71014139E+02</pdfrwt>
<pdfrwt beam="1">  1       -3 0.44897783E-02 0.35938129E+02</pdfrwt>
<totfact> 0.15162530E+03</totfact>
</mgrwt>
</event>
<event>
 5    1  0.7114032E-003  0.2327131E+03  0.7546771E-02  0.1229985E+00
          1   -1    0    0  502    0  0.00000000000E+00  0.00000000000E+00  0.34106845403E+03  0.34106845403E+03  0.00000000000E+00 0. -1.
          1   -1    0    0  501    0 -0.00000000000E+00 -0.00000000000E+00 -0.78363912371E+03  0.78363912371E+03  0.00000000000E+00 0. -1.
         25    1    1    2    0    0 -0.18440580988E+03  0.10924618224E+03  0.16169466790E+03  0.29615941093E+03  0.12500000000E+03 0.  0.
          1    1    1    2  501    0 -0.48563241372E+02  0.51445065598E+02 -0.53169259242E+03  0.53637859392E+03  0.00000000000E+00 0. -1.
          1    1    1    2  502    0  0.23296905126E+03 -0.16069124784E+03 -0.72572745170E+02  0.29216957288E+03  0.00000000000E+00 0. -1.
<mgrwt>
<rscale>  0 0.12831017E+03</rscale>
<asrwt>0</asrwt>
<pdfrwt beam="1">  1        1 0.52472070E-01 0.23271310E+03</pdfrwt>
<pdfrwt beam="2">  1        1 0.12055986E+00 0.70745906E+02</pdfrwt>
<totfact> 0.22689823E+02</totfact>
</mgrwt>
</event>
<event>
 5    1  0.7114032E-003  0.1246134E+03  0.7546771E-02  0.1330683E+00
          1   -1    0    0  502    0  0.00000000000E+00  0.00000000000E+00  0.73539097921E+03  0.73539097921E+03  0.00000000000E+00 0. -1.
          1   -1    0    0  501    0 -0.00000000000E+00 -0.00000000000E+00 -0.38703648142E+03  0.38703648142E+03  0.00000000000E+00 0. -1.
         25    1    1    2    0    0  0.15350227531E+03  0.22864021478E+02  0.40341421863E+03  0.44994860129E+03  0.12500000000E+03 0.  0.
          1    1    1    2  501    0 -0.12278280452E+03  0.17377493819E+02 -0.35098857773E+03  0.37225068982E+03  0.00000000000E+00 0. -1.
          1    1    1    2  502    0 -0.30719470794E+02 -0.40241515296E+02  0.29592885689E+03  0.30022816953E+03  0.00000000000E+00 0. -1.
<mgrwt>
<rscale>  0 0.79427751E+02</rscale>
<asrwt>0</asrwt>
<pdfrwt beam="1">  1        1 0.11313707E+00 0.50626727E+02</pdfrwt>
<pdfrwt beam="2">  1        1 0.59544074E-01 0.12461338E+03</pdfrwt>
<totfact> 0.21656817E+02</totfact>
</mgrwt>
</event>
<event>
 5    1  0.7470457E-003  0.1081331E+03  0.7546771E-02  0.1420482E+00
         -2   -1    0    0    0  501 -0.00000000000E+00  0.00000000000E+00  0.16744535877E+03  0.16744535877E+03  0.00000000000E+00 0.  1.
          1   -1    0    0  502    0  0.00000000000E+00 -0.00000000000E+00 -0.17292633374E+03  0.17292633374E+03  0.00000000000E+00 0. -1.
         25    1    1    2    0    0 -0.96520427401E+02 -0.53579275191E+02 -0.79982471087E+02  0.18495709588E+03  0.12500000000E+03 0.  0.
          1    1    1    2  502    0  0.10337081471E+03  0.26541033573E+02  0.48295923350E+02  0.11714285300E+03  0.00000000000E+00 0. -1.
         -2    1    1    2    0  501 -0.68503873055E+01  0.27038241618E+02  0.26205572770E+02  0.38271743627E+02  0.00000000000E+00 0.  1.
<mgrwt>
<rscale>  0 0.54919105E+02</rscale>
<asrwt>0</asrwt>
<pdfrwt beam="2">  1        1 0.26604051E-01 0.10813311E+03</pdfrwt>
<pdfrwt beam="1">  1       -2 0.25760825E-01 0.27892549E+02</pdfrwt>
<totfact> 0.19106448E+03</totfact>
</mgrwt>
</event>
<event>
 5    1  0.7114032E-003  0.1598672E+03  0.7546771E-02  0.1364564E+00
          1   -1    0    0  502    0  0.00000000000E+00  0.00000000000E+00  0.13639878022E+04  0.13639878022E+04  0.00000000000E+00 0. -1.
         -2   -1    0    0    0  501 -0.00000000000E+00 -0.00000000000E+00 -0.78888157161E+03  0.78888157161E+03  0.00000000000E+00 0. -1.
         25    1    1    2    0    0 -0.26481409364E+02  0.15993111851E+03  0.81909494517E+03  0.84428712943E+03  0.12500000000E+03 0.  0.
          1    1    1    2  502    0 -0.27919677076E+02 -0.95999574587E+01  0.52364536482E+03  0.52447701156E+03  0.00000000000E+00 0. -1.
         -2    1    1    2    0  501  0.54401086440E+02 -0.15033116105E+03 -0.76763407943E+03  0.78410523279E+03  0.00000000000E+00 0. -1.
<mgrwt>
<rscale>  0 0.68701697E+02</rscale>
<asrwt>0</asrwt>
<pdfrwt beam="1">  1        1 0.20984428E+00 0.29524017E+02</pdfrwt>
<pdfrwt beam="2">  1       -2 0.12136640E+00 0.15986724E+03</pdfrwt>
<totfact> 0.53122979E+00</totfact>
</mgrwt>
</event>
<event>
 5    1  0.7114032E-003  0.5101545E+02  0.7546771E-02  0.1518097E+00
          2   -1    0    0  501    0  0.00000000000E+00  0.00000000000E+00  0.28030464004E+03  0.28030464004E+03  0.00000000000E+00 0. -1.
          1   -1    0    0  502    0 -0.00000000000E+00 -0.00000000000E+00 -0.33829726300E+03  0.33829726300E+03  0.00000000000E+00 0. -1.
         25    1    1    2    0    0 -0.11494899498E+01 -0.25544007891E+02  0.12442975789E+03  0.17821779461E+03  0.12500000000E+03 0.  0.
          2    1    1    2  501    0 -0.20329751815E+02 -0.21153376363E+02  0.12515175336E+03  0.12854464403E+03  0.00000000000E+00 0. -1.
          1    1    1    2  502    0  0.21479241764E+02  0.46697384254E+02 -0.30757413421E+03  0.31183946440E+03  0.00000000000E+00 0. -1.
<mgrwt>
<rscale>  0 0.38687611E+02</rscale>
<asrwt>0</asrwt>
<pdfrwt beam="1">  1        2 0.43123791E-01 0.29338782E+02</pdfrwt>
<pdfrwt beam="2">  1        1 0.52045733E-01 0.51015453E+02</pdfrwt>
<totfact> 0.11834972E+03</totfact>
</mgrwt>
</event>
<event>
 5    1  0.7114032E-003  0.3925253E+02  0.7546771E-02  0.1521919E+00
         -2   -1    0    0    0  501  0.00000000000E+00  0.00000000000E+00  0.39032151188E+03  0.39032151188E+03  0.00000000000E+00 0.  1.
         -1   -1    0    0    0  502 -0.00000000000E+00 -0.00000000000E+00 -0.33346323331E+02  0.33346323331E+02  0.00000000000E+00 0.  1.
         25    1    1    2    0    0 -0.94591781066E+01 -0.18956778996E+01  0.24600414185E+03  0.27610886884E+03  0.12500000000E+03 0.  0.
         -2    1    1    2    0  501  0.47670756265E+02 -0.70841054471E+01  0.92228277086E+02  0.10406123508E+03  0.00000000000E+00 0.  1.
         -1    1    1    2    0  502 -0.38211578159E+02  0.89797833468E+01  0.18742769612E+02  0.43497731286E+02  0.00000000000E+00 0.  1.
<mgrwt>
<rscale>  0 0.38196426E+02</rscale>
<asrwt>0</asrwt>
<pdfrwt beam="1">  1       -2 0.60049460E-01 0.37168736E+02</pdfrwt>
<pdfrwt beam="2">  1       -1 0.51302039E-02 0.39252531E+02</pdfrwt>
<totfact> 0.27764001E+03</totfact>
</mgrwt>
</event>
<event>
 5    1  0.7114032E-003  0.5101190E+02  0.7546771E-02  0.1517433E+00
         -1   -1    0    0    0  501 -0.00000000000E+00  0.00000000000E+00  0.10219600416E+03  0.10219600416E+03  0.00000000000E+00 0.  1.
          2   -1    0    0  502    0  0.00000000000E+00 -0.00000000000E+00 -0.12339743712E+03  0.12339743712E+03  0.00000000000E+00 0. -1.
         25    1    1    2    0    0  0.24280430084E+02  0.32011642683E+02  0.60912855256E+01  0.13143967556E+03  0.12500000000E+03 0.  0.
          2    1    1    2  502    0 -0.14222248058E+02  0.25813166924E+02 -0.18522378216E+02  0.34809056598E+02  0.00000000000E+00 0. -1.
         -1    1    1    2    0  501 -0.10058182026E+02 -0.57824809607E+02 -0.87703402717E+01  0.59344709117E+02  0.00000000000E+00 0.  1.
<mgrwt>
<rscale>  0 0.38773917E+02</rscale>
<asrwt>0</asrwt>
<pdfrwt beam="2">  1        2 0.18984221E-01 0.29471884E+02</pdfrwt>
<pdfrwt beam="1">  1       -1 0.15722462E-01 0.51011895E+02</pdfrwt>
<totfact> 0.84044682E+03</totfact>
</mgrwt>
</event>
<event>
 5    1  0.7114032E-003  0.9085201E+02  0.7546771E-02  0.1306107E+00
          2   -1    0    0  501    0  0.00000000000E+00  0.00000000000E+00  0.34442609943E+04  0.34442609943E+04  0.00000000000E+00 0. -1.
          1   -1    0    0  502    0 -0.00000000000E+00 -0.00000000000E+00 -0.13469121293E+04  0.13469121293E+04  0.00000000000E+00 0. -1.
         25    1    1    2    0    0 -0.33362602973E+02  0.14663684269E+02  0.61046071832E+03  0.62419177785E+03  0.12500000000E+03 0.  0.
          2    1    1    2  501    0  0.82446329168E+02  0.56608675788E+02  0.28246517179E+04  0.28264216364E+04  0.00000000000E+00 0. -1.
          1    1    1    2  502    0 -0.49083726196E+02 -0.71272360057E+02 -0.13377635712E+04  0.13405597092E+04  0.00000000000E+00 0. -1.
<mgrwt>
<rscale>  0 0.88669175E+02</rscale>
<asrwt>0</asrwt>
<pdfrwt beam="1">  1        2 0.52988631E+00 0.90852010E+02</pdfrwt>
<pdfrwt beam="2">  1        1 0.20721725E+00 0.86538786E+02</pdfrwt>
<totfact> 0.18409416E+00</totfact>
</mgrwt>
</event>
<event>
 5    1  0.7114032E-003  0.1770965E+03  0.7546771E-02  0.1291687E+00
         -3   -1    0    0    0  501 -0.00000000000E+00  0.00000000000E+00  0.21682209283E+03  0.21682209283E+03  0.00000000000E+00 0.  1.
          2   -1    0    0  502    0  0.00000000000E+00 -0.00000000000E+00 -0.13894973794E+04  0.13894973794E+04  0.00000000000E+00 0. -1.
         25    1    1    2    0    0  0.18995197967E+03 -0.83305879062E+02 -0.11124432633E+04  0.11384975355E+04  0.12500000000E+03 0.  0.
          2    1    1    2  502    0 -0.17393217533E+02  0.47642609083E+02 -0.22254529162E+03  0.22825150391E+03  0.00000000000E+00 0. -1.
         -3    1    1    2    0  501 -0.17255876214E+03  0.35663269979E+02  0.16231326838E+03  0.23957043288E+03  0.00000000000E+00 0.  1.
<mgrwt>
<rscale>  0 0.94773563E+02</rscale>
<asrwt>0</asrwt>
<pdfrwt beam="2">  1        2 0.21376883E+00 0.50718263E+02</pdfrwt>
<pdfrwt beam="1">  1       -3 0.33357245E-01 0.17709653E+03</pdfrwt>
<totfact> 0.95925013E+01</totfact>
</mgrwt>
</event>
<event>
 5    1  0.7114032E-003  0.2590614E+03  0.7546771E-02  0.1313702E+00
         -1   -1    0    0    0  501 -0.00000000000E+00  0.00000000000E+00  0.22790520824E+03  0.22790520824E+03  0.00000000000E+00 0.  1.
          1   -1    0    0  502    0  0.00000000000E+00 -0.00000000000E+00 -0.34633915770E+04  0.34633915770E+04  0.00000000000E+00 0. -1.
         25    1    1    2    0    0 -0.14132396417E+03  0.23921501627E+03 -0.10887441921E+04  0.11305685307E+04  0.12500000000E+03 0.  0.
          1    1    1    2  502    0  0.13977743764E+03 -0.21092991187E+03 -0.23459294158E+04  0.23595368155E+04  0.00000000000E+00 0. -1.
         -1    1    1    2    0  501  0.15465265267E+01 -0.28285104396E+02  0.19918723916E+03  0.20119143898E+03  0.00000000000E+00 0.  1.
<mgrwt>
<rscale>  0 0.85665180E+02</rscale>
<asrwt>0</asrwt>
<pdfrwt beam="2">  1        1 0.53282953E+00 0.25906139E+03</pdfrwt>
<pdfrwt beam="1">  1       -1 0.35062336E-01 0.28327352E+02</pdfrwt>
<totfact> 0.25836224E+00</totfact>
</mgrwt>
</event>
<event>
 5    1  0.7114032E-003  0.1439395E+03  0.7546771E-02  0.1288528E+00
         -2   -1    0    0    0  501 -0.00000000000E+00  0.00000000000E+00  0.38191720326E+03  0.38191720326E+03  0.00000000000E+00 0.  1.
          1   -1    0    0  502    0  0.00000000000E+00 -0.00000000000E+00 -0.19576039734E+04  0.19576039734E+04  0.00000000000E+00 0. -1.
         25    1    1    2    0    0 -0.10001947877E+03 -0.11701761343E+03 -0.59142216281E+02  0.20692950426E+03  0.12500000000E+03 0.  0.
          1    1    1    2  502    0  0.13072980815E+03  0.60554330657E+02 -0.18183343963E+04  0.18240331923E+04  0.00000000000E+00 0. -1.
         -2    1    1    2    0  501 -0.30710329380E+02  0.56463282776E+02  0.30178984247E+03  0.30855848012E+03  0.00000000000E+00 0.  1.
<mgrwt>
<rscale>  0 0.96185523E+02</rscale>
<asrwt>0</asrwt>
<pdfrwt beam="2">  1        1 0.30116984E+00 0.14393947E+03</pdfrwt>
<pdfrwt beam="1">  1       -2 0.58756494E-01 0.64274619E+02</pdfrwt>
<totfact> 0.96154972E+00</totfact>
</mgrwt>
</event>
<event>
 5    1  0.7114032E-003  0.9957201E+02  0.7546771E-02  0.1397298E+00
          2   -1    0    0  502    0  0.00000000000E+00  0.00000000000E+00  0.53229267107E+03  0.53229267107E+03  0.00000000000E+00 0. -1.
         -2   -1    0    0    0  501 -0.00000000000E+00 -0.00000000000E+00 -0.66155578982E+03  0.66155578982E+03  0.00000000000E+00 0.  1.
         25    1    1    2    0    0  0.24933496232E+02 -0.85408690465E+02  0.13570417790E+03  0.20483395114E+03  0.12500000000E+03 0.  0.
          2    1    1    2  502    0 -0.61136180010E+02  0.82640930664E+02  0.35418374420E+03  0.36879978387E+03  0.00000000000E+00 0. -1.
         -2    1    1    2    0  501  0.36202683779E+02  0.27677598005E+01 -0.61915104085E+03  0.62021472588E+03  0.00000000000E+00 0.  1.
<mgrwt>
<rscale>  0 0.60127310E+02</rscale>
<asrwt>0</asrwt>
<pdfrwt beam="1">  1        2 0.81891180E-01 0.99572011E+02</pdfrwt>
<pdfrwt beam="2">  1       -2 0.10177781E+00 0.36308330E+02</pdfrwt>
<totfact> 0.51949553E+01</totfact>
</mgrwt>
</event>
<event>
 5    1  0.2129078E-002  0.5063067E+03  0.7546771E-02  0.1012146E+00
         -2   -1    0    0    0  501 -0.00000000000E+00  0.00000000000E+00  0.95278823367E+02  0.95278823367E+02  0.00000000000E+00 0.  1.
          1   -1    0    0  502    0  0.00000000000E+00 -0.00000000000E+00 -0.67262192116E+03  0.67262192116E+03  0.00000000000E+00 0. -1.
         25    1    1    2    0    0  0.20980677681E+03  0.17685394716E+02 -0.15694771751E+03  0.29084229887E+03  0.12500000000E+03 0.  0.
          1    1    1    2  502    0 -0.12773666566E+03 -0.14900492932E+02 -0.33380954018E+03  0.35772543880E+03  0.00000000000E+00 0. -1.
         -2    1    1    2    0  501 -0.82070111143E+02 -0.27849017841E+01 -0.86585840106E+02  0.11933300687E+03  0.00000000000E+00 0.  1.
<mgrwt>
<rscale>  0 0.50630673E+03</rscale>
<asrwt>0</asrwt>
<pdfrwt beam="2">  1        1 0.10348029E+00 0.50630673E+03</pdfrwt>
<pdfrwt beam="1">  1       -2 0.14658281E-01 0.50630673E+03</pdfrwt>
<totfact> 0.93315980E+02</totfact>
</mgrwt>
</event>
<event>
 5    1  0.7114032E-003  0.6935886E+02  0.7546771E-02  0.1387858E+00
          1   -1    0    0  501    0  0.00000000000E+00  0.00000000000E+00  0.40879870917E+02  0.40879870917E+02  0.00000000000E+00 0. -1.
          1   -1    0    0  502    0 -0.00000000000E+00 -0.00000000000E+00 -0.67961162076E+03  0.67961162076E+03  0.00000000000E+00 0. -1.
         25    1    1    2    0    0 -0.40577436806E+02  0.82748467611E+02 -0.22016342966E+03  0.26942674891E+03  0.12500000000E+03 0.  0.
          1    1    1    2  501    0 -0.12787589565E+02 -0.65072701938E+02 -0.64325642769E+02  0.92389216373E+02  0.00000000000E+00 0. -1.
          1    1    1    2  502    0  0.53365026371E+02 -0.17675765674E+02 -0.35424267741E+03  0.35867552639E+03  0.00000000000E+00 0. -1.
<mgrwt>
<rscale>  0 0.62442693E+02</rscale>
<asrwt>0</asrwt>
<pdfrwt beam="1">  1        1 0.62892106E-02 0.69358856E+02</pdfrwt>
<pdfrwt beam="2">  1        1 0.10455564E+00 0.56216179E+02</pdfrwt>
<totfact> 0.40602483E+03</totfact>
</mgrwt>
</event>
<event>
 5    1  0.7114032E-003  0.9786292E+02  0.7546771E-02  0.1475870E+00
         -2   -1    0    0    0  501 -0.00000000000E+00  0.00000000000E+00  0.48741877779E+02  0.48741877779E+02  0.00000000000E+00 0.  1.
          2   -1    0    0  502    0  0.00000000000E+00 -0.00000000000E+00 -0.40108734369E+03  0.40108734369E+03  0.00000000000E+00 0. -1.
         25    1    1    2    0    0 -0.76658913696E+02 -0.43238262250E+02 -0.19448536241E+03  0.24737763150E+03  0.12500000000E+03 0.  0.
          2    1    1    2  502    0  0.97022668674E+02  0.41169448421E+02 -0.12255137854E+03  0.16163898695E+03  0.00000000000E+00 0. -1.
         -2    1    1    2    0  501 -0.20363754977E+02  0.20688138296E+01 -0.35308724951E+02  0.40812603018E+02  0.00000000000E+00 0.  1.
<mgrwt>
<rscale>  0 0.44756167E+02</rscale>
<asrwt>0</asrwt>
<pdfrwt beam="2">  1        2 0.61705746E-01 0.97862924E+02</pdfrwt>
<pdfrwt beam="1">  1       -2 0.74987504E-02 0.20468574E+02</pdfrwt>
<totfact> 0.66389155E+03</totfact>
</mgrwt>
</event>
<event>
 5    1  0.7114032E-003  0.4055804E+02  0.7546771E-02  0.1569843E+00
         -1   -1    0    0    0  501 -0.00000000000E+00  0.00000000000E+00  0.72971964768E+01  0.72971964768E+01  0.00000000000E+00 0.  1.
          2   -1    0    0  502    0  0.00000000000E+00 -0.00000000000E+00 -0.22207925462E+04  0.22207925462E+04  0.00000000000E+00 0. -1.
         25    1    1    2    0    0  0.30606222239E+02 -0.50650986236E+02 -0.16476290644E+04  0.16534233569E+04  0.12500000000E+03 0.  0.
          2    1    1    2  502    0 -0.23719471367E+02  0.11579356783E+02 -0.47229156998E+03  0.47302856351E+03  0.00000000000E+00 0. -1.
         -1    1    1    2    0  501 -0.68867508713E+01  0.39071629453E+02 -0.93574715362E+02  0.10163782229E+03  0.00000000000E+00 0.  1.
<mgrwt>
<rscale>  0 0.32718932E+02</rscale>
<asrwt>0</asrwt>
<pdfrwt beam="2">  1        2 0.34166105E+00 0.26394977E+02</pdfrwt>
<pdfrwt beam="1">  1       -1 0.11226435E-02 0.40558039E+02</pdfrwt>
<totfact> 0.10243073E+04</totfact>
</mgrwt>
</event>
<event>
 5    1  0.7114032E-003  0.1507467E+03  0.7546771E-02  0.1297270E+00
          2   -1    0    0  501    0  0.00000000000E+00  0.00000000000E+00  0.51153268210E+02  0.51153268210E+02  0.00000000000E+00 0. -1.
          2   -1    0    0  502    0 -0.00000000000E+00 -0.00000000000E+00 -0.40863486795E+04  0.40863486795E+04  0.00000000000E+00 0. -1.
         25    1    1    2    0    0 -0.43127322158E+02  0.91458689664E+02 -0.14441482094E+04  0.14530704417E+04  0.12500000000E+03 0.  0.
          2    1    1    2  501    0  0.47377473070E+02 -0.14786813856E+03 -0.83603047616E+02  0.17634931507E+03  0.00000000000E+00 0. -1.
          2    1    1    2  502    0 -0.42501509123E+01  0.56409448893E+02 -0.25074441543E+04  0.25080821910E+04  0.00000000000E+00 0. -1.
<mgrwt>
<rscale>  0 0.92345231E+02</rscale>
<asrwt>0</asrwt>
<pdfrwt beam="1">  1        2 0.78697325E-02 0.15074672E+03</pdfrwt>
<pdfrwt beam="2">  1        2 0.62866912E+00 0.56569335E+02</pdfrwt>
<totfact> 0.69659189E+01</totfact>
</mgrwt>
</event>
<event>
 5    1  0.7114032E-003  0.5601425E+02  0.7546771E-02  0.1491638E+00
         -1   -1    0    0    0  501 -0.00000000000E+00  0.00000000000E+00  0.33443132815E+02  0.33443132815E+02  0.00000000000E+00 0.  1.
          2   -1    0    0  502    0  0.00000000000E+00 -0.00000000000E+00 -0.52043991123E+03  0.52043991123E+03  0.00000000000E+00 0. -1.
         25    1    1    2    0    0 -0.76547091408E+02  0.74753665798E+01 -0.22262157461E+03  0.26664715223E+03  0.12500000000E+03 0.  0.
          2    1    1    2  502    0  0.29432770736E+02  0.12584003896E+02 -0.21045375306E+03  0.21287420540E+03  0.00000000000E+00 0. -1.
         -1    1    1    2    0  501  0.47114320673E+02 -0.20059370476E+02 -0.53921450735E+02  0.74361686410E+02  0.00000000000E+00 0.  1.
<mgrwt>
<rscale>  0 0.42344072E+02</rscale>
<asrwt>0</asrwt>
<pdfrwt beam="2">  1        2 0.80067676E-01 0.32010079E+02</pdfrwt>
<pdfrwt beam="1">  1       -1 0.51450975E-02 0.56014247E+02</pdfrwt>
<totfact> 0.10185388E+04</totfact>
</mgrwt>
</event>
<event>
 5    1  0.7114032E-003  0.5187745E+02  0.7546771E-02  0.1527553E+00
         -2   -1    0    0    0  501 -0.00000000000E+00  0.00000000000E+00  0.34505485673E+02  0.34505485673E+02  0.00000000000E+00 0.  1.
          1   -1    0    0  502    0  0.00000000000E+00 -0.00000000000E+00 -0.37549962020E+03  0.37549962020E+03  0.00000000000E+00 0. -1.
         25    1    1    2    0    0  0.69779149461E+01  0.39023629810E+02 -0.24779103061E+03  0.28035143986E+03  0.12500000000E+03 0.  0.
          1    1    1    2  502    0 -0.27901791132E+02 -0.56230300095E+02 -0.60420648019E+02  0.87126409913E+02  0.00000000000E+00 0. -1.
         -2    1    1    2    0  501  0.20923876185E+02  0.17206670285E+02 -0.32782455904E+02  0.42527256108E+02  0.00000000000E+00 0.  1.
<mgrwt>
<rscale>  0 0.37488259E+02</rscale>
<asrwt>0</asrwt>
<pdfrwt beam="2">  1        1 0.57769171E-01 0.51877447E+02</pdfrwt>
<pdfrwt beam="1">  1       -2 0.53085363E-02 0.27090185E+02</pdfrwt>
<totfact> 0.83117133E+03</totfact>
</mgrwt>
</event>
<event>
 5    1  0.7114032E-003  0.4427371E+02  0.7546771E-02  0.1507540E+00
         -2   -1    0    0    0  501 -0.00000000000E+00  0.00000000000E+00  0.33968299861E+02  0.33968299861E+02  0.00000000000E+00 0.  1.
          2   -1    0    0  502    0  0.00000000000E+00 -0.00000000000E+00 -0.40010832574E+03  0.40010832574E+03  0.00000000000E+00 0. -1.
         25    1    1    2    0    0  0.27488091411E+02  0.10015179607E+02 -0.15311051426E+03  0.19980923044E+03  0.12500000000E+03 0.  0.
          2    1    1    2  502    0 -0.16557427273E+02 -0.44634824449E+02 -0.17633619409E+03  0.18264958061E+03  0.00000000000E+00 0. -1.
         -2    1    1    2    0  501 -0.10930664138E+02  0.34619644842E+02 -0.36693317528E+02  0.51617814549E+02  0.00000000000E+00 0.  1.
<mgrwt>
<rscale>  0 0.40091448E+02</rscale>
<asrwt>0</asrwt>
<pdfrwt beam="2">  1        2 0.61555127E-01 0.44273710E+02</pdfrwt>
<pdfrwt beam="1">  1       -2 0.52258923E-02 0.36304259E+02</pdfrwt>
<totfact> 0.12084318E+04</totfact>
</mgrwt>
</event>
<event>
 5    1  0.7114032E-003  0.1105221E+03  0.7546771E-02  0.1294857E+00
          2   -1    0    0  501    0  0.00000000000E+00  0.00000000000E+00  0.23426457407E+03  0.23426457407E+03  0.00000000000E+00 0. -1.
          1   -1    0    0  502    0 -0.00000000000E+00 -0.00000000000E+00 -0.40172002018E+03  0.40172002018E+03  0.00000000000E+00 0. -1.
         25    1    1    2    0    0  0.62691730768E+02 -0.61856723995E+02 -0.17968610821E+03  0.23594195238E+03  0.12500000000E+03 0.  0.
          2    1    1    2  501    0  0.72815088254E+02  0.30393627376E+02  0.17137607967E+03  0.18866788372E+03  0.00000000000E+00 0. -1.
          1    1    1    2  502    0 -0.13550681902E+03  0.31463096619E+02 -0.15914541757E+03  0.21137475816E+03  0.00000000000E+00 0. -1.
<mgrwt>
<rscale>  0 0.93384247E+02</rscale>
<asrwt>0</asrwt>
<pdfrwt beam="1">  1        2 0.36040704E-01 0.78903800E+02</pdfrwt>
<pdfrwt beam="2">  1        1 0.61803079E-01 0.11052215E+03</pdfrwt>
<totfact> 0.11667791E+03</totfact>
</mgrwt>
</event>
<event>
 5    1  0.7114032E-003  0.4581235E+02  0.7546771E-02  0.1494618E+00
         -2   -1    0    0    0  501 -0.00000000000E+00  0.00000000000E+00  0.18091584172E+03  0.18091584172E+03  0.00000000000E+00 0.  1.
          1   -1    0    0  502    0  0.00000000000E+00 -0.00000000000E+00 -0.71952885687E+02  0.71952885687E+02  0.00000000000E+00 0. -1.
         25    1    1    2    0    0 -0.15888182879E+02 -0.40538206718E+02  0.38713602967E+02  0.13791128893E+03  0.12500000000E+03 0.  0.
          1    1    1    2  502    0  0.48351133000E+02  0.20144220241E+02  0.36086124831E+02  0.63606839859E+02  0.00000000000E+00 0. -1.
         -2    1    1    2    0  501 -0.32462950121E+02  0.20393986477E+02  0.34163228233E+02  0.51350598617E+02  0.00000000000E+00 0.  1.
<mgrwt>
<rscale>  0 0.41908560E+02</rscale>
<asrwt>0</asrwt>
<pdfrwt beam="2">  1        1 0.11069675E-01 0.45812352E+02</pdfrwt>
<pdfrwt beam="1">  1       -2 0.27833206E-01 0.38337421E+02</pdfrwt>
<totfact> 0.49175195E+03</totfact>
</mgrwt>
</event>
<event>
 5    1  0.7114032E-003  0.4621673E+02  0.7546771E-02  0.1505834E+00
          1   -1    0    0  502    0 -0.00000000000E+00  0.00000000000E+00  0.12315869775E+02  0.12315869775E+02  0.00000000000E+00 0. -1.
          2   -1    0    0  501    0  0.00000000000E+00 -0.00000000000E+00 -0.27316567948E+04  0.27316567948E+04  0.00000000000E+00 0. -1.
         25    1    1    2    0    0 -0.48895782799E+02 -0.61386515307E+02 -0.10277099098E+04  0.10382541888E+04  0.12500000000E+03 0.  0.
          2    1    1    2  501    0  0.17443692858E+02  0.30555734165E+02 -0.16277274653E+04  0.16281076858E+04  0.00000000000E+00 0. -1.
          1    1    1    2  502    0  0.31452089941E+02  0.30830781142E+02 -0.63903549931E+02  0.77610789980E+02  0.00000000000E+00 0. -1.
<mgrwt>
<rscale>  0 0.40324974E+02</rscale>
<asrwt>0</asrwt>
<pdfrwt beam="2">  1        2 0.42025535E+00 0.35184305E+02</pdfrwt>
<pdfrwt beam="1">  1        1 0.18947471E-02 0.46216731E+02</pdfrwt>
<totfact> 0.28432340E+03</totfact>
</mgrwt>
</event>
<event>
 5    1  0.7114032E-003  0.2140955E+03  0.7546771E-02  0.1256238E+00
         -3   -1    0    0    0  502 -0.00000000000E+00  0.00000000000E+00  0.55369410321E+03  0.55369410321E+03  0.00000000000E+00 0.  1.
         -1   -1    0    0    0  501  0.00000000000E+00 -0.00000000000E+00 -0.15173228298E+03  0.15173228298E+03  0.00000000000E+00 0.  1.
         25    1    1    2    0    0 -0.10641087047E+02  0.21168492733E+01  0.17100151583E+03  0.21209486604E+03  0.12500000000E+03 0.  0.
         -1    1    1    2    0  501 -0.17629326421E+03 -0.12148081158E+03  0.11012487889E+03  0.24075795218E+03  0.00000000000E+00 0.  1.
         -3    1    1    2    0  502  0.18693435125E+03  0.11936396231E+03  0.12083542551E+03  0.25257356797E+03  0.00000000000E+00 0.  1.
<mgrwt>
<rscale>  0 0.11237256E+03</rscale>
<asrwt>0</asrwt>
<pdfrwt beam="2">  1       -1 0.23343428E-01 0.21409555E+03</pdfrwt>
<pdfrwt beam="1">  1       -3 0.85183707E-01 0.58981103E+02</pdfrwt>
<totfact> 0.88751598E+01</totfact>
</mgrwt>
</event>
<event>
 5    1  0.7114032E-003  0.6430115E+02  0.7546771E-02  0.1402044E+00
          2   -1    0    0  501    0  0.00000000000E+00  0.00000000000E+00  0.36612885406E+03  0.36612885406E+03  0.00000000000E+00 0. -1.
          1   -1    0    0  502    0 -0.00000000000E+00 -0.00000000000E+00 -0.82488723351E+03  0.82488723351E+03  0.00000000000E+00 0. -1.
         25    1    1    2    0    0 -0.11352929731E+02 -0.10455961970E+03 -0.28817267251E+02  0.16588260299E+03  0.12500000000E+03 0.  0.
          2    1    1    2  501    0 -0.19547412749E+02  0.60091825750E+02  0.29321798524E+03  0.29994985537E+03  0.00000000000E+00 0. -1.
          1    1    1    2  502    0  0.30900342480E+02  0.44467793946E+02 -0.72315909744E+03  0.72518362921E+03  0.00000000000E+00 0. -1.
<mgrwt>
<rscale>  0 0.59007655E+02</rscale>
<asrwt>0</asrwt>
<pdfrwt beam="1">  1        2 0.56327517E-01 0.64301151E+02</pdfrwt>
<pdfrwt beam="2">  1        1 0.12690573E+00 0.54149939E+02</pdfrwt>
<totfact> 0.28754003E+02</totfact>
</mgrwt>
</event>
<event>
 5    1  0.7114032E-003  0.1109541E+03  0.7546771E-02  0.1370746E+00
          1   -1    0    0  502    0  0.00000000000E+00  0.00000000000E+00  0.67734977905E+03  0.67734977905E+03  0.00000000000E+00 0. -1.
          1   -1    0    0  501    0 -0.00000000000E+00 -0.00000000000E+00 -0.80736703783E+02  0.80736703783E+02  0.00000000000E+00 0. -1.
         25    1    1    2    0    0  0.46182068987E+02 -0.13917186667E+03  0.12745958313E+03  0.23102497116E+03  0.12500000000E+03 0.  0.
          1    1    1    2  501    0 -0.18458523044E+02  0.35948016927E+02 -0.52655722078E+01  0.40751726891E+02  0.00000000000E+00 0. -1.
          1    1    1    2  502    0 -0.27723545943E+02  0.10322384975E+03  0.47441906435E+03  0.48630978478E+03  0.00000000000E+00 0. -1.
<mgrwt>
<rscale>  0 0.66960185E+02</rscale>
<asrwt>0</asrwt>
<pdfrwt beam="1">  1        1 0.10420765E+00 0.11095408E+03</pdfrwt>
<pdfrwt beam="2">  1        1 0.12421032E-01 0.40410110E+02</pdfrwt>
<totfact> 0.15763895E+03</totfact>
</mgrwt>
</event>
<event>
 5    1  0.7114032E-003  0.5471829E+02  0.7546771E-02  0.1476513E+00
          3   -1    0    0  502    0 -0.00000000000E+00  0.00000000000E+00  0.25033678386E+03  0.25033678386E+03  0.00000000000E+00 0. -1.
          2   -1    0    0  501    0  0.00000000000E+00 -0.00000000000E+00 -0.12544536951E+03  0.12544536951E+03  0.00000000000E+00 0. -1.
         25    1    1    2    0    0 -0.74924866801E+02  0.39247498045E+02  0.16648734268E+03  0.22471568045E+03  0.12500000000E+03 0.  0.
          2    1    1    2  501    0  0.38536809810E+02 -0.37285237796E+02 -0.81162245194E+02  0.97275817718E+02  0.00000000000E+00 0. -1.
          3    1    1    2  502    0  0.36388056991E+02 -0.19622602495E+01  0.39566316873E+02  0.53790655208E+02  0.00000000000E+00 0. -1.
<mgrwt>
<rscale>  0 0.44654060E+02</rscale>
<asrwt>0</asrwt>
<pdfrwt beam="2">  1        2 0.19299288E-01 0.54718287E+02</pdfrwt>
<pdfrwt beam="1">  1        3 0.38513351E-01 0.36440927E+02</pdfrwt>
<totfact> 0.99176647E+02</totfact>
</mgrwt>
</event>
<event>
 5    1  0.7114032E-003  0.1006285E+03  0.7546771E-02  0.1320654E+00
         -2   -1    0    0    0  501 -0.00000000000E+00  0.00000000000E+00  0.33925025895E+03  0.33925025895E+03  0.00000000000E+00 0.  1.
          2   -1    0    0  502    0  0.00000000000E+00 -0.00000000000E+00 -0.14703006395E+03  0.14703006395E+03  0.00000000000E+00 0. -1.
         25    1    1    2    0    0  0.33338785324E+01  0.49873582532E+02  0.56597744744E+02  0.14603696002E+03  0.12500000000E+03 0.  0.
          2    1    1    2  502    0 -0.30280194954E+01  0.68449935917E+02 -0.73177722902E+02  0.10024740275E+03  0.00000000000E+00 0. -1.
         -2    1    1    2    0  501 -0.30585903695E+00 -0.11832351845E+03  0.20880017316E+03  0.23999596013E+03  0.00000000000E+00 0.  1.
<mgrwt>
<rscale>  0 0.83034635E+02</rscale>
<asrwt>0</asrwt>
<pdfrwt beam="2">  1        2 0.22620010E-01 0.68516878E+02</pdfrwt>
<pdfrwt beam="1">  1       -2 0.52192347E-01 0.10062850E+03</pdfrwt>
<totfact> 0.81983062E+02</totfact>
</mgrwt>
</event>
<event>
 5    1  0.7114032E-003  0.5481894E+02  0.7546771E-02  0.1477914E+00
          2   -1    0    0  501    0  0.00000000000E+00  0.00000000000E+00  0.88419799752E+02  0.88419799752E+02  0.00000000000E+00 0. -1.
          2   -1    0    0  502    0 -0.00000000000E+00 -0.00000000000E+00 -0.22808017140E+04  0.22808017140E+04  0.00000000000E+00 0. -1.
         25    1    1    2    0    0  0.24424421325E+02  0.86229686565E+02 -0.17196403378E+04  0.17265051412E+04  0.12500000000E+03 0.  0.
          2    1    1    2  501    0 -0.83485087226E+01 -0.54002199946E+02  0.75551685440E+02  0.93241580691E+02  0.00000000000E+00 0. -1.
          2    1    1    2  502    0 -0.16075912603E+02 -0.32227486619E+02 -0.54829326188E+03  0.54947479186E+03  0.00000000000E+00 0. -1.
<mgrwt>
<rscale>  0 0.44432847E+02</rscale>
<asrwt>0</asrwt>
<pdfrwt beam="1">  1        2 0.13603046E-01 0.54818938E+02</pdfrwt>
<pdfrwt beam="2">  1        2 0.35089257E+00 0.36014523E+02</pdfrwt>
<totfact> 0.42526163E+02</totfact>
</mgrwt>
</event>
<event>
 5    1  0.7114032E-003  0.7605130E+02  0.7546771E-02  0.1357570E+00
          2   -1    0    0  501    0  0.00000000000E+00  0.00000000000E+00  0.86675220253E+03  0.86675220253E+03  0.00000000000E+00 0. -1.
          2   -1    0    0  502    0 -0.00000000000E+00 -0.00000000000E+00 -0.49799414652E+02  0.49799414652E+02  0.00000000000E+00 0.  1.
         25    1    1    2    0    0  0.20284728365E+02  0.71892024868E+02  0.20587727847E+03  0.25217134499E+03  0.12500000000E+03 0.  0.
          2    1    1    2  501    0 -0.72414458919E+02 -0.31718671264E+02  0.59000245413E+03  0.59527541848E+03  0.00000000000E+00 0. -1.
          2    1    1    2  502    0  0.52129730554E+02 -0.40173353604E+02  0.21073055277E+02  0.69104853709E+02  0.00000000000E+00 0.  1.
<mgrwt>
<rscale>  0 0.70747417E+02</rscale>
<asrwt>0</asrwt>
<pdfrwt beam="1">  1        2 0.13334648E+00 0.76051305E+02</pdfrwt>
<pdfrwt beam="2">  1        2 0.76614491E-02 0.65813427E+02</pdfrwt>
<totfact> 0.42293000E+03</totfact>
</mgrwt>
</event>
<event>
 5    1  0.7114032E-003  0.6207310E+02  0.7546771E-02  0.1431705E+00
          2   -1    0    0  502    0  0.00000000000E+00  0.00000000000E+00  0.99747609285E+02  0.99747609285E+02  0.00000000000E+00 0.  1.
         -2   -1    0    0    0  501 -0.00000000000E+00 -0.00000000000E+00 -0.58121557900E+03  0.58121557900E+03  0.00000000000E+00 0.  1.
         25    1    1    2    0    0 -0.41185881689E+01 -0.88840324253E+02 -0.51504295744E+03  0.53740470224E+03  0.12500000000E+03 0.  0.
          2    1    1    2  502    0 -0.25988685109E+02  0.55928683968E+02  0.64532602926E+02  0.89263017451E+02  0.00000000000E+00 0.  1.
         -2    1    1    2    0  501  0.30107273278E+02  0.32911640286E+02 -0.30957615195E+02  0.54295468587E+02  0.00000000000E+00 0.  1.
<mgrwt>
<rscale>  0 0.52619229E+02</rscale>
<asrwt>0</asrwt>
<pdfrwt beam="1">  1        2 0.15345786E-01 0.62073103E+02</pdfrwt>
<pdfrwt beam="2">  1       -2 0.89417784E-01 0.44605201E+02</pdfrwt>
<totfact> 0.41204309E+02</totfact>
</mgrwt>
</event>
<event>
 5    1  0.7114032E-003  0.8984549E+02  0.7546771E-02  0.1358140E+00
          2   -1    0    0  502    0  0.00000000000E+00  0.00000000000E+00  0.79710899272E+03  0.79710899272E+03  0.00000000000E+00 0. -1.
          2   -1    0    0  501    0 -0.00000000000E+00 -0.00000000000E+00 -0.31281425776E+03  0.31281425776E+03  0.00000000000E+00 0. -1.
         25    1    1    2    0    0  0.73249621172E+02  0.10867805234E+03  0.28412550686E+02  0.18332675500E+03  0.12500000000E+03 0.  0.
          2    1    1    2  501    0 -0.23669928532E+02 -0.83866229748E+02 -0.22612727757E+03  0.24233727669E+03  0.00000000000E+00 0. -1.
          2    1    1    2  502    0 -0.49579692640E+02 -0.24811822590E+02  0.68200946184E+03  0.68425921879E+03  0.00000000000E+00 0. -1.
<mgrwt>
<rscale>  0 0.70577469E+02</rscale>
<asrwt>0</asrwt>
<pdfrwt beam="1">  1        2 0.12263215E+00 0.55441613E+02</pdfrwt>
<pdfrwt beam="2">  1        2 0.48125271E-01 0.89845494E+02</pdfrwt>
<totfact> 0.61057611E+02</totfact>
</mgrwt>
</event>
<event>
 5    1  0.7114032E-003  0.3478673E+02  0.7546771E-02  0.1641545E+00
          1   -1    0    0  501    0  0.00000000000E+00  0.00000000000E+00  0.40891608993E+03  0.40891608993E+03  0.00000000000E+00 0. -1.
          3   -1    0    0  502    0 -0.00000000000E+00 -0.00000000000E+00 -0.69786361176E+02  0.69786361176E+02  0.00000000000E+00 0. -1.
         25    1    1    2    0    0 -0.20063278957E+02 -0.18928225089E+01  0.10548339772E+03  0.16479643544E+03  0.12500000000E+03 0.  0.
          1    1    1    2  501    0 -0.13199973272E+02  0.15091263876E+02  0.26534394764E+03  0.26610034966E+03  0.00000000000E+00 0. -1.
          3    1    1    2  502    0  0.33263252229E+02 -0.13198441367E+02 -0.31697616607E+02  0.47805666003E+02  0.00000000000E+00 0. -1.
<mgrwt>
<rscale>  0 0.26409453E+02</rscale>
<asrwt>0</asrwt>
<pdfrwt beam="1">  1        1 0.62910166E-01 0.20049577E+02</pdfrwt>
<pdfrwt beam="2">  1        3 0.10736364E-01 0.34786728E+02</pdfrwt>
<totfact> 0.17270667E+03</totfact>
</mgrwt>
</event>
<event>
 5    1  0.7114032E-003  0.9760572E+02  0.7546771E-02  0.1297194E+00
          2   -1    0    0  502    0  0.00000000000E+00  0.00000000000E+00  0.17475445287E+04  0.17475445287E+04  0.00000000000E+00 0. -1.
         -1   -1    0    0    0  501 -0.00000000000E+00 -0.00000000000E+00 -0.53049330074E+02  0.53049330074E+02  0.00000000000E+00 0.  1.
         25    1    1    2    0    0  0.15716299886E+03  0.49119760044E+02  0.56696732263E+03  0.60348148602E+03  0.12500000000E+03 0.  0.
          2    1    1    2  502    0 -0.91340812988E+02  0.84246824660E+01  0.11023080716E+04  0.11061180787E+04  0.00000000000E+00 0. -1.
         -1    1    1    2    0  501 -0.65822185870E+02 -0.57544442510E+02  0.25219804444E+02  0.90994294067E+02  0.00000000000E+00 0.  1.
<mgrwt>
<rscale>  0 0.92377608E+02</rscale>
<asrwt>0</asrwt>
<pdfrwt beam="1">  1        2 0.26885296E+00 0.97605721E+02</pdfrwt>
<pdfrwt beam="2">  1       -1 0.81614367E-02 0.87429532E+02</pdfrwt>
<totfact> 0.97639985E+02</totfact>
</mgrwt>
</event>
<event>
 5    1  0.7114032E-003  0.6545162E+02  0.7546771E-02  0.1416771E+00
          1   -1    0    0  501    0  0.00000000000E+00  0.00000000000E+00  0.50273906893E+03  0.50273906893E+03  0.00000000000E+00 0. -1.
          1   -1    0    0  502    0 -0.00000000000E+00 -0.00000000000E+00 -0.37334493894E+03  0.37334493894E+03  0.00000000000E+00 0. -1.
         25    1    1    2    0    0  0.23927772369E+02  0.61984414450E+01 -0.69815980468E+02  0.14529359964E+03  0.12500000000E+03 0.  0.
          1    1    1    2  501    0 -0.45471276834E+02 -0.48440215203E+02  0.46048209847E+03  0.46525031379E+03  0.00000000000E+00 0. -1.
          1    1    1    2  502    0  0.21543504464E+02  0.42241773758E+02 -0.26127198801E+03  0.26554009444E+03  0.00000000000E+00 0. -1.
<mgrwt>
<rscale>  0 0.55709973E+02</rscale>
<asrwt>0</asrwt>
<pdfrwt beam="1">  1        1 0.77344473E-01 0.65451622E+02</pdfrwt>
<pdfrwt beam="2">  1        1 0.57437683E-01 0.47418246E+02</pdfrwt>
<totfact> 0.37450910E+02</totfact>
</mgrwt>
</event>
<event>
 5    1  0.7114032E-003  0.1944986E+03  0.7546771E-02  0.1214509E+00
          2   -1    0    0  501    0  0.00000000000E+00  0.00000000000E+00  0.14610248518E+04  0.14610248518E+04  0.00000000000E+00 0. -1.
          1   -1    0    0  502    0 -0.00000000000E+00 -0.00000000000E+00 -0.21933611039E+03  0.21933611039E+03  0.00000000000E+00 0. -1.
         25    1    1    2    0    0  0.12766434167E+03  0.67210885533E+02  0.13112821854E+03  0.23159252356E+03  0.12500000000E+03 0.  0.
          2    1    1    2  501    0 -0.11982284576E+03 -0.16641963664E+03  0.12559498562E+04  0.12725812552E+04  0.00000000000E+00 0. -1.
          1    1    1    2  502    0 -0.78414959077E+01  0.99208751102E+02 -0.14538933334E+03  0.17618718342E+03  0.00000000000E+00 0. -1.
<mgrwt>
<rscale>  0 0.13912637E+03</rscale>
<asrwt>0</asrwt>
<pdfrwt beam="1">  1        2 0.22477305E+00 0.19449862E+03</pdfrwt>
<pdfrwt beam="2">  1        1 0.33744018E-01 0.99518166E+02</pdfrwt>
<totfact> 0.25879135E+02</totfact>
</mgrwt>
</event>
<event>
 5    1  0.7114032E-003  0.7628683E+02  0.7546771E-02  0.1356406E+00
          1   -1    0    0  501    0  0.00000000000E+00  0.00000000000E+00  0.18677887317E+03  0.18677887317E+03  0.00000000000E+00 0. -1.
          1   -1    0    0  502    0 -0.00000000000E+00 -0.00000000000E+00 -0.78802146051E+03  0.78802146051E+03  0.00000000000E+00 0. -1.
         25    1    1    2    0    0 -0.48561423517E+02  0.69074186722E+02 -0.38586855613E+03  0.41430544015E+03  0.12500000000E+03 0.  0.
          1    1    1    2  501    0 -0.17457717995E+02 -0.74697039236E+02  0.16099600903E+03  0.17833713722E+03  0.00000000000E+00 0. -1.
          1    1    1    2  502    0  0.66019141511E+02  0.56228525140E+01 -0.37637004024E+03  0.38215775631E+03  0.00000000000E+00 0. -1.
<mgrwt>
<rscale>  0 0.71095886E+02</rscale>
<asrwt>0</asrwt>
<pdfrwt beam="1">  1        1 0.28735212E-01 0.76286833E+02</pdfrwt>
<pdfrwt beam="2">  1        1 0.12123407E+00 0.66258158E+02</pdfrwt>
<totfact> 0.47292649E+02</totfact>
</mgrwt>
</event>
<event>
 5    1  0.7114032E-003  0.1776342E+03  0.7546771E-02  0.1273554E+00
          1   -1    0    0  502    0 -0.00000000000E+00  0.00000000000E+00  0.10669669084E+04  0.10669669084E+04  0.00000000000E+00 0. -1.
          2   -1    0    0  501    0  0.00000000000E+00 -0.00000000000E+00 -0.16743042329E+04  0.16743042329E+04  0.00000000000E+00 0. -1.
         25    1    1    2    0    0  0.17217560806E+03 -0.98835522308E+02  0.11262277303E+03  0.26023410515E+03  0.12500000000E+03 0.  0.
          2    1    1    2  501    0 -0.52066960879E+02 -0.29906012143E+02 -0.15911250622E+04  0.15922576116E+04  0.00000000000E+00 0. -1.
          1    1    1    2  502    0 -0.12010864718E+03  0.12874153445E+03  0.87116496471E+03  0.88877942458E+03  0.00000000000E+00 0. -1.
<mgrwt>
<rscale>  0 0.10327610E+03</rscale>
<asrwt>0</asrwt>
<pdfrwt beam="2">  1        2 0.25758527E+00 0.60044467E+02</pdfrwt>
<pdfrwt beam="1">  1        1 0.16414876E+00 0.17763424E+03</pdfrwt>
<totfact> 0.25498900E+01</totfact>
</mgrwt>
</event>
<event>
 5    1  0.7114032E-003  0.1137951E+03  0.7546771E-02  0.1317913E+00
          1   -1    0    0  501    0  0.00000000000E+00  0.00000000000E+00  0.12666466218E+03  0.12666466218E+03  0.00000000000E+00 0. -1.
          1   -1    0    0  502    0 -0.00000000000E+00 -0.00000000000E+00 -0.51235334122E+03  0.51235334122E+03  0.00000000000E+00 0. -1.
         25    1    1    2    0    0 -0.92944445532E+02 -0.39767593721E+02 -0.13126107287E+03  0.20754421388E+03  0.12500000000E+03 0.  0.
          1    1    1    2  501    0  0.11882645461E+03 -0.16673563605E+02  0.43130057061E+02  0.12750661105E+03  0.00000000000E+00 0. -1.
          1    1    1    2  502    0 -0.25882009080E+02  0.56441157326E+02 -0.29755766323E+03  0.30396717846E+03  0.00000000000E+00 0. -1.
<mgrwt>
<rscale>  0 0.84058465E+02</rscale>
<asrwt>0</asrwt>
<pdfrwt beam="1">  1        1 0.19486871E-01 0.11379509E+03</pdfrwt>
<pdfrwt beam="2">  1        1 0.78823592E-01 0.62092533E+02</pdfrwt>
<totfact> 0.13888926E+03</totfact>
</mgrwt>
</event>
<event>
 5    1  0.7114032E-003  0.2024768E+03  0.7546771E-02  0.1321252E+00
         -2   -1    0    0    0  501 -0.00000000000E+00  0.00000000000E+00  0.57698682972E+03  0.57698682972E+03  0.00000000000E+00 0. -1.
          2   -1    0    0  502    0  0.00000000000E+00 -0.00000000000E+00 -0.50102799159E+03  0.50102799159E+03  0.00000000000E+00 0. -1.
         25    1    1    2    0    0  0.23183924936E+03  0.24273328619E+02 -0.18533622071E+03  0.32297545841E+03  0.12500000000E+03 0.  0.
          2    1    1    2  502    0 -0.33680571994E+02  0.35839487233E+01 -0.22586063725E+03  0.22838619283E+03  0.00000000000E+00 0. -1.
         -2    1    1    2    0  501 -0.19815867737E+03 -0.27857277342E+02  0.48715569609E+03  0.52665317007E+03  0.00000000000E+00 0. -1.
<mgrwt>
<rscale>  0 0.82813261E+02</rscale>
<asrwt>0</asrwt>
<pdfrwt beam="2">  1        2 0.77081229E-01 0.33870719E+02</pdfrwt>
<pdfrwt beam="1">  1       -2 0.88767205E-01 0.20247684E+03</pdfrwt>
<totfact> 0.73484920E+01</totfact>
</mgrwt>
</event>
<event>
 5    1  0.7114032E-003  0.8536629E+02  0.7546771E-02  0.1381940E+00
         -2   -1    0    0    0  501 -0.00000000000E+00  0.00000000000E+00  0.15775717954E+02  0.15775717954E+02  0.00000000000E+00 0.  1.
          1   -1    0    0  502    0  0.00000000000E+00 -0.00000000000E+00 -0.16518594585E+04  0.16518594585E+04  0.00000000000E+00 0. -1.
         25    1    1    2    0    0  0.33856374167E+01 -0.99388505804E+02 -0.51544404398E+03  0.53962681558E+03  0.12500000000E+03 0.  0.
          1    1    1    2  502    0 -0.36655278887E+02  0.30860233032E+02 -0.58795987795E+03  0.58990912990E+03  0.00000000000E+00 0. -1.
         -2    1    1    2    0  501  0.33269641470E+02  0.68528272772E+02 -0.53267981865E+03  0.53809923101E+03  0.00000000000E+00 0.  1.
<mgrwt>
<rscale>  0 0.63956465E+02</rscale>
<asrwt>0</asrwt>
<pdfrwt beam="2">  1        1 0.25413204E+00 0.47916213E+02</pdfrwt>
<pdfrwt beam="1">  1       -2 0.24270353E-02 0.85366293E+02</pdfrwt>
<totfact> 0.30455004E+03</totfact>
</mgrwt>
</event>
<event>
 5    1  0.7114032E-003  0.7856257E+02  0.7546771E-02  0.1441403E+00
         -1   -1    0    0    0  501 -0.00000000000E+00  0.00000000000E+00  0.26437890645E+02  0.26437890645E+02  0.00000000000E+00 0.  1.
          2   -1    0    0  502    0  0.00000000000E+00 -0.00000000000E+00 -0.13758276008E+04  0.13758276008E+04  0.00000000000E+00 0. -1.
         25    1    1    2    0    0 -0.72490966992E+02  0.86090189428E+01 -0.12288510545E+04  0.12373475541E+04  0.12500000000E+03 0.  0.
          2    1    1    2  502    0 -0.32686377140E+01 -0.32604275364E+02 -0.40962246091E+02  0.52455966003E+02  0.00000000000E+00 0. -1.
         -1    1    1    2    0  501  0.75759604706E+02  0.23995256421E+02 -0.79576409530E+02  0.11246197130E+03  0.00000000000E+00 0.  1.
<mgrwt>
<rscale>  0 0.50737711E+02</rscale>
<asrwt>0</asrwt>
<pdfrwt beam="2">  1        2 0.21166579E+00 0.32767709E+02</pdfrwt>
<pdfrwt beam="1">  1       -1 0.40673676E-02 0.78562566E+02</pdfrwt>
<totfact> 0.45304733E+03</totfact>
</mgrwt>
</event>
<event>
 5    1  0.7114032E-003  0.1143773E+03  0.7546771E-02  0.1413144E+00
          1   -1    0    0  502    0  0.00000000000E+00  0.00000000000E+00  0.10640636971E+04  0.10640636971E+04  0.00000000000E+00 0. -1.
         -1   -1    0    0    0  501 -0.00000000000E+00 -0.00000000000E+00 -0.28776017284E+02  0.28776017284E+02  0.00000000000E+00 0.  1.
         25    1    1    2    0    0 -0.95945350687E+01  0.12595426603E+03  0.71138169339E+03  0.73324310152E+03  0.12500000000E+03 0.  0.
          1    1    1    2  502    0  0.24852632469E+02 -0.10258658907E+03  0.31178878906E+03  0.32917155190E+03  0.00000000000E+00 0. -1.
         -1    1    1    2    0  501 -0.15258097400E+02 -0.23367676961E+02  0.12117197373E+02  0.30425060970E+02  0.00000000000E+00 0.  1.
<mgrwt>
<rscale>  0 0.56498192E+02</rscale>
<asrwt>0</asrwt>
<pdfrwt beam="1">  1        1 0.16370208E+00 0.11437734E+03</pdfrwt>
<pdfrwt beam="2">  1       -1 0.44270804E-02 0.27908025E+02</pdfrwt>
<totfact> 0.25237895E+03</totfact>
</mgrwt>
</event>
<event>
 5    1  0.7114032E-003  0.8489610E+02  0.7546771E-02  0.1362021E+00
         -1   -1    0    0    0  501 -0.00000000000E+00  0.00000000000E+00  0.10773346207E+03  0.10773346207E+03  0.00000000000E+00 0.  1.
          2   -1    0    0  502    0  0.00000000000E+00 -0.00000000000E+00 -0.31761092494E+04  0.31761092494E+04  0.00000000000E+00 0. -1.
         25    1    1    2    0    0 -0.33721910835E+02 -0.11200431122E+03 -0.90268092654E+03  0.91877091167E+03  0.12500000000E+03 0.  0.
          2    1    1    2  502    0 -0.24837687478E+02  0.51071955590E+02 -0.22470491187E+04  0.22477666687E+04  0.00000000000E+00 0. -1.
         -1    1    1    2    0  501  0.58559598313E+02  0.60932355630E+02  0.81354257829E+02  0.11730513111E+03  0.00000000000E+00 0.  1.
<mgrwt>
<rscale>  0 0.69436033E+02</rscale>
<asrwt>0</asrwt>
<pdfrwt beam="2">  1        2 0.48863216E+00 0.56791332E+02</pdfrwt>
<pdfrwt beam="1">  1       -1 0.16574380E-01 0.84896102E+02</pdfrwt>
<totfact> 0.63461583E+01</totfact>
</mgrwt>
</event>
<event>
 5    1  0.7114032E-003  0.1436197E+03  0.7546771E-02  0.1425701E+00
          2   -1    0    0  502    0  0.00000000000E+00  0.00000000000E+00  0.73409046523E+03  0.73409046523E+03  0.00000000000E+00 0.  1.
         -3   -1    0    0    0  501 -0.00000000000E+00 -0.00000000000E+00 -0.94537774950E+03  0.94537774950E+03  0.00000000000E+00 0.  1.
         25    1    1    2    0    0  0.45770212196E+02 -0.11720196841E+03 -0.19282999341E+02  0.17840416976E+03  0.12500000000E+03 0.  0.
          2    1    1    2  502    0  0.13141436154E+02 -0.15311894931E+02  0.64816095778E+03  0.64847496379E+03  0.00000000000E+00 0.  1.
         -3    1    1    2    0  501 -0.58911648350E+02  0.13251386334E+03 -0.84016524271E+03  0.85258908118E+03  0.00000000000E+00 0.  1.
<mgrwt>
<rscale>  0 0.53832673E+02</rscale>
<asrwt>0</asrwt>
<pdfrwt beam="1">  1        2 0.11293699E+00 0.20177995E+02</pdfrwt>
<pdfrwt beam="2">  1       -3 0.14544273E+00 0.14361965E+03</pdfrwt>
<totfact> 0.98772123E+00</totfact>
</mgrwt>
</event>
<event>
 5    1  0.7114032E-003  0.6155905E+02  0.7546771E-02  0.1490426E+00
          2   -1    0    0  502    0  0.00000000000E+00  0.00000000000E+00  0.24147522966E+02  0.24147522966E+02  0.00000000000E+00 0. -1.
         -1   -1    0    0    0  501 -0.00000000000E+00 -0.00000000000E+00 -0.59860519916E+03  0.59860519916E+03  0.00000000000E+00 0.  1.
         25    1    1    2    0    0 -0.54492641784E+02  0.17076951546E+02 -0.39943760037E+03  0.42241740834E+03  0.12500000000E+03 0.  0.
          2    1    1    2  502    0 -0.12675835690E+02 -0.26497462619E+02 -0.60061651477E+02  0.66859511768E+02  0.00000000000E+00 0. -1.
         -1    1    1    2    0  501  0.67168477474E+02  0.94205110736E+01 -0.11495842435E+03  0.13347580201E+03  0.00000000000E+00 0.  1.
<mgrwt>
<rscale>  0 0.42522866E+02</rscale>
<asrwt>0</asrwt>
<pdfrwt beam="1">  1        2 0.37150038E-02 0.29373327E+02</pdfrwt>
<pdfrwt beam="2">  1       -1 0.92093100E-01 0.61559051E+02</pdfrwt>
<totfact> 0.26882127E+03</totfact>
</mgrwt>
</event>
<event>
 5    1  0.7114032E-003  0.6077666E+02  0.7546771E-02  0.1418639E+00
          1   -1    0    0  501    0  0.00000000000E+00  0.00000000000E+00  0.11600147829E+04  0.11600147829E+04  0.00000000000E+00 0. -1.
          1   -1    0    0  502    0 -0.00000000000E+00 -0.00000000000E+00 -0.12256595740E+04  0.12256595740E+04  0.00000000000E+00 0. -1.
         25    1    1    2    0    0  0.53048835583E+02  0.58778804476E+02  0.34269644097E+03  0.37327600708E+03  0.12500000000E+03 0.  0.
          1    1    1    2  501    0 -0.27461888442E+01 -0.60579422668E+02  0.80035771913E+03  0.80265178414E+03  0.00000000000E+00 0. -1.
          1    1    1    2  502    0 -0.50302646738E+02  0.18006181923E+01 -0.12086989512E+04  0.12097465657E+04  0.00000000000E+00 0. -1.
<mgrwt>
<rscale>  0 0.55309898E+02</rscale>
<asrwt>0</asrwt>
<pdfrwt beam="1">  1        1 0.17846381E+00 0.60776658E+02</pdfrwt>
<pdfrwt beam="2">  1        1 0.18856301E+00 0.50334864E+02</pdfrwt>
<totfact> 0.20730819E+01</totfact>
</mgrwt>
</event>
<event>
 5    1  0.7114032E-003  0.4550499E+02  0.7546771E-02  0.1581231E+00
          1   -1    0    0  502    0  0.00000000000E+00  0.00000000000E+00  0.21597294709E+04  0.21597294709E+04  0.00000000000E+00 0. -1.
         -1   -1    0    0    0  501 -0.00000000000E+00 -0.00000000000E+00 -0.13109137001E+02  0.13109137001E+02  0.00000000000E+00 0.  1.
         25    1    1    2    0    0  0.17237710781E+02 -0.23016783834E+02  0.72310405515E+03  0.73439184744E+03  0.12500000000E+03 0.  0.
          1    1    1    2  502    0 -0.19261550750E+01 -0.21834303042E+02  0.13547715080E+04  0.13549488130E+04  0.00000000000E+00 0. -1.
         -1    1    1    2    0  501 -0.15311555706E+02  0.44851086876E+02  0.68744770788E+02  0.83497947536E+02  0.00000000000E+00 0.  1.
<mgrwt>
<rscale>  0 0.31582091E+02</rscale>
<asrwt>0</asrwt>
<pdfrwt beam="1">  1        1 0.33226579E+00 0.21919098E+02</pdfrwt>
<pdfrwt beam="2">  1       -1 0.20167920E-02 0.45504995E+02</pdfrwt>
<totfact> 0.20185352E+03</totfact>
</mgrwt>
</event>
<event>
 5    1  0.7761923E-003  0.7578698E+02  0.7546771E-02  0.1422004E+00
          2   -1    0    0  502    0  0.00000000000E+00  0.00000000000E+00  0.17003745626E+04  0.17003745626E+04  0.00000000000E+00 0. -1.
         -1   -1    0    0    0  501 -0.00000000000E+00 -0.00000000000E+00 -0.14899336460E+02  0.14899336460E+02  0.00000000000E+00 0.  1.
         25    1    1    2    0    0 -0.16736112329E+02 -0.95086684517E+02  0.13058339070E+04  0.13153511955E+04  0.12500000000E+03 0.  0.
          2    1    1    2  502    0  0.27865372796E+02  0.57359102769E+02  0.33234224943E+03  0.33840495923E+03  0.00000000000E+00 0. -1.
         -1    1    1    2    0  501 -0.11129260467E+02  0.37727581748E+02  0.47299069699E+02  0.61517744249E+02  0.00000000000E+00 0.  1.
<mgrwt>
<rscale>  0 0.54599176E+02</rscale>
<asrwt>0</asrwt>
<pdfrwt beam="1">  1        2 0.26159593E+00 0.75786983E+02</pdfrwt>
<pdfrwt beam="2">  1       -1 0.22922069E-02 0.39334856E+02</pdfrwt>
<totfact> 0.59854345E+03</totfact>
</mgrwt>
</event>
<event>
 5    1  0.7114032E-003  0.1149706E+03  0.7546771E-02  0.1316417E+00
          2   -1    0    0  502    0  0.00000000000E+00  0.00000000000E+00  0.61316701550E+03  0.61316701550E+03  0.00000000000E+00 0. -1.
         -1   -1    0    0    0  501 -0.00000000000E+00 -0.00000000000E+00 -0.28320434466E+03  0.28320434466E+03  0.00000000000E+00 0.  1.
         25    1    1    2    0    0  0.29422899669E+02 -0.51899064997E+02  0.14516889452E+03  0.20064453122E+03  0.12500000000E+03 0.  0.
          2    1    1    2  502    0  0.49191813397E+02 -0.38210036619E+02  0.42386441716E+03  0.42841671949E+03  0.00000000000E+00 0. -1.
         -1    1    1    2    0  501 -0.78614713067E+02  0.90109101617E+02 -0.23907064084E+03  0.26731010945E+03  0.00000000000E+00 0.  1.
<mgrwt>
<rscale>  0 0.84624662E+02</rscale>
<asrwt>0</asrwt>
<pdfrwt beam="1">  1        2 0.94333387E-01 0.62288373E+02</pdfrwt>
<pdfrwt beam="2">  1       -1 0.43569899E-01 0.11497063E+03</pdfrwt>
<totfact> 0.31021412E+02</totfact>
</mgrwt>
</event>
<event>
 5    1  0.7114032E-003  0.5236873E+02  0.7546771E-02  0.1558420E+00
         -1   -1    0    0    0  501 -0.00000000000E+00  0.00000000000E+00  0.66004676744E+01  0.66004676744E+01  0.00000000000E+00 0.  1.
          2   -1    0    0  502    0  0.00000000000E+00 -0.00000000000E+00 -0.19492690954E+04  0.19492690954E+04  0.00000000000E+00 0. -1.
         25    1    1    2    0    0  0.56518004386E+02 -0.24806741023E+02 -0.12862079796E+04  0.12937409424E+04  0.12500000000E+03 0.  0.
          2    1    1    2  502    0 -0.50305828890E+02  0.37348798833E+01 -0.58954287081E+03  0.59169706969E+03  0.00000000000E+00 0. -1.
         -1    1    1    2    0  501 -0.62121754955E+01  0.21071861140E+02 -0.66917777332E+02  0.70431551022E+02  0.00000000000E+00 0.  1.
<mgrwt>
<rscale>  0 0.33918457E+02</rscale>
<asrwt>0</asrwt>
<pdfrwt beam="2">  1        2 0.29988752E+00 0.52368726E+02</pdfrwt>
<pdfrwt beam="1">  1       -1 0.10154567E-02 0.21968488E+02</pdfrwt>
<totfact> 0.12763509E+04</totfact>
</mgrwt>
</event>
<event>
 5    1  0.7114032E-003  0.1072262E+03  0.7546771E-02  0.1281941E+00
          1   -1    0    0  502    0 -0.00000000000E+00  0.00000000000E+00  0.28781659116E+03  0.28781659116E+03  0.00000000000E+00 0. -1.
          2   -1    0    0  501    0  0.00000000000E+00 -0.00000000000E+00 -0.57131064556E+03  0.57131064556E+03  0.00000000000E+00 0. -1.
         25    1    1    2    0    0  0.16188036806E+03  0.31917378708E+02 -0.12876162702E+03  0.24377967352E+03  0.12500000000E+03 0.  0.
          2    1    1    2  501    0 -0.63033850428E+02 -0.66758922715E+02 -0.36716322381E+03  0.37846909118E+03  0.00000000000E+00 0. -1.
          1    1    1    2  502    0 -0.98846517629E+02  0.34841544007E+02  0.21243079643E+03  0.23687847202E+03  0.00000000000E+00 0. -1.
<mgrwt>
<rscale>  0 0.99221923E+02</rscale>
<asrwt>0</asrwt>
<pdfrwt beam="2">  1        2 0.87893945E-01 0.91815141E+02</pdfrwt>
<pdfrwt beam="1">  1        1 0.44279476E-01 0.10722621E+03</pdfrwt>
<totfact> 0.68728604E+02</totfact>
</mgrwt>
</event>
<event>
 5    1  0.7114032E-003  0.3229574E+02  0.7546771E-02  0.1595461E+00
          3   -1    0    0  502    0 -0.00000000000E+00  0.00000000000E+00  0.19378676643E+03  0.19378676643E+03  0.00000000000E+00 0. -1.
          2   -1    0    0  501    0  0.00000000000E+00 -0.00000000000E+00 -0.16486826584E+04  0.16486826584E+04  0.00000000000E+00 0. -1.
         25    1    1    2    0    0  0.36943186140E+01  0.41620483868E+01  0.11135174801E+03  0.16749681317E+03  0.12500000000E+03 0.  0.
          2    1    1    2  501    0 -0.32004899683E+02 -0.45609363291E+01 -0.16167509567E+04  0.16170741392E+04  0.00000000000E+00 0. -1.
          3    1    1    2  502    0  0.28310581069E+02  0.39888794225E+00  0.50503316723E+02  0.57898472451E+02  0.00000000000E+00 0. -1.
<mgrwt>
<rscale>  0 0.30239079E+02</rscale>
<asrwt>0</asrwt>
<pdfrwt beam="2">  1        2 0.25364349E+00 0.32295739E+02</pdfrwt>
<pdfrwt beam="1">  1        3 0.29813348E-01 0.28313391E+02</pdfrwt>
<totfact> 0.78443416E+01</totfact>
</mgrwt>
</event>
<event>
 5    1  0.7114032E-003  0.6779457E+02  0.7546771E-02  0.1447142E+00
          1   -1    0    0  502    0  0.00000000000E+00  0.00000000000E+00  0.65217289762E+02  0.65217289762E+02  0.00000000000E+00 0. -1.
         -2   -1    0    0    0  501 -0.00000000000E+00 -0.00000000000E+00 -0.27680662043E+03  0.27680662043E+03  0.00000000000E+00 0.  1.
         25    1    1    2    0    0 -0.77702238186E+02  0.96634495384E+01 -0.76880895493E+02  0.16633307599E+03  0.12500000000E+03 0.  0.
          1    1    1    2  502    0  0.61129616570E+02  0.22731057930E+02 -0.45999727326E+02  0.79809184501E+02  0.00000000000E+00 0. -1.
         -2    1    1    2    0  501  0.16572621616E+02 -0.32394507468E+02 -0.88708707848E+02  0.95881649701E+02  0.00000000000E+00 0.  1.
<mgrwt>
<rscale>  0 0.49667700E+02</rscale>
<asrwt>0</asrwt>
<pdfrwt beam="1">  1        1 0.10033429E-01 0.67794573E+02</pdfrwt>
<pdfrwt beam="2">  1       -2 0.42585634E-01 0.36387579E+02</pdfrwt>
<totfact> 0.26784127E+03</totfact>
</mgrwt>
</event>
<event>
 5    1  0.7114032E-003  0.1634540E+03  0.7546771E-02  0.1254659E+00
         -2   -1    0    0    0  501 -0.00000000000E+00  0.00000000000E+00  0.36273608770E+03  0.36273608770E+03  0.00000000000E+00 0.  1.
          2   -1    0    0  502    0  0.00000000000E+00 -0.00000000000E+00 -0.28014162133E+04  0.28014162133E+04  0.00000000000E+00 0. -1.
         25    1    1    2    0    0 -0.22924907589E+03 -0.78927090673E+01 -0.89751267620E+02  0.27622042592E+03  0.12500000000E+03 0.  0.
          2    1    1    2  502    0  0.15939349893E+03 -0.27858127052E+02 -0.26101591060E+04  0.26151697692E+04  0.00000000000E+00 0. -1.
         -2    1    1    2    0  501  0.69855576964E+02  0.35750836119E+02  0.26123024807E+03  0.27276210591E+03  0.00000000000E+00 0.  1.
<mgrwt>
<rscale>  0 0.11325471E+03</rscale>
<asrwt>0</asrwt>
<pdfrwt beam="2">  1        2 0.43098712E+00 0.16345395E+03</pdfrwt>
<pdfrwt beam="1">  1       -2 0.55805550E-01 0.78472440E+02</pdfrwt>
<totfact> 0.91705431E+00</totfact>
</mgrwt>
</event>
<event>
 5    1  0.7114032E-003  0.1089513E+03  0.7546771E-02  0.1379994E+00
          2   -1    0    0  502    0  0.00000000000E+00  0.00000000000E+00  0.37274806131E+03  0.37274806131E+03  0.00000000000E+00 0. -1.
          2   -1    0    0  501    0 -0.00000000000E+00 -0.00000000000E+00 -0.11532725283E+03  0.11532725283E+03  0.00000000000E+00 0. -1.
         25    1    1    2    0    0 -0.10363919428E+03  0.32356519952E+02  0.24090036311E+02  0.16731215385E+03  0.12500000000E+03 0.  0.
          2    1    1    2  501    0  0.11202949488E+03  0.48527955825E+01  0.33080194061E+02  0.11691217467E+03  0.00000000000E+00 0. -1.
          2    1    1    2  502    0 -0.83903005954E+01 -0.37209315535E+02  0.20025057811E+03  0.20385098562E+03  0.00000000000E+00 0. -1.
<mgrwt>
<rscale>  0 0.64465415E+02</rscale>
<asrwt>0</asrwt>
<pdfrwt beam="1">  1        2 0.57345855E-01 0.38143549E+02</pdfrwt>
<pdfrwt beam="2">  1        2 0.17742654E-01 0.10895131E+03</pdfrwt>
<totfact> 0.41069312E+03</totfact>
</mgrwt>
</event>
<event>
 5    1  0.7114032E-003  0.1681167E+03  0.7546771E-02  0.1298167E+00
         -1   -1    0    0    0  501 -0.00000000000E+00  0.00000000000E+00  0.21445965683E+03  0.21445965683E+03  0.00000000000E+00 0.  1.
          1   -1    0    0  502    0  0.00000000000E+00 -0.00000000000E+00 -0.67922113526E+03  0.67922113526E+03  0.00000000000E+00 0. -1.
         25    1    1    2    0    0  0.33922648296E+02 -0.20670868904E+03  0.53346105720E+02  0.24969989025E+03  0.12500000000E+03 0.  0.
          1    1    1    2  502    0 -0.47001459010E+02  0.15813335936E+03 -0.55666705238E+03  0.58059754021E+03  0.00000000000E+00 0. -1.
         -1    1    1    2    0  501  0.13078810714E+02  0.48575329677E+02  0.38559468221E+02  0.63383361637E+02  0.00000000000E+00 0.  1.
<mgrwt>
<rscale>  0 0.91962780E+02</rscale>
<asrwt>0</asrwt>
<pdfrwt beam="2">  1        1 0.10449556E+00 0.16811671E+03</pdfrwt>
<pdfrwt beam="1">  1       -1 0.32993794E-01 0.50305248E+02</pdfrwt>
<totfact> 0.25702456E+02</totfact>
</mgrwt>
</event>
<event>
 5    1  0.7114032E-003  0.7418576E+02  0.7546771E-02  0.1439561E+00
          1   -1    0    0  502    0 -0.00000000000E+00  0.00000000000E+00  0.11316372858E+04  0.11316372858E+04  0.00000000000E+00 0. -1.
          2   -1    0    0  501    0  0.00000000000E+00 -0.00000000000E+00 -0.38955037072E+03  0.38955037072E+03  0.00000000000E+00 0. -1.
         25    1    1    2    0    0  0.68383452497E+02 -0.78330476903E+02  0.63461704165E+03  0.65511506603E+03  0.12500000000E+03 0.  0.
          2    1    1    2  501    0 -0.35940666838E+02  0.64721829696E+02 -0.37504247460E+03  0.38227935404E+03  0.00000000000E+00 0. -1.
          1    1    1    2  502    0 -0.32442785660E+02  0.13608647207E+02  0.48251234803E+03  0.48379323644E+03  0.00000000000E+00 0. -1.
<mgrwt>
<rscale>  0 0.51087743E+02</rscale>
<asrwt>0</asrwt>
<pdfrwt beam="2">  1        2 0.59930827E-01 0.74185759E+02</pdfrwt>
<pdfrwt beam="1">  1        1 0.17409804E+00 0.35181382E+02</pdfrwt>
<totfact> 0.16847409E+02</totfact>
</mgrwt>
</event>
<event>
 5    1  0.7391955E-003  0.8097718E+02  0.7546771E-02  0.1338717E+00
          1   -1    0    0  502    0  0.00000000000E+00  0.00000000000E+00  0.54792911816E+02  0.54792911816E+02  0.00000000000E+00 0. -1.
         -2   -1    0    0    0  501 -0.00000000000E+00 -0.00000000000E+00 -0.53494021799E+03  0.53494021799E+03  0.00000000000E+00 0.  1.
         25    1    1    2    0    0  0.12578963312E+02  0.13141731712E+03 -0.20663322889E+03  0.27522905522E+03  0.12500000000E+03 0.  0.
          1    1    1    2  502    0 -0.36652609414E+02 -0.62702748068E+02 -0.81591434382E+02  0.10923465822E+03  0.00000000000E+00 0. -1.
         -2    1    1    2    0  501  0.24073646101E+02 -0.68714569051E+02 -0.19192264290E+03  0.20526941636E+03  0.00000000000E+00 0.  1.
<mgrwt>
<rscale>  0 0.76689859E+02</rscale>
<asrwt>0</asrwt>
<pdfrwt beam="1">  1        1 0.84296791E-02 0.72629528E+02</pdfrwt>
<pdfrwt beam="2">  1       -2 0.82298492E-01 0.80977181E+02</pdfrwt>
<totfact> 0.89619813E+02</totfact>
</mgrwt>
</event>
<event>
 5    1  0.7114032E-003  0.8858974E+02  0.7546771E-02  0.1364617E+00
          2   -1    0    0  502    0  0.00000000000E+00  0.00000000000E+00  0.21786822789E+03  0.21786822789E+03  0.00000000000E+00 0. -1.
          2   -1    0    0  501    0 -0.00000000000E+00 -0.00000000000E+00 -0.21393715550E+04  0.21393715550E+04  0.00000000000E+00 0. -1.
         25    1    1    2    0    0  0.54012354326E+02  0.82171126288E+02 -0.13431434646E+04  0.13525268186E+04  0.12500000000E+03 0.  0.
          2    1    1    2  501    0  0.26885593873E+02 -0.45970353901E+02 -0.78137890943E+03  0.78319161684E+03  0.00000000000E+00 0. -1.
          2    1    1    2  502    0 -0.80897948199E+02 -0.36200772387E+02  0.20301904696E+03  0.22152134744E+03  0.00000000000E+00 0. -1.
<mgrwt>
<rscale>  0 0.68686663E+02</rscale>
<asrwt>0</asrwt>
<pdfrwt beam="1">  1        2 0.33518188E-01 0.88589735E+02</pdfrwt>
<pdfrwt beam="2">  1        2 0.32913410E+00 0.53255127E+02</pdfrwt>
<totfact> 0.17888365E+02</totfact>
</mgrwt>
</event>
<event>
 5    1  0.7114032E-003  0.4863372E+02  0.7546771E-02  0.1480254E+00
         -3   -1    0    0    0  501 -0.00000000000E+00  0.00000000000E+00  0.50052406319E+03  0.50052406319E+03  0.00000000000E+00 0.  1.
          1   -1    0    0  502    0  0.00000000000E+00 -0.00000000000E+00 -0.76945819600E+02  0.76945819600E+02  0.00000000000E+00 0. -1.
         25    1    1    2    0    0  0.16756662918E+02  0.71531923142E+01  0.42905975119E+02  0.13340868268E+03  0.12500000000E+03 0.  0.
          1    1    1    2  502    0 -0.53794248239E+02 -0.22069655542E+02 -0.30898769354E+01  0.58227469280E+02  0.00000000000E+00 0. -1.
         -3    1    1    2    0  501  0.37037585321E+02  0.14916463228E+02  0.38376214540E+03  0.38583373083E+03  0.00000000000E+00 0.  1.
<mgrwt>
<rscale>  0 0.44066662E+02</rscale>
<asrwt>0</asrwt>
<pdfrwt beam="2">  1        1 0.11837819E-01 0.48633724E+02</pdfrwt>
<pdfrwt beam="1">  1       -3 0.77003700E-01 0.39928481E+02</pdfrwt>
<totfact> 0.38259253E+02</totfact>
</mgrwt>
</event>
<event>
 5    1  0.7114032E-003  0.1924805E+03  0.7546771E-02  0.1321007E+00
          2   -1    0    0  501    0  0.00000000000E+00  0.00000000000E+00  0.19891152156E+04  0.19891152156E+04  0.00000000000E+00 0. -1.
          2   -1    0    0  502    0 -0.00000000000E+00 -0.00000000000E+00 -0.48202282430E+03  0.48202282430E+03  0.00000000000E+00 0.  1.
         25    1    1    2    0    0 -0.52946582854E+01 -0.21134298512E+03  0.52094810236E+03  0.57593907327E+03  0.12500000000E+03 0.  0.
          2    1    1    2  501    0 -0.27838985724E+02  0.22361662152E+02  0.14201899251E+04  0.14206387564E+04  0.00000000000E+00 0. -1.
          2    1    1    2  502    0  0.33133644009E+02  0.18898132297E+03 -0.43404563615E+03  0.47456021015E+03  0.00000000000E+00 0.  1.
<mgrwt>
<rscale>  0 0.82903990E+02</rscale>
<asrwt>0</asrwt>
<pdfrwt beam="1">  1        2 0.30601772E+00 0.35707885E+02</pdfrwt>
<pdfrwt beam="2">  1        2 0.74157359E-01 0.19248050E+03</pdfrwt>
<totfact> 0.95529664E+01</totfact>
</mgrwt>
</event>
<event>
 5    1  0.7114032E-003  0.2749576E+03  0.7546771E-02  0.1312368E+00
         -2   -1    0    0    0  501  0.00000000000E+00  0.00000000000E+00  0.15904819693E+04  0.15904819693E+04  0.00000000000E+00 0.  1.
         -2   -1    0    0    0  502 -0.00000000000E+00 -0.00000000000E+00 -0.37834720804E+03  0.37834720804E+03  0.00000000000E+00 0.  1.
         25    1    1    2    0    0 -0.20694769575E+03  0.21360505003E+03  0.19939418550E+03  0.37925915597E+03  0.12500000000E+03 0.  0.
         -2    1    1    2    0  501  0.19388782641E+03 -0.18995879409E+03  0.12863268373E+04  0.13146534011E+04  0.00000000000E+00 0.  1.
         -2    1    1    2    0  502  0.13059869332E+02 -0.23646255940E+02 -0.27358626153E+03  0.27491662028E+03  0.00000000000E+00 0.  1.
<mgrwt>
<rscale>  0 0.86182645E+02</rscale>
<asrwt>0</asrwt>
<pdfrwt beam="1">  1       -2 0.24468953E+00 0.27495764E+03</pdfrwt>
<pdfrwt beam="2">  1       -2 0.58207264E-01 0.27013064E+02</pdfrwt>
<totfact> 0.14374630E+00</totfact>
</mgrwt>
</event>
<event>
 5    1  0.7114032E-003  0.5799162E+02  0.7546771E-02  0.1445620E+00
          2   -1    0    0  501    0  0.00000000000E+00  0.00000000000E+00  0.87781628002E+02  0.87781628002E+02  0.00000000000E+00 0. -1.
          1   -1    0    0  502    0 -0.00000000000E+00 -0.00000000000E+00 -0.22130343786E+04  0.22130343786E+04  0.00000000000E+00 0. -1.
         25    1    1    2    0    0  0.30194535909E+02  0.23531296724E+02 -0.77324437402E+01  0.13095885847E+03  0.12500000000E+03 0.  0.
          2    1    1    2  501    0  0.27169810045E+02 -0.33355657287E+02  0.78151400837E+01  0.43724991315E+02  0.00000000000E+00 0. -1.
          1    1    1    2  502    0 -0.57364345953E+02  0.98243605631E+01 -0.21253354470E+04  0.21261321568E+04  0.00000000000E+00 0. -1.
<mgrwt>
<rscale>  0 0.49948495E+02</rscale>
<asrwt>0</asrwt>
<pdfrwt beam="1">  1        2 0.13504866E-01 0.43020907E+02</pdfrwt>
<pdfrwt beam="2">  1        1 0.34046681E+00 0.57991622E+02</pdfrwt>
<totfact> 0.16420803E+02</totfact>
</mgrwt>
</event>
<event>
 5    1  0.7114032E-003  0.4639999E+02  0.7546771E-02  0.1515765E+00
         -1   -1    0    0    0  501 -0.00000000000E+00  0.00000000000E+00  0.97874238726E+01  0.97874238726E+01  0.00000000000E+00 0.  1.
          1   -1    0    0  502    0  0.00000000000E+00 -0.00000000000E+00 -0.13715386373E+04  0.13715386373E+04  0.00000000000E+00 0. -1.
         25    1    1    2    0    0  0.24813098661E+02  0.15650600762E+02 -0.97306733316E+03  0.98150174021E+03  0.12500000000E+03 0.  0.
          1    1    1    2  502    0 -0.57217236826E+02 -0.20509143354E+02 -0.26402679053E+03  0.27093280213E+03  0.00000000000E+00 0. -1.
         -1    1    1    2    0  501  0.32404138165E+02  0.48585425922E+01 -0.12465708975E+03  0.12889151885E+03  0.00000000000E+00 0.  1.
<mgrwt>
<rscale>  0 0.38991771E+02</rscale>
<asrwt>0</asrwt>
<pdfrwt beam="2">  1        1 0.21100590E+00 0.46399988E+02</pdfrwt>
<pdfrwt beam="1">  1       -1 0.15057578E-02 0.32766349E+02</pdfrwt>
<totfact> 0.77554411E+03</totfact>
</mgrwt>
</event>
<event>
 5    1  0.7114032E-003  0.1069799E+03  0.7546771E-02  0.1433207E+00
          2   -1    0    0  501    0  0.00000000000E+00  0.00000000000E+00  0.27702220395E+03  0.27702220395E+03  0.00000000000E+00 0. -1.
          2   -1    0    0  502    0 -0.00000000000E+00 -0.00000000000E+00 -0.27861497190E+04  0.27861497190E+04  0.00000000000E+00 0. -1.
         25    1    1    2    0    0 -0.27668791567E+02 -0.11375413254E+03 -0.10741514076E+04  0.10877186268E+04  0.12500000000E+03 0.  0.
          2    1    1    2  501    0  0.30246152971E+01  0.10686336316E+03  0.25956521566E+03  0.28071877006E+03  0.00000000000E+00 0. -1.
          2    1    1    2  502    0  0.24644176270E+02  0.68907693788E+01 -0.16945413232E+04  0.16947345261E+04  0.00000000000E+00 0. -1.
<mgrwt>
<rscale>  0 0.52321636E+02</rscale>
<asrwt>0</asrwt>
<pdfrwt beam="1">  1        2 0.42618801E-01 0.10697992E+03</pdfrwt>
<pdfrwt beam="2">  1        2 0.42863842E+00 0.25589414E+02</pdfrwt>
<totfact> 0.73808195E+01</totfact>
</mgrwt>
</event>
<event>
 5    1  0.7114032E-003  0.8126230E+02  0.7546771E-02  0.1433969E+00
          1   -1    0    0  502    0 -0.00000000000E+00  0.00000000000E+00  0.28074485356E+04  0.28074485356E+04  0.00000000000E+00 0. -1.
          2   -1    0    0  501    0  0.00000000000E+00 -0.00000000000E+00 -0.13758305820E+04  0.13758305820E+04  0.00000000000E+00 0. -1.
         25    1    1    2    0    0  0.10085596458E+03 -0.44406982965E+02  0.39641238298E+03  0.43001358479E+03  0.12500000000E+03 0.  0.
          2    1    1    2  501    0 -0.67372971930E+02  0.45293156289E+02 -0.13577003019E+04  0.13601252505E+04  0.00000000000E+00 0. -1.
          1    1    1    2  502    0 -0.33482992646E+02 -0.88617332475E+00  0.23929058725E+04  0.23931402823E+04  0.00000000000E+00 0. -1.
<mgrwt>
<rscale>  0 0.52171428E+02</rscale>
<asrwt>0</asrwt>
<pdfrwt beam="2">  1        2 0.21166624E+00 0.81262303E+02</pdfrwt>
<pdfrwt beam="1">  1        1 0.43191516E+00 0.33494717E+02</pdfrwt>
<totfact> 0.33325294E+00</totfact>
</mgrwt>
</event>
<event>
 5    1  0.7114032E-003  0.5320765E+02  0.7546771E-02  0.1479846E+00
         -2   -1    0    0    0  501 -0.00000000000E+00  0.00000000000E+00  0.24701812941E+02  0.24701812941E+02  0.00000000000E+00 0.  1.
          1   -1    0    0  502    0  0.00000000000E+00 -0.00000000000E+00 -0.55002254045E+03  0.55002254045E+03  0.00000000000E+00 0. -1.
         25    1    1    2    0    0  0.36440952642E+02 -0.30482210162E+02 -0.36639673857E+03  0.39003676519E+03  0.12500000000E+03 0.  0.
          1    1    1    2  502    0  0.20954528803E+02  0.30009345972E+02 -0.57978817560E+02  0.68565271156E+02  0.00000000000E+00 0. -1.
         -2    1    1    2    0  501 -0.57395481445E+02  0.47286419004E+00 -0.10094517138E+03  0.11612231704E+03  0.00000000000E+00 0.  1.
<mgrwt>
<rscale>  0 0.44130121E+02</rscale>
<asrwt>0</asrwt>
<pdfrwt beam="2">  1        1 0.84618847E-01 0.36601272E+02</pdfrwt>
<pdfrwt beam="1">  1       -2 0.38002792E-02 0.53207648E+02</pdfrwt>
<totfact> 0.92325515E+03</totfact>
</mgrwt>
</event>
<event>
 5    1  0.7114032E-003  0.2871572E+03  0.7546771E-02  0.1255273E+00
         -1   -1    0    0    0  501 -0.00000000000E+00  0.00000000000E+00  0.11507305159E+04  0.11507305159E+04  0.00000000000E+00 0.  1.
          2   -1    0    0  502    0  0.00000000000E+00 -0.00000000000E+00 -0.47158775542E+04  0.47158775542E+04  0.00000000000E+00 0. -1.
         25    1    1    2    0    0 -0.15093709136E+03  0.25454416889E+03  0.31988128654E+03  0.45334730278E+03  0.12500000000E+03 0.  0.
          2    1    1    2  502    0  0.18155667584E+03 -0.22239635494E+03 -0.46440631311E+04  0.46529286832E+04  0.00000000000E+00 0. -1.
         -1    1    1    2    0  501 -0.30619584487E+02 -0.32147813944E+02  0.75903480633E+03  0.76033208411E+03  0.00000000000E+00 0.  1.
<mgrwt>
<rscale>  0 0.11291036E+03</rscale>
<asrwt>0</asrwt>
<pdfrwt beam="2">  1        2 0.72551962E+00 0.28715723E+03</pdfrwt>
<pdfrwt beam="1">  1       -1 0.17703547E+00 0.44396406E+02</pdfrwt>
<totfact> 0.33084653E-02</totfact>
</mgrwt>
</event>
<event>
 5    1  0.7114032E-003  0.1132033E+03  0.7546771E-02  0.1273825E+00
          1   -1    0    0  502    0  0.00000000000E+00  0.00000000000E+00  0.17935307251E+04  0.17935307251E+04  0.00000000000E+00 0. -1.
          1   -1    0    0  501    0 -0.00000000000E+00 -0.00000000000E+00 -0.32565569612E+03  0.32565569612E+03  0.00000000000E+00 0. -1.
         25    1    1    2    0    0 -0.69936041630E+02  0.50897321434E+02  0.38185464715E+03  0.41099824671E+03  0.12500000000E+03 0.  0.
          1    1    1    2  501    0 -0.50028711210E+02 -0.79550246020E+02 -0.30118769140E+03  0.31550774798E+03  0.00000000000E+00 0. -1.
          1    1    1    2  502    0  0.11996475284E+03  0.28652924586E+02  0.13872080733E+04  0.13926804266E+04  0.00000000000E+00 0. -1.
<mgrwt>
<rscale>  0 0.10314148E+03</rscale>
<asrwt>0</asrwt>
<pdfrwt beam="1">  1        1 0.27592780E+00 0.11320327E+03</pdfrwt>
<pdfrwt beam="2">  1        1 0.50100877E-01 0.93974005E+02</pdfrwt>
<totfact> 0.48133918E+01</totfact>
</mgrwt>
</event>
<event>
 5    1  0.7114032E-003  0.1320102E+03  0.7546771E-02  0.1257496E+00
          1   -1    0    0  502    0 -0.00000000000E+00  0.00000000000E+00  0.70215114877E+03  0.70215114877E+03  0.00000000000E+00 0. -1.
          2   -1    0    0  501    0  0.00000000000E+00 -0.00000000000E+00 -0.57176533752E+03  0.57176533752E+03  0.00000000000E+00 0. -1.
         25    1    1    2    0    0  0.17224394841E+03  0.75914574389E+02  0.44585346839E+02  0.23031251274E+03  0.12500000000E+03 0.  0.
          2    1    1    2  501    0 -0.91240080982E+02  0.24512135749E+02 -0.46673672475E+03  0.47620244372E+03  0.00000000000E+00 0. -1.
          1    1    1    2  502    0 -0.81003867432E+02 -0.10042671014E+03  0.55253718917E+03  0.56740152983E+03  0.00000000000E+00 0. -1.
<mgrwt>
<rscale>  0 0.11167681E+03</rscale>
<asrwt>0</asrwt>
<pdfrwt beam="2">  1        2 0.87963898E-01 0.94475379E+02</pdfrwt>
<pdfrwt beam="1">  1        1 0.10802325E+00 0.13201017E+03</pdfrwt>
<totfact> 0.21592687E+02</totfact>
</mgrwt>
</event>
<event>
 5    1  0.7114032E-003  0.6905297E+02  0.7546771E-02  0.1421902E+00
          1   -1    0    0  502    0 -0.00000000000E+00  0.00000000000E+00  0.89653962372E+03  0.89653962372E+03  0.00000000000E+00 0. -1.
          2   -1    0    0  501    0  0.00000000000E+00 -0.00000000000E+00 -0.33544431327E+03  0.33544431327E+03  0.00000000000E+00 0. -1.
         25    1    1    2    0    0  0.27366877650E+02  0.11433687584E+02  0.93766949054E+02  0.15905004225E+03  0.12500000000E+03 0.  0.
          2    1    1    2  501    0 -0.70162055388E+02 -0.55004788826E+01 -0.29809606624E+03  0.30629109355E+03  0.00000000000E+00 0. -1.
          1    1    1    2  502    0  0.42795177738E+02 -0.59332087018E+01  0.76542442763E+03  0.76664280119E+03  0.00000000000E+00 0. -1.
<mgrwt>
<rscale>  0 0.54620511E+02</rscale>
<asrwt>0</asrwt>
<pdfrwt beam="2">  1        2 0.51606818E-01 0.69052971E+02</pdfrwt>
<pdfrwt beam="1">  1        1 0.13792917E+00 0.43204516E+02</pdfrwt>
<totfact> 0.28172610E+02</totfact>
</mgrwt>
</event>
<event>
 5    1  0.7114032E-003  0.4370488E+02  0.7546771E-02  0.1574016E+00
          2   -1    0    0  502    0  0.00000000000E+00  0.00000000000E+00  0.53462818776E+03  0.53462818776E+03  0.00000000000E+00 0. -1.
         -3   -1    0    0    0  501 -0.00000000000E+00 -0.00000000000E+00 -0.11899003911E+03  0.11899003911E+03  0.00000000000E+00 0.  1.
         25    1    1    2    0    0  0.23863051311E+02  0.14995285272E+01  0.12396948304E+03  0.17766577197E+03  0.12500000000E+03 0.  0.
          2    1    1    2  502    0 -0.40842173906E+02 -0.18269814815E+02  0.38093373443E+03  0.38355231629E+03  0.00000000000E+00 0. -1.
         -3    1    1    2    0  501  0.16979122594E+02  0.16770286288E+02 -0.89265068818E+02  0.92400138622E+02  0.00000000000E+00 0.  1.
<mgrwt>
<rscale>  0 0.32295700E+02</rscale>
<asrwt>0</asrwt>
<pdfrwt beam="1">  1        2 0.82250489E-01 0.43704878E+02</pdfrwt>
<pdfrwt beam="2">  1       -3 0.18306160E-01 0.23864893E+02</pdfrwt>
<totfact> 0.75695040E+02</totfact>
</mgrwt>
</event>
<event>
 5    1  0.7114032E-003  0.2502590E+03  0.7546771E-02  0.1195899E+00
          2   -1    0    0  501    0  0.00000000000E+00  0.00000000000E+00  0.16898786512E+04  0.16898786512E+04  0.00000000000E+00 0. -1.
          1   -1    0    0  502    0 -0.00000000000E+00 -0.00000000000E+00 -0.78175824430E+03  0.78175824430E+03  0.00000000000E+00 0. -1.
         25    1    1    2    0    0  0.22681217758E+02  0.32139512882E+03  0.25025394920E+03  0.42668642533E+03  0.12500000000E+03 0.  0.
          2    1    1    2  501    0 -0.59733935784E+02 -0.23446200998E+03  0.13372823754E+04  0.13589940136E+04  0.00000000000E+00 0. -1.
          1    1    1    2  502    0  0.37052718026E+02 -0.86933118844E+02 -0.67941591775E+03  0.68595645660E+03  0.00000000000E+00 0. -1.
<mgrwt>
<rscale>  0 0.15378396E+03</rscale>
<asrwt>0</asrwt>
<pdfrwt beam="1">  1        2 0.25998133E+00 0.25025903E+03</pdfrwt>
<pdfrwt beam="2">  1        1 0.12027050E+00 0.94500111E+02</pdfrwt>
<totfact> 0.37648117E+01</totfact>
</mgrwt>
</event>
<event>
 5    1  0.7114032E-003  0.4798514E+02  0.7546771E-02  0.1543459E+00
          2   -1    0    0  502    0  0.00000000000E+00  0.00000000000E+00  0.16269265386E+04  0.16269265386E+04  0.00000000000E+00 0. -1.
         -1   -1    0    0    0  501 -0.00000000000E+00 -0.00000000000E+00 -0.73517003495E+01  0.73517003495E+01  0.00000000000E+00 0.  1.
         25    1    1    2    0    0 -0.82243375288E+01 -0.34943258701E+02  0.10235635126E+04  0.10317925835E+04  0.12500000000E+03 0.  0.
          2    1    1    2  502    0 -0.12130536319E+02  0.51740290805E+02  0.50310042881E+03  0.50589944561E+03  0.00000000000E+00 0. -1.
         -1    1    1    2    0  501  0.20354873847E+02 -0.16797032104E+02  0.92910896807E+02  0.96586209794E+02  0.00000000000E+00 0.  1.
<mgrwt>
<rscale>  0 0.35585872E+02</rscale>
<asrwt>0</asrwt>
<pdfrwt beam="1">  1        2 0.25029610E+00 0.47985141E+02</pdfrwt>
<pdfrwt beam="2">  1       -1 0.11310321E-02 0.26390551E+02</pdfrwt>
<totfact> 0.16655649E+04</totfact>
</mgrwt>
</event>
<event>
 5    1  0.7114032E-003  0.3407630E+02  0.7546771E-02  0.1567328E+00
         -2   -1    0    0    0  501 -0.00000000000E+00  0.00000000000E+00  0.45396736988E+01  0.45396736988E+01  0.00000000000E+00 0.  1.
          1   -1    0    0  502    0  0.00000000000E+00 -0.00000000000E+00 -0.25829971326E+04  0.25829971326E+04  0.00000000000E+00 0. -1.
         25    1    1    2    0    0  0.17704345636E+01  0.15363941317E+02 -0.19238520982E+04  0.19279707158E+04  0.12500000000E+03 0.  0.
          1    1    1    2  502    0 -0.27123744069E+02 -0.34748594833E+02 -0.48384700911E+03  0.48585089334E+03  0.00000000000E+00 0. -1.
         -2    1    1    2    0  501  0.25353309506E+02  0.19384653516E+02 -0.17075835159E+03  0.17371519719E+03  0.00000000000E+00 0.  1.
<mgrwt>
<rscale>  0 0.32977850E+02</rscale>
<asrwt>0</asrwt>
<pdfrwt beam="2">  1        1 0.39738513E+00 0.34076298E+02</pdfrwt>
<pdfrwt beam="1">  1       -2 0.69840967E-03 0.31914810E+02</pdfrwt>
<totfact> 0.41421356E+03</totfact>
</mgrwt>
</event>
<event>
 5    1  0.7114032E-003  0.6708235E+02  0.7546771E-02  0.1506391E+00
         -1   -1    0    0    0  501 -0.00000000000E+00  0.00000000000E+00  0.43443005641E+02  0.43443005641E+02  0.00000000000E+00 0.  1.
          2   -1    0    0  502    0  0.00000000000E+00 -0.00000000000E+00 -0.32846925310E+03  0.32846925310E+03  0.00000000000E+00 0. -1.
         25    1    1    2    0    0  0.34777818807E+02  0.40571696610E+02 -0.18156880677E+03  0.22682105466E+03  0.12500000000E+03 0.  0.
          2    1    1    2  502    0 -0.57173434030E+02 -0.49604416376E+02 -0.89434962502E+02  0.11716660019E+03  0.00000000000E+00 0. -1.
         -1    1    1    2    0  501  0.22395615223E+02  0.90327197654E+01 -0.14022478188E+02  0.27924603884E+02  0.00000000000E+00 0.  1.
<mgrwt>
<rscale>  0 0.40248517E+02</rscale>
<asrwt>0</asrwt>
<pdfrwt beam="2">  1        2 0.50533732E-01 0.67082351E+02</pdfrwt>
<pdfrwt beam="1">  1       -1 0.66835393E-02 0.24148574E+02</pdfrwt>
<totfact> 0.10187205E+04</totfact>
</mgrwt>
</event>
<event>
 5    1  0.7114032E-003  0.7165571E+02  0.7546771E-02  0.1428028E+00
          1   -1    0    0  502    0  0.00000000000E+00  0.00000000000E+00  0.29295944450E+03  0.29295944450E+03  0.00000000000E+00 0. -1.
         -2   -1    0    0    0  501 -0.00000000000E+00 -0.00000000000E+00 -0.39265652612E+03  0.39265652612E+03  0.00000000000E+00 0.  1.
         25    1    1    2    0    0 -0.45177657530E+02 -0.89438550114E+02 -0.28522057315E+02  0.16272302462E+03  0.12500000000E+03 0.  0.
          1    1    1    2  502    0  0.34251959326E+02  0.20136418081E+02  0.21991096654E+03  0.22347148645E+03  0.00000000000E+00 0. -1.
         -2    1    1    2    0  501  0.10925698204E+02  0.69302132033E+02 -0.29108599084E+03  0.29942145956E+03  0.00000000000E+00 0.  1.
<mgrwt>
<rscale>  0 0.53357857E+02</rscale>
<asrwt>0</asrwt>
<pdfrwt beam="1">  1        1 0.45070684E-01 0.39732506E+02</pdfrwt>
<pdfrwt beam="2">  1       -2 0.60408696E-01 0.71655708E+02</pdfrwt>
<totfact> 0.21025128E+02</totfact>
</mgrwt>
</event>
<event>
 5    1  0.7114032E-003  0.9126440E+02  0.7546771E-02  0.1446024E+00
          2   -1    0    0  502    0  0.00000000000E+00  0.00000000000E+00  0.40291603033E+02  0.40291603033E+02  0.00000000000E+00 0.  1.
          2   -1    0    0  501    0 -0.00000000000E+00 -0.00000000000E+00 -0.81014527984E+03  0.81014527984E+03  0.00000000000E+00 0. -1.
         25    1    1    2    0    0 -0.93467096443E+02  0.20128240263E+02 -0.14061040798E+03  0.21103916937E+03  0.12500000000E+03 0.  0.
          2    1    1    2  501    0  0.71202060484E+02 -0.35847433877E+02 -0.54644498073E+03  0.55222901853E+03  0.00000000000E+00 0. -1.
          2    1    1    2  502    0  0.22265035959E+02  0.15719193614E+02 -0.82798288089E+02  0.87168694980E+02  0.00000000000E+00 0.  1.
<mgrwt>
<rscale>  0 0.49873782E+02</rscale>
<asrwt>0</asrwt>
<pdfrwt beam="1">  1        2 0.61987084E-02 0.91264397E+02</pdfrwt>
<pdfrwt beam="2">  1        2 0.12463773E+00 0.27254814E+02</pdfrwt>
<totfact> 0.64029705E+03</totfact>
</mgrwt>
</event>
<event>
 5    1  0.7114032E-003  0.1622483E+03  0.7546771E-02  0.1278540E+00
          2   -1    0    0  502    0  0.00000000000E+00  0.00000000000E+00  0.11312717931E+04  0.11312717931E+04  0.00000000000E+00 0. -1.
         -1   -1    0    0    0  501 -0.00000000000E+00 -0.00000000000E+00 -0.32895451325E+03  0.32895451325E+03  0.00000000000E+00 0.  1.
         25    1    1    2    0    0 -0.83211738130E+02  0.61787202187E+02 -0.19410941320E+03  0.25307176059E+03  0.12500000000E+03 0.  0.
          2    1    1    2  502    0  0.11749000457E+03 -0.11425554038E+03  0.10857435907E+04  0.10980425194E+04  0.00000000000E+00 0. -1.
         -1    1    1    2    0  501 -0.34278266443E+02  0.52468338196E+02 -0.89316897710E+02  0.10911202628E+03  0.00000000000E+00 0.  1.
<mgrwt>
<rscale>  0 0.10083956E+03</rscale>
<asrwt>0</asrwt>
<pdfrwt beam="1">  1        2 0.17404181E+00 0.16224832E+03</pdfrwt>
<pdfrwt beam="2">  1       -1 0.50608387E-01 0.62673169E+02</pdfrwt>
<totfact> 0.10565111E+02</totfact>
</mgrwt>
</event>
<event>
 5    1  0.7114032E-003  0.1463700E+03  0.7546771E-02  0.1244946E+00
          1   -1    0    0  502    0 -0.00000000000E+00  0.00000000000E+00  0.15494953562E+04  0.15494953562E+04  0.00000000000E+00 0. -1.
          2   -1    0    0  501    0  0.00000000000E+00 -0.00000000000E+00 -0.26353305017E+04  0.26353305017E+04  0.00000000000E+00 0. -1.
         25    1    1    2    0    0 -0.16840681104E+03 -0.14066847337E+03 -0.12854863092E+04  0.13100566875E+04  0.12500000000E+03 0.  0.
          2    1    1    2  501    0  0.30692003685E+02  0.91555613452E+02 -0.13323310307E+04  0.13358257390E+04  0.00000000000E+00 0. -1.
          1    1    1    2  502    0  0.13771480735E+03  0.49112859914E+02  0.15319821944E+04  0.15389434314E+04  0.00000000000E+00 0. -1.
<mgrwt>
<rscale>  0 0.11888624E+03</rscale>
<asrwt>0</asrwt>
<pdfrwt beam="2">  1        2 0.40543546E+00 0.96563085E+02</pdfrwt>
<pdfrwt beam="1">  1        1 0.23838390E+00 0.14636999E+03</pdfrwt>
<totfact> 0.37636237E+00</totfact>
</mgrwt>
</event>
<event>
 5    1  0.7114032E-003  0.5865028E+02  0.7546771E-02  0.1541907E+00
         -3   -1    0    0    0  501 -0.00000000000E+00  0.00000000000E+00  0.71612715607E+02  0.71612715607E+02  0.00000000000E+00 0.  1.
          2   -1    0    0  502    0  0.00000000000E+00 -0.00000000000E+00 -0.22766688878E+04  0.22766688878E+04  0.00000000000E+00 0.  1.
         25    1    1    2    0    0 -0.41590741198E+02 -0.36709262613E+02 -0.85360302582E+03  0.86448856870E+03  0.12500000000E+03 0.  0.
          2    1    1    2  502    0  0.55868660410E+02  0.20222408689E+02 -0.14151854628E+04  0.14164321894E+04  0.00000000000E+00 0.  1.
         -3    1    1    2    0  501 -0.14277919212E+02  0.16486853924E+02  0.63732316410E+02  0.67360845336E+02  0.00000000000E+00 0.  1.
<mgrwt>
<rscale>  0 0.35765368E+02</rscale>
<asrwt>0</asrwt>
<pdfrwt beam="2">  1        2 0.35025676E+00 0.58650279E+02</pdfrwt>
<pdfrwt beam="1">  1       -3 0.11017341E-01 0.21809982E+02</pdfrwt>
<totfact> 0.18245263E+02</totfact>
</mgrwt>
</event>
<event>
 5    1  0.7114032E-003  0.1007072E+03  0.7546771E-02  0.1461054E+00
         -2   -1    0    0    0  501  0.00000000000E+00  0.00000000000E+00  0.11069788151E+03  0.11069788151E+03  0.00000000000E+00 0.  1.
         -2   -1    0    0    0  502 -0.00000000000E+00 -0.00000000000E+00 -0.20211199135E+04  0.20211199135E+04  0.00000000000E+00 0.  1.
         25    1    1    2    0    0  0.67210887141E+02  0.57079046003E+02 -0.29755246617E+03  0.33457105518E+03  0.12500000000E+03 0.  0.
         -2    1    1    2    0  501 -0.29320469779E+01  0.21927257223E+02  0.89316896833E+02  0.92015811515E+02  0.00000000000E+00 0.  1.
         -2    1    1    2    0  502 -0.64278840163E+02 -0.79006303226E+02 -0.17021864627E+04  0.17052309283E+04  0.00000000000E+00 0.  1.
<mgrwt>
<rscale>  0 0.47200499E+02</rscale>
<asrwt>0</asrwt>
<pdfrwt beam="1">  1       -2 0.17030445E-01 0.22122421E+02</pdfrwt>
<pdfrwt beam="2">  1       -2 0.31094150E+00 0.10070720E+03</pdfrwt>
<totfact> 0.56113976E+00</totfact>
</mgrwt>
</event>
<event>
 5    1  0.7114032E-003  0.1458241E+03  0.7546771E-02  0.1253611E+00
          2   -1    0    0  501    0  0.00000000000E+00  0.00000000000E+00  0.21410408410E+04  0.21410408410E+04  0.00000000000E+00 0. -1.
          1   -1    0    0  502    0 -0.00000000000E+00 -0.00000000000E+00 -0.37106722694E+02  0.37106722694E+02  0.00000000000E+00 0. -1.
         25    1    1    2    0    0 -0.12175491961E+03  0.52237400498E+02  0.40051971328E+03  0.43999323539E+03  0.12500000000E+03 0.  0.
          2    1    1    2  501    0  0.14881624987E+03  0.32421810389E+02  0.15728641876E+04  0.15802212511E+04  0.00000000000E+00 0. -1.
          1    1    1    2  502    0 -0.27061330263E+02 -0.84659210888E+02  0.13055021742E+03  0.15793307713E+03  0.00000000000E+00 0. -1.
<mgrwt>
<rscale>  0 0.11384514E+03</rscale>
<asrwt>0</asrwt>
<pdfrwt beam="1">  1        2 0.32939080E+00 0.14582409E+03</pdfrwt>
<pdfrwt beam="2">  1        1 0.57087282E-02 0.88879118E+02</pdfrwt>
<totfact> 0.11515992E+03</totfact>
</mgrwt>
</event>
<event>
 5    1  0.7114032E-003  0.6970430E+02  0.7546771E-02  0.1437065E+00
         -3   -1    0    0    0  501 -0.00000000000E+00  0.00000000000E+00  0.21621571300E+03  0.21621571300E+03  0.00000000000E+00 0.  1.
          2   -1    0    0  502    0  0.00000000000E+00 -0.00000000000E+00 -0.30127199434E+04  0.30127199434E+04  0.00000000000E+00 0. -1.
         25    1    1    2    0    0 -0.36494741177E+02 -0.14833502264E+02 -0.17571742445E+04  0.17620551139E+04  0.12500000000E+03 0.  0.
          2    1    1    2  502    0 -0.33208653583E+02  0.18777883299E+02 -0.12471057312E+04  0.12476891153E+04  0.00000000000E+00 0. -1.
         -3    1    1    2    0  501  0.69703394760E+02 -0.39443810349E+01  0.20777574535E+03  0.21919142716E+03  0.00000000000E+00 0.  1.
<mgrwt>
<rscale>  0 0.51567625E+02</rscale>
<asrwt>0</asrwt>
<pdfrwt beam="2">  1        2 0.46349538E+00 0.38150014E+02</pdfrwt>
<pdfrwt beam="1">  1       -3 0.33263956E-01 0.69704297E+02</pdfrwt>
<totfact> 0.14427959E+01</totfact>
</mgrwt>
</event>
<event>
 5    1  0.7114032E-003  0.1143780E+03  0.7546771E-02  0.1310436E+00
          2   -1    0    0  502    0  0.00000000000E+00  0.00000000000E+00  0.16873628618E+04  0.16873628618E+04  0.00000000000E+00 0. -1.
         -1   -1    0    0    0  501 -0.00000000000E+00 -0.00000000000E+00 -0.39773872855E+03  0.39773872855E+03  0.00000000000E+00 0.  1.
         25    1    1    2    0    0 -0.36760955451E+01  0.52615711834E+02  0.12448246041E+04  0.12521961594E+04  0.12500000000E+03 0.  0.
          2    1    1    2  502    0 -0.37031960242E+02  0.54733526851E+02  0.42789939041E+03  0.43297230090E+03  0.00000000000E+00 0. -1.
         -1    1    1    2    0  501  0.40708055788E+02 -0.10734923869E+03 -0.38309986120E+03  0.39993313004E+03  0.00000000000E+00 0.  1.
<mgrwt>
<rscale>  0 0.86940098E+02</rscale>
<asrwt>0</asrwt>
<pdfrwt beam="1">  1        2 0.25959428E+00 0.66084227E+02</pdfrwt>
<pdfrwt beam="2">  1       -1 0.61190575E-01 0.11437798E+03</pdfrwt>
<totfact> 0.40438789E+01</totfact>
</mgrwt>
</event>
<event>
 5    1  0.7114032E-003  0.1781311E+03  0.7546771E-02  0.1243433E+00
          2   -1    0    0  501    0  0.00000000000E+00  0.00000000000E+00  0.30175399342E+04  0.30175399342E+04  0.00000000000E+00 0. -1.
          1   -1    0    0  502    0 -0.00000000000E+00 -0.00000000000E+00 -0.14047182013E+04  0.14047182013E+04  0.00000000000E+00 0. -1.
         25    1    1    2    0    0  0.16015081445E+03 -0.13512153781E+03 -0.36621347969E+03  0.44004934503E+03  0.12500000000E+03 0.  0.
          2    1    1    2  501    0  0.52047446137E+01  0.80396920928E+02  0.29724997772E+04  0.29735913774E+04  0.00000000000E+00 0. -1.
          1    1    1    2  502    0 -0.16535555906E+03  0.54724616880E+02 -0.99346456464E+03  0.10086174130E+04  0.00000000000E+00 0. -1.
<mgrwt>
<rscale>  0 0.11979637E+03</rscale>
<asrwt>0</asrwt>
<pdfrwt beam="1">  1        2 0.46423691E+00 0.80565217E+02</pdfrwt>
<pdfrwt beam="2">  1        1 0.21611049E+00 0.17813111E+03</pdfrwt>
<totfact> 0.29119046E+00</totfact>
</mgrwt>
</event>
<event>
 5    1  0.7114032E-003  0.1088050E+03  0.7546771E-02  0.1295920E+00
          2   -1    0    0  501    0  0.00000000000E+00  0.00000000000E+00  0.14209977508E+04  0.14209977508E+04  0.00000000000E+00 0. -1.
          3   -1    0    0  502    0 -0.00000000000E+00 -0.00000000000E+00 -0.57681585738E+03  0.57681585738E+03  0.00000000000E+00 0. -1.
         25    1    1    2    0    0 -0.65632763814E+02 -0.49927164127E+01  0.35917769618E+03  0.38596140265E+03  0.12500000000E+03 0.  0.
          2    1    1    2  501    0  0.95022784612E+02  0.78712013892E+02  0.10419751913E+04  0.10492555504E+04  0.00000000000E+00 0. -1.
          3    1    1    2  502    0 -0.29390020798E+02 -0.73719297479E+02 -0.55697099407E+03  0.56259665514E+03  0.00000000000E+00 0. -1.
<mgrwt>
<rscale>  0 0.92924545E+02</rscale>
<asrwt>0</asrwt>
<pdfrwt beam="1">  1        2 0.21861504E+00 0.10880502E+03</pdfrwt>
<pdfrwt beam="2">  1        3 0.88740902E-01 0.79361881E+02</pdfrwt>
<totfact> 0.11638507E+01</totfact>
</mgrwt>
</event>
<event>
 5    1  0.7114032E-003  0.9166486E+02  0.7546771E-02  0.1339165E+00
         -2   -1    0    0    0  501 -0.00000000000E+00  0.00000000000E+00  0.72772166639E+02  0.72772166639E+02  0.00000000000E+00 0.  1.
          1   -1    0    0  502    0  0.00000000000E+00 -0.00000000000E+00 -0.80414286448E+03  0.80414286448E+03  0.00000000000E+00 0. -1.
         25    1    1    2    0    0 -0.34527120260E+01  0.35216838230E+02 -0.43879134836E+02  0.13712230085E+03  0.12500000000E+03 0.  0.
          1    1    1    2  502    0 -0.24020719175E+02 -0.92922812355E+02 -0.66522467757E+03  0.67211272541E+03  0.00000000000E+00 0. -1.
         -2    1    1    2    0  501  0.27473431200E+02  0.57705974125E+02 -0.22266885435E+02  0.67680004866E+02  0.00000000000E+00 0.  1.
<mgrwt>
<rscale>  0 0.76540854E+02</rscale>
<asrwt>0</asrwt>
<pdfrwt beam="2">  1        1 0.12371428E+00 0.91664856E+02</pdfrwt>
<pdfrwt beam="1">  1       -2 0.11195718E-01 0.63912197E+02</pdfrwt>
<totfact> 0.10786380E+03</totfact>
</mgrwt>
</event>
<event>
 5    1  0.7114032E-003  0.9130636E+02  0.7546771E-02  0.1338882E+00
          1   -1    0    0  501    0  0.00000000000E+00  0.00000000000E+00  0.19885862147E+04  0.19885862147E+04  0.00000000000E+00 0. -1.
          1   -1    0    0  502    0 -0.00000000000E+00 -0.00000000000E+00 -0.18114329536E+04  0.18114329536E+04  0.00000000000E+00 0. -1.
         25    1    1    2    0    0  0.12641034740E+02 -0.34938683381E+02  0.39657068367E+03  0.41746115328E+03  0.12500000000E+03 0.  0.
          1    1    1    2  501    0 -0.93096308115E+01  0.99173384402E+02  0.15794265473E+04  0.15825644530E+04  0.00000000000E+00 0. -1.
          1    1    1    2  502    0 -0.33314039285E+01 -0.64234701021E+02 -0.17988439700E+04  0.17999935620E+04  0.00000000000E+00 0. -1.
<mgrwt>
<rscale>  0 0.76634973E+02</rscale>
<asrwt>0</asrwt>
<pdfrwt beam="1">  1        1 0.30593634E+00 0.91306358E+02</pdfrwt>
<pdfrwt beam="2">  1        1 0.27868199E+00 0.64321031E+02</pdfrwt>
<totfact> 0.24763200E+00</totfact>
</mgrwt>
</event>
<event>
 5    1  0.7114032E-003  0.5581273E+02  0.7546771E-02  0.1464550E+00
          1   -1    0    0  501    0  0.00000000000E+00  0.00000000000E+00  0.15325247012E+04  0.15325247012E+04  0.00000000000E+00 0. -1.
          3   -1    0    0  502    0 -0.00000000000E+00 -0.00000000000E+00 -0.21623770299E+02  0.21623770299E+02  0.00000000000E+00 0. -1.
         25    1    1    2    0    0  0.33223103296E+02  0.11349036534E+02  0.62951041437E+03  0.64276040406E+03  0.12500000000E+03 0.  0.
          1    1    1    2  501    0 -0.31751463123E+01  0.38790445996E+02  0.83721514174E+03  0.83811930763E+03  0.00000000000E+00 0. -1.
          3    1    1    2  502    0 -0.30047956984E+02 -0.50139482530E+02  0.44175374792E+02  0.73268759818E+02  0.00000000000E+00 0. -1.
<mgrwt>
<rscale>  0 0.46607310E+02</rscale>
<asrwt>0</asrwt>
<pdfrwt beam="1">  1        1 0.23577295E+00 0.38920178E+02</pdfrwt>
<pdfrwt beam="2">  1        3 0.33267351E-02 0.55812728E+02</pdfrwt>
<totfact> 0.15887603E+03</totfact>
</mgrwt>
</event>
<event>
 5    1  0.7114032E-003  0.7053801E+02  0.7546771E-02  0.1517280E+00
         -3   -1    0    0    0  502 -0.00000000000E+00  0.00000000000E+00  0.85469672995E+02  0.85469672995E+02  0.00000000000E+00 0.  1.
         -2   -1    0    0    0  501  0.00000000000E+00 -0.00000000000E+00 -0.58538798774E+03  0.58538798774E+03  0.00000000000E+00 0.  1.
         25    1    1    2    0    0  0.51397032713E+02  0.70118414585E+02 -0.27316976495E+03  0.31273785750E+03  0.12500000000E+03 0.  0.
         -2    1    1    2    0  501 -0.45641542299E+02 -0.49573880538E+02 -0.28668568021E+03  0.29449855560E+03  0.00000000000E+00 0.  1.
         -3    1    1    2    0  502 -0.57554904141E+01 -0.20544534047E+02  0.59937130406E+02  0.63621247633E+02  0.00000000000E+00 0.  1.
<mgrwt>
<rscale>  0 0.38793862E+02</rscale>
<asrwt>0</asrwt>
<pdfrwt beam="2">  1       -2 0.90059690E-01 0.70538011E+02</pdfrwt>
<pdfrwt beam="1">  1       -3 0.13149181E-01 0.21335500E+02</pdfrwt>
<totfact> 0.15714331E+02</totfact>
</mgrwt>
</event>
<event>
 5    1  0.7114032E-003  0.7504687E+02  0.7546771E-02  0.1443401E+00
         -1   -1    0    0    0  501 -0.00000000000E+00  0.00000000000E+00  0.14880770344E+03  0.14880770344E+03  0.00000000000E+00 0.  1.
          1   -1    0    0  502    0  0.00000000000E+00 -0.00000000000E+00 -0.14184582812E+03  0.14184582812E+03  0.00000000000E+00 0. -1.
         25    1    1    2    0    0 -0.52635122820E+02 -0.88385679865E+02  0.22754437986E+02  0.16347858884E+03  0.12500000000E+03 0.  0.
          1    1    1    2  502    0  0.32050697500E+02  0.61581658131E+02 -0.44811802511E+02  0.82629567787E+02  0.00000000000E+00 0. -1.
         -1    1    1    2    0  501  0.20584425320E+02  0.26804021735E+02  0.29019239845E+02  0.44545374935E+02  0.00000000000E+00 0.  1.
<mgrwt>
<rscale>  0 0.50361582E+02</rscale>
<asrwt>0</asrwt>
<pdfrwt beam="2">  1        1 0.21822435E-01 0.75046866E+02</pdfrwt>
<pdfrwt beam="1">  1       -1 0.22893493E-01 0.33796067E+02</pdfrwt>
<totfact> 0.33087677E+03</totfact>
</mgrwt>
</event>
<event>
 5    1  0.7114032E-003  0.8174748E+02  0.7546771E-02  0.1448189E+00
          2   -1    0    0  501    0  0.00000000000E+00  0.00000000000E+00  0.40863170496E+04  0.40863170496E+04  0.00000000000E+00 0. -1.
          1   -1    0    0  502    0 -0.00000000000E+00 -0.00000000000E+00 -0.97830445483E+03  0.97830445483E+03  0.00000000000E+00 0. -1.
         25    1    1    2    0    0 -0.58079716602E+02  0.68630195856E+02 -0.26183281100E+03  0.30375117807E+03  0.12500000000E+03 0.  0.
          2    1    1    2  501    0  0.70494908929E+02 -0.41380962806E+02  0.40646244360E+04  0.40654463128E+04  0.00000000000E+00 0. -1.
          1    1    1    2  502    0 -0.12415192327E+02 -0.27249233050E+02 -0.69477903028E+03  0.69542401355E+03  0.00000000000E+00 0. -1.
<mgrwt>
<rscale>  0 0.49475918E+02</rscale>
<asrwt>0</asrwt>
<pdfrwt beam="1">  1        2 0.62866415E+00 0.81747481E+02</pdfrwt>
<pdfrwt beam="2">  1        1 0.15050838E+00 0.29944243E+02</pdfrwt>
<totfact> 0.13019674E+00</totfact>
</mgrwt>
</event>
<event>
 5    1  0.7114032E-003  0.1627379E+03  0.7546771E-02  0.1258355E+00
         -1   -1    0    0    0  501  0.00000000000E+00  0.00000000000E+00  0.16930652138E+04  0.16930652138E+04  0.00000000000E+00 0.  1.
         -3   -1    0    0    0  502 -0.00000000000E+00 -0.00000000000E+00 -0.12947260779E+03  0.12947260779E+03  0.00000000000E+00 0.  1.
         25    1    1    2    0    0  0.68409472406E+02  0.68507269480E+02  0.12163510790E+03  0.19948233345E+03  0.12500000000E+03 0.  0.
         -1    1    1    2    0  501 -0.13529589408E+03 -0.10457274298E+03  0.15108434281E+04  0.15204894941E+04  0.00000000000E+00 0.  1.
         -3    1    1    2    0  502  0.66886421673E+02  0.36065473502E+02 -0.68885929970E+02  0.10256599403E+03  0.00000000000E+00 0.  1.
<mgrwt>
<rscale>  0 0.11120472E+03</rscale>
<asrwt>0</asrwt>
<pdfrwt beam="1">  1       -1 0.26047156E+00 0.16273793E+03</pdfrwt>
<pdfrwt beam="2">  1       -3 0.19918864E-01 0.75990208E+02</pdfrwt>
<totfact> 0.68613064E+00</totfact>
</mgrwt>
</event>
<event>
 5    1  0.7114032E-003  0.8956067E+02  0.7546771E-02  0.1449205E+00
         -2   -1    0    0    0  501 -0.00000000000E+00  0.00000000000E+00  0.11908018313E+03  0.11908018313E+03  0.00000000000E+00 0.  1.
          1   -1    0    0  502    0  0.00000000000E+00 -0.00000000000E+00 -0.16308365026E+03  0.16308365026E+03  0.00000000000E+00 0. -1.
         25    1    1    2    0    0 -0.74460630343E+02  0.48664579256E+02 -0.51796971225E+02  0.16192761646E+03  0.12500000000E+03 0.  0.
          1    1    1    2  502    0  0.88331847939E+02 -0.25351375521E+02 -0.39797231493E+00  0.91898672368E+02  0.00000000000E+00 0. -1.
         -2    1    1    2    0  501 -0.13871217595E+02 -0.23313203735E+02  0.81914764120E+01  0.28337544561E+02  0.00000000000E+00 0.  1.
<mgrwt>
<rscale>  0 0.49290786E+02</rscale>
<asrwt>0</asrwt>
<pdfrwt beam="2">  1        1 0.25089792E-01 0.89560666E+02</pdfrwt>
<pdfrwt beam="1">  1       -2 0.18320028E-01 0.27127774E+02</pdfrwt>
<totfact> 0.35719689E+03</totfact>
</mgrwt>
</event>
<event>
 5    1  0.7114032E-003  0.2292127E+03  0.7546771E-02  0.1352699E+00
          2   -1    0    0  501    0  0.00000000000E+00  0.00000000000E+00  0.13893945290E+04  0.13893945290E+04  0.00000000000E+00 0. -1.
          2   -1    0    0  502    0 -0.00000000000E+00 -0.00000000000E+00 -0.73717840031E+03  0.73717840031E+03  0.00000000000E+00 0. -1.
         25    1    1    2    0    0  0.14226010339E+03 -0.15860961423E+03 -0.11871169317E+03  0.27406643873E+03  0.12500000000E+03 0.  0.
          2    1    1    2  501    0  0.20133903994E+02 -0.10604087445E+02  0.12861836297E+04  0.12863849152E+04  0.00000000000E+00 0. -1.
          2    1    1    2  502    0 -0.16239400738E+03  0.16921370168E+03 -0.51525580790E+03  0.56612157532E+03  0.00000000000E+00 0. -1.
<mgrwt>
<rscale>  0 0.72221117E+02</rscale>
<asrwt>0</asrwt>
<pdfrwt beam="1">  1        2 0.21375300E+00 0.22755675E+02</pdfrwt>
<pdfrwt beam="2">  1        2 0.11341206E+00 0.22921269E+03</pdfrwt>
<totfact> 0.11728464E+02</totfact>
</mgrwt>
</event>
<event>
 5    1  0.7114032E-003  0.7985857E+02  0.7546771E-02  0.1361665E+00
          2   -1    0    0  501    0  0.00000000000E+00  0.00000000000E+00  0.43333786073E+02  0.43333786073E+02  0.00000000000E+00 0. -1.
          1   -1    0    0  502    0 -0.00000000000E+00 -0.00000000000E+00 -0.52896384087E+03  0.52896384087E+03  0.00000000000E+00 0. -1.
         25    1    1    2    0    0  0.43358077849E+02 -0.19403978997E+02 -0.21564163558E+03  0.25373756583E+03  0.12500000000E+03 0.  0.
          2    1    1    2  501    0  0.25296062619E+02 -0.55017698782E+02 -0.59052368720E+02  0.84581441314E+02  0.00000000000E+00 0. -1.
          1    1    1    2  502    0 -0.68654140467E+02  0.74421677778E+02 -0.21093605050E+03  0.23397861980E+03  0.00000000000E+00 0. -1.
<mgrwt>
<rscale>  0 0.69539843E+02</rscale>
<asrwt>0</asrwt>
<pdfrwt beam="1">  1        2 0.66667366E-02 0.60554422E+02</pdfrwt>
<pdfrwt beam="2">  1        1 0.81379049E-01 0.79858574E+02</pdfrwt>
<totfact> 0.56177452E+03</totfact>
</mgrwt>
</event>
<event>
 5    1  0.7114032E-003  0.7020837E+02  0.7546771E-02  0.1406414E+00
         -1   -1    0    0    0  501 -0.00000000000E+00  0.00000000000E+00  0.33769900473E+02  0.33769900473E+02  0.00000000000E+00 0.  1.
          1   -1    0    0  502    0  0.00000000000E+00 -0.00000000000E+00 -0.22925706397E+04  0.22925706397E+04  0.00000000000E+00 0. -1.
         25    1    1    2    0    0 -0.46658923574E+02  0.10339323485E+03 -0.49550206491E+03  0.52346395530E+03  0.12500000000E+03 0.  0.
          1    1    1    2  502    0  0.18965623717E+02 -0.44004459053E+02 -0.17275824708E+04  0.17282468808E+04  0.00000000000E+00 0. -1.
         -1    1    1    2    0  501  0.27693299857E+02 -0.59388775797E+02 -0.35716203496E+02  0.74629704139E+02  0.00000000000E+00 0.  1.
<mgrwt>
<rscale>  0 0.58001810E+02</rscale>
<asrwt>0</asrwt>
<pdfrwt beam="2">  1        1 0.35270323E+00 0.47917505E+02</pdfrwt>
<pdfrwt beam="1">  1       -1 0.51953685E-02 0.70208372E+02</pdfrwt>
<totfact> 0.40744127E+02</totfact>
</mgrwt>
</event>
<event>
 5    1  0.7114032E-003  0.1850374E+03  0.7546771E-02  0.1195612E+00
          3   -1    0    0  502    0 -0.00000000000E+00  0.00000000000E+00  0.18448953856E+04  0.18448953856E+04  0.00000000000E+00 0. -1.
          1   -1    0    0  501    0  0.00000000000E+00 -0.00000000000E+00 -0.86360558317E+03  0.86360558317E+03  0.00000000000E+00 0. -1.
         25    1    1    2    0    0  0.18978426755E+03  0.17091806690E+03  0.35632980598E+02  0.28657592904E+03  0.12500000000E+03 0.  0.
          1    1    1    2  501    0 -0.12819840978E+03  0.18234844028E+01 -0.72751834834E+03  0.73872938518E+03  0.00000000000E+00 0. -1.
          3    1    1    2  502    0 -0.61585857766E+02 -0.17274155130E+03  0.16731751702E+04  0.16831956545E+04  0.00000000000E+00 0. -1.
<mgrwt>
<rscale>  0 0.15402564E+03</rscale>
<asrwt>0</asrwt>
<pdfrwt beam="2">  1        1 0.13286240E+00 0.12821138E+03</pdfrwt>
<pdfrwt beam="1">  1        3 0.28383006E+00 0.18503737E+03</pdfrwt>
<totfact> 0.63838894E-01</totfact>
</mgrwt>
</event>
<event>
 5    1  0.7114032E-003  0.6011153E+02  0.7546771E-02  0.1494306E+00
         -1   -1    0    0    0  501 -0.00000000000E+00  0.00000000000E+00  0.17203615470E+02  0.17203615470E+02  0.00000000000E+00 0.  1.
          2   -1    0    0  502    0  0.00000000000E+00 -0.00000000000E+00 -0.15853843524E+04  0.15853843524E+04  0.00000000000E+00 0. -1.
         25    1    1    2    0    0 -0.57599750033E+02 -0.33107141779E+02 -0.13933844790E+04  0.14005567180E+04  0.12500000000E+03 0.  0.
          2    1    1    2  502    0  0.24014570069E+02 -0.16753629648E+02 -0.10918471771E+03  0.11304285145E+03  0.00000000000E+00 0. -1.
         -1    1    1    2    0  501  0.33585179964E+02  0.49860771427E+02 -0.65611540185E+02  0.88988398379E+02  0.00000000000E+00 0.  1.
<mgrwt>
<rscale>  0 0.41953935E+02</rscale>
<asrwt>0</asrwt>
<pdfrwt beam="2">  1        2 0.24390532E+00 0.29281115E+02</pdfrwt>
<pdfrwt beam="1">  1       -1 0.26467097E-02 0.60111532E+02</pdfrwt>
<totfact> 0.64929214E+03</totfact>
</mgrwt>
</event>
<event>
 5    1  0.7114032E-003  0.7867984E+02  0.7546771E-02  0.1480434E+00
         -1   -1    0    0    0  501 -0.00000000000E+00  0.00000000000E+00  0.40861400864E+01  0.40861400864E+01  0.00000000000E+00 0.  1.
          2   -1    0    0  502    0  0.00000000000E+00 -0.00000000000E+00 -0.46907969806E+04  0.46907969806E+04  0.00000000000E+00 0. -1.
         25    1    1    2    0    0  0.78111356768E+02 -0.48754915886E+02 -0.27166860226E+04  0.27211185882E+04  0.12500000000E+03 0.  0.
          2    1    1    2  502    0 -0.70113499864E+02  0.25439184508E+02 -0.18345477293E+04  0.18360632957E+04  0.00000000000E+00 0. -1.
         -1    1    1    2    0  501 -0.79978569047E+01  0.23315731378E+02 -0.13547708869E+03  0.13770123676E+03  0.00000000000E+00 0.  1.
<mgrwt>
<rscale>  0 0.44038671E+02</rscale>
<asrwt>0</asrwt>
<pdfrwt beam="2">  1        2 0.72166235E+00 0.78679836E+02</pdfrwt>
<pdfrwt beam="1">  1       -1 0.62863582E-03 0.24649321E+02</pdfrwt>
<totfact> 0.40371304E+02</totfact>
</mgrwt>
</event>
<event>
 5    1  0.7114032E-003  0.4853577E+02  0.7546771E-02  0.1503190E+00
         -1   -1    0    0    0  501 -0.00000000000E+00  0.00000000000E+00  0.10365697708E+03  0.10365697708E+03  0.00000000000E+00 0.  1.
          2   -1    0    0  502    0  0.00000000000E+00 -0.00000000000E+00 -0.15292382704E+03  0.15292382704E+03  0.00000000000E+00 0. -1.
         25    1    1    2    0    0 -0.70466902471E+02 -0.11999621023E+02 -0.20599724805E+02  0.14546107352E+03  0.12500000000E+03 0.  0.
          2    1    1    2  502    0  0.26228633311E+02  0.21812772673E+02 -0.50403428319E+02  0.60862499483E+02  0.00000000000E+00 0. -1.
         -1    1    1    2    0  501  0.44238269160E+02 -0.98131516503E+01  0.21736303162E+02  0.50257231109E+02  0.00000000000E+00 0.  1.
<mgrwt>
<rscale>  0 0.40690665E+02</rscale>
<asrwt>0</asrwt>
<pdfrwt beam="2">  1        2 0.23526743E-01 0.34113608E+02</pdfrwt>
<pdfrwt beam="1">  1       -1 0.15947227E-01 0.48535771E+02</pdfrwt>
<totfact> 0.65709692E+03</totfact>
</mgrwt>
</event>
<event>
 5    1  0.7114032E-003  0.5706563E+02  0.7546771E-02  0.1451351E+00
          2   -1    0    0  502    0  0.00000000000E+00  0.00000000000E+00  0.24377448269E+03  0.24377448269E+03  0.00000000000E+00 0.  1.
         -3   -1    0    0    0  501 -0.00000000000E+00 -0.00000000000E+00 -0.59515210995E+03  0.59515210995E+03  0.00000000000E+00 0.  1.
         25    1    1    2    0    0  0.38919110583E+02 -0.12647073302E+02 -0.50207251521E+03  0.51901489012E+03  0.12500000000E+03 0.  0.
          2    1    1    2  502    0 -0.50101399282E+02 -0.27741148557E+02  0.22631886510E+03  0.23345224401E+03  0.00000000000E+00 0.  1.
         -3    1    1    2    0  501  0.11182288699E+02  0.40388221858E+02 -0.75623977150E+02  0.86459458507E+02  0.00000000000E+00 0.  1.
<mgrwt>
<rscale>  0 0.48902834E+02</rscale>
<asrwt>0</asrwt>
<pdfrwt beam="1">  1        2 0.37503767E-01 0.57065634E+02</pdfrwt>
<pdfrwt beam="2">  1       -3 0.91561862E-01 0.41907661E+02</pdfrwt>
<totfact> 0.87676590E+01</totfact>
</mgrwt>
</event>
<event>
 5    1  0.7114032E-003  0.7976644E+02  0.7546771E-02  0.1362222E+00
          3   -1    0    0  502    0 -0.00000000000E+00  0.00000000000E+00  0.52271793492E+03  0.52271793492E+03  0.00000000000E+00 0. -1.
          1   -1    0    0  501    0  0.00000000000E+00 -0.00000000000E+00 -0.27793580428E+03  0.27793580428E+03  0.00000000000E+00 0. -1.
         25    1    1    2    0    0 -0.87559513138E+02 -0.81095888896E+02 -0.93470437092E+01  0.17307680019E+03  0.12500000000E+03 0.  0.
          1    1    1    2  501    0  0.59882606269E+02  0.74325412138E+01 -0.17820270653E+03  0.18814189809E+03  0.00000000000E+00 0. -1.
          3    1    1    2  502    0  0.27676906869E+02  0.73663347682E+02  0.43233188088E+03  0.43943504092E+03  0.00000000000E+00 0. -1.
<mgrwt>
<rscale>  0 0.69377766E+02</rscale>
<asrwt>0</asrwt>
<pdfrwt beam="2">  1        1 0.42759355E-01 0.60342101E+02</pdfrwt>
<pdfrwt beam="1">  1        3 0.80418143E-01 0.79766436E+02</pdfrwt>
<totfact> 0.75022840E+01</totfact>
</mgrwt>
</event>
<event>
 5    1  0.1394508E-002  0.4902113E+03  0.7546771E-02  0.1016366E+00
         -1   -1    0    0    0  501 -0.00000000000E+00  0.00000000000E+00  0.83135647869E+03  0.83135647869E+03  0.00000000000E+00 0.  1.
          2   -1    0    0  502    0  0.00000000000E+00 -0.00000000000E+00 -0.72263557410E+02  0.72263557410E+02  0.00000000000E+00 0. -1.
         25    1    1    2    0    0 -0.10496037512E+03 -0.13661501086E+03  0.13740022060E+03  0.25334593377E+03  0.12500000000E+03 0.  0.
          2    1    1    2  502    0  0.46551519812E+02  0.97271707383E+02  0.25473990915E+03  0.27662474649E+03  0.00000000000E+00 0. -1.
         -1    1    1    2    0  501  0.58408855312E+02  0.39343303479E+02  0.36695279153E+03  0.37364935584E+03  0.00000000000E+00 0.  1.
<mgrwt>
<rscale>  0 0.49021129E+03</rscale>
<asrwt>0</asrwt>
<pdfrwt beam="2">  1        2 0.11117471E-01 0.49021129E+03</pdfrwt>
<pdfrwt beam="1">  1       -1 0.12790099E+00 0.49021129E+03</pdfrwt>
<totfact> 0.35999101E+02</totfact>
</mgrwt>
</event>
<event>
 5    1  0.7114032E-003  0.9340405E+02  0.7546771E-02  0.1308775E+00
          2   -1    0    0  501    0  0.00000000000E+00  0.00000000000E+00  0.68453384968E+03  0.68453384968E+03  0.00000000000E+00 0. -1.
          1   -1    0    0  502    0 -0.00000000000E+00 -0.00000000000E+00 -0.16124948635E+04  0.16124948635E+04  0.00000000000E+00 0. -1.
         25    1    1    2    0    0  0.48079081732E+02  0.25030071440E+02  0.65052666952E+02  0.15097997236E+03  0.12500000000E+03 0.  0.
          2    1    1    2  501    0  0.31241814867E+02 -0.75980644036E+02  0.57216531765E+03  0.57803309593E+03  0.00000000000E+00 0. -1.
          1    1    1    2  502    0 -0.79320896599E+02  0.50950572596E+02 -0.15651789984E+04  0.15680156449E+04  0.00000000000E+00 0. -1.
<mgrwt>
<rscale>  0 0.87598058E+02</rscale>
<asrwt>0</asrwt>
<pdfrwt beam="1">  1        2 0.10531290E+00 0.82152963E+02</pdfrwt>
<pdfrwt beam="2">  1        1 0.24807613E+00 0.93404054E+02</pdfrwt>
<totfact> 0.41057312E+01</totfact>
</mgrwt>
</event>
<event>
 5    1  0.7114032E-003  0.6410901E+02  0.7546771E-02  0.1488903E+00
          2   -1    0    0  502    0  0.00000000000E+00  0.00000000000E+00  0.25289548329E+04  0.25289548329E+04  0.00000000000E+00 0. -1.
         -1   -1    0    0    0  501 -0.00000000000E+00 -0.00000000000E+00 -0.67213244208E+01  0.67213244208E+01  0.00000000000E+00 0.  1.
         25    1    1    2    0    0  0.23211722206E+02 -0.66111636217E+02  0.10818132342E+04  0.10912627576E+04  0.12500000000E+03 0.  0.
          2    1    1    2  502    0  0.20047202957E+02  0.20265683658E+02  0.87962737945E+03  0.88008915171E+03  0.00000000000E+00 0. -1.
         -1    1    1    2    0  501 -0.43258925163E+02  0.45845952560E+02  0.56079289488E+03  0.56432424804E+03  0.00000000000E+00 0.  1.
<mgrwt>
<rscale>  0 0.42749120E+02</rscale>
<asrwt>0</asrwt>
<pdfrwt beam="1">  1        2 0.38906922E+00 0.28505934E+02</pdfrwt>
<pdfrwt beam="2">  1       -1 0.10340519E-02 0.64109010E+02</pdfrwt>
<totfact> 0.87358283E+03</totfact>
</mgrwt>
</event>
<event>
 5    1  0.7114032E-003  0.2146702E+03  0.7546771E-02  0.1231836E+00
          2   -1    0    0  501    0  0.00000000000E+00  0.00000000000E+00  0.44735313010E+03  0.44735313010E+03  0.00000000000E+00 0. -1.
          1   -1    0    0  502    0 -0.00000000000E+00 -0.00000000000E+00 -0.17116003303E+04  0.17116003303E+04  0.00000000000E+00 0. -1.
         25    1    1    2    0    0  0.13334070128E+03 -0.20818928842E+03 -0.97199527570E+03  0.10107038827E+04  0.12500000000E+03 0.  0.
          2    1    1    2  501    0 -0.16282897332E+03  0.13896598065E+03  0.39906233165E+03  0.45285269445E+03  0.00000000000E+00 0. -1.
          1    1    1    2  502    0  0.29488272043E+02  0.69223307769E+02 -0.69131425612E+03  0.69539688326E+03  0.00000000000E+00 0. -1.
<mgrwt>
<rscale>  0 0.12709174E+03</rscale>
<asrwt>0</asrwt>
<pdfrwt beam="1">  1        2 0.68823558E-01 0.21467020E+03</pdfrwt>
<pdfrwt beam="2">  1        1 0.26332313E+00 0.75242438E+02</pdfrwt>
<totfact> 0.57542098E+01</totfact>
</mgrwt>
</event>
<event>
 5    1  0.7114032E-003  0.6294230E+02  0.7546771E-02  0.1470708E+00
         -1   -1    0    0    0  501  0.00000000000E+00  0.00000000000E+00  0.12052686766E+03  0.12052686766E+03  0.00000000000E+00 0.  1.
         -1   -1    0    0    0  502 -0.00000000000E+00 -0.00000000000E+00 -0.34079299646E+03  0.34079299646E+03  0.00000000000E+00 0.  1.
         25    1    1    2    0    0  0.21207914929E+02 -0.47074072108E+02  0.46037928764E+02  0.14286439306E+03  0.12500000000E+03 0.  0.
         -1    1    1    2    0  502  0.76065519103E+01  0.63195279922E+02 -0.27663178269E+03  0.28386025828E+03  0.00000000000E+00 0.  1.
         -1    1    1    2    0  501 -0.28814466839E+02 -0.16121207814E+02  0.10327725135E+02  0.34595212777E+02  0.00000000000E+00 0.  1.
<mgrwt>
<rscale>  0 0.45587369E+02</rscale>
<asrwt>0</asrwt>
<pdfrwt beam="1">  1       -1 0.18542595E-01 0.33017675E+02</pdfrwt>
<pdfrwt beam="2">  1       -1 0.52429692E-01 0.62942296E+02</pdfrwt>
<totfact> 0.67218314E+02</totfact>
</mgrwt>
</event>
<event>
 5    1  0.7114032E-003  0.8551391E+02  0.7546771E-02  0.1329103E+00
          1   -1    0    0  502    0  0.00000000000E+00  0.00000000000E+00  0.54973525992E+03  0.54973525992E+03  0.00000000000E+00 0. -1.
         -2   -1    0    0    0  501 -0.00000000000E+00 -0.00000000000E+00 -0.69255989993E+02  0.69255989993E+02  0.00000000000E+00 0.  1.
         25    1    1    2    0    0 -0.23335505970E+02 -0.17189802994E+02  0.17170165373E+03  0.21435133090E+03  0.12500000000E+03 0.  0.
          1    1    1    2  502    0 -0.61686153293E+02 -0.42319726386E+02  0.28959756161E+03  0.29910347447E+03  0.00000000000E+00 0. -1.
         -2    1    1    2    0  501  0.85021659264E+02  0.59509529380E+02  0.19180054578E+02  0.10553644453E+03  0.00000000000E+00 0.  1.
<mgrwt>
<rscale>  0 0.79981685E+02</rscale>
<asrwt>0</asrwt>
<pdfrwt beam="1">  1        1 0.84574652E-01 0.74807358E+02</pdfrwt>
<pdfrwt beam="2">  1       -2 0.10654768E-01 0.85513914E+02</pdfrwt>
<totfact> 0.20267635E+03</totfact>
</mgrwt>
</event>
<event>
 5    1  0.7114032E-003  0.1506066E+03  0.7546771E-02  0.1281669E+00
          1   -1    0    0  501    0  0.00000000000E+00  0.00000000000E+00  0.14246610409E+04  0.14246610409E+04  0.00000000000E+00 0. -1.
          1   -1    0    0  502    0 -0.00000000000E+00 -0.00000000000E+00 -0.25560640549E+03  0.25560640549E+03  0.00000000000E+00 0. -1.
         25    1    1    2    0    0  0.13818964817E+03  0.31596399397E+02  0.31770913158E+03  0.36967391524E+03  0.12500000000E+03 0.  0.
          1    1    1    2  501    0 -0.18777706759E+02  0.62789992224E+02  0.10546162305E+04  0.10566506419E+04  0.00000000000E+00 0. -1.
          1    1    1    2  502    0 -0.11941194141E+03 -0.94386391622E+02 -0.20327072668E+03  0.25394288925E+03  0.00000000000E+00 0. -1.
<mgrwt>
<rscale>  0 0.99349920E+02</rscale>
<asrwt>0</asrwt>
<pdfrwt beam="1">  1        1 0.21917862E+00 0.65537664E+02</pdfrwt>
<pdfrwt beam="2">  1        1 0.39324063E-01 0.15060663E+03</pdfrwt>
<totfact> 0.11740348E+02</totfact>
</mgrwt>
</event>
<event>
 5    1  0.7114032E-003  0.4865786E+02  0.7546771E-02  0.1494144E+00
         -3   -1    0    0    0  501 -0.00000000000E+00  0.00000000000E+00  0.29899938778E+03  0.29899938778E+03  0.00000000000E+00 0.  1.
          2   -1    0    0  502    0  0.00000000000E+00 -0.00000000000E+00 -0.11909466220E+03  0.11909466220E+03  0.00000000000E+00 0. -1.
         25    1    1    2    0    0 -0.42213489934E+02 -0.49346732407E+02  0.25443607543E+02  0.14314138429E+03  0.12500000000E+03 0.  0.
          2    1    1    2  502    0  0.60481877238E+01  0.47465285376E+02 -0.48886033810E+02  0.68405980676E+02  0.00000000000E+00 0. -1.
         -3    1    1    2    0  501  0.36165302210E+02  0.18814470306E+01  0.20334715185E+03  0.20654668502E+03  0.00000000000E+00 0.  1.
<mgrwt>
<rscale>  0 0.41977447E+02</rscale>
<asrwt>0</asrwt>
<pdfrwt beam="2">  1        2 0.18322256E-01 0.48657863E+02</pdfrwt>
<pdfrwt beam="1">  1       -3 0.45999906E-01 0.36214209E+02</pdfrwt>
<totfact> 0.74763815E+02</totfact>
</mgrwt>
</event>
<event>
 5    1  0.7114032E-003  0.7528628E+02  0.7546771E-02  0.1500015E+00
          2   -1    0    0  502    0  0.00000000000E+00  0.00000000000E+00  0.97441898343E+03  0.97441898343E+03  0.00000000000E+00 0. -1.
          2   -1    0    0  501    0 -0.00000000000E+00 -0.00000000000E+00 -0.15693814577E+04  0.15693814577E+04  0.00000000000E+00 0. -1.
         25    1    1    2    0    0 -0.82087650049E+01 -0.58386720576E+02  0.68996384819E+02  0.15447295582E+03  0.12500000000E+03 0.  0.
          2    1    1    2  501    0 -0.67870643456E+01  0.75129340798E+02 -0.15255646618E+04  0.15274285645E+04  0.00000000000E+00 0. -1.
          2    1    1    2  502    0  0.14995829350E+02 -0.16742620222E+02  0.86160580280E+03  0.86189892079E+03  0.00000000000E+00 0. -1.
<mgrwt>
<rscale>  0 0.41135961E+02</rscale>
<asrwt>0</asrwt>
<pdfrwt beam="1">  1        2 0.14991061E+00 0.22476437E+02</pdfrwt>
<pdfrwt beam="2">  1        2 0.24144330E+00 0.75286277E+02</pdfrwt>
<totfact> 0.67293619E+01</totfact>
</mgrwt>
</event>
<event>
 5    1  0.7114032E-003  0.3883973E+02  0.7546771E-02  0.1572800E+00
          1   -1    0    0  502    0  0.00000000000E+00  0.00000000000E+00  0.53537103165E+03  0.53537103165E+03  0.00000000000E+00 0. -1.
         -1   -1    0    0    0  501 -0.00000000000E+00 -0.00000000000E+00 -0.25846193434E+02  0.25846193434E+02  0.00000000000E+00 0.  1.
         25    1    1    2    0    0  0.18830411452E+02  0.10785944138E+02  0.18878419978E+03  0.22745416038E+03  0.12500000000E+03 0.  0.
          1    1    1    2  502    0  0.13925557372E+02  0.23199860898E+02  0.22898687831E+03  0.23058001893E+03  0.00000000000E+00 0. -1.
         -1    1    1    2    0  501 -0.32755968823E+02 -0.33985805037E+02  0.91753760121E+02  0.10318304577E+03  0.00000000000E+00 0.  1.
<mgrwt>
<rscale>  0 0.32418192E+02</rscale>
<asrwt>0</asrwt>
<pdfrwt beam="1">  1        1 0.82364765E-01 0.27058357E+02</pdfrwt>
<pdfrwt beam="2">  1       -1 0.39763379E-02 0.38839725E+02</pdfrwt>
<totfact> 0.88240769E+03</totfact>
</mgrwt>
</event>
<event>
 5    1  0.7114032E-003  0.4659143E+02  0.7546771E-02  0.1522107E+00
         -1   -1    0    0    0  501 -0.00000000000E+00  0.00000000000E+00  0.79119680548E+02  0.79119680548E+02  0.00000000000E+00 0.  1.
          2   -1    0    0  502    0  0.00000000000E+00 -0.00000000000E+00 -0.12675918656E+04  0.12675918656E+04  0.00000000000E+00 0. -1.
         25    1    1    2    0    0 -0.18037066585E+02  0.35674369728E+02 -0.26777141447E+03  0.29820215766E+03  0.12500000000E+03 0.  0.
          2    1    1    2  502    0 -0.25598483438E+02 -0.17967492180E+02 -0.97564491041E+03  0.97614604662E+03  0.00000000000E+00 0. -1.
         -1    1    1    2    0  501  0.43635550024E+02 -0.17706877548E+02  0.54944139851E+02  0.72363341841E+02  0.00000000000E+00 0.  1.
<mgrwt>
<rscale>  0 0.38172474E+02</rscale>
<asrwt>0</asrwt>
<pdfrwt beam="2">  1        2 0.19501414E+00 0.31274800E+02</pdfrwt>
<pdfrwt beam="1">  1       -1 0.12172258E-01 0.46591432E+02</pdfrwt>
<totfact> 0.98164057E+02</totfact>
</mgrwt>
</event>
<event>
 5    1  0.7114032E-003  0.5528172E+02  0.7546771E-02  0.1531924E+00
         -1   -1    0    0    0  501 -0.00000000000E+00  0.00000000000E+00  0.24596394908E+02  0.24596394908E+02  0.00000000000E+00 0.  1.
          2   -1    0    0  502    0  0.00000000000E+00 -0.00000000000E+00 -0.62062505875E+03  0.62062505875E+03  0.00000000000E+00 0. -1.
         25    1    1    2    0    0  0.14239474926E+02  0.45454372147E+02 -0.22725778454E+03  0.26370431022E+03  0.12500000000E+03 0.  0.
          2    1    1    2  502    0  0.24506613822E+02  0.30776019940E+01 -0.20297564354E+03  0.20447287748E+03  0.00000000000E+00 0. -1.
         -1    1    1    2    0  501 -0.38746088748E+02 -0.48531974141E+02 -0.16579523576E+03  0.17704426596E+03  0.00000000000E+00 0.  1.
<mgrwt>
<rscale>  0 0.36951441E+02</rscale>
<asrwt>0</asrwt>
<pdfrwt beam="2">  1        2 0.95480785E-01 0.24699104E+02</pdfrwt>
<pdfrwt beam="1">  1       -1 0.37840605E-02 0.55281720E+02</pdfrwt>
<totfact> 0.13209989E+04</totfact>
</mgrwt>
</event>
<event>
 5    1  0.7114032E-003  0.5259240E+02  0.7546771E-02  0.1448375E+00
          2   -1    0    0  501    0  0.00000000000E+00  0.00000000000E+00  0.15538444052E+04  0.15538444052E+04  0.00000000000E+00 0. -1.
          1   -1    0    0  502    0 -0.00000000000E+00 -0.00000000000E+00 -0.41140690364E+03  0.41140690364E+03  0.00000000000E+00 0. -1.
         25    1    1    2    0    0 -0.64403714478E+02  0.41368489446E+02 -0.74385805844E+02  0.16436982226E+03  0.12500000000E+03 0.  0.
          2    1    1    2  501    0  0.52438331143E+02  0.35453190467E+01  0.15065417464E+04  0.15074582520E+04  0.00000000000E+00 0. -1.
          1    1    1    2  502    0  0.11965383335E+02 -0.44913808493E+02 -0.28971843909E+03  0.29342323450E+03  0.00000000000E+00 0. -1.
<mgrwt>
<rscale>  0 0.49442004E+02</rscale>
<asrwt>0</asrwt>
<pdfrwt beam="1">  1        2 0.23905298E+00 0.52592398E+02</pdfrwt>
<pdfrwt beam="2">  1        1 0.63293371E-01 0.46480325E+02</pdfrwt>
<totfact> 0.12018193E+02</totfact>
</mgrwt>
</event>
<event>
 5    1  0.7114032E-003  0.6856695E+02  0.7546771E-02  0.1447376E+00
          2   -1    0    0  501    0  0.00000000000E+00  0.00000000000E+00  0.80676782327E+03  0.80676782327E+03  0.00000000000E+00 0. -1.
          1   -1    0    0  502    0 -0.00000000000E+00 -0.00000000000E+00 -0.77019068508E+03  0.77019068508E+03  0.00000000000E+00 0. -1.
         25    1    1    2    0    0 -0.12590037594E+02 -0.57625611267E+02 -0.55017893677E+03  0.56727513835E+03  0.12500000000E+03 0.  0.
          2    1    1    2  501    0  0.47563751366E+02  0.49454525669E+02  0.79520660150E+03  0.79816138695E+03  0.00000000000E+00 0. -1.
          1    1    1    2  502    0 -0.34973713772E+02  0.81710855982E+01 -0.20845052655E+03  0.21152198305E+03  0.00000000000E+00 0. -1.
<mgrwt>
<rscale>  0 0.49624796E+02</rscale>
<asrwt>0</asrwt>
<pdfrwt beam="1">  1        2 0.12411813E+00 0.68566952E+02</pdfrwt>
<pdfrwt beam="2">  1        1 0.11849087E+00 0.35915558E+02</pdfrwt>
<totfact> 0.13634552E+02</totfact>
</mgrwt>
</event>
<event>
 5    1  0.7114032E-003  0.4570389E+03  0.7546771E-02  0.1235519E+00
         -1   -1    0    0    0  501 -0.00000000000E+00  0.00000000000E+00  0.12931965683E+04  0.12931965683E+04  0.00000000000E+00 0.  1.
          2   -1    0    0  502    0  0.00000000000E+00 -0.00000000000E+00 -0.23026807108E+04  0.23026807108E+04  0.00000000000E+00 0. -1.
         25    1    1    2    0    0  0.23499425120E+03  0.41184520781E+03  0.46585541601E+03  0.67637640550E+03  0.12500000000E+03 0.  0.
          2    1    1    2  502    0 -0.25042799712E+03 -0.38151596971E+03 -0.21733065193E+04  0.22207048079E+04  0.00000000000E+00 0. -1.
         -1    1    1    2    0  501  0.15433745921E+02 -0.30329238098E+02  0.69796696075E+03  0.69879606574E+03  0.00000000000E+00 0.  1.
<mgrwt>
<rscale>  0 0.12471240E+03</rscale>
<asrwt>0</asrwt>
<pdfrwt beam="2">  1        2 0.35425856E+00 0.45703886E+03</pdfrwt>
<pdfrwt beam="1">  1       -1 0.19895332E+00 0.34030328E+02</pdfrwt>
<totfact> 0.11435586E+00</totfact>
</mgrwt>
</event>
<event>
 5    1  0.7114032E-003  0.3565924E+02  0.7546771E-02  0.1596694E+00
          2   -1    0    0  501    0  0.00000000000E+00  0.00000000000E+00  0.11220967904E+03  0.11220967904E+03  0.00000000000E+00 0. -1.
          1   -1    0    0  502    0 -0.00000000000E+00 -0.00000000000E+00 -0.74563586984E+03  0.74563586984E+03  0.00000000000E+00 0. -1.
         25    1    1    2    0    0 -0.86375704865E+01 -0.59573696486E+02 -0.16932606675E+03  0.21890625806E+03  0.12500000000E+03 0.  0.
          2    1    1    2  501    0  0.13405298058E+01  0.35189896405E+02  0.83565518714E+02  0.90682532756E+02  0.00000000000E+00 0. -1.
          1    1    1    2  502    0  0.72970406807E+01  0.24383800081E+02 -0.54766564276E+03  0.54825675807E+03  0.00000000000E+00 0. -1.
<mgrwt>
<rscale>  0 0.30126525E+02</rscale>
<asrwt>0</asrwt>
<pdfrwt beam="1">  1        2 0.17263027E-01 0.35659240E+02</pdfrwt>
<pdfrwt beam="2">  1        1 0.11471321E+00 0.25452240E+02</pdfrwt>
<totfact> 0.11721208E+03</totfact>
</mgrwt>
</event>
<event>
 5    1  0.7114032E-003  0.5580409E+02  0.7546771E-02  0.1461104E+00
          1   -1    0    0  502    0 -0.00000000000E+00  0.00000000000E+00  0.67923557324E+03  0.67923557324E+03  0.00000000000E+00 0. -1.
          2   -1    0    0  501    0  0.00000000000E+00 -0.00000000000E+00 -0.53128291749E+03  0.53128291749E+03  0.00000000000E+00 0. -1.
         25    1    1    2    0    0  0.38152713209E+02 -0.49751973026E+01  0.25456415256E+03  0.28619624365E+03  0.12500000000E+03 0.  0.
          2    1    1    2  501    0  0.10977400730E+02  0.38369414673E+02 -0.51252923630E+03  0.51408066815E+03  0.00000000000E+00 0. -1.
          1    1    1    2  502    0 -0.49130113939E+02 -0.33394217370E+02  0.40591773948E+03  0.41024157892E+03  0.00000000000E+00 0. -1.
<mgrwt>
<rscale>  0 0.47191911E+02</rscale>
<asrwt>0</asrwt>
<pdfrwt beam="2">  1        2 0.81735834E-01 0.39908837E+02</pdfrwt>
<pdfrwt beam="1">  1        1 0.10449778E+00 0.55804092E+02</pdfrwt>
<totfact> 0.25735160E+02</totfact>
</mgrwt>
</event>
<event>
 5    1  0.7114032E-003  0.1082679E+03  0.7546771E-02  0.1409726E+00
          1   -1    0    0  501    0  0.00000000000E+00  0.00000000000E+00  0.14894647664E+03  0.14894647664E+03  0.00000000000E+00 0. -1.
          3   -1    0    0  502    0 -0.00000000000E+00 -0.00000000000E+00 -0.87437455195E+03  0.87437455195E+03  0.00000000000E+00 0. -1.
         25    1    1    2    0    0  0.22774420395E+02  0.12182301329E+03  0.48014161937E+02  0.18245514665E+03  0.12500000000E+03 0.  0.
          1    1    1    2  501    0  0.19948202973E+02 -0.22777945112E+02  0.22452728029E+02  0.37694702298E+02  0.00000000000E+00 0. -1.
          3    1    1    2  502    0 -0.42722623368E+02 -0.99045068178E+02 -0.79589496527E+03  0.80317117965E+03  0.00000000000E+00 0. -1.
<mgrwt>
<rscale>  0 0.57255128E+02</rscale>
<asrwt>0</asrwt>
<pdfrwt beam="1">  1        1 0.22914843E-01 0.30278137E+02</pdfrwt>
<pdfrwt beam="2">  1        3 0.13451916E+00 0.10826788E+03</pdfrwt>
<totfact> 0.48655189E+01</totfact>
</mgrwt>
</event>
<event>
 5    1  0.9926949E-003  0.6912093E+02  0.7546771E-02  0.1398966E+00
         -1   -1    0    0    0  501 -0.00000000000E+00  0.00000000000E+00  0.24070435530E+02  0.24070435530E+02  0.00000000000E+00 0.  1.
          2   -1    0    0  502    0  0.00000000000E+00 -0.00000000000E+00 -0.76027808661E+03  0.76027808661E+03  0.00000000000E+00 0. -1.
         25    1    1    2    0    0  0.86800616783E+02  0.58420320713E+00 -0.40043098730E+03  0.42837444363E+03  0.12500000000E+03 0.  0.
          2    1    1    2  502    0 -0.53069829892E+02 -0.39653652454E+02 -0.17527519459E+03  0.18737719401E+03  0.00000000000E+00 0. -1.
         -1    1    1    2    0  501 -0.33730786891E+02  0.39069449247E+02 -0.16050146919E+03  0.16859688449E+03  0.00000000000E+00 0.  1.
<mgrwt>
<rscale>  0 0.59730480E+02</rscale>
<asrwt>0</asrwt>
<pdfrwt beam="2">  1        2 0.11696583E+00 0.69120933E+02</pdfrwt>
<pdfrwt beam="1">  1       -1 0.37031448E-02 0.51615771E+02</pdfrwt>
<totfact> 0.10459420E+04</totfact>
</mgrwt>
</event>
<event>
 5    1  0.7114032E-003  0.1184402E+03  0.7546771E-02  0.1321593E+00
          2   -1    0    0  502    0  0.00000000000E+00  0.00000000000E+00  0.10349457865E+04  0.10349457865E+04  0.00000000000E+00 0. -1.
         -1   -1    0    0    0  501 -0.00000000000E+00 -0.00000000000E+00 -0.41528105537E+02  0.41528105537E+02  0.00000000000E+00 0.  1.
         25    1    1    2    0    0  0.10017664141E+03  0.11414791274E+03  0.28522508969E+03  0.34647288098E+03  0.12500000000E+03 0.  0.
          2    1    1    2  502    0 -0.43208377026E+02 -0.10481638135E+03  0.55101979583E+03  0.56256222149E+03  0.00000000000E+00 0. -1.
         -1    1    1    2    0  501 -0.56968264382E+02 -0.93315313905E+01  0.15717279542E+03  0.16743878955E+03  0.00000000000E+00 0.  1.
<mgrwt>
<rscale>  0 0.82687675E+02</rscale>
<asrwt>0</asrwt>
<pdfrwt beam="1">  1        2 0.15922241E+00 0.11844018E+03</pdfrwt>
<pdfrwt beam="2">  1       -1 0.63889401E-02 0.57727469E+02</pdfrwt>
<totfact> 0.31795405E+03</totfact>
</mgrwt>
</event>
<event>
 5    1  0.7114032E-003  0.9366277E+02  0.7546771E-02  0.1337517E+00
         -1   -1    0    0    0  501 -0.00000000000E+00  0.00000000000E+00  0.12273586344E+03  0.12273586344E+03  0.00000000000E+00 0.  1.
          2   -1    0    0  502    0  0.00000000000E+00 -0.00000000000E+00 -0.70904162817E+03  0.70904162817E+03  0.00000000000E+00 0. -1.
         25    1    1    2    0    0  0.92171832720E+02 -0.62157060079E+02 -0.22304967173E+03  0.27881051437E+03  0.12500000000E+03 0.  0.
          2    1    1    2  502    0 -0.33858062542E+02  0.87166717084E+02 -0.44203234511E+03  0.45181522672E+03  0.00000000000E+00 0. -1.
         -1    1    1    2    0  501 -0.58313770178E+02 -0.25009657006E+02  0.78776252112E+02  0.10115175052E+03  0.00000000000E+00 0.  1.
<mgrwt>
<rscale>  0 0.77090590E+02</rscale>
<asrwt>0</asrwt>
<pdfrwt beam="2">  1        2 0.10908333E+00 0.93662771E+02</pdfrwt>
<pdfrwt beam="1">  1       -1 0.18882441E-01 0.63450601E+02</pdfrwt>
<totfact> 0.10246357E+03</totfact>
</mgrwt>
</event>
<event>
 5    1  0.7114032E-003  0.6305760E+02  0.7546771E-02  0.1437357E+00
          1   -1    0    0  502    0  0.00000000000E+00  0.00000000000E+00  0.48969679312E+02  0.48969679312E+02  0.00000000000E+00 0. -1.
         -1   -1    0    0    0  501 -0.00000000000E+00 -0.00000000000E+00 -0.34884076692E+03  0.34884076692E+03  0.00000000000E+00 0.  1.
         25    1    1    2    0    0  0.44561743101E+02 -0.99473572595E+01 -0.11036802853E+03  0.17288956182E+03  0.12500000000E+03 0.  0.
          1    1    1    2  502    0  0.18385958173E+02  0.37849577738E+02 -0.31488329936E+02  0.52556150116E+02  0.00000000000E+00 0. -1.
         -1    1    1    2    0  501 -0.62947701273E+02 -0.27902220479E+02 -0.15801472914E+03  0.17236473429E+03  0.00000000000E+00 0.  1.
<mgrwt>
<rscale>  0 0.51511110E+02</rscale>
<asrwt>0</asrwt>
<pdfrwt beam="1">  1        1 0.75337969E-02 0.42078902E+02</pdfrwt>
<pdfrwt beam="2">  1       -1 0.53667810E-01 0.63057597E+02</pdfrwt>
<totfact> 0.29982115E+03</totfact>
</mgrwt>
</event>
<event>
 5    1  0.7114032E-003  0.5719060E+02  0.7546771E-02  0.1466354E+00
         -2   -1    0    0    0  501 -0.00000000000E+00  0.00000000000E+00  0.11906466352E+03  0.11906466352E+03  0.00000000000E+00 0. -1.
          1   -1    0    0  502    0  0.00000000000E+00 -0.00000000000E+00 -0.25576745059E+03  0.25576745059E+03  0.00000000000E+00 0. -1.
         25    1    1    2    0    0  0.49599172696E+02 -0.41190441818E+02 -0.68864943529E+02  0.15660175886E+03  0.12500000000E+03 0.  0.
          1    1    1    2  502    0  0.77588792939E+01  0.36680245774E+02 -0.12895366116E+03  0.13429328860E+03  0.00000000000E+00 0. -1.
         -2    1    1    2    0  501 -0.57358051990E+02  0.45101960439E+01  0.61115817617E+02  0.83937066660E+02  0.00000000000E+00 0. -1.
<mgrwt>
<rscale>  0 0.46305322E+02</rscale>
<asrwt>0</asrwt>
<pdfrwt beam="2">  1        1 0.39348839E-01 0.37491874E+02</pdfrwt>
<pdfrwt beam="1">  1       -2 0.18317641E-01 0.57190601E+02</pdfrwt>
<totfact> 0.21292470E+03</totfact>
</mgrwt>
</event>
<event>
 5    1  0.7114032E-003  0.1898984E+03  0.7546771E-02  0.1219712E+00
          1   -1    0    0  501    0  0.00000000000E+00  0.00000000000E+00  0.94260622565E+03  0.94260622565E+03  0.00000000000E+00 0. -1.
          1   -1    0    0  502    0 -0.00000000000E+00 -0.00000000000E+00 -0.33685188823E+03  0.33685188823E+03  0.00000000000E+00 0. -1.
         25    1    1    2    0    0  0.11933062441E+03 -0.38412528299E+02  0.13842215933E+03  0.22472430764E+03  0.12500000000E+03 0.  0.
          1    1    1    2  501    0  0.84483446479E+02  0.46604628766E+02  0.72201619383E+03  0.72843450516E+03  0.00000000000E+00 0. -1.
          1    1    1    2  502    0 -0.20381407089E+03 -0.81921004667E+01 -0.25468401575E+03  0.32629930107E+03  0.00000000000E+00 0. -1.
<mgrwt>
<rscale>  0 0.13536039E+03</rscale>
<asrwt>0</asrwt>
<pdfrwt beam="1">  1        1 0.14501634E+00 0.96485461E+02</pdfrwt>
<pdfrwt beam="2">  1        1 0.51823368E-01 0.18989840E+03</pdfrwt>
<totfact> 0.17120486E+02</totfact>
</mgrwt>
</event>
<event>
 5    1  0.7114032E-003  0.3866588E+02  0.7546771E-02  0.1571246E+00
          3   -1    0    0  502    0 -0.00000000000E+00  0.00000000000E+00  0.55315128642E+03  0.55315128642E+03  0.00000000000E+00 0. -1.
          2   -1    0    0  501    0  0.00000000000E+00 -0.00000000000E+00 -0.18731295940E+04  0.18731295940E+04  0.00000000000E+00 0. -1.
         25    1    1    2    0    0 -0.21465368328E+02 -0.46244793812E+01 -0.45113493201E+03  0.46864685503E+03  0.12500000000E+03 0.  0.
          2    1    1    2  501    0  0.34041191120E+02 -0.19769642220E+02 -0.14126184300E+04  0.14131668232E+04  0.00000000000E+00 0. -1.
          3    1    1    2  502    0 -0.12575822792E+02  0.24394121601E+02  0.54377505441E+03  0.54446720221E+03  0.00000000000E+00 0. -1.
<mgrwt>
<rscale>  0 0.32575800E+02</rscale>
<asrwt>0</asrwt>
<pdfrwt beam="2">  1        2 0.28817378E+00 0.38665885E+02</pdfrwt>
<pdfrwt beam="1">  1        3 0.85100198E-01 0.27444936E+02</pdfrwt>
<totfact> 0.79681257E+00</totfact>
</mgrwt>
</event>
<event>
 5    1  0.7114032E-003  0.4177244E+02  0.7546771E-02  0.1537365E+00
         -2   -1    0    0    0  501 -0.00000000000E+00  0.00000000000E+00  0.66314094073E+02  0.66314094073E+02  0.00000000000E+00 0. -1.
          2   -1    0    0  502    0  0.00000000000E+00 -0.00000000000E+00 -0.17128999456E+03  0.17128999456E+03  0.00000000000E+00 0.  1.
         25    1    1    2    0    0 -0.19564966901E+02 -0.54697117710E+01 -0.54837366158E+02  0.13800305215E+03  0.12500000000E+03 0.  0.
          2    1    1    2  502    0  0.51103638897E+02  0.50497528465E+01 -0.17601712786E+02  0.54285377454E+02  0.00000000000E+00 0. -1.
         -2    1    1    2    0  501 -0.31538671996E+02  0.41995892450E+00 -0.32536821547E+02  0.45315659028E+02  0.00000000000E+00 0.  1.
<mgrwt>
<rscale>  0 0.36298266E+02</rscale>
<asrwt>0</asrwt>
<pdfrwt beam="2">  1        2 0.26352307E-01 0.41772441E+02</pdfrwt>
<pdfrwt beam="1">  1       -2 0.10202168E-01 0.31541468E+02</pdfrwt>
<totfact> 0.10572014E+04</totfact>
</mgrwt>
</event>
<event>
 5    1  0.7114032E-003  0.4154740E+02  0.7546771E-02  0.1590128E+00
         -2   -1    0    0    0  501 -0.00000000000E+00  0.00000000000E+00  0.17244924091E+02  0.17244924091E+02  0.00000000000E+00 0.  1.
          1   -1    0    0  502    0  0.00000000000E+00 -0.00000000000E+00 -0.91279451993E+03  0.91279451993E+03  0.00000000000E+00 0. -1.
         25    1    1    2    0    0  0.38643583448E+02  0.12312261821E+02 -0.29599750903E+03  0.32385867857E+03  0.12500000000E+03 0.  0.
          1    1    1    2  502    0 -0.93990693666E+01  0.20699028228E+02 -0.44167248781E+03  0.44225714100E+03  0.00000000000E+00 0. -1.
         -2    1    1    2    0  501 -0.29244514081E+02 -0.33011290050E+02 -0.15787959900E+03  0.16392362446E+03  0.00000000000E+00 0.  1.
<mgrwt>
<rscale>  0 0.30732717E+02</rscale>
<asrwt>0</asrwt>
<pdfrwt beam="2">  1        1 0.14042997E+00 0.22733066E+02</pdfrwt>
<pdfrwt beam="1">  1       -2 0.26530644E-02 0.41547404E+02</pdfrwt>
<totfact> 0.77003083E+03</totfact>
</mgrwt>
</event>
<event>
 5    1  0.7114032E-003  0.2577848E+02  0.7546771E-02  0.1691028E+00
          1   -1    0    0  502    0  0.00000000000E+00  0.00000000000E+00  0.79619965644E+03  0.79619965644E+03  0.00000000000E+00 0. -1.
          1   -1    0    0  501    0 -0.00000000000E+00 -0.00000000000E+00 -0.22352299337E+03  0.22352299337E+03  0.00000000000E+00 0. -1.
         25    1    1    2    0    0  0.10771735104E+02  0.53932727355E+00 -0.95114511626E+02  0.15744234333E+03  0.12500000000E+03 0.  0.
          1    1    1    2  501    0  0.68473649319E+01 -0.19401287183E+02 -0.95935879365E+02  0.98117222242E+02  0.00000000000E+00 0. -1.
          1    1    1    2  502    0 -0.17619100036E+02  0.18861959910E+02  0.76372705406E+03  0.76416308425E+03  0.00000000000E+00 0. -1.
<mgrwt>
<rscale>  0 0.23029781E+02</rscale>
<asrwt>0</asrwt>
<pdfrwt beam="1">  1        1 0.12249225E+00 0.25778483E+02</pdfrwt>
<pdfrwt beam="2">  1        1 0.34388153E-01 0.20574167E+02</pdfrwt>
<totfact> 0.38199993E+02</totfact>
</mgrwt>
</event>
<event>
 5    1  0.7114032E-003  0.6657493E+02  0.7546771E-02  0.1403725E+00
          1   -1    0    0  502    0 -0.00000000000E+00  0.00000000000E+00  0.98552790407E+02  0.98552790407E+02  0.00000000000E+00 0. -1.
          2   -1    0    0  501    0  0.00000000000E+00 -0.00000000000E+00 -0.14651412334E+04  0.14651412334E+04  0.00000000000E+00 0. -1.
         25    1    1    2    0    0 -0.89644244330E+02 -0.43485892380E+02 -0.96866135811E+03  0.98176216064E+03  0.12500000000E+03 0.  0.
          2    1    1    2  501    0  0.50611142257E+02 -0.10114618295E+02 -0.47640494966E+03  0.47919251798E+03  0.00000000000E+00 0. -1.
          1    1    1    2  502    0  0.39033102074E+02  0.53600510675E+02  0.78477864742E+02  0.10273934522E+03  0.00000000000E+00 0. -1.
<mgrwt>
<rscale>  0 0.58617931E+02</rscale>
<asrwt>0</asrwt>
<pdfrwt beam="2">  1        2 0.22540632E+00 0.51611948E+02</pdfrwt>
<pdfrwt beam="1">  1        1 0.15161969E-01 0.66574929E+02</pdfrwt>
<totfact> 0.76329819E+02</totfact>
</mgrwt>
</event>
<event>
 5    1  0.7114032E-003  0.7981155E+02  0.7546771E-02  0.1462680E+00
          1   -1    0    0  502    0  0.00000000000E+00  0.00000000000E+00  0.10849621444E+04  0.10849621444E+04  0.00000000000E+00 0. -1.
         -2   -1    0    0    0  501 -0.00000000000E+00 -0.00000000000E+00 -0.16912969247E+02  0.16912969247E+02  0.00000000000E+00 0.  1.
         25    1    1    2    0    0 -0.66734359569E+02 -0.46772750824E+02  0.74633586688E+03  0.76110668842E+03  0.12500000000E+03 0.  0.
          1    1    1    2  502    0  0.46653791125E+02  0.65689319815E+02  0.27456017754E+03  0.28613799827E+03  0.00000000000E+00 0. -1.
         -2    1    1    2    0  501  0.20080568444E+02 -0.18916568991E+02  0.47153130744E+02  0.54630426965E+02  0.00000000000E+00 0.  1.
<mgrwt>
<rscale>  0 0.46923286E+02</rscale>
<asrwt>0</asrwt>
<pdfrwt beam="1">  1        1 0.16691720E+00 0.79811547E+02</pdfrwt>
<pdfrwt beam="2">  1       -2 0.26019961E-02 0.27587421E+02</pdfrwt>
<totfact> 0.51593686E+03</totfact>
</mgrwt>
</event>
<event>
 5    1  0.7114032E-003  0.6788323E+02  0.7546771E-02  0.1507282E+00
         -1   -1    0    0    0  501 -0.00000000000E+00  0.00000000000E+00  0.12713248669E+02  0.12713248669E+02  0.00000000000E+00 0.  1.
          2   -1    0    0  502    0  0.00000000000E+00 -0.00000000000E+00 -0.13368151575E+04  0.13368151575E+04  0.00000000000E+00 0. -1.
         25    1    1    2    0    0 -0.41418777140E+02  0.33887773364E+02 -0.10482875464E+04  0.10570693810E+04  0.12500000000E+03 0.  0.
          2    1    1    2  502    0 -0.83143775280E+00  0.23704749432E+02 -0.45333896405E+02  0.51164133899E+02  0.00000000000E+00 0. -1.
         -1    1    1    2    0  501  0.42250214893E+02 -0.57592522796E+02 -0.23048046605E+03  0.24129489131E+03  0.00000000000E+00 0.  1.
<mgrwt>
<rscale>  0 0.40126606E+02</rscale>
<asrwt>0</asrwt>
<pdfrwt beam="2">  1        2 0.20566394E+00 0.23719326E+02</pdfrwt>
<pdfrwt beam="1">  1       -1 0.19558838E-02 0.67883231E+02</pdfrwt>
<totfact> 0.13590495E+04</totfact>
</mgrwt>
</event>
<event>
 5    1  0.7114032E-003  0.3899734E+02  0.7546771E-02  0.1583435E+00
          2   -1    0    0  502    0  0.00000000000E+00  0.00000000000E+00  0.25212985930E+04  0.25212985930E+04  0.00000000000E+00 0.  1.
         -3   -1    0    0    0  501 -0.00000000000E+00 -0.00000000000E+00 -0.18624297935E+02  0.18624297935E+02  0.00000000000E+00 0.  1.
         25    1    1    2    0    0  0.21802856867E+02  0.74273124833E+01  0.17859043490E+04  0.17904217027E+04  0.12500000000E+03 0.  0.
          2    1    1    2  502    0 -0.44129855253E+02  0.43272071353E+01  0.72230852332E+03  0.72366827463E+03  0.00000000000E+00 0.  1.
         -3    1    1    2    0  501  0.22326998386E+02 -0.11754519619E+02 -0.55385772801E+01  0.25832913631E+02  0.00000000000E+00 0.  1.
<mgrwt>
<rscale>  0 0.31368590E+02</rscale>
<asrwt>0</asrwt>
<pdfrwt beam="1">  1        2 0.38789182E+00 0.38997339E+02</pdfrwt>
<pdfrwt beam="2">  1       -3 0.28652786E-02 0.25232193E+02</pdfrwt>
<totfact> 0.11682722E+03</totfact>
</mgrwt>
</event>
<event>
 5    1  0.7114032E-003  0.4979678E+02  0.7546771E-02  0.1488594E+00
         -2   -1    0    0    0  501 -0.00000000000E+00  0.00000000000E+00  0.63100614142E+02  0.63100614142E+02  0.00000000000E+00 0.  1.
          2   -1    0    0  502    0  0.00000000000E+00 -0.00000000000E+00 -0.22032441120E+03  0.22032441120E+03  0.00000000000E+00 0. -1.
         25    1    1    2    0    0  0.87250410530E+01 -0.17163546196E+02 -0.48807787395E+02  0.13556516429E+03  0.12500000000E+03 0.  0.
          2    1    1    2  502    0 -0.12997361095E+02  0.53692739600E+02 -0.92596538349E+02  0.10782374783E+03  0.00000000000E+00 0. -1.
         -2    1    1    2    0  501  0.42723200422E+01 -0.36529193404E+02 -0.15819471315E+02  0.40036113222E+02  0.00000000000E+00 0.  1.
<mgrwt>
<rscale>  0 0.42795269E+02</rscale>
<asrwt>0</asrwt>
<pdfrwt beam="2">  1        2 0.33896064E-01 0.49796781E+02</pdfrwt>
<pdfrwt beam="1">  1       -2 0.97077867E-02 0.36778182E+02</pdfrwt>
<totfact> 0.89372103E+03</totfact>
</mgrwt>
</event>
<event>
 5    1  0.7114032E-003  0.5602781E+02  0.7546771E-02  0.1452806E+00
          2   -1    0    0  501    0  0.00000000000E+00  0.00000000000E+00  0.94892147088E+03  0.94892147088E+03  0.00000000000E+00 0. -1.
          1   -1    0    0  502    0 -0.00000000000E+00 -0.00000000000E+00 -0.79185919207E+02  0.79185919207E+02  0.00000000000E+00 0. -1.
         25    1    1    2    0    0  0.28815639173E-01 -0.81573035890E+02  0.38518109175E+03  0.41309034661E+03  0.12500000000E+03 0.  0.
          2    1    1    2  501    0 -0.26605539082E+02  0.32795298603E+02  0.53697894800E+03  0.53863696208E+03  0.00000000000E+00 0. -1.
          1    1    1    2  502    0  0.26576723442E+02  0.48777737287E+02 -0.52424488085E+02  0.76380081400E+02  0.00000000000E+00 0. -1.
<mgrwt>
<rscale>  0 0.48642195E+02</rscale>
<asrwt>0</asrwt>
<pdfrwt beam="1">  1        2 0.14598791E+00 0.42230159E+02</pdfrwt>
<pdfrwt beam="2">  1        1 0.12182450E-01 0.56027806E+02</pdfrwt>
<totfact> 0.18943331E+03</totfact>
</mgrwt>
</event>
<event>
 5    1  0.7114032E-003  0.3413817E+02  0.7546771E-02  0.1578358E+00
         -2   -1    0    0    0  501 -0.00000000000E+00  0.00000000000E+00  0.16784350024E+02  0.16784350024E+02  0.00000000000E+00 0.  1.
          1   -1    0    0  502    0  0.00000000000E+00 -0.00000000000E+00 -0.91392738495E+03  0.91392738495E+03  0.00000000000E+00 0. -1.
         25    1    1    2    0    0  0.61328587435E+02 -0.76322863276E+01 -0.63252011149E+03  0.64770837487E+03  0.12500000000E+03 0.  0.
          1    1    1    2  502    0 -0.28569133247E+02  0.82644738229E+01 -0.24045909087E+03  0.24229129428E+03  0.00000000000E+00 0. -1.
         -2    1    1    2    0  501 -0.32759454189E+02 -0.63218749527E+00 -0.24163832566E+02  0.40712065829E+02  0.00000000000E+00 0.  1.
<mgrwt>
<rscale>  0 0.31863555E+02</rscale>
<asrwt>0</asrwt>
<pdfrwt beam="2">  1        1 0.14060423E+00 0.29740493E+02</pdfrwt>
<pdfrwt beam="1">  1       -2 0.25822073E-02 0.34138175E+02</pdfrwt>
<totfact> 0.76112459E+03</totfact>
</mgrwt>
</event>
<event>
 5    1  0.7114032E-003  0.1059098E+03  0.7546771E-02  0.1317330E+00
          1   -1    0    0  502    0  0.00000000000E+00  0.00000000000E+00  0.25415657932E+03  0.25415657932E+03  0.00000000000E+00 0. -1.
          1   -1    0    0  501    0 -0.00000000000E+00 -0.00000000000E+00 -0.42952102373E+04  0.42952102373E+04  0.00000000000E+00 0. -1.
         25    1    1    2    0    0 -0.46589440246E+02 -0.23489889319E+02 -0.70205777673E+03  0.71500522566E+03  0.12500000000E+03 0.  0.
          1    1    1    2  501    0  0.11296558156E+03  0.13898246962E+02 -0.35812181342E+04  0.35830263337E+04  0.00000000000E+00 0. -1.
          1    1    1    2  502    0 -0.66376141317E+02  0.95916423566E+01  0.24222225289E+03  0.25133525725E+03  0.00000000000E+00 0. -1.
<mgrwt>
<rscale>  0 0.84278726E+02</rscale>
<asrwt>0</asrwt>
<pdfrwt beam="1">  1        1 0.39101014E-01 0.67065578E+02</pdfrwt>
<pdfrwt beam="2">  1        1 0.66080154E+00 0.10590983E+03</pdfrwt>
<totfact> 0.10970220E+00</totfact>
</mgrwt>
</event>
<event>
 5    1  0.7114032E-003  0.9070609E+02  0.7546771E-02  0.1481829E+00
          2   -1    0    0  502    0  0.00000000000E+00  0.00000000000E+00  0.65092986546E+02  0.65092986546E+02  0.00000000000E+00 0. -1.
         -1   -1    0    0    0  501 -0.00000000000E+00 -0.00000000000E+00 -0.30460771463E+03  0.30460771463E+03  0.00000000000E+00 0.  1.
         25    1    1    2    0    0  0.95150916930E+02  0.47472640092E+01 -0.12659760545E+03  0.20181225734E+03  0.12500000000E+03 0.  0.
          2    1    1    2  502    0 -0.89032087218E+01  0.19208831323E+02  0.30527190119E+01  0.21390778847E+02  0.00000000000E+00 0. -1.
         -1    1    1    2    0  501 -0.86247708208E+02 -0.23956095332E+02 -0.11596984165E+03  0.14649766499E+03  0.00000000000E+00 0.  1.
<mgrwt>
<rscale>  0 0.43822526E+02</rscale>
<asrwt>0</asrwt>
<pdfrwt beam="1">  1        2 0.10014306E-01 0.21171829E+02</pdfrwt>
<pdfrwt beam="2">  1       -1 0.46862726E-01 0.90706092E+02</pdfrwt>
<totfact> 0.28357467E+03</totfact>
</mgrwt>
</event>
<event>
 5    1  0.7114032E-003  0.6699607E+02  0.7546771E-02  0.1461721E+00
          1   -1    0    0  501    0  0.00000000000E+00  0.00000000000E+00  0.15538010840E+04  0.15538010840E+04  0.00000000000E+00 0. -1.
          1   -1    0    0  502    0 -0.00000000000E+00 -0.00000000000E+00 -0.10432577400E+03  0.10432577400E+03  0.00000000000E+00 0. -1.
         25    1    1    2    0    0  0.54187957553E+02  0.46403714556E+02  0.34542517221E+02  0.14801292161E+03  0.12500000000E+03 0.  0.
          1    1    1    2  501    0 -0.25092420078E+02 -0.62172029281E+02  0.14559039333E+04  0.14574468270E+04  0.00000000000E+00 0. -1.
          1    1    1    2  502    0 -0.29095537475E+02  0.15768314725E+02 -0.40971140503E+02  0.52667109322E+02  0.00000000000E+00 0. -1.
<mgrwt>
<rscale>  0 0.47086567E+02</rscale>
<asrwt>0</asrwt>
<pdfrwt beam="1">  1        1 0.23904630E+00 0.66996068E+02</pdfrwt>
<pdfrwt beam="2">  1        1 0.16050120E-01 0.33093656E+02</pdfrwt>
<totfact> 0.27943139E+02</totfact>
</mgrwt>
</event>
<event>
 5    1  0.7114032E-003  0.5074945E+02  0.7546771E-02  0.1460388E+00
          1   -1    0    0  501    0  0.00000000000E+00  0.00000000000E+00  0.75072006984E+03  0.75072006984E+03  0.00000000000E+00 0. -1.
          3   -1    0    0  502    0 -0.00000000000E+00 -0.00000000000E+00 -0.12522139011E+03  0.12522139011E+03  0.00000000000E+00 0. -1.
         25    1    1    2    0    0 -0.33182058303E+02  0.47422361239E+01  0.57319277201E+02  0.14154164523E+03  0.12500000000E+03 0.  0.
          1    1    1    2  501    0  0.20917904327E+02 -0.47115555882E+02  0.64433336696E+03  0.64639223550E+03  0.00000000000E+00 0. -1.
          3    1    1    2  502    0  0.12264153976E+02  0.42373319758E+02 -0.76153964441E+02  0.88007579220E+02  0.00000000000E+00 0. -1.
<mgrwt>
<rscale>  0 0.47314713E+02</rscale>
<asrwt>0</asrwt>
<pdfrwt beam="1">  1        1 0.11549539E+00 0.50749446E+02</pdfrwt>
<pdfrwt beam="2">  1        3 0.19264830E-01 0.44112444E+02</pdfrwt>
<totfact> 0.30871953E+02</totfact>
</mgrwt>
</event>
<event>
 5    1  0.7114032E-003  0.1564111E+03  0.7546771E-02  0.1222603E+00
          2   -1    0    0  501    0  0.00000000000E+00  0.00000000000E+00  0.98896404695E+03  0.98896404695E+03  0.00000000000E+00 0.  1.
          1   -1    0    0  502    0 -0.00000000000E+00 -0.00000000000E+00 -0.26133640665E+03  0.26133640665E+03  0.00000000000E+00 0. -1.
         25    1    1    2    0    0 -0.12333657260E+03 -0.74028766697E+02  0.50322411723E+03  0.53810006560E+03  0.12500000000E+03 0.  0.
          2    1    1    2  501    0  0.81355088118E+02 -0.79353516408E+02  0.43426742236E+03  0.44889177432E+03  0.00000000000E+00 0.  1.
          1    1    1    2  502    0  0.41981484486E+02  0.15338228310E+03 -0.20986389929E+03  0.26330861368E+03  0.00000000000E+00 0. -1.
<mgrwt>
<rscale>  0 0.13332535E+03</rscale>
<asrwt>0</asrwt>
<pdfrwt beam="1">  1        2 0.15214831E+00 0.11364696E+03</pdfrwt>
<pdfrwt beam="2">  1        1 0.40205601E-01 0.15641114E+03</pdfrwt>
<totfact> 0.39579213E+02</totfact>
</mgrwt>
</event>
<event>
 5    1  0.7114032E-003  0.3657961E+02  0.7546771E-02  0.1546702E+00
          1   -1    0    0  502    0  0.00000000000E+00  0.00000000000E+00  0.16720200607E+02  0.16720200607E+02  0.00000000000E+00 0. -1.
          1   -1    0    0  501    0 -0.00000000000E+00 -0.00000000000E+00 -0.10214328362E+04  0.10214328362E+04  0.00000000000E+00 0. -1.
         25    1    1    2    0    0 -0.56301483347E+01  0.11559076205E+02 -0.68642219331E+03  0.69782930455E+03  0.12500000000E+03 0.  0.
          1    1    1    2  501    0 -0.24209749880E+02 -0.32716773380E+02 -0.29309325123E+03  0.29590564909E+03  0.00000000000E+00 0. -1.
          1    1    1    2  502    0  0.29839898214E+02  0.21157697174E+02 -0.25197191048E+02  0.44418083163E+02  0.00000000000E+00 0. -1.
<mgrwt>
<rscale>  0 0.35214707E+02</rscale>
<asrwt>0</asrwt>
<pdfrwt beam="1">  1        1 0.25723388E-02 0.36579607E+02</pdfrwt>
<pdfrwt beam="2">  1        1 0.15714350E+00 0.33900735E+02</pdfrwt>
<totfact> 0.69985640E+03</totfact>
</mgrwt>
</event>
<event>
 5    1  0.7114032E-003  0.1177329E+03  0.7546771E-02  0.1417148E+00
          1   -1    0    0  502    0  0.00000000000E+00  0.00000000000E+00  0.25101253589E+03  0.25101253589E+03  0.00000000000E+00 0. -1.
         -1   -1    0    0    0  501 -0.00000000000E+00 -0.00000000000E+00 -0.12060217674E+03  0.12060217674E+03  0.00000000000E+00 0.  1.
         25    1    1    2    0    0 -0.11069787075E+03 -0.68774747282E+02  0.32592564170E+02  0.18349730159E+03  0.12500000000E+03 0.  0.
          1    1    1    2  502    0  0.10160205630E+02  0.24241568699E+02  0.69886802141E+02  0.74666247696E+02  0.00000000000E+00 0. -1.
         -1    1    1    2    0  501  0.10053766512E+03  0.44533178583E+02  0.27930992835E+02  0.11345116334E+03  0.00000000000E+00 0.  1.
<mgrwt>
<rscale>  0 0.55628860E+02</rscale>
<asrwt>0</asrwt>
<pdfrwt beam="1">  1        1 0.38617313E-01 0.26284662E+02</pdfrwt>
<pdfrwt beam="2">  1       -1 0.18554181E-01 0.11773292E+03</pdfrwt>
<totfact> 0.23770541E+03</totfact>
</mgrwt>
</event>
<event>
 5    1  0.7114032E-003  0.3254829E+03  0.7546771E-02  0.1319670E+00
          1   -1    0    0  502    0  0.00000000000E+00  0.00000000000E+00  0.12075571587E+04  0.12075571587E+04  0.00000000000E+00 0. -1.
         -2   -1    0    0    0  501 -0.00000000000E+00 -0.00000000000E+00 -0.51590871661E+03  0.51590871661E+03  0.00000000000E+00 0.  1.
         25    1    1    2    0    0 -0.17151307187E+03  0.29012684759E+03  0.57676875819E+03  0.67961571637E+03  0.12500000000E+03 0.  0.
          1    1    1    2  502    0  0.15856538458E+03 -0.27312567278E+03  0.53603510203E+03  0.62215291121E+03  0.00000000000E+00 0. -1.
         -2    1    1    2    0  501  0.12947687289E+02 -0.17001174810E+02 -0.42115541811E+03  0.42169724775E+03  0.00000000000E+00 0.  1.
<mgrwt>
<rscale>  0 0.83400318E+02</rscale>
<asrwt>0</asrwt>
<pdfrwt beam="1">  1        1 0.18577802E+00 0.32548292E+03</pdfrwt>
<pdfrwt beam="2">  1       -2 0.79370572E-01 0.21370132E+02</pdfrwt>
<totfact> 0.15031965E+01</totfact>
</mgrwt>
</event>
<event>
 5    1  0.7114032E-003  0.6167727E+02  0.7546771E-02  0.1427448E+00
          1   -1    0    0  502    0  0.00000000000E+00  0.00000000000E+00  0.58206734000E+03  0.58206734000E+03  0.00000000000E+00 0. -1.
         -1   -1    0    0    0  501 -0.00000000000E+00 -0.00000000000E+00 -0.28576279804E+02  0.28576279804E+02  0.00000000000E+00 0.  1.
         25    1    1    2    0    0  0.63444894001E+02  0.84351675440E+01  0.36006376985E+03  0.38648069161E+03  0.12500000000E+03 0.  0.
          1    1    1    2  502    0 -0.43928110334E+02 -0.50492152717E+02  0.11414118342E+03  0.13231532835E+03  0.00000000000E+00 0. -1.
         -1    1    1    2    0  501 -0.19516783667E+02  0.42056985173E+02  0.79286106923E+02  0.91847599846E+02  0.00000000000E+00 0.  1.
<mgrwt>
<rscale>  0 0.53475738E+02</rscale>
<asrwt>0</asrwt>
<pdfrwt beam="1">  1        1 0.89548813E-01 0.61677274E+02</pdfrwt>
<pdfrwt beam="2">  1       -1 0.43963512E-02 0.46364802E+02</pdfrwt>
<totfact> 0.68773829E+03</totfact>
</mgrwt>
</event>
<event>
 5    1  0.7114032E-003  0.7867683E+02  0.7546771E-02  0.1370910E+00
          2   -1    0    0  501    0  0.00000000000E+00  0.00000000000E+00  0.12836021658E+04  0.12836021658E+04  0.00000000000E+00 0.  1.
          3   -1    0    0  502    0 -0.00000000000E+00 -0.00000000000E+00 -0.17962082363E+03  0.17962082363E+03  0.00000000000E+00 0. -1.
         25    1    1    2    0    0  0.85669944051E+02  0.68169326296E+02  0.22765832757E+03  0.28185051086E+03  0.12500000000E+03 0.  0.
          2    1    1    2  501    0 -0.56750628996E+02  0.42754676401E+01  0.10180276425E+04  0.10196171803E+04  0.00000000000E+00 0.  1.
          3    1    1    2  502    0 -0.28919315056E+02 -0.72444793936E+02 -0.14170462789E+03  0.16175529826E+03  0.00000000000E+00 0. -1.
<mgrwt>
<rscale>  0 0.66914967E+02</rscale>
<asrwt>0</asrwt>
<pdfrwt beam="1">  1        2 0.19747725E+00 0.56911453E+02</pdfrwt>
<pdfrwt beam="2">  1        3 0.27633974E-01 0.78676831E+02</pdfrwt>
<totfact> 0.14427969E+02</totfact>
</mgrwt>
</event>
<event>
 5    1  0.7114032E-003  0.1795003E+03  0.7546771E-02  0.1338114E+00
          2   -1    0    0  502    0  0.00000000000E+00  0.00000000000E+00  0.14410677508E+04  0.14410677508E+04  0.00000000000E+00 0. -1.
          2   -1    0    0  501    0 -0.00000000000E+00 -0.00000000000E+00 -0.21272831716E+03  0.21272831716E+03  0.00000000000E+00 0. -1.
         25    1    1    2    0    0  0.96830472266E+02 -0.14363623657E+03  0.60650512227E+03  0.64302486123E+03  0.12500000000E+03 0.  0.
          2    1    1    2  501    0 -0.22000157900E+02 -0.24511779227E+02 -0.18260232630E+03  0.18554903351E+03  0.00000000000E+00 0. -1.
          2    1    1    2  502    0 -0.74830314366E+02  0.16814801580E+03  0.80443663765E+03  0.82522217321E+03  0.00000000000E+00 0. -1.
<mgrwt>
<rscale>  0 0.76890643E+02</rscale>
<asrwt>0</asrwt>
<pdfrwt beam="1">  1        2 0.22170272E+00 0.17950034E+03</pdfrwt>
<pdfrwt beam="2">  1        2 0.32727434E-01 0.32936822E+02</pdfrwt>
<totfact> 0.35846387E+02</totfact>
</mgrwt>
</event>
<event>
 5    1  0.7114032E-003  0.8755397E+02  0.7546771E-02  0.1310571E+00
          3   -1    0    0  502    0 -0.00000000000E+00  0.00000000000E+00  0.19738270333E+04  0.19738270333E+04  0.00000000000E+00 0. -1.
          2   -1    0    0  501    0  0.00000000000E+00 -0.00000000000E+00 -0.52713841918E+02  0.52713841918E+02  0.00000000000E+00 0. -1.
         25    1    1    2    0    0  0.36781902280E+02 -0.20631376596E+02  0.73187644240E+03  0.74367108924E+03  0.12500000000E+03 0.  0.
          2    1    1    2  501    0  0.68301577859E+02  0.54777660621E+02 -0.95605693732E+00  0.87559189615E+02  0.00000000000E+00 0. -1.
          3    1    1    2  502    0 -0.10508348014E+03 -0.34146284025E+02  0.11901928059E+04  0.11953105964E+04  0.00000000000E+00 0. -1.
<mgrwt>
<rscale>  0 0.86886560E+02</rscale>
<asrwt>0</asrwt>
<pdfrwt beam="2">  1        2 0.81098233E-02 0.87553970E+02</pdfrwt>
<pdfrwt beam="1">  1        3 0.30366564E+00 0.86224238E+02</pdfrwt>
<totfact> 0.22002342E+01</totfact>
</mgrwt>
</event>
<event>
 5    1  0.7114032E-003  0.1221310E+03  0.7546771E-02  0.1343400E+00
          2   -1    0    0  501    0  0.00000000000E+00  0.00000000000E+00  0.81752793145E+02  0.81752793145E+02  0.00000000000E+00 0. -1.
          1   -1    0    0  502    0 -0.00000000000E+00 -0.00000000000E+00 -0.16847261744E+04  0.16847261744E+04  0.00000000000E+00 0. -1.
         25    1    1    2    0    0  0.11675360575E+03  0.67231686940E+02 -0.56143544510E+02  0.19216816015E+03  0.12500000000E+03 0.  0.
          2    1    1    2  501    0 -0.38202248251E+02  0.26059931990E+02 -0.36100165570E+02  0.58666462147E+02  0.00000000000E+00 0. -1.
          1    1    1    2  502    0 -0.78551357495E+02 -0.93291618930E+02 -0.15107296712E+04  0.15156443453E+04  0.00000000000E+00 0. -1.
<mgrwt>
<rscale>  0 0.75152221E+02</rscale>
<asrwt>0</asrwt>
<pdfrwt beam="1">  1        2 0.12577353E-01 0.46244263E+02</pdfrwt>
<pdfrwt beam="2">  1        1 0.25918864E+00 0.12213096E+03</pdfrwt>
<totfact> 0.34967013E+02</totfact>
</mgrwt>
</event>
<event>
 5    1  0.7114032E-003  0.1657732E+03  0.7546771E-02  0.1356396E+00
          2   -1    0    0  502    0  0.00000000000E+00  0.00000000000E+00  0.96254853818E+03  0.96254853818E+03  0.00000000000E+00 0. -1.
         -2   -1    0    0    0  501 -0.00000000000E+00 -0.00000000000E+00 -0.59818716219E+02  0.59818716219E+02  0.00000000000E+00 0.  1.
         25    1    1    2    0    0 -0.16543488663E+03  0.66979973130E+02  0.44888694490E+03  0.49897846428E+03  0.12500000000E+03 0.  0.
          2    1    1    2  502    0  0.15493474900E+03 -0.38351031254E+02  0.46444413037E+03  0.49110480376E+03  0.00000000000E+00 0. -1.
         -2    1    1    2    0  501  0.10500137635E+02 -0.28628941875E+02 -0.10601253307E+02  0.32283986354E+02  0.00000000000E+00 0.  1.
<mgrwt>
<rscale>  0 0.71098850E+02</rscale>
<asrwt>0</asrwt>
<pdfrwt beam="1">  1        2 0.14808438E+00 0.16577316E+03</pdfrwt>
<pdfrwt beam="2">  1       -2 0.92028801E-02 0.30493757E+02</pdfrwt>
<totfact> 0.18276179E+03</totfact>
</mgrwt>
</event>
<event>
 5    1  0.7114032E-003  0.6509832E+02  0.7546771E-02  0.1473314E+00
         -1   -1    0    0    0  501 -0.00000000000E+00  0.00000000000E+00  0.16436316009E+02  0.16436316009E+02  0.00000000000E+00 0.  1.
          1   -1    0    0  502    0  0.00000000000E+00 -0.00000000000E+00 -0.12829608134E+04  0.12829608134E+04  0.00000000000E+00 0. -1.
         25    1    1    2    0    0 -0.27527212311E+02  0.78483087113E+02 -0.89751292105E+03  0.90998449757E+03  0.12500000000E+03 0.  0.
          1    1    1    2  502    0 -0.12047884538E+02 -0.28926752358E+02 -0.27012734362E+03  0.27193876203E+03  0.00000000000E+00 0. -1.
         -1    1    1    2    0  501  0.39575096849E+02 -0.49556334755E+02 -0.98884232722E+02  0.11747386980E+03  0.00000000000E+00 0.  1.
<mgrwt>
<rscale>  0 0.45165068E+02</rscale>
<asrwt>0</asrwt>
<pdfrwt beam="2">  1        1 0.19737869E+00 0.31335420E+02</pdfrwt>
<pdfrwt beam="1">  1       -1 0.25286627E-02 0.65098325E+02</pdfrwt>
<totfact> 0.49549650E+03</totfact>
</mgrwt>
</event>
<event>
 5    1  0.7114032E-003  0.9128475E+02  0.7546771E-02  0.1416102E+00
         -2   -1    0    0    0  501 -0.00000000000E+00  0.00000000000E+00  0.25838026689E+04  0.25838026689E+04  0.00000000000E+00 0.  1.
          2   -1    0    0  502    0  0.00000000000E+00 -0.00000000000E+00 -0.27836593906E+03  0.27836593906E+03  0.00000000000E+00 0. -1.
         25    1    1    2    0    0  0.72084264141E+02 -0.88719335886E+02  0.80203761431E+03  0.81972958740E+03  0.12500000000E+03 0.  0.
          2    1    1    2  502    0 -0.38464899098E+02  0.82579513153E+02 -0.26165193638E+03  0.27705714260E+03  0.00000000000E+00 0. -1.
         -2    1    1    2    0  501 -0.33619365043E+02  0.61398227331E+01  0.17650510519E+04  0.17653818779E+04  0.00000000000E+00 0.  1.
<mgrwt>
<rscale>  0 0.55854225E+02</rscale>
<asrwt>0</asrwt>
<pdfrwt beam="2">  1        2 0.42825531E-01 0.91284753E+02</pdfrwt>
<pdfrwt beam="1">  1       -2 0.39750809E+00 0.34175417E+02</pdfrwt>
<totfact> 0.15353877E+00</totfact>
</mgrwt>
</event>
<event>
 5    1  0.7114032E-003  0.4542413E+02  0.7546771E-02  0.1476893E+00
          1   -1    0    0  502    0  0.00000000000E+00  0.00000000000E+00  0.10156830470E+04  0.10156830470E+04  0.00000000000E+00 0. -1.
         -1   -1    0    0    0  501 -0.00000000000E+00 -0.00000000000E+00 -0.15275692826E+02  0.15275692826E+02  0.00000000000E+00 0.  1.
         25    1    1    2    0    0  0.49652621880E+02  0.30519228605E+02  0.59040010380E+03  0.60629538077E+03  0.12500000000E+03 0.  0.
          1    1    1    2  502    0 -0.41245244034E+02  0.14677080284E+02  0.32576800132E+03  0.32869648238E+03  0.00000000000E+00 0. -1.
         -1    1    1    2    0  501 -0.84073778464E+01 -0.45196308889E+02  0.84239249074E+02  0.95966876703E+02  0.00000000000E+00 0.  1.
<mgrwt>
<rscale>  0 0.44593897E+02</rscale>
<asrwt>0</asrwt>
<pdfrwt beam="1">  1        1 0.15625888E+00 0.43778840E+02</pdfrwt>
<pdfrwt beam="2">  1       -1 0.23501074E-02 0.45424129E+02</pdfrwt>
<totfact> 0.76023004E+03</totfact>
</mgrwt>
</event>
<event>
 5    1  0.7114032E-003  0.1021817E+03  0.7546771E-02  0.1284722E+00
          1   -1    0    0  502    0 -0.00000000000E+00  0.00000000000E+00  0.65621922799E+02  0.65621922799E+02  0.00000000000E+00 0. -1.
          2   -1    0    0  501    0  0.00000000000E+00 -0.00000000000E+00 -0.66725020801E+03  0.66725020801E+03  0.00000000000E+00 0. -1.
         25    1    1    2    0    0 -0.58487945101E+02  0.47303592994E+01 -0.14537204402E+03  0.20050248678E+03  0.12500000000E+03 0.  0.
          2    1    1    2  501    0 -0.86919009348E+02 -0.35381863449E+02 -0.30989536330E+03  0.32379303056E+03  0.00000000000E+00 0. -1.
          1    1    1    2  502    0  0.14540695445E+03  0.30651504150E+02 -0.14636087790E+03  0.20857661347E+03  0.00000000000E+00 0. -1.
<mgrwt>
<rscale>  0 0.97924422E+02</rscale>
<asrwt>0</asrwt>
<pdfrwt beam="2">  1        2 0.10265388E+00 0.93844501E+02</pdfrwt>
<pdfrwt beam="1">  1        1 0.10095680E-01 0.10218172E+03</pdfrwt>
<totfact> 0.37141456E+03</totfact>
</mgrwt>
</event>
<event>
 5    1  0.7114032E-003  0.9743613E+02  0.7546771E-02  0.1391258E+00
          2   -1    0    0  501    0  0.00000000000E+00  0.00000000000E+00  0.74095983713E+03  0.74095983713E+03  0.00000000000E+00 0. -1.
          1   -1    0    0  502    0 -0.00000000000E+00 -0.00000000000E+00 -0.26159832331E+03  0.26159832331E+03  0.00000000000E+00 0. -1.
         25    1    1    2    0    0  0.61258499095E+02  0.78017698937E+02 -0.86220172126E+02  0.18137883873E+03  0.12500000000E+03 0.  0.
          2    1    1    2  501    0  0.25118767091E+02 -0.29752165362E+02  0.67358126691E+03  0.67470576323E+03  0.00000000000E+00 0. -1.
          1    1    1    2  502    0 -0.86377266186E+02 -0.48265533575E+02 -0.10799958096E+03  0.14647355848E+03  0.00000000000E+00 0. -1.
<mgrwt>
<rscale>  0 0.61594952E+02</rscale>
<asrwt>0</asrwt>
<pdfrwt beam="1">  1        2 0.11399382E+00 0.38937691E+02</pdfrwt>
<pdfrwt beam="2">  1        1 0.40245896E-01 0.97436133E+02</pdfrwt>
<totfact> 0.59006996E+02</totfact>
</mgrwt>
</event>
<event>
 5    1  0.7114032E-003  0.1116301E+03  0.7546771E-02  0.1272482E+00
          2   -1    0    0  501    0  0.00000000000E+00  0.00000000000E+00  0.30746137088E+04  0.30746137088E+04  0.00000000000E+00 0. -1.
          1   -1    0    0  502    0 -0.00000000000E+00 -0.00000000000E+00 -0.35652356994E+03  0.35652356994E+03  0.00000000000E+00 0. -1.
         25    1    1    2    0    0  0.19419492066E+03 -0.47259628145E+02  0.90170374887E+03  0.93200847120E+03  0.12500000000E+03 0.  0.
          2    1    1    2  501    0 -0.10327232883E+03  0.14816429405E+02  0.21496420491E+04  0.21521723071E+04  0.00000000000E+00 0. -1.
          1    1    1    2  502    0 -0.90922591833E+02  0.32443198740E+02 -0.33325565909E+03  0.34695650040E+03  0.00000000000E+00 0. -1.
<mgrwt>
<rscale>  0 0.10380984E+03</rscale>
<asrwt>0</asrwt>
<pdfrwt beam="1">  1        2 0.47301748E+00 0.11163009E+03</pdfrwt>
<pdfrwt beam="2">  1        1 0.54849782E-01 0.96537448E+02</pdfrwt>
<totfact> 0.20979405E+01</totfact>
</mgrwt>
</event>
<event>
 5    1  0.7114032E-003  0.1544910E+03  0.7546771E-02  0.1263064E+00
          2   -1    0    0  501    0  0.00000000000E+00  0.00000000000E+00  0.18478588378E+04  0.18478588378E+04  0.00000000000E+00 0.  1.
          2   -1    0    0  502    0 -0.00000000000E+00 -0.00000000000E+00 -0.47736440052E+03  0.47736440052E+03  0.00000000000E+00 0. -1.
         25    1    1    2    0    0  0.59760459983E+02  0.10067892963E+03 -0.49716528728E+00  0.17126823004E+03  0.12500000000E+03 0.  0.
          2    1    1    2  501    0 -0.74157701201E+01 -0.15637232902E+03  0.17552255851E+04  0.17621929955E+04  0.00000000000E+00 0.  1.
          2    1    1    2  502    0 -0.52344689863E+02  0.55693399393E+02 -0.38423398254E+03  0.39176201274E+03  0.00000000000E+00 0. -1.
<mgrwt>
<rscale>  0 0.10866426E+03</rscale>
<asrwt>0</asrwt>
<pdfrwt beam="1">  1        2 0.28428597E+00 0.15449095E+03</pdfrwt>
<pdfrwt beam="2">  1        2 0.73440678E-01 0.76431154E+02</pdfrwt>
<totfact> 0.97959358E+01</totfact>
</mgrwt>
</event>
<event>
 5    1  0.7114032E-003  0.4573174E+02  0.7546771E-02  0.1539188E+00
          2   -1    0    0  502    0  0.00000000000E+00  0.00000000000E+00  0.28270135538E+02  0.28270135538E+02  0.00000000000E+00 0. -1.
         -3   -1    0    0    0  501 -0.00000000000E+00 -0.00000000000E+00 -0.93862330778E+03  0.93862330778E+03  0.00000000000E+00 0.  1.
         25    1    1    2    0    0 -0.67991176669E+02 -0.19236442637E+02 -0.54803764040E+03  0.56653605016E+03  0.12500000000E+03 0.  0.
          2    1    1    2  502    0  0.28070635278E+02  0.47518151920E+01  0.64196608330E+01  0.29184796689E+02  0.00000000000E+00 0. -1.
         -3    1    1    2    0  501  0.39920541390E+02  0.14484627445E+02 -0.36873519267E+03  0.37117259647E+03  0.00000000000E+00 0.  1.
<mgrwt>
<rscale>  0 0.36082990E+02</rscale>
<asrwt>0</asrwt>
<pdfrwt beam="1">  1        2 0.43492515E-02 0.28469990E+02</pdfrwt>
<pdfrwt beam="2">  1       -3 0.14440359E+00 0.45731740E+02</pdfrwt>
<totfact> 0.34879025E+02</totfact>
</mgrwt>
</event>
<event>
 5    1  0.7114032E-003  0.9288343E+02  0.7546771E-02  0.1310263E+00
          2   -1    0    0  501    0  0.00000000000E+00  0.00000000000E+00  0.55802468201E+02  0.55802468201E+02  0.00000000000E+00 0. -1.
          1   -1    0    0  502    0 -0.00000000000E+00 -0.00000000000E+00 -0.63408045313E+03  0.63408045313E+03  0.00000000000E+00 0. -1.
         25    1    1    2    0    0 -0.88388437584E+02  0.41939352295E+02 -0.28657860194E+03  0.32760299183E+03  0.12500000000E+03 0.  0.
          2    1    1    2  501    0  0.59639669100E+02  0.55552803145E+02 -0.39915098766E+02  0.90753617984E+02  0.00000000000E+00 0. -1.
          1    1    1    2  502    0  0.28748768485E+02 -0.97492155440E+02 -0.25178428422E+03  0.27152631151E+03  0.00000000000E+00 0. -1.
<mgrwt>
<rscale>  0 0.87008211E+02</rscale>
<asrwt>0</asrwt>
<pdfrwt beam="1">  1        2 0.85849950E-02 0.81504626E+02</pdfrwt>
<pdfrwt beam="2">  1        1 0.97550840E-01 0.92883425E+02</pdfrwt>
<totfact> 0.32941124E+03</totfact>
</mgrwt>
</event>
<event>
 5    1  0.7114032E-003  0.1103810E+03  0.7546771E-02  0.1329474E+00
         -3   -1    0    0    0  501 -0.00000000000E+00  0.00000000000E+00  0.47402210468E+03  0.47402210468E+03  0.00000000000E+00 0.  1.
          2   -1    0    0  502    0  0.00000000000E+00 -0.00000000000E+00 -0.29940214362E+04  0.29940214362E+04  0.00000000000E+00 0. -1.
         25    1    1    2    0    0  0.58069505518E+01 -0.94328616714E+02  0.34219645665E+02  0.16039823177E+03  0.12500000000E+03 0.  0.
          2    1    1    2  502    0 -0.57266322936E+02 -0.75766534949E+01 -0.29219911302E+04  0.29225620613E+04  0.00000000000E+00 0. -1.
         -3    1    1    2    0  501  0.51459372384E+02  0.10190527021E+03  0.36777215306E+03  0.38508324771E+03  0.00000000000E+00 0.  1.
<mgrwt>
<rscale>  0 0.79851119E+02</rscale>
<asrwt>0</asrwt>
<pdfrwt beam="2">  1        2 0.46061868E+00 0.57765365E+02</pdfrwt>
<pdfrwt beam="1">  1       -3 0.72926478E-01 0.11038104E+03</pdfrwt>
<totfact> 0.29828104E+00</totfact>
</mgrwt>
</event>
<event>
 5    1  0.7114032E-003  0.4573892E+02  0.7546771E-02  0.1524466E+00
          2   -1    0    0  502    0  0.00000000000E+00  0.00000000000E+00  0.29012545492E+03  0.29012545492E+03  0.00000000000E+00 0. -1.
          2   -1    0    0  501    0 -0.00000000000E+00 -0.00000000000E+00 -0.22307508432E+04  0.22307508432E+04  0.00000000000E+00 0. -1.
         25    1    1    2    0    0 -0.63747120536E+02 -0.13215654156E+02 -0.15774849194E+04  0.15837682973E+04  0.12500000000E+03 0.  0.
          2    1    1    2  501    0  0.27633819559E+02 -0.14829583945E+02 -0.64792127126E+03  0.64867982726E+03  0.00000000000E+00 0. -1.
          2    1    1    2  502    0  0.36113300977E+02  0.28045238101E+02  0.28478080234E+03  0.28842817350E+03  0.00000000000E+00 0. -1.
<mgrwt>
<rscale>  0 0.37874025E+02</rscale>
<asrwt>0</asrwt>
<pdfrwt beam="1">  1        2 0.44634684E-01 0.45738919E+02</pdfrwt>
<pdfrwt beam="2">  1        2 0.34319245E+00 0.31361514E+02</pdfrwt>
<totfact> 0.12728357E+02</totfact>
</mgrwt>
</event>
<event>
 5    1  0.7114032E-003  0.3383057E+02  0.7546771E-02  0.1615506E+00
         -1   -1    0    0    0  501 -0.00000000000E+00  0.00000000000E+00  0.12346273706E+03  0.12346273706E+03  0.00000000000E+00 0.  1.
          1   -1    0    0  502    0  0.00000000000E+00 -0.00000000000E+00 -0.13401027527E+03  0.13401027527E+03  0.00000000000E+00 0. -1.
         25    1    1    2    0    0 -0.13839251924E+01 -0.19437910754E+02 -0.72011595927E+02  0.14556928787E+03  0.12500000000E+03 0.  0.
          1    1    1    2  502    0 -0.10691137206E+02  0.40153894272E+02 -0.44244713294E+01  0.41787696593E+02  0.00000000000E+00 0. -1.
         -1    1    1    2    0  501  0.12075062398E+02 -0.20715983518E+02  0.65888529045E+02  0.70116027873E+02  0.00000000000E+00 0.  1.
<mgrwt>
<rscale>  0 0.28481569E+02</rscale>
<asrwt>0</asrwt>
<pdfrwt beam="2">  1        1 0.20616965E-01 0.33830572E+02</pdfrwt>
<pdfrwt beam="1">  1       -1 0.18994267E-01 0.23978305E+02</pdfrwt>
<totfact> 0.44875394E+03</totfact>
</mgrwt>
</event>
<event>
 5    1  0.7114032E-003  0.1438561E+03  0.7546771E-02  0.1242750E+00
         -2   -1    0    0    0  501 -0.00000000000E+00  0.00000000000E+00  0.18228148879E+03  0.18228148879E+03  0.00000000000E+00 0. -1.
          2   -1    0    0  502    0  0.00000000000E+00 -0.00000000000E+00 -0.66873241915E+03  0.66873241915E+03  0.00000000000E+00 0. -1.
         25    1    1    2    0    0  0.35496969715E+02  0.51908558603E+02 -0.22672757993E+03  0.26642996982E+03  0.12500000000E+03 0.  0.
          2    1    1    2  502    0  0.91796250329E+02  0.40792895574E+02 -0.37577467824E+03  0.38896943416E+03  0.00000000000E+00 0. -1.
         -2    1    1    2    0  501 -0.12729322004E+03 -0.92701454177E+02  0.11605132781E+03  0.19561450397E+03  0.00000000000E+00 0. -1.
<mgrwt>
<rscale>  0 0.12021081E+03</rscale>
<asrwt>0</asrwt>
<pdfrwt beam="2">  1        2 0.10288191E+00 0.10045204E+03</pdfrwt>
<pdfrwt beam="1">  1       -2 0.28043306E-01 0.14385611E+03</pdfrwt>
<totfact> 0.52425801E+02</totfact>
</mgrwt>
</event>
<event>
 5    1  0.7114032E-003  0.1049071E+03  0.7546771E-02  0.1305061E+00
         -3   -1    0    0    0  501 -0.00000000000E+00  0.00000000000E+00  0.30027648230E+03  0.30027648230E+03  0.00000000000E+00 0.  1.
          3   -1    0    0  502    0  0.00000000000E+00 -0.00000000000E+00 -0.21790041893E+04  0.21790041893E+04  0.00000000000E+00 0. -1.
         25    1    1    2    0    0 -0.11534290776E+03  0.91652191586E+02 -0.27470006027E+03  0.33584108401E+03  0.12500000000E+03 0.  0.
          3    1    1    2  502    0  0.39792202229E+02 -0.95790088823E+02 -0.18669587818E+04  0.18698380287E+04  0.00000000000E+00 0. -1.
         -3    1    1    2    0  501  0.75550705536E+02  0.41378972376E+01  0.26293113503E+03  0.27360155897E+03  0.00000000000E+00 0.  1.
<mgrwt>
<rscale>  0 0.89093684E+02</rscale>
<asrwt>0</asrwt>
<pdfrwt beam="2">  1        3 0.33523142E+00 0.10490711E+03</pdfrwt>
<pdfrwt beam="1">  1       -3 0.46196381E-01 0.75663937E+02</pdfrwt>
<totfact> 0.34453145E-01</totfact>
</mgrwt>
</event>
<event>
 5    1  0.7114032E-003  0.9494480E+02  0.7546771E-02  0.1349630E+00
          2   -1    0    0  501    0  0.00000000000E+00  0.00000000000E+00  0.20119151996E+04  0.20119151996E+04  0.00000000000E+00 0. -1.
          3   -1    0    0  502    0 -0.00000000000E+00 -0.00000000000E+00 -0.18112102008E+02  0.18112102008E+02  0.00000000000E+00 0. -1.
         25    1    1    2    0    0  0.32485716208E+02  0.32648917774E+02  0.35476426214E+03  0.37895112519E+03  0.12500000000E+03 0.  0.
          2    1    1    2  501    0 -0.66421856801E+02 -0.77684748265E+02  0.14551543882E+04  0.14587395507E+04  0.00000000000E+00 0. -1.
          3    1    1    2  502    0  0.33936140593E+02  0.45035830490E+02  0.18388444724E+03  0.19233662575E+03  0.00000000000E+00 0. -1.
<mgrwt>
<rscale>  0 0.73170922E+02</rscale>
<asrwt>0</asrwt>
<pdfrwt beam="1">  1        2 0.30952524E+00 0.94944796E+02</pdfrwt>
<pdfrwt beam="2">  1        3 0.27864788E-02 0.56390493E+02</pdfrwt>
<totfact> 0.23490359E+03</totfact>
</mgrwt>
</event>
<event>
 5    1  0.7114032E-003  0.6479470E+02  0.7546771E-02  0.1408370E+00
          1   -1    0    0  502    0  0.00000000000E+00  0.00000000000E+00  0.50174077149E+02  0.50174077149E+02  0.00000000000E+00 0. -1.
         -2   -1    0    0    0  501 -0.00000000000E+00 -0.00000000000E+00 -0.39488704030E+03  0.39488704030E+03  0.00000000000E+00 0.  1.
         25    1    1    2    0    0  0.49381282073E+02 -0.73785161238E+02 -0.24651636412E+03  0.29030687008E+03  0.12500000000E+03 0.  0.
          1    1    1    2  502    0  0.52275544213E+00  0.62648520801E+02 -0.29851082794E+02  0.69398829787E+02  0.00000000000E+00 0. -1.
         -2    1    1    2    0  501 -0.49904037515E+02  0.11136640437E+02 -0.68345516235E+02  0.85355417578E+02  0.00000000000E+00 0.  1.
<mgrwt>
<rscale>  0 0.57559142E+02</rscale>
<asrwt>0</asrwt>
<pdfrwt beam="1">  1        1 0.77190885E-02 0.64794699E+02</pdfrwt>
<pdfrwt beam="2">  1       -2 0.60751854E-01 0.51131573E+02</pdfrwt>
<totfact> 0.18939638E+03</totfact>
</mgrwt>
</event>
<event>
 5    1  0.7114032E-003  0.1128272E+03  0.7546771E-02  0.1313026E+00
         -3   -1    0    0    0  501 -0.00000000000E+00  0.00000000000E+00  0.10506654891E+03  0.10506654891E+03  0.00000000000E+00 0.  1.
          2   -1    0    0  502    0  0.00000000000E+00 -0.00000000000E+00 -0.46263696309E+03  0.46263696309E+03  0.00000000000E+00 0. -1.
         25    1    1    2    0    0 -0.40261569446E+02  0.66264141569E+02 -0.43851470222E+01  0.14716032056E+03  0.12500000000E+03 0.  0.
          2    1    1    2  502    0  0.10502186593E+03 -0.56855718896E+02 -0.33028361955E+03  0.35121138142E+03  0.00000000000E+00 0. -1.
         -3    1    1    2    0  501 -0.64760296485E+02 -0.94084226728E+01 -0.22901647606E+02  0.69331810023E+02  0.00000000000E+00 0.  1.
<mgrwt>
<rscale>  0 0.85926893E+02</rscale>
<asrwt>0</asrwt>
<pdfrwt beam="2">  1        2 0.71174918E-01 0.11282722E+03</pdfrwt>
<pdfrwt beam="1">  1       -3 0.16164084E-01 0.65440159E+02</pdfrwt>
<totfact> 0.12385920E+03</totfact>
</mgrwt>
</event>
<event>
 5    1  0.7114032E-003  0.4071320E+02  0.7546771E-02  0.1510616E+00
          2   -1    0    0  501    0  0.00000000000E+00  0.00000000000E+00  0.36994498900E+03  0.36994498900E+03  0.00000000000E+00 0. -1.
          1   -1    0    0  502    0 -0.00000000000E+00 -0.00000000000E+00 -0.86662314328E+03  0.86662314328E+03  0.00000000000E+00 0. -1.
         25    1    1    2    0    0 -0.73031592999E+02 -0.26778853802E+02 -0.49428918942E+02  0.15530273215E+03  0.12500000000E+03 0.  0.
          2    1    1    2  501    0  0.39577433554E+02  0.73965050940E+01  0.31523787073E+03  0.31779867318E+03  0.00000000000E+00 0. -1.
          1    1    1    2  502    0  0.33454159444E+02  0.19382348708E+02 -0.76248710607E+03  0.76346672694E+03  0.00000000000E+00 0. -1.
<mgrwt>
<rscale>  0 0.39675050E+02</rscale>
<asrwt>0</asrwt>
<pdfrwt beam="1">  1        2 0.56914614E-01 0.40713201E+02</pdfrwt>
<pdfrwt beam="2">  1        1 0.13332664E+00 0.38663371E+02</pdfrwt>
<totfact> 0.26925210E+02</totfact>
</mgrwt>
</event>
<event>
 5    1  0.7114032E-003  0.7278895E+02  0.7546771E-02  0.1444769E+00
          1   -1    0    0  502    0  0.00000000000E+00  0.00000000000E+00  0.49327463302E+03  0.49327463302E+03  0.00000000000E+00 0. -1.
         -2   -1    0    0    0  501 -0.00000000000E+00 -0.00000000000E+00 -0.30464037443E+03  0.30464037443E+03  0.00000000000E+00 0.  1.
         25    1    1    2    0    0 -0.86047480273E+01  0.51963113727E+02 -0.72352584030E+02  0.15373387165E+03  0.12500000000E+03 0.  0.
          1    1    1    2  502    0  0.25218722530E+02  0.23531296103E+02  0.44409107808E+03  0.44542854813E+03  0.00000000000E+00 0. -1.
         -2    1    1    2    0  501 -0.16613974503E+02 -0.75494409830E+02 -0.18310423546E+03  0.19875258767E+03  0.00000000000E+00 0.  1.
<mgrwt>
<rscale>  0 0.50106333E+02</rscale>
<asrwt>0</asrwt>
<pdfrwt beam="1">  1        1 0.75888405E-01 0.34492113E+02</pdfrwt>
<pdfrwt beam="2">  1       -2 0.46867750E-01 0.72788949E+02</pdfrwt>
<totfact> 0.18639838E+02</totfact>
</mgrwt>
</event>
<event>
 5    1  0.7114032E-003  0.1422495E+03  0.7546771E-02  0.1377690E+00
          1   -1    0    0  501    0  0.00000000000E+00  0.00000000000E+00  0.39744669363E+03  0.39744669363E+03  0.00000000000E+00 0. -1.
          3   -1    0    0  502    0 -0.00000000000E+00 -0.00000000000E+00 -0.21971120005E+03  0.21971120005E+03  0.00000000000E+00 0. -1.
         25    1    1    2    0    0 -0.76910644470E+02  0.11164285330E+03  0.20623683159E+03  0.27665502821E+03  0.12500000000E+03 0.  0.
          1    1    1    2  501    0  0.21533204229E+02  0.20556272975E+02  0.12616856556E+03  0.12963312145E+03  0.00000000000E+00 0. -1.
          3    1    1    2  502    0  0.55377440242E+02 -0.13219912628E+03 -0.15466990357E+03  0.21086974403E+03  0.00000000000E+00 0. -1.
<mgrwt>
<rscale>  0 0.65074847E+02</rscale>
<asrwt>0</asrwt>
<pdfrwt beam="1">  1        1 0.61145645E-01 0.29769771E+02</pdfrwt>
<pdfrwt beam="2">  1        3 0.33801723E-01 0.14224953E+03</pdfrwt>
<totfact> 0.28544012E+02</totfact>
</mgrwt>
</event>
<event>
 5    1  0.7114032E-003  0.5790462E+02  0.7546771E-02  0.1538204E+00
          2   -1    0    0  502    0  0.00000000000E+00  0.00000000000E+00  0.11884842287E+03  0.11884842287E+03  0.00000000000E+00 0. -1.
          2   -1    0    0  501    0 -0.00000000000E+00 -0.00000000000E+00 -0.13601208923E+04  0.13601208923E+04  0.00000000000E+00 0. -1.
         25    1    1    2    0    0 -0.27959578443E+02  0.54830927975E+02 -0.51320144772E+03  0.53177899040E+03  0.12500000000E+03 0.  0.
          2    1    1    2  501    0 -0.15468788737E+02 -0.16517213680E+02 -0.82981234656E+03  0.83012085402E+03  0.00000000000E+00 0. -1.
          2    1    1    2  502    0  0.43428367180E+02 -0.38313714295E+02  0.10174132490E+03  0.11706947071E+03  0.00000000000E+00 0. -1.
<mgrwt>
<rscale>  0 0.36198924E+02</rscale>
<asrwt>0</asrwt>
<pdfrwt beam="1">  1        2 0.18284372E-01 0.57904617E+02</pdfrwt>
<pdfrwt beam="2">  1        2 0.20924937E+00 0.22629666E+02</pdfrwt>
<totfact> 0.88139350E+02</totfact>
</mgrwt>
</event>
<event>
 5    1  0.7114032E-003  0.7804248E+02  0.7546771E-02  0.1410594E+00
          2   -1    0    0  502    0  0.00000000000E+00  0.00000000000E+00  0.25566300666E+04  0.25566300666E+04  0.00000000000E+00 0. -1.
          2   -1    0    0  501    0 -0.00000000000E+00 -0.00000000000E+00 -0.15354959122E+03  0.15354959122E+03  0.00000000000E+00 0. -1.
         25    1    1    2    0    0 -0.39107504067E+01 -0.11575536681E+03  0.18904393853E+03  0.25451367274E+03  0.12500000000E+03 0.  0.
          2    1    1    2  501    0  0.12737297997E+02  0.74978537896E+02 -0.10864001545E+03  0.13261475356E+03  0.00000000000E+00 0. -1.
          2    1    1    2  502    0 -0.88265475899E+01  0.40776828912E+02  0.23226765523E+04  0.23230512315E+04  0.00000000000E+00 0. -1.
<mgrwt>
<rscale>  0 0.57061590E+02</rscale>
<asrwt>0</asrwt>
<pdfrwt beam="1">  1        2 0.39332767E+00 0.41721190E+02</pdfrwt>
<pdfrwt beam="2">  1        2 0.23623016E-01 0.78042477E+02</pdfrwt>
<totfact> 0.16609866E+02</totfact>
</mgrwt>
</event>
<event>
 5    1  0.7114032E-003  0.1155486E+03  0.7546771E-02  0.1386112E+00
          1   -1    0    0  502    0 -0.00000000000E+00  0.00000000000E+00  0.44359444363E+03  0.44359444363E+03  0.00000000000E+00 0. -1.
          2   -1    0    0  501    0  0.00000000000E+00 -0.00000000000E+00 -0.21708050923E+03  0.21708050923E+03  0.00000000000E+00 0. -1.
         25    1    1    2    0    0  0.92700722757E+02  0.41977363434E+02  0.28300171093E+02  0.16365030622E+03  0.12500000000E+03 0.  0.
          2    1    1    2  501    0 -0.92380947079E+02 -0.76198847686E+02 -0.12435804858E+03  0.17264248613E+03  0.00000000000E+00 0. -1.
          1    1    1    2  502    0 -0.31977567837E+00  0.34221484253E+02  0.32257181188E+03  0.32438216052E+03  0.00000000000E+00 0. -1.
<mgrwt>
<rscale>  0 0.62884160E+02</rscale>
<asrwt>0</asrwt>
<pdfrwt beam="2">  1        2 0.33397001E-01 0.11554861E+03</pdfrwt>
<pdfrwt beam="1">  1        1 0.68245299E-01 0.34222978E+02</pdfrwt>
<totfact> 0.11449502E+03</totfact>
</mgrwt>
</event>
<event>
 5    1  0.7114032E-003  0.1089954E+03  0.7546771E-02  0.1306385E+00
         -2   -1    0    0    0  501 -0.00000000000E+00  0.00000000000E+00  0.51778444371E+02  0.51778444371E+02  0.00000000000E+00 0.  1.
          2   -1    0    0  502    0  0.00000000000E+00 -0.00000000000E+00 -0.67221085356E+03  0.67221085356E+03  0.00000000000E+00 0. -1.
         25    1    1    2    0    0 -0.10659857915E+03 -0.10091466240E+03 -0.25417214922E+03  0.31902273838E+03  0.12500000000E+03 0.  0.
          2    1    1    2  502    0  0.20140328853E+02  0.69073997649E+02 -0.22578564588E+03  0.23697258889E+03  0.00000000000E+00 0. -1.
         -2    1    1    2    0  501  0.86458250300E+02  0.31840664748E+02 -0.14047461409E+03  0.16799397067E+03  0.00000000000E+00 0.  1.
<mgrwt>
<rscale>  0 0.88556513E+02</rscale>
<asrwt>0</asrwt>
<pdfrwt beam="2">  1        2 0.10341705E+00 0.71950330E+02</pdfrwt>
<pdfrwt beam="1">  1       -2 0.79659147E-02 0.10899541E+03</pdfrwt>
<totfact> 0.40869575E+03</totfact>
</mgrwt>
</event>
<event>
 5    1  0.7114032E-003  0.1882965E+03  0.7546771E-02  0.1241621E+00
          2   -1    0    0  502    0  0.00000000000E+00  0.00000000000E+00  0.16918188026E+04  0.16918188026E+04  0.00000000000E+00 0. -1.
          2   -1    0    0  501    0 -0.00000000000E+00 -0.00000000000E+00 -0.22068294953E+03  0.22068294953E+03  0.00000000000E+00 0. -1.
         25    1    1    2    0    0  0.44617900499E+02 -0.19453348492E+03  0.81113111597E+03  0.84462578761E+03  0.12500000000E+03 0.  0.
          2    1    1    2  501    0  0.32498848636E+02  0.18566287691E+03 -0.15815102011E+03  0.24604597982E+03  0.00000000000E+00 0. -1.
          2    1    1    2  502    0 -0.77116749135E+02  0.88706080072E+01  0.81815575721E+03  0.82182998469E+03  0.00000000000E+00 0. -1.
<mgrwt>
<rscale>  0 0.12089898E+03</rscale>
<asrwt>0</asrwt>
<pdfrwt beam="1">  1        2 0.26027981E+00 0.77625258E+02</pdfrwt>
<pdfrwt beam="2">  1        2 0.33951224E-01 0.18829647E+03</pdfrwt>
<totfact> 0.28506498E+02</totfact>
</mgrwt>
</event>
<event>
 5    1  0.7114032E-003  0.1224037E+03  0.7546771E-02  0.1388385E+00
         -2   -1    0    0    0  501 -0.00000000000E+00  0.00000000000E+00  0.60793986560E+03  0.60793986560E+03  0.00000000000E+00 0.  1.
          1   -1    0    0  502    0  0.00000000000E+00 -0.00000000000E+00 -0.10760186060E+04  0.10760186060E+04  0.00000000000E+00 0. -1.
         25    1    1    2    0    0  0.85217089110E+02 -0.11763128380E+03 -0.48109693005E+03  0.51785937020E+03  0.12500000000E+03 0.  0.
          1    1    1    2  502    0  0.15598678900E+01  0.31680803574E+02 -0.56976880485E+03  0.57065102951E+03  0.00000000000E+00 0. -1.
         -2    1    1    2    0  501 -0.86776957000E+02  0.85950480229E+02  0.58278699452E+03  0.59544807187E+03  0.00000000000E+00 0.  1.
<mgrwt>
<rscale>  0 0.62310062E+02</rscale>
<asrwt>0</asrwt>
<pdfrwt beam="2">  1        1 0.16554132E+00 0.31719182E+02</pdfrwt>
<pdfrwt beam="1">  1       -2 0.93529212E-01 0.12240365E+03</pdfrwt>
<totfact> 0.14935415E+01</totfact>
</mgrwt>
</event>
<event>
 5    1  0.7114032E-003  0.1386339E+03  0.7546771E-02  0.1321070E+00
         -2   -1    0    0    0  501 -0.00000000000E+00  0.00000000000E+00  0.71821249638E+02  0.71821249638E+02  0.00000000000E+00 0.  1.
          1   -1    0    0  502    0  0.00000000000E+00 -0.00000000000E+00 -0.17547016248E+04  0.17547016248E+04  0.00000000000E+00 0. -1.
         25    1    1    2    0    0 -0.18048771941E+03  0.25970896766E+02 -0.13007147377E+04  0.13193688389E+04  0.12500000000E+03 0.  0.
          1    1    1    2  502    0  0.44389910051E+02 -0.22015063270E+02 -0.36680330232E+03  0.37013482641E+03  0.00000000000E+00 0. -1.
         -2    1    1    2    0  501  0.13609780936E+03 -0.39558334960E+01 -0.15362335205E+02  0.13701920914E+03  0.00000000000E+00 0.  1.
<mgrwt>
<rscale>  0 0.82880653E+02</rscale>
<asrwt>0</asrwt>
<pdfrwt beam="2">  1        1 0.26995407E+00 0.49549239E+02</pdfrwt>
<pdfrwt beam="1">  1       -2 0.11049424E-01 0.13863387E+03</pdfrwt>
<totfact> 0.28174251E+02</totfact>
</mgrwt>
</event>
<event>
 5    1  0.7114032E-003  0.4808843E+02  0.7546771E-02  0.1532294E+00
         -3   -1    0    0    0  501 -0.00000000000E+00  0.00000000000E+00  0.78977866669E+02  0.78977866669E+02  0.00000000000E+00 0.  1.
          3   -1    0    0  502    0  0.00000000000E+00 -0.00000000000E+00 -0.66937741844E+03  0.66937741844E+03  0.00000000000E+00 0. -1.
         25    1    1    2    0    0 -0.15906293033E+02 -0.14926702523E+02 -0.27349313158E+02  0.12980293347E+03  0.12500000000E+03 0.  0.
          3    1    1    2  502    0  0.43302367955E+02  0.22120081071E+02 -0.58228643885E+03  0.58431317795E+03  0.00000000000E+00 0. -1.
         -3    1    1    2    0  501 -0.27396074921E+02 -0.71933785482E+01  0.19236200234E+02  0.34239173697E+02  0.00000000000E+00 0.  1.
<mgrwt>
<rscale>  0 0.36906518E+02</rscale>
<asrwt>0</asrwt>
<pdfrwt beam="2">  1        3 0.10298115E+00 0.48088427E+02</pdfrwt>
<pdfrwt beam="1">  1       -3 0.12150440E-01 0.28324717E+02</pdfrwt>
<totfact> 0.84175407E+01</totfact>
</mgrwt>
</event>
<event>
 5    1  0.7114032E-003  0.6851158E+02  0.7546771E-02  0.1471585E+00
          1   -1    0    0  502    0  0.00000000000E+00  0.00000000000E+00  0.56280554886E+03  0.56280554886E+03  0.00000000000E+00 0. -1.
         -1   -1    0    0    0  501 -0.00000000000E+00 -0.00000000000E+00 -0.44815728877E+02  0.44815728877E+02  0.00000000000E+00 0.  1.
         25    1    1    2    0    0 -0.41796727723E+02  0.30970263934E+01  0.48205719275E+03  0.49976063780E+03  0.12500000000E+03 0.  0.
          1    1    1    2  502    0 -0.29520765462E+02 -0.60978397226E+01  0.78047262980E+01  0.31137967104E+02  0.00000000000E+00 0. -1.
         -1    1    1    2    0  501  0.71317493185E+02  0.30008133293E+01  0.28127900941E+02  0.76722672830E+02  0.00000000000E+00 0.  1.
<mgrwt>
<rscale>  0 0.45444596E+02</rscale>
<asrwt>0</asrwt>
<pdfrwt beam="1">  1        1 0.86585464E-01 0.30143975E+02</pdfrwt>
<pdfrwt beam="2">  1       -1 0.68947279E-02 0.68511577E+02</pdfrwt>
<totfact> 0.39830452E+03</totfact>
</mgrwt>
</event>
<event>
 5    1  0.7114032E-003  0.5331895E+02  0.7546771E-02  0.1519786E+00
          2   -1    0    0  502    0  0.00000000000E+00  0.00000000000E+00  0.93647898429E+03  0.93647898429E+03  0.00000000000E+00 0.  1.
          2   -1    0    0  501    0 -0.00000000000E+00 -0.00000000000E+00 -0.81230047126E+02  0.81230047126E+02  0.00000000000E+00 0. -1.
         25    1    1    2    0    0 -0.63325825094E+02  0.31397179879E+02  0.42801454686E+03  0.45146139962E+03  0.12500000000E+03 0.  0.
          2    1    1    2  501    0  0.27186914897E+02  0.55900060685E+01 -0.65327208839E+02  0.70979016083E+02  0.00000000000E+00 0. -1.
          2    1    1    2  502    0  0.36138910197E+02 -0.36987185948E+02  0.49256159915E+03  0.49526861571E+03  0.00000000000E+00 0.  1.
<mgrwt>
<rscale>  0 0.38469502E+02</rscale>
<asrwt>0</asrwt>
<pdfrwt beam="1">  1        2 0.14407368E+00 0.53318953E+02</pdfrwt>
<pdfrwt beam="2">  1        2 0.12496931E-01 0.27755657E+02</pdfrwt>
<totfact> 0.20401356E+03</totfact>
</mgrwt>
</event>
<event>
 5    1  0.7114032E-003  0.3188577E+02  0.7546771E-02  0.1579470E+00
          2   -1    0    0  502    0  0.00000000000E+00  0.00000000000E+00  0.14944692006E+04  0.14944692006E+04  0.00000000000E+00 0. -1.
         -1   -1    0    0    0  501 -0.00000000000E+00 -0.00000000000E+00 -0.74977744507E+01  0.74977744507E+01  0.00000000000E+00 0.  1.
         25    1    1    2    0    0  0.26494891012E+02  0.56081123808E+01  0.83218840405E+03  0.84195960117E+03  0.12500000000E+03 0.  0.
          2    1    1    2  502    0 -0.15688587734E+02  0.27457051097E+02  0.51467309636E+03  0.51564369244E+03  0.00000000000E+00 0. -1.
         -1    1    1    2    0  501 -0.10806303278E+02 -0.33065163478E+02  0.14010992576E+03  0.14436368146E+03  0.00000000000E+00 0.  1.
<mgrwt>
<rscale>  0 0.31754171E+02</rscale>
<asrwt>0</asrwt>
<pdfrwt beam="1">  1        2 0.22991810E+00 0.31623116E+02</pdfrwt>
<pdfrwt beam="2">  1       -1 0.11535049E-02 0.31885771E+02</pdfrwt>
<totfact> 0.20338415E+04</totfact>
</mgrwt>
</event>
<event>
 5    1  0.7114032E-003  0.5249519E+02  0.7546771E-02  0.1519997E+00
         -1   -1    0    0    0  501 -0.00000000000E+00  0.00000000000E+00  0.59873929183E+01  0.59873929183E+01  0.00000000000E+00 0.  1.
          2   -1    0    0  502    0  0.00000000000E+00 -0.00000000000E+00 -0.20325000785E+04  0.20325000785E+04  0.00000000000E+00 0. -1.
         25    1    1    2    0    0  0.85276824326E+01 -0.38804372847E+02 -0.11677990398E+04  0.11751417353E+04  0.12500000000E+03 0.  0.
          2    1    1    2  502    0  0.26887022798E+02 -0.83423272926E+01 -0.37413154894E+03  0.37518918206E+03  0.00000000000E+00 0. -1.
         -1    1    1    2    0  501 -0.35414705231E+02  0.47146700140E+02 -0.48458209689E+03  0.48815655410E+03  0.00000000000E+00 0.  1.
<mgrwt>
<rscale>  0 0.38442395E+02</rscale>
<asrwt>0</asrwt>
<pdfrwt beam="2">  1        2 0.31269299E+00 0.28151491E+02</pdfrwt>
<pdfrwt beam="1">  1       -1 0.92113540E-03 0.52495186E+02</pdfrwt>
<totfact> 0.17220357E+04</totfact>
</mgrwt>
</event>
<event>
 5    1  0.7114032E-003  0.5646193E+02  0.7546771E-02  0.1559363E+00
         -1   -1    0    0    0  501 -0.00000000000E+00  0.00000000000E+00  0.21315180382E+03  0.21315180382E+03  0.00000000000E+00 0.  1.
          1   -1    0    0  502    0  0.00000000000E+00 -0.00000000000E+00 -0.76791837894E+02  0.76791837894E+02  0.00000000000E+00 0. -1.
         25    1    1    2    0    0  0.29629803721E+02 -0.36930237187E+02  0.13530005743E+03  0.19019167497E+03  0.12500000000E+03 0.  0.
          1    1    1    2  502    0 -0.20751148429E+00 -0.20253250900E+02 -0.23400228364E+02  0.30948472023E+02  0.00000000000E+00 0. -1.
         -1    1    1    2    0  501 -0.29422292237E+02  0.57183488088E+02  0.24460136856E+02  0.68803494718E+02  0.00000000000E+00 0.  1.
<mgrwt>
<rscale>  0 0.33817119E+02</rscale>
<asrwt>0</asrwt>
<pdfrwt beam="2">  1        1 0.11814129E-01 0.20254314E+02</pdfrwt>
<pdfrwt beam="1">  1       -1 0.32792585E-01 0.56461925E+02</pdfrwt>
<totfact> 0.37249997E+03</totfact>
</mgrwt>
</event>
<event>
 5    1  0.7114032E-003  0.7069287E+02  0.7546771E-02  0.1491725E+00
          2   -1    0    0  501    0  0.00000000000E+00  0.00000000000E+00  0.63918860011E+03  0.63918860011E+03  0.00000000000E+00 0. -1.
          2   -1    0    0  502    0 -0.00000000000E+00 -0.00000000000E+00 -0.38842103235E+02  0.38842103235E+02  0.00000000000E+00 0. -1.
         25    1    1    2    0    0 -0.58289733727E+02  0.51962811930E+01  0.19467246386E+03  0.23863583675E+03  0.12500000000E+03 0.  0.
          2    1    1    2  501    0  0.70919184466E+02  0.16781513863E+02  0.40751478481E+03  0.41398001132E+03  0.00000000000E+00 0. -1.
          2    1    1    2  502    0 -0.12629450738E+02 -0.21977795056E+02 -0.18407517968E+01  0.25414855275E+02  0.00000000000E+00 0. -1.
<mgrwt>
<rscale>  0 0.42331198E+02</rscale>
<asrwt>0</asrwt>
<pdfrwt beam="1">  1        2 0.98336700E-01 0.70692867E+02</pdfrwt>
<pdfrwt beam="2">  1        2 0.59757087E-02 0.25348106E+02</pdfrwt>
<totfact> 0.74923616E+03</totfact>
</mgrwt>
</event>
<event>
 5    1  0.7114032E-003  0.1078812E+03  0.7546771E-02  0.1365411E+00
         -2   -1    0    0    0  501 -0.00000000000E+00  0.00000000000E+00  0.22521289201E+03  0.22521289201E+03  0.00000000000E+00 0.  1.
          1   -1    0    0  502    0  0.00000000000E+00 -0.00000000000E+00 -0.12759068790E+03  0.12759068790E+03  0.00000000000E+00 0. -1.
         25    1    1    2    0    0  0.11199654720E+03  0.53210468317E+02  0.25648988298E+01  0.17608565878E+03  0.12500000000E+03 0.  0.
          1    1    1    2  502    0 -0.96715119461E+02 -0.12543371451E+02  0.37229533596E+02  0.10438960040E+03  0.00000000000E+00 0. -1.
         -2    1    1    2    0  501 -0.15281427741E+02 -0.40667096866E+02  0.57827771688E+02  0.72328320730E+02  0.00000000000E+00 0.  1.
<mgrwt>
<rscale>  0 0.68459728E+02</rscale>
<asrwt>0</asrwt>
<pdfrwt beam="2">  1        1 0.19629337E-01 0.10788122E+03</pdfrwt>
<pdfrwt beam="1">  1       -2 0.34648137E-01 0.43443467E+02</pdfrwt>
<totfact> 0.16985436E+03</totfact>
</mgrwt>
</event>
<event>
 5    1  0.7114032E-003  0.5094831E+02  0.7546771E-02  0.1468441E+00
          1   -1    0    0  502    0  0.00000000000E+00  0.00000000000E+00  0.13440519933E+04  0.13440519933E+04  0.00000000000E+00 0. -1.
         -1   -1    0    0    0  501 -0.00000000000E+00 -0.00000000000E+00 -0.11016987942E+03  0.11016987942E+03  0.00000000000E+00 0.  1.
         25    1    1    2    0    0 -0.23464231860E+02  0.60604986131E+02  0.39713306128E+03  0.42138249000E+03  0.12500000000E+03 0.  0.
          1    1    1    2  502    0  0.39601576152E+02 -0.12269192085E+02  0.92767848653E+03  0.92860443262E+03  0.00000000000E+00 0. -1.
         -1    1    1    2    0  501 -0.16137344292E+02 -0.48335794046E+02 -0.90929433935E+02  0.10423495010E+03  0.00000000000E+00 0.  1.
<mgrwt>
<rscale>  0 0.45959189E+02</rscale>
<asrwt>0</asrwt>
<pdfrwt beam="1">  1        1 0.20677722E+00 0.41458629E+02</pdfrwt>
<pdfrwt beam="2">  1       -1 0.16949213E-01 0.50948310E+02</pdfrwt>
<totfact> 0.26549965E+02</totfact>
</mgrwt>
</event>
<event>
 5    1  0.7114032E-003  0.8916646E+02  0.7546771E-02  0.1397115E+00
         -1   -1    0    0    0  501 -0.00000000000E+00  0.00000000000E+00  0.24480019621E+02  0.24480019621E+02  0.00000000000E+00 0.  1.
          2   -1    0    0  502    0  0.00000000000E+00 -0.00000000000E+00 -0.17585596118E+04  0.17585596118E+04  0.00000000000E+00 0. -1.
         25    1    1    2    0    0 -0.10073488849E+03 -0.22192149788E+01 -0.58518895541E+03  0.60681426830E+03  0.12500000000E+03 0.  0.
          2    1    1    2  502    0  0.20943811805E+02 -0.34786399630E+02 -0.10163213735E+04  0.10171321798E+04  0.00000000000E+00 0. -1.
         -1    1    1    2    0  501  0.79791076683E+02  0.37005614609E+02 -0.13256926324E+03  0.15909318335E+03  0.00000000000E+00 0.  1.
<mgrwt>
<rscale>  0 0.60171189E+02</rscale>
<asrwt>0</asrwt>
<pdfrwt beam="2">  1        2 0.27054763E+00 0.40604641E+02</pdfrwt>
<pdfrwt beam="1">  1       -1 0.37661569E-02 0.89166459E+02</pdfrwt>
<totfact> 0.32847641E+03</totfact>
</mgrwt>
</event>
<event>
 5    1  0.7114032E-003  0.4660441E+02  0.7546771E-02  0.1475089E+00
          1   -1    0    0  502    0 -0.00000000000E+00  0.00000000000E+00  0.72228615057E+03  0.72228615057E+03  0.00000000000E+00 0. -1.
          2   -1    0    0  501    0  0.00000000000E+00 -0.00000000000E+00 -0.18874240785E+03  0.18874240785E+03  0.00000000000E+00 0. -1.
         25    1    1    2    0    0  0.54761387637E+02  0.64010450462E+02  0.15503028256E+03  0.21623028432E+03  0.12500000000E+03 0.  0.
          2    1    1    2  501    0 -0.37201460640E+02 -0.22000902769E+02 -0.15419999332E+03  0.16014251883E+03  0.00000000000E+00 0. -1.
          1    1    1    2  502    0 -0.17559926997E+02 -0.42009547693E+02  0.53271345348E+03  0.53465575528E+03  0.00000000000E+00 0. -1.
<mgrwt>
<rscale>  0 0.44880433E+02</rscale>
<asrwt>0</asrwt>
<pdfrwt beam="2">  1        2 0.29037294E-01 0.43220231E+02</pdfrwt>
<pdfrwt beam="1">  1        1 0.11112094E+00 0.46604408E+02</pdfrwt>
<totfact> 0.68833963E+02</totfact>
</mgrwt>
</event>
<event>
 5    1  0.7114032E-003  0.5199853E+02  0.7546771E-02  0.1524687E+00
          1   -1    0    0  502    0  0.00000000000E+00  0.00000000000E+00  0.92262571241E+03  0.92262571241E+03  0.00000000000E+00 0. -1.
          1   -1    0    0  501    0 -0.00000000000E+00 -0.00000000000E+00 -0.19068650121E+04  0.19068650121E+04  0.00000000000E+00 0. -1.
         25    1    1    2    0    0 -0.25450968297E+02 -0.16750673336E+02 -0.16302862055E+03  0.20768165052E+03  0.12500000000E+03 0.  0.
          1    1    1    2  501    0 -0.26056653239E+02  0.89336873905E+01 -0.17206458705E+04  0.17208663433E+04  0.00000000000E+00 0. -1.
          1    1    1    2  502    0  0.51507621536E+02  0.78169859455E+01  0.89943519140E+03  0.90094273062E+03  0.00000000000E+00 0. -1.
<mgrwt>
<rscale>  0 0.37846143E+02</rscale>
<asrwt>0</asrwt>
<pdfrwt beam="1">  1        1 0.14194242E+00 0.51998528E+02</pdfrwt>
<pdfrwt beam="2">  1        1 0.29336385E+00 0.27545598E+02</pdfrwt>
<totfact> 0.12517088E+01</totfact>
</mgrwt>
</event>
<event>
 5    1  0.7114032E-003  0.1096019E+03  0.7546771E-02  0.1318422E+00
         -3   -1    0    0    0  501 -0.00000000000E+00  0.00000000000E+00  0.14701036365E+03  0.14701036365E+03  0.00000000000E+00 0.  1.
          2   -1    0    0  502    0  0.00000000000E+00 -0.00000000000E+00 -0.15145827466E+04  0.15145827466E+04  0.00000000000E+00 0. -1.
         25    1    1    2    0    0 -0.95447851454E+02  0.10355728433E+03 -0.95885093740E+03  0.97716657927E+03  0.12500000000E+03 0.  0.
          2    1    1    2  502    0  0.89401965486E+02 -0.39667586651E+02 -0.53441838285E+03  0.54329479731E+03  0.00000000000E+00 0. -1.
         -3    1    1    2    0  501  0.60458859684E+01 -0.63889697678E+02  0.12569693729E+03  0.14113173368E+03  0.00000000000E+00 0.  1.
<mgrwt>
<rscale>  0 0.83867234E+02</rscale>
<asrwt>0</asrwt>
<pdfrwt beam="2">  1        2 0.23301274E+00 0.10960186E+03</pdfrwt>
<pdfrwt beam="1">  1       -3 0.22616978E-01 0.64175121E+02</pdfrwt>
<totfact> 0.14618199E+02</totfact>
</mgrwt>
</event>
<event>
 5    1  0.7114032E-003  0.6757919E+02  0.7546771E-02  0.1456907E+00
         -1   -1    0    0    0  501 -0.00000000000E+00  0.00000000000E+00  0.32872118142E+02  0.32872118142E+02  0.00000000000E+00 0.  1.
          2   -1    0    0  502    0  0.00000000000E+00 -0.00000000000E+00 -0.54381302944E+03  0.54381302944E+03  0.00000000000E+00 0. -1.
         25    1    1    2    0    0 -0.38273218869E-01  0.67296878330E+02 -0.39845496008E+03  0.42298962932E+03  0.12500000000E+03 0.  0.
          2    1    1    2  502    0  0.33341439503E+02 -0.65392894695E+01 -0.25464153900E+02  0.42459828411E+02  0.00000000000E+00 0. -1.
         -1    1    1    2    0  501 -0.33303166284E+02 -0.60757588861E+02 -0.87021797320E+02  0.11123568985E+03  0.00000000000E+00 0.  1.
<mgrwt>
<rscale>  0 0.47917800E+02</rscale>
<asrwt>0</asrwt>
<pdfrwt beam="2">  1        2 0.83663542E-01 0.33976667E+02</pdfrwt>
<pdfrwt beam="1">  1       -1 0.50572490E-02 0.67579189E+02</pdfrwt>
<totfact> 0.10168136E+04</totfact>
</mgrwt>
</event>
<event>
 5    1  0.7114032E-003  0.4288548E+02  0.7546771E-02  0.1554690E+00
          2   -1    0    0  502    0  0.00000000000E+00  0.00000000000E+00  0.65294737309E+03  0.65294737309E+03  0.00000000000E+00 0. -1.
         -1   -1    0    0    0  501 -0.00000000000E+00 -0.00000000000E+00 -0.17267681815E+02  0.17267681815E+02  0.00000000000E+00 0.  1.
         25    1    1    2    0    0  0.20889915334E+02 -0.15451803303E+02  0.36470517011E+03  0.38640653190E+03  0.12500000000E+03 0.  0.
          2    1    1    2  502    0  0.25888711443E+02 -0.91892694018E+01  0.55295208469E+02  0.61743243613E+02  0.00000000000E+00 0. -1.
         -1    1    1    2    0  501 -0.46778626777E+02  0.24641072704E+02  0.21567931269E+03  0.22206527939E+03  0.00000000000E+00 0.  1.
<mgrwt>
<rscale>  0 0.34323702E+02</rscale>
<asrwt>0</asrwt>
<pdfrwt beam="1">  1        2 0.10045342E+00 0.27471222E+02</pdfrwt>
<pdfrwt beam="2">  1       -1 0.26565669E-02 0.42885480E+02</pdfrwt>
<totfact> 0.19901258E+04</totfact>
</mgrwt>
</event>
<event>
 5    1  0.7114032E-003  0.7893299E+02  0.7546771E-02  0.1470529E+00
          1   -1    0    0  502    0  0.00000000000E+00  0.00000000000E+00  0.24828558466E+03  0.24828558466E+03  0.00000000000E+00 0. -1.
         -2   -1    0    0    0  501 -0.00000000000E+00 -0.00000000000E+00 -0.80441882515E+02  0.80441882515E+02  0.00000000000E+00 0.  1.
         25    1    1    2    0    0 -0.74987996918E+02 -0.18741194283E+02  0.26750899661E+02  0.14938220335E+03  0.12500000000E+03 0.  0.
          1    1    1    2  502    0  0.46583493190E+01 -0.25947665524E+02  0.45021196723E+02  0.52171732949E+02  0.00000000000E+00 0. -1.
         -2    1    1    2    0  501  0.70329647599E+02  0.44688859806E+02  0.96071605764E+02  0.12717353088E+03  0.00000000000E+00 0.  1.
<mgrwt>
<rscale>  0 0.45616566E+02</rscale>
<asrwt>0</asrwt>
<pdfrwt beam="1">  1        1 0.38197782E-01 0.26362503E+02</pdfrwt>
<pdfrwt beam="2">  1       -2 0.12375674E-01 0.78932987E+02</pdfrwt>
<totfact> 0.41885064E+03</totfact>
</mgrwt>
</event>
<event>
 5    1  0.7114032E-003  0.1393241E+03  0.7546771E-02  0.1269312E+00
         -2   -1    0    0    0  501 -0.00000000000E+00  0.00000000000E+00  0.15795428341E+04  0.15795428341E+04  0.00000000000E+00 0.  1.
          1   -1    0    0  502    0  0.00000000000E+00 -0.00000000000E+00 -0.11514885168E+04  0.11514885168E+04  0.00000000000E+00 0. -1.
         25    1    1    2    0    0 -0.59067178167E+02 -0.32173982049E+02  0.95326693178E+02  0.17098618392E+03  0.12500000000E+03 0.  0.
          1    1    1    2  502    0 -0.62050013463E+02 -0.50102919644E+02 -0.11085168953E+04  0.11113821188E+04  0.00000000000E+00 0. -1.
         -2    1    1    2    0  501  0.12111719163E+03  0.82276901693E+02  0.14412445194E+04  0.14486630482E+04  0.00000000000E+00 0.  1.
<mgrwt>
<rscale>  0 0.10541101E+03</rscale>
<asrwt>0</asrwt>
<pdfrwt beam="2">  1        1 0.17715208E+00 0.79752785E+02</pdfrwt>
<pdfrwt beam="1">  1       -2 0.24300659E+00 0.13932406E+03</pdfrwt>
<totfact> 0.10106572E+00</totfact>
</mgrwt>
</event>
<event>
 5    1  0.7114032E-003  0.4491792E+02  0.7546771E-02  0.1534601E+00
          1   -1    0    0  502    0  0.00000000000E+00  0.00000000000E+00  0.71991017504E+03  0.71991017504E+03  0.00000000000E+00 0. -1.
         -2   -1    0    0    0  501 -0.00000000000E+00 -0.00000000000E+00 -0.39477135887E+02  0.39477135887E+02  0.00000000000E+00 0.  1.
         25    1    1    2    0    0 -0.58130738385E+00 -0.18621292512E+02  0.73056622477E+02  0.14597726036E+03  0.12500000000E+03 0.  0.
          1    1    1    2  502    0  0.17091476688E+02  0.43511301589E+02  0.22149513379E+03  0.22637457065E+03  0.00000000000E+00 0. -1.
         -2    1    1    2    0  501 -0.16510169304E+02 -0.24890009078E+02  0.38588128289E+03  0.38703547993E+03  0.00000000000E+00 0.  1.
<mgrwt>
<rscale>  0 0.36627981E+02</rscale>
<asrwt>0</asrwt>
<pdfrwt beam="1">  1        1 0.11075540E+00 0.44917917E+02</pdfrwt>
<pdfrwt beam="2">  1       -2 0.60734061E-02 0.29868014E+02</pdfrwt>
<totfact> 0.30424554E+03</totfact>
</mgrwt>
</event>
<event>
 5    1  0.7114032E-003  0.4070177E+02  0.7546771E-02  0.1543793E+00
         -1   -1    0    0    0  501 -0.00000000000E+00  0.00000000000E+00  0.24118087007E+02  0.24118087007E+02  0.00000000000E+00 0.  1.
          2   -1    0    0  502    0  0.00000000000E+00 -0.00000000000E+00 -0.47797625056E+03  0.47797625056E+03  0.00000000000E+00 0. -1.
         25    1    1    2    0    0  0.12651605648E+02 -0.21248378348E+02 -0.29101097997E+03  0.31768529580E+03  0.12500000000E+03 0.  0.
          2    1    1    2  502    0  0.30071233011E+02  0.77169754466E+01 -0.11385553097E+03  0.11801234129E+03  0.00000000000E+00 0. -1.
         -1    1    1    2    0  501 -0.42722838659E+02  0.13531402902E+02 -0.48991652615E+02  0.66396700472E+02  0.00000000000E+00 0.  1.
<mgrwt>
<rscale>  0 0.35547321E+02</rscale>
<asrwt>0</asrwt>
<pdfrwt beam="2">  1        2 0.73534804E-01 0.31045624E+02</pdfrwt>
<pdfrwt beam="1">  1       -1 0.37104751E-02 0.40701775E+02</pdfrwt>
<totfact> 0.17063403E+04</totfact>
</mgrwt>
</event>
<event>
 5    1  0.7114032E-003  0.6036509E+02  0.7546771E-02  0.1400215E+00
          1   -1    0    0  501    0  0.00000000000E+00  0.00000000000E+00  0.49153518802E+03  0.49153518802E+03  0.00000000000E+00 0. -1.
          1   -1    0    0  502    0 -0.00000000000E+00 -0.00000000000E+00 -0.20963194607E+03  0.20963194607E+03  0.00000000000E+00 0. -1.
         25    1    1    2    0    0  0.47546228226E+02 -0.90800344200E+02  0.15831874193E+03  0.22626349766E+03  0.12500000000E+03 0.  0.
          1    1    1    2  501    0 -0.49477093187E+02  0.31251866189E+02  0.29119583532E+03  0.29701797319E+03  0.00000000000E+00 0. -1.
          1    1    1    2  502    0  0.19308649613E+01  0.59548478011E+02 -0.16761133529E+03  0.17788566326E+03  0.00000000000E+00 0. -1.
<mgrwt>
<rscale>  0 0.59435698E+02</rscale>
<asrwt>0</asrwt>
<pdfrwt beam="1">  1        1 0.75620798E-01 0.58520611E+02</pdfrwt>
<pdfrwt beam="2">  1        1 0.32251069E-01 0.60365094E+02</pdfrwt>
<totfact> 0.77320013E+02</totfact>
</mgrwt>
</event>
<event>
 5    1  0.7114032E-003  0.8631783E+02  0.7546771E-02  0.1339275E+00
          1   -1    0    0  502    0 -0.00000000000E+00  0.00000000000E+00  0.50806125957E+02  0.50806125957E+02  0.00000000000E+00 0. -1.
          2   -1    0    0  501    0  0.00000000000E+00 -0.00000000000E+00 -0.23771120686E+04  0.23771120686E+04  0.00000000000E+00 0. -1.
         25    1    1    2    0    0  0.32914121856E+02 -0.54436877887E+02 -0.51395239286E+03  0.53274644553E+03  0.12500000000E+03 0.  0.
          2    1    1    2  501    0 -0.59833199317E+02 -0.31901960608E+02 -0.18029740754E+04  0.18042486700E+04  0.00000000000E+00 0. -1.
          1    1    1    2  502    0  0.26919077461E+02  0.86338838495E+02 -0.93794744614E+01  0.90923079057E+02  0.00000000000E+00 0. -1.
<mgrwt>
<rscale>  0 0.76504418E+02</rscale>
<asrwt>0</asrwt>
<pdfrwt beam="2">  1        2 0.36570946E+00 0.67806687E+02</pdfrwt>
<pdfrwt beam="1">  1        1 0.78163289E-02 0.86317829E+02</pdfrwt>
<totfact> 0.62778343E+02</totfact>
</mgrwt>
</event>
<event>
 5    1  0.7114032E-003  0.3038038E+02  0.7546771E-02  0.1608534E+00
          2   -1    0    0  502    0  0.00000000000E+00  0.00000000000E+00  0.35957334718E+02  0.35957334718E+02  0.00000000000E+00 0. -1.
         -1   -1    0    0    0  501 -0.00000000000E+00 -0.00000000000E+00 -0.36929238062E+03  0.36929238062E+03  0.00000000000E+00 0.  1.
         25    1    1    2    0    0  0.12973996578E+02 -0.56691328707E+01 -0.28038023671E+03  0.30730854331E+03  0.12500000000E+03 0.  0.
          2    1    1    2  502    0 -0.24486205066E+02 -0.19665358327E+02  0.67026958468E+01  0.32112718482E+02  0.00000000000E+00 0. -1.
         -1    1    1    2    0  501  0.11512208488E+02  0.25334491198E+02 -0.59657505034E+02  0.65828453540E+02  0.00000000000E+00 0.  1.
<mgrwt>
<rscale>  0 0.29075915E+02</rscale>
<asrwt>0</asrwt>
<pdfrwt beam="1">  1        2 0.55318981E-02 0.30380383E+02</pdfrwt>
<pdfrwt beam="2">  1       -1 0.56814208E-01 0.27827457E+02</pdfrwt>
<totfact> 0.42467843E+03</totfact>
</mgrwt>
</event>
<event>
 5    1  0.7114032E-003  0.4169636E+03  0.7546771E-02  0.1038059E+00
          2   -1    0    0  502    0  0.00000000000E+00  0.00000000000E+00  0.16004822298E+04  0.16004822298E+04  0.00000000000E+00 0. -1.
         -1   -1    0    0    0  501 -0.00000000000E+00 -0.00000000000E+00 -0.27157227215E+02  0.27157227215E+02  0.00000000000E+00 0.  1.
         25    1    1    2    0    0 -0.72092761834E+02  0.15477555943E+03  0.10468535516E+04  0.10680263099E+04  0.12500000000E+03 0.  0.
          2    1    1    2  502    0  0.87014476594E+02 -0.10192403246E+03  0.34933866721E+03  0.37416244057E+03  0.00000000000E+00 0. -1.
         -1    1    1    2    0  501 -0.14921714760E+02 -0.52851526968E+02  0.17713278385E+03  0.18545070663E+03  0.00000000000E+00 0.  1.
<mgrwt>
<rscale>  0 0.41696359E+03</rscale>
<asrwt>0</asrwt>
<pdfrwt beam="1">  1        2 0.24622796E+00 0.41696359E+03</pdfrwt>
<pdfrwt beam="2">  1       -1 0.41780362E-02 0.41696359E+03</pdfrwt>
<totfact> 0.31569987E+03</totfact>
</mgrwt>
</event>
<event>
 5    1  0.7114032E-003  0.8518143E+02  0.7546771E-02  0.1487900E+00
          1   -1    0    0  502    0  0.00000000000E+00  0.00000000000E+00  0.24286521231E+02  0.24286521231E+02  0.00000000000E+00 0. -1.
         -2   -1    0    0    0  501 -0.00000000000E+00 -0.00000000000E+00 -0.79165649062E+03  0.79165649062E+03  0.00000000000E+00 0.  1.
         25    1    1    2    0    0 -0.72050028466E+02 -0.56736863477E+02 -0.55034873074E+03  0.57176831296E+03  0.12500000000E+03 0.  0.
          1    1    1    2  502    0  0.76112055820E+02  0.35517236725E+02 -0.13203795746E+03  0.15648815084E+03  0.00000000000E+00 0. -1.
         -2    1    1    2    0  501 -0.40620273534E+01  0.21219626752E+02 -0.84983281201E+02  0.87686548053E+02  0.00000000000E+00 0.  1.
<mgrwt>
<rscale>  0 0.42899161E+02</rscale>
<asrwt>0</asrwt>
<pdfrwt beam="1">  1        1 0.37363879E-02 0.85181426E+02</pdfrwt>
<pdfrwt beam="2">  1       -2 0.12179330E+00 0.21604921E+02</pdfrwt>
<totfact> 0.11505106E+03</totfact>
</mgrwt>
</event>
<event>
 5    1  0.7114032E-003  0.5343859E+02  0.7546771E-02  0.1464887E+00
          2   -1    0    0  502    0  0.00000000000E+00  0.00000000000E+00  0.12929265723E+04  0.12929265723E+04  0.00000000000E+00 0. -1.
          2   -1    0    0  501    0 -0.00000000000E+00 -0.00000000000E+00 -0.70918791196E+03  0.70918791196E+03  0.00000000000E+00 0. -1.
         25    1    1    2    0    0  0.20187565516E+02  0.17274654864E+02  0.11344684172E+02  0.12829518058E+03  0.12500000000E+03 0.  0.
          2    1    1    2  501    0 -0.17738736333E+02  0.36464697172E+02 -0.64948852901E+03  0.65075316843E+03  0.00000000000E+00 0. -1.
          2    1    1    2  502    0 -0.24488291835E+01 -0.53739352036E+02  0.12218825052E+04  0.12230661352E+04  0.00000000000E+00 0. -1.
<mgrwt>
<rscale>  0 0.46550589E+02</rscale>
<asrwt>0</asrwt>
<pdfrwt beam="1">  1        2 0.19891178E+00 0.53438587E+02</pdfrwt>
<pdfrwt beam="2">  1        2 0.10910583E+00 0.40550424E+02</pdfrwt>
<totfact> 0.13531508E+02</totfact>
</mgrwt>
</event>
<event>
 5    1  0.7114032E-003  0.3595634E+02  0.7546771E-02  0.1557747E+00
         -1   -1    0    0    0  501 -0.00000000000E+00  0.00000000000E+00  0.39762951265E+02  0.39762951265E+02  0.00000000000E+00 0.  1.
          2   -1    0    0  502    0  0.00000000000E+00 -0.00000000000E+00 -0.50786057080E+03  0.50786057080E+03  0.00000000000E+00 0. -1.
         25    1    1    2    0    0 -0.32725404570E+02  0.12004740911E+02 -0.12803732398E+03  0.18230091124E+03  0.12500000000E+03 0.  0.
          2    1    1    2  502    0  0.20710257944E+02  0.24568864176E+02 -0.32056417085E+03  0.32217065587E+03  0.00000000000E+00 0. -1.
         -1    1    1    2    0  501  0.12015146626E+02 -0.36573605087E+02 -0.19496124707E+02  0.43151954951E+02  0.00000000000E+00 0.  1.
<mgrwt>
<rscale>  0 0.33991074E+02</rscale>
<asrwt>0</asrwt>
<pdfrwt beam="2">  1        2 0.78132397E-01 0.32133221E+02</pdfrwt>
<pdfrwt beam="1">  1       -1 0.61173770E-02 0.35956343E+02</pdfrwt>
<totfact> 0.77529438E+03</totfact>
</mgrwt>
</event>
<event>
 5    1  0.7114032E-003  0.7133726E+02  0.7546771E-02  0.1394712E+00
         -1   -1    0    0    0  501 -0.00000000000E+00  0.00000000000E+00  0.18710751413E+03  0.18710751413E+03  0.00000000000E+00 0.  1.
          2   -1    0    0  502    0  0.00000000000E+00 -0.00000000000E+00 -0.11257887033E+03  0.11257887033E+03  0.00000000000E+00 0. -1.
         25    1    1    2    0    0  0.29494858956E+01  0.10932901826E+03  0.54348154940E+02  0.17475770554E+03  0.12500000000E+03 0.  0.
          2    1    1    2  502    0 -0.14741400562E+02 -0.49588686068E+02 -0.15934016475E+02  0.54131687185E+02  0.00000000000E+00 0. -1.
         -1    1    1    2    0  501  0.11791914667E+02 -0.59740332192E+02  0.36114505338E+02  0.70796991727E+02  0.00000000000E+00 0.  1.
<mgrwt>
<rscale>  0 0.60749655E+02</rscale>
<asrwt>0</asrwt>
<pdfrwt beam="2">  1        2 0.17319826E-01 0.51733419E+02</pdfrwt>
<pdfrwt beam="1">  1       -1 0.28785771E-01 0.71337263E+02</pdfrwt>
<totfact> 0.37335434E+03</totfact>
</mgrwt>
</event>
<event>
 5    1  0.7114032E-003  0.1027658E+03  0.7546771E-02  0.1399842E+00
          1   -1    0    0  502    0 -0.00000000000E+00  0.00000000000E+00  0.22925725052E+04  0.22925725052E+04  0.00000000000E+00 0. -1.
          2   -1    0    0  501    0  0.00000000000E+00 -0.00000000000E+00 -0.47937379697E+03  0.47937379697E+03  0.00000000000E+00 0. -1.
         25    1    1    2    0    0  0.11033517274E+03  0.18882824439E+02  0.25661907906E+03  0.30660848510E+03  0.12500000000E+03 0.  0.
          2    1    1    2  501    0 -0.91056262005E+02 -0.47465655733E+02 -0.44842755079E+03  0.46003423746E+03  0.00000000000E+00 0. -1.
          1    1    1    2  502    0 -0.19278910738E+02  0.28582831294E+02  0.20050071800E+04  0.20053035796E+04  0.00000000000E+00 0. -1.
<mgrwt>
<rscale>  0 0.59523481E+02</rscale>
<asrwt>0</asrwt>
<pdfrwt beam="2">  1        2 0.73749817E-01 0.10276585E+03</pdfrwt>
<pdfrwt beam="1">  1        1 0.35270345E+00 0.34476871E+02</pdfrwt>
<totfact> 0.26304402E+01</totfact>
</mgrwt>
</event>
<event>
 5    1  0.7114032E-003  0.7012661E+02  0.7546771E-02  0.1445683E+00
         -2   -1    0    0    0  501 -0.00000000000E+00  0.00000000000E+00  0.17441277820E+02  0.17441277820E+02  0.00000000000E+00 0.  1.
          1   -1    0    0  502    0  0.00000000000E+00 -0.00000000000E+00 -0.13412948443E+04  0.13412948443E+04  0.00000000000E+00 0. -1.
         25    1    1    2    0    0 -0.98226710610E+02 -0.26343776736E+02 -0.52434180075E+03  0.54854517158E+03  0.12500000000E+03 0.  0.
          1    1    1    2  502    0  0.63570324531E+02  0.18379244177E+02 -0.72066024507E+03  0.72369204197E+03  0.00000000000E+00 0. -1.
         -2    1    1    2    0  501  0.34656386079E+02  0.79645325597E+01 -0.78851520685E+02  0.86498908602E+02  0.00000000000E+00 0.  1.
<mgrwt>
<rscale>  0 0.49936837E+02</rscale>
<asrwt>0</asrwt>
<pdfrwt beam="2">  1        1 0.20635312E+00 0.70126609E+02</pdfrwt>
<pdfrwt beam="1">  1       -2 0.26832726E-02 0.35559793E+02</pdfrwt>
<totfact> 0.35126582E+03</totfact>
</mgrwt>
</event>
<event>
 5    1  0.7114032E-003  0.2637982E+03  0.7546771E-02  0.1274826E+00
         -1   -1    0    0    0  501 -0.00000000000E+00  0.00000000000E+00  0.12739314454E+04  0.12739314454E+04  0.00000000000E+00 0.  1.
          2   -1    0    0  502    0  0.00000000000E+00 -0.00000000000E+00 -0.13147029706E+04  0.13147029706E+04  0.00000000000E+00 0. -1.
         25    1    1    2    0    0 -0.77636615147E+02  0.21772766669E+03 -0.94041616053E+02  0.27910859249E+03  0.12500000000E+03 0.  0.
          2    1    1    2  502    0  0.10175120369E+03 -0.24956780391E+03 -0.11116838386E+04  0.11438873866E+04  0.00000000000E+00 0. -1.
         -1    1    1    2    0  501 -0.24114588539E+02  0.31840137223E+02  0.11649539295E+04  0.11656384369E+04  0.00000000000E+00 0.  1.
<mgrwt>
<rscale>  0 0.10264719E+03</rscale>
<asrwt>0</asrwt>
<pdfrwt beam="2">  1        2 0.20226200E+00 0.26379823E+03</pdfrwt>
<pdfrwt beam="1">  1       -1 0.19598945E+00 0.39941303E+02</pdfrwt>
<totfact> 0.41862374E+00</totfact>
</mgrwt>
</event>
<event>
 5    1  0.7114032E-003  0.4033688E+02  0.7546771E-02  0.1547619E+00
         -2   -1    0    0    0  501 -0.00000000000E+00  0.00000000000E+00  0.56098284936E+03  0.56098284936E+03  0.00000000000E+00 0.  1.
          1   -1    0    0  502    0  0.00000000000E+00 -0.00000000000E+00 -0.25078474007E+02  0.25078474007E+02  0.00000000000E+00 0. -1.
         25    1    1    2    0    0  0.15519275128E+02  0.76034202456E+01  0.17534169678E+03  0.21602863358E+03  0.12500000000E+03 0.  0.
          1    1    1    2  502    0  0.31454897631E+01  0.30399499480E+02  0.69717472916E+02  0.76121939704E+02  0.00000000000E+00 0. -1.
         -2    1    1    2    0  501 -0.18664764891E+02 -0.38002919726E+02  0.29084520567E+03  0.29391075008E+03  0.00000000000E+00 0.  1.
<mgrwt>
<rscale>  0 0.35110793E+02</rscale>
<asrwt>0</asrwt>
<pdfrwt beam="2">  1        1 0.38582272E-02 0.30561801E+02</pdfrwt>
<pdfrwt beam="1">  1       -2 0.86305044E-01 0.40336884E+02</pdfrwt>
<totfact> 0.20826987E+03</totfact>
</mgrwt>
</event>
<event>
 5    1  0.7114032E-003  0.6110225E+02  0.7546771E-02  0.1520235E+00
          2   -1    0    0  502    0  0.00000000000E+00  0.00000000000E+00  0.39296125013E+03  0.39296125013E+03  0.00000000000E+00 0. -1.
         -1   -1    0    0    0  501 -0.00000000000E+00 -0.00000000000E+00 -0.33730143174E+02  0.33730143174E+02  0.00000000000E+00 0.  1.
         25    1    1    2    0    0 -0.29997494955E+02 -0.37296568416E+02  0.22249114081E+03  0.25965013279E+03  0.12500000000E+03 0.  0.
          2    1    1    2  502    0  0.52092874269E+02  0.47037854108E+02  0.87269265506E+02  0.11199174957E+03  0.00000000000E+00 0. -1.
         -1    1    1    2    0  501 -0.22095379314E+02 -0.97412856915E+01  0.49470700638E+02  0.55049510948E+02  0.00000000000E+00 0.  1.
<mgrwt>
<rscale>  0 0.38411749E+02</rscale>
<asrwt>0</asrwt>
<pdfrwt beam="1">  1        2 0.60455574E-01 0.61102252E+02</pdfrwt>
<pdfrwt beam="2">  1       -1 0.51892531E-02 0.24147431E+02</pdfrwt>
<totfact> 0.12088122E+04</totfact>
</mgrwt>
</event>
<event>
 5    1  0.7114032E-003  0.4330772E+02  0.7546771E-02  0.1580478E+00
          1   -1    0    0  502    0  0.00000000000E+00  0.00000000000E+00  0.11643320457E+04  0.11643320457E+04  0.00000000000E+00 0. -1.
         -1   -1    0    0    0  501 -0.00000000000E+00 -0.00000000000E+00 -0.11306037049E+02  0.11306037049E+02  0.00000000000E+00 0.  1.
         25    1    1    2    0    0  0.10790230353E+02 -0.34615674714E+02  0.71940723019E+03  0.73108579309E+03  0.12500000000E+03 0.  0.
          1    1    1    2  502    0  0.22665565507E+02  0.46543827681E+01  0.33928870557E+03  0.34007678084E+03  0.00000000000E+00 0. -1.
         -1    1    1    2    0  501 -0.33455795860E+02  0.29961291945E+02  0.94330072887E+02  0.10447550882E+03  0.00000000000E+00 0.  1.
<mgrwt>
<rscale>  0 0.31655592E+02</rscale>
<asrwt>0</asrwt>
<pdfrwt beam="1">  1        1 0.17912791E+00 0.23138521E+02</pdfrwt>
<pdfrwt beam="2">  1       -1 0.17393912E-02 0.43307717E+02</pdfrwt>
<totfact> 0.96256130E+03</totfact>
</mgrwt>
</event>
<event>
 5    1  0.7114032E-003  0.4589248E+03  0.7546771E-02  0.1108784E+00
          1   -1    0    0  502    0 -0.00000000000E+00  0.00000000000E+00  0.17518781394E+04  0.17518781394E+04  0.00000000000E+00 0. -1.
          2   -1    0    0  501    0  0.00000000000E+00 -0.00000000000E+00 -0.23986162788E+03  0.23986162788E+03  0.00000000000E+00 0. -1.
         25    1    1    2    0    0  0.13456742489E+03 -0.40401349891E+03  0.52329936617E+03  0.68615051248E+03  0.12500000000E+03 0.  0.
          2    1    1    2  501    0 -0.27875849234E+03  0.40010402301E+03  0.24072889686E+03  0.54381975697E+03  0.00000000000E+00 0. -1.
          1    1    1    2  502    0  0.14419106746E+03  0.39094758988E+01  0.74798824849E+03  0.76176949782E+03  0.00000000000E+00 0. -1.
<mgrwt>
<rscale>  0 0.25728810E+03</rscale>
<asrwt>0</asrwt>
<pdfrwt beam="2">  1        2 0.36901790E-01 0.45892476E+03</pdfrwt>
<pdfrwt beam="1">  1        1 0.26951971E+00 0.14424406E+03</pdfrwt>
<totfact> 0.99784132E+01</totfact>
</mgrwt>
</event>
<event>
 5    1  0.7114032E-003  0.8241403E+02  0.7546771E-02  0.1356914E+00
          1   -1    0    0  502    0  0.00000000000E+00  0.00000000000E+00  0.22533513641E+04  0.22533513641E+04  0.00000000000E+00 0. -1.
          1   -1    0    0  501    0 -0.00000000000E+00 -0.00000000000E+00 -0.87928925229E+03  0.87928925229E+03  0.00000000000E+00 0. -1.
         25    1    1    2    0    0 -0.20914081275E+02 -0.83915480401E+02 -0.68745191991E+02  0.16682358367E+03  0.12500000000E+03 0.  0.
          1    1    1    2  501    0  0.60026458896E+02  0.11237417726E+02 -0.75950625755E+03  0.76195748607E+03  0.00000000000E+00 0. -1.
          1    1    1    2  502    0 -0.39112377621E+02  0.72678062675E+02  0.22023135614E+04  0.22038595467E+04  0.00000000000E+00 0. -1.
<mgrwt>
<rscale>  0 0.70943389E+02</rscale>
<asrwt>0</asrwt>
<pdfrwt beam="1">  1        1 0.34666944E+00 0.82414030E+02</pdfrwt>
<pdfrwt beam="2">  1        1 0.13527527E+00 0.61069267E+02</pdfrwt>
<totfact> 0.70197358E+00</totfact>
</mgrwt>
</event>
<event>
 5    1  0.7114032E-003  0.6275625E+02  0.7546771E-02  0.1446471E+00
         -1   -1    0    0    0  501 -0.00000000000E+00  0.00000000000E+00  0.10234533075E+02  0.10234533075E+02  0.00000000000E+00 0.  1.
          2   -1    0    0  502    0  0.00000000000E+00 -0.00000000000E+00 -0.16437326499E+04  0.16437326499E+04  0.00000000000E+00 0. -1.
         25    1    1    2    0    0 -0.63173915084E+01  0.70580015727E+02 -0.11300413744E+04  0.11391400071E+04  0.12500000000E+03 0.  0.
          2    1    1    2  502    0 -0.29890220258E+02 -0.54780344003E+02 -0.38319671024E+03  0.38824480692E+03  0.00000000000E+00 0. -1.
         -1    1    1    2    0  501  0.36207611766E+02 -0.15799671724E+02 -0.12026003223E+03  0.12658236895E+03  0.00000000000E+00 0.  1.
<mgrwt>
<rscale>  0 0.49791229E+02</rscale>
<asrwt>0</asrwt>
<pdfrwt beam="2">  1        2 0.25288189E+00 0.62756252E+02</pdfrwt>
<pdfrwt beam="1">  1       -1 0.15745439E-02 0.39504693E+02</pdfrwt>
<totfact> 0.10957915E+04</totfact>
</mgrwt>
</event>
<event>
 5    1  0.7114032E-003  0.9111397E+02  0.7546771E-02  0.1328780E+00
         -1   -1    0    0    0  501 -0.00000000000E+00  0.00000000000E+00  0.19647201599E+03  0.19647201599E+03  0.00000000000E+00 0.  1.
          2   -1    0    0  502    0  0.00000000000E+00 -0.00000000000E+00 -0.17707960369E+04  0.17707960369E+04  0.00000000000E+00 0. -1.
         25    1    1    2    0    0 -0.13112257505E+03  0.89445378609E+02 -0.21733340291E+03  0.29673626921E+03  0.12500000000E+03 0.  0.
          2    1    1    2  502    0  0.77022021682E+02 -0.44381845157E+02 -0.15044767141E+04  0.15071006348E+04  0.00000000000E+00 0. -1.
         -1    1    1    2    0  501  0.54100553364E+02 -0.45063533451E+02  0.14748609607E+03  0.16343114897E+03  0.00000000000E+00 0.  1.
<mgrwt>
<rscale>  0 0.80095882E+02</rscale>
<asrwt>0</asrwt>
<pdfrwt beam="2">  1        2 0.27243016E+00 0.91113973E+02</pdfrwt>
<pdfrwt beam="1">  1       -1 0.30226464E-01 0.70410169E+02</pdfrwt>
<totfact> 0.12329804E+02</totfact>
</mgrwt>
</event>
<event>
 5    1  0.7114032E-003  0.1764944E+03  0.7546771E-02  0.1380758E+00
         -3   -1    0    0    0  501 -0.00000000000E+00  0.00000000000E+00  0.67893820163E+02  0.67893820163E+02  0.00000000000E+00 0.  1.
          2   -1    0    0  502    0  0.00000000000E+00 -0.00000000000E+00 -0.12262787800E+04  0.12262787800E+04  0.00000000000E+00 0. -1.
         25    1    1    2    0    0 -0.35493271891E+02  0.15214677450E+03 -0.14159794171E+03  0.24511913519E+03  0.12500000000E+03 0.  0.
          2    1    1    2  502    0  0.42049830002E+02 -0.17460953042E+03 -0.10082862595E+04  0.10241571448E+04  0.00000000000E+00 0. -1.
         -3    1    1    2    0  501 -0.65565581109E+01  0.22462755922E+02 -0.85007586593E+01  0.24896320123E+02  0.00000000000E+00 0.  1.
<mgrwt>
<rscale>  0 0.64264955E+02</rscale>
<asrwt>0</asrwt>
<pdfrwt beam="2">  1        2 0.18865825E+00 0.17649444E+03</pdfrwt>
<pdfrwt beam="1">  1       -3 0.10445204E-01 0.23400082E+02</pdfrwt>
<totfact> 0.62570672E+02</totfact>
</mgrwt>
</event>
<event>
 5    1  0.7114032E-003  0.7691204E+02  0.7546771E-02  0.1357081E+00
          2   -1    0    0  501    0  0.00000000000E+00  0.00000000000E+00  0.42671217998E+02  0.42671217998E+02  0.00000000000E+00 0. -1.
          3   -1    0    0  502    0 -0.00000000000E+00 -0.00000000000E+00 -0.26491170825E+04  0.26491170825E+04  0.00000000000E+00 0. -1.
         25    1    1    2    0    0 -0.11135729758E+03  0.67539015778E+02 -0.72206080661E+03  0.74428406863E+03  0.12500000000E+03 0.  0.
          2    1    1    2  501    0  0.72581427785E+02 -0.14941471012E+02 -0.13310944102E+02  0.75289391340E+02  0.00000000000E+00 0. -1.
          3    1    1    2  502    0  0.38775869793E+02 -0.52597544766E+02 -0.18710741138E+04  0.18722148405E+04  0.00000000000E+00 0. -1.
<mgrwt>
<rscale>  0 0.70893417E+02</rscale>
<asrwt>0</asrwt>
<pdfrwt beam="1">  1        2 0.65648020E-02 0.76912041E+02</pdfrwt>
<pdfrwt beam="2">  1        3 0.40755652E+00 0.65345771E+02</pdfrwt>
<totfact> 0.88706882E+00</totfact>
</mgrwt>
</event>
<event>
 5    1  0.7114032E-003  0.2048098E+03  0.7546771E-02  0.1190686E+00
          1   -1    0    0  502    0  0.00000000000E+00  0.00000000000E+00  0.91501364953E+03  0.91501364953E+03  0.00000000000E+00 0. -1.
         -1   -1    0    0    0  501 -0.00000000000E+00 -0.00000000000E+00 -0.25472484465E+03  0.25472484465E+03  0.00000000000E+00 0.  1.
         25    1    1    2    0    0  0.10731991463E+03  0.54086148552E+02  0.23372042613E+03  0.29102081219E+03  0.12500000000E+03 0.  0.
          1    1    1    2  502    0  0.11703513180E+03 -0.35414054170E+02  0.58871122680E+03  0.60127554904E+03  0.00000000000E+00 0. -1.
         -1    1    1    2    0  501 -0.22435504643E+03 -0.18672094382E+02 -0.16214284805E+03  0.27744213296E+03  0.00000000000E+00 0.  1.
<mgrwt>
<rscale>  0 0.15825071E+03</rscale>
<asrwt>0</asrwt>
<pdfrwt beam="1">  1        1 0.14077133E+00 0.12227582E+03</pdfrwt>
<pdfrwt beam="2">  1       -1 0.39188438E-01 0.20480980E+03</pdfrwt>
<totfact> 0.12593714E+02</totfact>
</mgrwt>
</event>
<event>
 5    1  0.7114032E-003  0.5137898E+02  0.7546771E-02  0.1507546E+00
         -2   -1    0    0    0  501 -0.00000000000E+00  0.00000000000E+00  0.92088031425E+02  0.92088031425E+02  0.00000000000E+00 0.  1.
          1   -1    0    0  502    0  0.00000000000E+00 -0.00000000000E+00 -0.18205592298E+03  0.18205592298E+03  0.00000000000E+00 0. -1.
         25    1    1    2    0    0  0.27543559391E+02  0.69626447576E+02 -0.28899137992E+02  0.14854847708E+03  0.12500000000E+03 0.  0.
          1    1    1    2  502    0 -0.88848508452E+00 -0.31269708059E+02 -0.71227755310E+02  0.77794454650E+02  0.00000000000E+00 0. -1.
         -2    1    1    2    0  501 -0.26655074307E+02 -0.38356739517E+02  0.10159001744E+02  0.47801022679E+02  0.00000000000E+00 0.  1.
<mgrwt>
<rscale>  0 0.40090572E+02</rscale>
<asrwt>0</asrwt>
<pdfrwt beam="2">  1        1 0.28008603E-01 0.31282328E+02</pdfrwt>
<pdfrwt beam="1">  1       -2 0.14167390E-01 0.51378977E+02</pdfrwt>
<totfact> 0.47569550E+03</totfact>
</mgrwt>
</event>
<event>
 5    1  0.7114032E-003  0.1670719E+03  0.7546771E-02  0.1267908E+00
          1   -1    0    0  502    0  0.00000000000E+00  0.00000000000E+00  0.16465220938E+04  0.16465220938E+04  0.00000000000E+00 0. -1.
         -3   -1    0    0    0  501 -0.00000000000E+00 -0.00000000000E+00 -0.45099636159E+03  0.45099636159E+03  0.00000000000E+00 0.  1.
         25    1    1    2    0    0 -0.11251610677E+03 -0.99946838450E+02  0.96542876257E+02  0.21816226015E+03  0.12500000000E+03 0.  0.
          1    1    1    2  502    0  0.16082271865E+03  0.52918369444E+02  0.14813992131E+04  0.14910425645E+04  0.00000000000E+00 0. -1.
         -3    1    1    2    0  501 -0.48306611879E+02  0.47028469006E+02 -0.38241635710E+03  0.38831363075E+03  0.00000000000E+00 0.  1.
<mgrwt>
<rscale>  0 0.10613046E+03</rscale>
<asrwt>0</asrwt>
<pdfrwt beam="1">  1        1 0.25331109E+00 0.16707188E+03</pdfrwt>
<pdfrwt beam="2">  1       -3 0.69384056E-01 0.67418140E+02</pdfrwt>
<totfact> 0.64035889E+00</totfact>
</mgrwt>
</event>
<event>
 5    1  0.7114032E-003  0.1019049E+03  0.7546771E-02  0.1305575E+00
          1   -1    0    0  501    0  0.00000000000E+00  0.00000000000E+00  0.47062633037E+03  0.47062633037E+03  0.00000000000E+00 0. -1.
          1   -1    0    0  502    0 -0.00000000000E+00 -0.00000000000E+00 -0.23652312494E+03  0.23652312494E+03  0.00000000000E+00 0. -1.
         25    1    1    2    0    0 -0.36005709060E+01  0.67759419595E+02 -0.80980921126E+02  0.16366799516E+03  0.12500000000E+03 0.  0.
          1    1    1    2  501    0 -0.41598318917E+02  0.65423547712E+02  0.38053633791E+03  0.38835365996E+03  0.00000000000E+00 0. -1.
          1    1    1    2  502    0  0.45198889823E+02 -0.13318296731E+03 -0.65452211346E+02  0.15512780019E+03  0.00000000000E+00 0. -1.
<mgrwt>
<rscale>  0 0.88884928E+02</rscale>
<asrwt>0</asrwt>
<pdfrwt beam="1">  1        1 0.72404050E-01 0.77528451E+02</pdfrwt>
<pdfrwt beam="2">  1        1 0.36388173E-01 0.10190492E+03</pdfrwt>
<totfact> 0.70639414E+02</totfact>
</mgrwt>
</event>
<event>
 5    1  0.7114032E-003  0.1237382E+03  0.7546771E-02  0.1311264E+00
          2   -1    0    0  501    0  0.00000000000E+00  0.00000000000E+00  0.80230110519E+03  0.80230110519E+03  0.00000000000E+00 0. -1.
          2   -1    0    0  502    0 -0.00000000000E+00 -0.00000000000E+00 -0.26854015641E+04  0.26854015641E+04  0.00000000000E+00 0. -1.
         25    1    1    2    0    0  0.63653266066E+02  0.11654909674E+01  0.18665780432E+03  0.23349353859E+03  0.12500000000E+03 0.  0.
          2    1    1    2  501    0  0.60451207081E+02 -0.46307769387E+01  0.58922149868E+03  0.59233248015E+03  0.00000000000E+00 0. -1.
          2    1    1    2  502    0 -0.12410447315E+03  0.34652859713E+01 -0.26589797619E+04  0.26618766505E+04  0.00000000000E+00 0. -1.
<mgrwt>
<rscale>  0 0.86614299E+02</rscale>
<asrwt>0</asrwt>
<pdfrwt beam="1">  1        2 0.12343094E+00 0.60628315E+02</pdfrwt>
<pdfrwt beam="2">  1        2 0.41313871E+00 0.12373817E+03</pdfrwt>
<totfact> 0.20592938E+01</totfact>
</mgrwt>
</event>
<event>
 5    1  0.7114032E-003  0.1492322E+03  0.7546771E-02  0.1236576E+00
          2   -1    0    0  502    0  0.00000000000E+00  0.00000000000E+00  0.20136046909E+04  0.20136046909E+04  0.00000000000E+00 0. -1.
          2   -1    0    0  501    0 -0.00000000000E+00 -0.00000000000E+00 -0.19586017982E+03  0.19586017982E+03  0.00000000000E+00 0. -1.
         25    1    1    2    0    0 -0.17230597017E+03  0.61813139616E+02  0.30402244597E+03  0.37625105879E+03  0.12500000000E+03 0.  0.
          2    1    1    2  501    0  0.84868951789E+02  0.58542012245E+02 -0.13941496318E+03  0.17339676506E+03  0.00000000000E+00 0. -1.
          2    1    1    2  502    0  0.87437018382E+02 -0.12035515186E+03  0.16531370283E+04  0.16598170469E+04  0.00000000000E+00 0. -1.
<mgrwt>
<rscale>  0 0.12404052E+03</rscale>
<asrwt>0</asrwt>
<pdfrwt beam="1">  1        2 0.30978532E+00 0.14923217E+03</pdfrwt>
<pdfrwt beam="2">  1        2 0.30132337E-01 0.10310144E+03</pdfrwt>
<totfact> 0.20671413E+02</totfact>
</mgrwt>
</event>
<event>
 5    1  0.7114032E-003  0.1286983E+03  0.7546771E-02  0.1268793E+00
         -1   -1    0    0    0  501 -0.00000000000E+00  0.00000000000E+00  0.38213447852E+03  0.38213447852E+03  0.00000000000E+00 0.  1.
          2   -1    0    0  502    0  0.00000000000E+00 -0.00000000000E+00 -0.10180075164E+04  0.10180075164E+04  0.00000000000E+00 0. -1.
         25    1    1    2    0    0  0.56590378933E+02 -0.22487529669E+02 -0.13041077348E+03  0.19063087320E+03  0.12500000000E+03 0.  0.
          2    1    1    2  502    0  0.77065988934E+02  0.39878553384E+02 -0.84227409044E+03  0.84673201729E+03  0.00000000000E+00 0. -1.
         -1    1    1    2    0  501 -0.13365636787E+03 -0.17391023714E+02  0.33681182610E+03  0.36277910438E+03  0.00000000000E+00 0.  1.
<mgrwt>
<rscale>  0 0.10567626E+03</rscale>
<asrwt>0</asrwt>
<pdfrwt beam="2">  1        2 0.15661654E+00 0.86772494E+02</pdfrwt>
<pdfrwt beam="1">  1       -1 0.58789921E-01 0.12869830E+03</pdfrwt>
<totfact> 0.95763114E+01</totfact>
</mgrwt>
</event>
<event>
 5    1  0.7114032E-003  0.6282525E+02  0.7546771E-02  0.1526674E+00
          1   -1    0    0  502    0  0.00000000000E+00  0.00000000000E+00  0.35066850466E+03  0.35066850466E+03  0.00000000000E+00 0. -1.
         -2   -1    0    0    0  501 -0.00000000000E+00 -0.00000000000E+00 -0.68202605905E+02  0.68202605905E+02  0.00000000000E+00 0.  1.
         25    1    1    2    0    0  0.66612085185E+02  0.22656009650E+02  0.30352978076E+02  0.14661776135E+03  0.12500000000E+03 0.  0.
          1    1    1    2  502    0 -0.20174675481E+02  0.99618403729E+01  0.17537214071E+03  0.17680962511E+03  0.00000000000E+00 0. -1.
         -2    1    1    2    0  501 -0.46437409703E+02 -0.32617850023E+02  0.76740779969E+02  0.95443724101E+02  0.00000000000E+00 0.  1.
<mgrwt>
<rscale>  0 0.37597557E+02</rscale>
<asrwt>0</asrwt>
<pdfrwt beam="1">  1        1 0.53949000E-01 0.22500129E+02</pdfrwt>
<pdfrwt beam="2">  1       -2 0.10492709E-01 0.62825254E+02</pdfrwt>
<totfact> 0.35725641E+03</totfact>
</mgrwt>
</event>
<event>
 5    1  0.7114032E-003  0.9373463E+02  0.7546771E-02  0.1311725E+00
          2   -1    0    0  501    0  0.00000000000E+00  0.00000000000E+00  0.18481613020E+04  0.18481613020E+04  0.00000000000E+00 0. -1.
          1   -1    0    0  502    0 -0.00000000000E+00 -0.00000000000E+00 -0.23128201882E+03  0.23128201882E+03  0.00000000000E+00 0. -1.
         25    1    1    2    0    0 -0.28314758436E+02 -0.81229439443E+02  0.28272905542E+03  0.32087484500E+03  0.12500000000E+03 0.  0.
          2    1    1    2  501    0  0.91229633247E+02  0.32299826665E+02  0.15373000219E+04  0.15403433001E+04  0.00000000000E+00 0. -1.
          1    1    1    2  502    0 -0.62914874811E+02  0.48929612778E+02 -0.20314979412E+03  0.21822517575E+03  0.00000000000E+00 0. -1.
<mgrwt>
<rscale>  0 0.86433937E+02</rscale>
<asrwt>0</asrwt>
<pdfrwt beam="1">  1        2 0.28433250E+00 0.93734630E+02</pdfrwt>
<pdfrwt beam="2">  1        1 0.35581850E-01 0.79701872E+02</pdfrwt>
<totfact> 0.16292750E+02</totfact>
</mgrwt>
</event>
<event>
 5    1  0.7114032E-003  0.9591692E+02  0.7546771E-02  0.1338579E+00
          1   -1    0    0  501    0  0.00000000000E+00  0.00000000000E+00  0.83402519361E+03  0.83402519361E+03  0.00000000000E+00 0. -1.
          1   -1    0    0  502    0 -0.00000000000E+00 -0.00000000000E+00 -0.81176287717E+03  0.81176287717E+03  0.00000000000E+00 0. -1.
         25    1    1    2    0    0 -0.62730009355E+02  0.34634240587E+02 -0.29524740118E+03  0.32852794797E+03  0.12500000000E+03 0.  0.
          1    1    1    2  501    0  0.35329973813E+02 -0.89570818638E+02  0.81264707543E+03  0.81833147795E+03  0.00000000000E+00 0. -1.
          1    1    1    2  502    0  0.27400035542E+02  0.54936578051E+02 -0.49513735782E+03  0.49892864486E+03  0.00000000000E+00 0. -1.
<mgrwt>
<rscale>  0 0.76735811E+02</rscale>
<asrwt>0</asrwt>
<pdfrwt beam="1">  1        1 0.12831157E+00 0.95916922E+02</pdfrwt>
<pdfrwt beam="2">  1        1 0.12488660E+00 0.61390468E+02</pdfrwt>
<totfact> 0.66709996E+01</totfact>
</mgrwt>
</event>
<event>
 5    1  0.7114032E-003  0.9348842E+02  0.7546771E-02  0.1319111E+00
          1   -1    0    0  502    0 -0.00000000000E+00  0.00000000000E+00  0.20369712759E+03  0.20369712759E+03  0.00000000000E+00 0. -1.
          2   -1    0    0  501    0  0.00000000000E+00 -0.00000000000E+00 -0.12784477022E+04  0.12784477022E+04  0.00000000000E+00 0. -1.
         25    1    1    2    0    0 -0.13825307211E+03  0.48861658900E+02 -0.71889336965E+02  0.20565614610E+03  0.12500000000E+03 0.  0.
          2    1    1    2  501    0  0.49500878110E+02 -0.56042133219E+02 -0.11238120103E+04  0.11262968046E+04  0.00000000000E+00 0. -1.
          1    1    1    2  502    0  0.88752194001E+02  0.71804743188E+01  0.12095077262E+03  0.15019187910E+03  0.00000000000E+00 0. -1.
<mgrwt>
<rscale>  0 0.83608877E+02</rscale>
<asrwt>0</asrwt>
<pdfrwt beam="2">  1        2 0.19668426E+00 0.74773375E+02</pdfrwt>
<pdfrwt beam="1">  1        1 0.31338020E-01 0.93488415E+02</pdfrwt>
<totfact> 0.37880083E+02</totfact>
</mgrwt>
</event>
<event>
 5    1  0.7114032E-003  0.1833290E+03  0.7546771E-02  0.1356680E+00
         -2   -1    0    0    0  501 -0.00000000000E+00  0.00000000000E+00  0.51564151057E+03  0.51564151057E+03  0.00000000000E+00 0. -1.
          2   -1    0    0  502    0  0.00000000000E+00 -0.00000000000E+00 -0.11161416201E+04  0.11161416201E+04  0.00000000000E+00 0.  1.
         25    1    1    2    0    0 -0.50966494497E+02 -0.15428797177E+03 -0.41268589689E+03  0.46080040288E+03  0.12500000000E+03 0.  0.
          2    1    1    2  502    0  0.10547817822E+02 -0.25404736060E+02 -0.66185080533E+03  0.66242218078E+03  0.00000000000E+00 0.  1.
         -2    1    1    2    0  501  0.40418676675E+02  0.17969270783E+03  0.47403659274E+03  0.50856054696E+03  0.00000000000E+00 0. -1.
<mgrwt>
<rscale>  0 0.71013403E+02</rscale>
<asrwt>0</asrwt>
<pdfrwt beam="2">  1        2 0.17171409E+00 0.27507400E+02</pdfrwt>
<pdfrwt beam="1">  1       -2 0.79329464E-01 0.18332897E+03</pdfrwt>
<totfact> 0.38039582E+01</totfact>
</mgrwt>
</event>
<event>
 5    1  0.7114032E-003  0.5631908E+02  0.7546771E-02  0.1422362E+00
          1   -1    0    0  501    0  0.00000000000E+00  0.00000000000E+00  0.32293617910E+03  0.32293617910E+03  0.00000000000E+00 0.  1.
          1   -1    0    0  502    0 -0.00000000000E+00 -0.00000000000E+00 -0.22886878543E+03  0.22886878543E+03  0.00000000000E+00 0. -1.
         25    1    1    2    0    0 -0.63020787558E+02 -0.27547070955E+02  0.24529557874E+03  0.28376994509E+03  0.12500000000E+03 0.  0.
          1    1    1    2  501    0  0.45800645246E+02 -0.26243898611E+02  0.41534591219E+02  0.67168173915E+02  0.00000000000E+00 0.  1.
          1    1    1    2  502    0  0.17220142311E+02  0.53790969566E+02 -0.19276277630E+03  0.20086684553E+03  0.00000000000E+00 0. -1.
<mgrwt>
<rscale>  0 0.54524317E+02</rscale>
<asrwt>0</asrwt>
<pdfrwt beam="1">  1        1 0.49682489E-01 0.52786753E+02</pdfrwt>
<pdfrwt beam="2">  1        1 0.35210582E-01 0.56319076E+02</pdfrwt>
<totfact> 0.11620092E+03</totfact>
</mgrwt>
</event>
<event>
 5    1  0.7114032E-003  0.3934811E+02  0.7546771E-02  0.1592299E+00
          1   -1    0    0  502    0  0.00000000000E+00  0.00000000000E+00  0.20911649593E+04  0.20911649593E+04  0.00000000000E+00 0. -1.
         -2   -1    0    0    0  501 -0.00000000000E+00 -0.00000000000E+00 -0.66968161466E+01  0.66968161466E+01  0.00000000000E+00 0.  1.
         25    1    1    2    0    0  0.30600676980E+02  0.30553675293E+02  0.15471592909E+04  0.15528028851E+04  0.12500000000E+03 0.  0.
          1    1    1    2  502    0  0.80535053490E+01 -0.22277701788E+02  0.43080176664E+03  0.43145256643E+03  0.00000000000E+00 0. -1.
         -2    1    1    2    0  501 -0.38654182329E+02 -0.82759735050E+01  0.10650708554E+03  0.11360632385E+03  0.00000000000E+00 0.  1.
<mgrwt>
<rscale>  0 0.30530408E+02</rscale>
<asrwt>0</asrwt>
<pdfrwt beam="1">  1        1 0.32171717E+00 0.23688709E+02</pdfrwt>
<pdfrwt beam="2">  1       -2 0.10302811E-02 0.39348106E+02</pdfrwt>
<totfact> 0.53815559E+03</totfact>
</mgrwt>
</event>
<event>
 5    1  0.7114032E-003  0.7760496E+02  0.7546771E-02  0.1490784E+00
          1   -1    0    0  502    0  0.00000000000E+00  0.00000000000E+00  0.77560632717E+03  0.77560632717E+03  0.00000000000E+00 0. -1.
          1   -1    0    0  501    0 -0.00000000000E+00 -0.00000000000E+00 -0.67920472726E+02  0.67920472726E+02  0.00000000000E+00 0. -1.
         25    1    1    2    0    0 -0.68810154246E+02  0.22964716332E+01  0.12980768270E+03  0.19291227436E+03  0.12500000000E+03 0.  0.
          1    1    1    2  501    0 -0.56779293412E+01  0.22537880706E+02 -0.29852000522E+02  0.37833013143E+02  0.00000000000E+00 0. -1.
          1    1    1    2  502    0  0.74488083587E+02 -0.24834352339E+02  0.60773017227E+03  0.61278151240E+03  0.00000000000E+00 0. -1.
<mgrwt>
<rscale>  0 0.42470010E+02</rscale>
<asrwt>0</asrwt>
<pdfrwt beam="1">  1        1 0.11932404E+00 0.77604958E+02</pdfrwt>
<pdfrwt beam="2">  1        1 0.10449304E-01 0.23242094E+02</pdfrwt>
<totfact> 0.15657984E+03</totfact>
</mgrwt>
</event>
<event>
 5    1  0.7114032E-003  0.3504541E+02  0.7546771E-02  0.1591390E+00
         -1   -1    0    0    0  501  0.00000000000E+00  0.00000000000E+00  0.59364605759E+03  0.59364605759E+03  0.00000000000E+00 0.  1.
         -1   -1    0    0    0  502 -0.00000000000E+00 -0.00000000000E+00 -0.11462718227E+03  0.11462718227E+03  0.00000000000E+00 0.  1.
         25    1    1    2    0    0  0.40030750865E+02 -0.84449264813E+01  0.11018037852E+03  0.17157649492E+03  0.12500000000E+03 0.  0.
         -1    1    1    2    0  501 -0.30905300028E+02 -0.16694557653E+02  0.44993500346E+03  0.45130405844E+03  0.00000000000E+00 0.  1.
         -1    1    1    2    0  502 -0.91254508370E+01  0.25139484135E+02 -0.81096506661E+02  0.85392686503E+02  0.00000000000E+00 0.  1.
<mgrwt>
<rscale>  0 0.30614888E+02</rscale>
<asrwt>0</asrwt>
<pdfrwt beam="1">  1       -1 0.91330161E-01 0.35045405E+02</pdfrwt>
<pdfrwt beam="2">  1       -1 0.17634951E-01 0.26744486E+02</pdfrwt>
<totfact> 0.24987663E+02</totfact>
</mgrwt>
</event>
<event>
 5    1  0.8709892E-003  0.5507412E+03  0.7546771E-02  0.1001323E+00
          2   -1    0    0  502    0  0.00000000000E+00  0.00000000000E+00  0.81561537953E+03  0.81561537953E+03  0.00000000000E+00 0. -1.
         -1   -1    0    0    0  501 -0.00000000000E+00 -0.00000000000E+00 -0.92971488056E+02  0.92971488056E+02  0.00000000000E+00 0.  1.
         25    1    1    2    0    0 -0.13594062623E+03  0.86421394368E+02  0.46920076967E+02  0.20922477121E+03  0.12500000000E+03 0.  0.
          2    1    1    2  502    0  0.37104852832E+02 -0.65798935606E+02  0.36179315385E+03  0.36959512471E+03  0.00000000000E+00 0. -1.
         -1    1    1    2    0  501  0.98835773397E+02 -0.20622458761E+02  0.31393066066E+03  0.32976697168E+03  0.00000000000E+00 0.  1.
<mgrwt>
<rscale>  0 0.55074123E+03</rscale>
<asrwt>0</asrwt>
<pdfrwt beam="1">  1        2 0.12547928E+00 0.55074123E+03</pdfrwt>
<pdfrwt beam="2">  1       -1 0.14303306E-01 0.55074123E+03</pdfrwt>
<totfact> 0.13630169E+03</totfact>
</mgrwt>
</event>
<event>
 5    1  0.7114032E-003  0.5870002E+02  0.7546771E-02  0.1412299E+00
         -1   -1    0    0    0  501 -0.00000000000E+00  0.00000000000E+00  0.20229295380E+03  0.20229295380E+03  0.00000000000E+00 0.  1.
          2   -1    0    0  502    0  0.00000000000E+00 -0.00000000000E+00 -0.49865174261E+03  0.49865174261E+03  0.00000000000E+00 0.  1.
         25    1    1    2    0    0 -0.29679646756E+02  0.33774500351E+02  0.58460255402E+02  0.14513510866E+03  0.12500000000E+03 0.  0.
          2    1    1    2  502    0 -0.36505276440E+02 -0.40786127927E+02 -0.44242016653E+03  0.44579339070E+03  0.00000000000E+00 0.  1.
         -1    1    1    2    0  501  0.66184923196E+02  0.70116275765E+01  0.87601122324E+02  0.11001619705E+03  0.00000000000E+00 0.  1.
<mgrwt>
<rscale>  0 0.56683908E+02</rscale>
<asrwt>0</asrwt>
<pdfrwt beam="2">  1        2 0.76715653E-01 0.54737039E+02</pdfrwt>
<pdfrwt beam="1">  1       -1 0.31121993E-01 0.58700023E+02</pdfrwt>
<totfact> 0.68542820E+02</totfact>
</mgrwt>
</event>
<event>
 5    1  0.7114032E-003  0.4239952E+02  0.7546771E-02  0.1556899E+00
          2   -1    0    0  502    0  0.00000000000E+00  0.00000000000E+00  0.19171459024E+04  0.19171459024E+04  0.00000000000E+00 0. -1.
         -1   -1    0    0    0  501 -0.00000000000E+00 -0.00000000000E+00 -0.64679317920E+01  0.64679317920E+01  0.00000000000E+00 0.  1.
         25    1    1    2    0    0  0.87190475835E+01  0.17171380732E+02  0.14993770850E+04  0.15047018047E+04  0.12500000000E+03 0.  0.
          2    1    1    2  502    0 -0.17159893069E+01  0.27343660219E+02  0.24796626529E+03  0.24947522742E+03  0.00000000000E+00 0. -1.
         -1    1    1    2    0  501 -0.70030582766E+01 -0.44515040951E+02  0.16333462037E+03  0.16943680210E+03  0.00000000000E+00 0.  1.
<mgrwt>
<rscale>  0 0.34082823E+02</rscale>
<asrwt>0</asrwt>
<pdfrwt beam="1">  1        2 0.29494507E+00 0.27397452E+02</pdfrwt>
<pdfrwt beam="2">  1       -1 0.99506796E-03 0.42399521E+02</pdfrwt>
<totfact> 0.16893032E+04</totfact>
</mgrwt>
</event>
<event>
 5    1  0.7114032E-003  0.8588552E+02  0.7546771E-02  0.1336730E+00
          1   -1    0    0  502    0  0.00000000000E+00  0.00000000000E+00  0.38816570873E+02  0.38816570873E+02  0.00000000000E+00 0. -1.
         -2   -1    0    0    0  501 -0.00000000000E+00 -0.00000000000E+00 -0.78882691776E+03  0.78882691776E+03  0.00000000000E+00 0.  1.
         25    1    1    2    0    0  0.13971198964E+03  0.85925568063E+00 -0.35359713824E+03  0.40022008263E+03  0.12500000000E+03 0.  0.
          1    1    1    2  502    0 -0.70328623555E+02  0.54700441804E+01 -0.96557728549E+02  0.11958023088E+03  0.00000000000E+00 0. -1.
         -2    1    1    2    0  501 -0.69383366082E+02 -0.63292998610E+01 -0.29985548010E+03  0.30784317512E+03  0.00000000000E+00 0.  1.
<mgrwt>
<rscale>  0 0.77354827E+02</rscale>
<asrwt>0</asrwt>
<pdfrwt beam="1">  1        1 0.59717805E-02 0.85885523E+02</pdfrwt>
<pdfrwt beam="2">  1       -2 0.12135798E+00 0.69671454E+02</pdfrwt>
<totfact> 0.59509206E+02</totfact>
</mgrwt>
</event>
<event>
 5    1  0.7114032E-003  0.6019844E+02  0.7546771E-02  0.1402360E+00
          1   -1    0    0  502    0  0.00000000000E+00  0.00000000000E+00  0.43959049343E+02  0.43959049343E+02  0.00000000000E+00 0. -1.
         -2   -1    0    0    0  501 -0.00000000000E+00 -0.00000000000E+00 -0.11200868557E+04  0.11200868557E+04  0.00000000000E+00 0.  1.
         25    1    1    2    0    0  0.99436435579E+02  0.20869683255E+01 -0.39767758692E+03  0.42856087467E+03  0.12500000000E+03 0.  0.
          1    1    1    2  502    0 -0.49379888754E+02 -0.30778559064E+02 -0.37339523173E+01  0.58306393400E+02  0.00000000000E+00 0. -1.
         -2    1    1    2    0  501 -0.50056546824E+02  0.28691590739E+02 -0.67471626714E+03  0.67717863699E+03  0.00000000000E+00 0.  1.
<mgrwt>
<rscale>  0 0.58934101E+02</rscale>
<asrwt>0</asrwt>
<pdfrwt beam="1">  1        1 0.67629309E-02 0.60198438E+02</pdfrwt>
<pdfrwt beam="2">  1       -2 0.17232105E+00 0.57696319E+02</pdfrwt>
<totfact> 0.20610738E+02</totfact>
</mgrwt>
</event>
<event>
 5    1  0.7114032E-003  0.4901191E+02  0.7546771E-02  0.1462550E+00
          2   -1    0    0  501    0  0.00000000000E+00  0.00000000000E+00  0.84061614190E+03  0.84061614190E+03  0.00000000000E+00 0. -1.
          2   -1    0    0  502    0 -0.00000000000E+00 -0.00000000000E+00 -0.38476951642E+02  0.38476951642E+02  0.00000000000E+00 0.  1.
         25    1    1    2    0    0  0.62387233049E+01 -0.14272614340E+02  0.16921974097E+03  0.21095722297E+03  0.12500000000E+03 0.  0.
          2    1    1    2  501    0  0.47320893056E+02  0.12763237918E+02  0.60635273621E+03  0.60833034436E+03  0.00000000000E+00 0. -1.
          2    1    1    2  502    0 -0.53559616360E+02  0.15093764215E+01  0.26566713077E+02  0.59805526213E+02  0.00000000000E+00 0.  1.
<mgrwt>
<rscale>  0 0.46945461E+02</rscale>
<asrwt>0</asrwt>
<pdfrwt beam="1">  1        2 0.12932555E+00 0.49011908E+02</pdfrwt>
<pdfrwt beam="2">  1        2 0.59195316E-02 0.44966139E+02</pdfrwt>
<totfact> 0.59457999E+03</totfact>
</mgrwt>
</event>
<event>
 5    1  0.7114032E-003  0.5201936E+02  0.7546771E-02  0.1474080E+00
         -3   -1    0    0    0  501 -0.00000000000E+00  0.00000000000E+00  0.10933109605E+02  0.10933109605E+02  0.00000000000E+00 0.  1.
          2   -1    0    0  502    0  0.00000000000E+00 -0.00000000000E+00 -0.15039599819E+04  0.15039599819E+04  0.00000000000E+00 0. -1.
         25    1    1    2    0    0  0.28813770602E+01 -0.26632583392E+02 -0.74056809366E+03  0.75152092331E+03  0.12500000000E+03 0.  0.
          2    1    1    2  502    0 -0.36667710497E+02  0.46113875082E+02 -0.66508421307E+03  0.66768856583E+03  0.00000000000E+00 0. -1.
         -3    1    1    2    0  501  0.33786333436E+02 -0.19481291689E+02 -0.87374565586E+02  0.95683602379E+02  0.00000000000E+00 0.  1.
<mgrwt>
<rscale>  0 0.45041976E+02</rscale>
<asrwt>0</asrwt>
<pdfrwt beam="2">  1        2 0.23137836E+00 0.52019357E+02</pdfrwt>
<pdfrwt beam="1">  1       -3 0.16820176E-02 0.39000475E+02</pdfrwt>
<totfact> 0.87079434E+03</totfact>
</mgrwt>
</event>
<event>
 5    1  0.7114032E-003  0.6570434E+02  0.7546771E-02  0.1512805E+00
          1   -1    0    0  502    0  0.00000000000E+00  0.00000000000E+00  0.19289737820E+03  0.19289737820E+03  0.00000000000E+00 0. -1.
          1   -1    0    0  501    0 -0.00000000000E+00 -0.00000000000E+00 -0.37794607900E+03  0.37794607900E+03  0.00000000000E+00 0. -1.
         25    1    1    2    0    0 -0.45218035333E+02 -0.65801298837E+02  0.87194351025E+02  0.17205329552E+03  0.12500000000E+03 0.  0.
          1    1    1    2  501    0  0.21670946060E+02  0.93589913787E+01 -0.32020207547E+03  0.32107100424E+03  0.00000000000E+00 0. -1.
          1    1    1    2  502    0  0.23547089273E+02  0.56442307458E+02  0.47959023648E+02  0.77719157443E+02  0.00000000000E+00 0. -1.
<mgrwt>
<rscale>  0 0.39382550E+02</rscale>
<asrwt>0</asrwt>
<pdfrwt beam="1">  1        1 0.29676520E-01 0.65704343E+02</pdfrwt>
<pdfrwt beam="2">  1        1 0.58145550E-01 0.23605521E+02</pdfrwt>
<totfact> 0.11899597E+03</totfact>
</mgrwt>
</event>
<event>
 5    1  0.7114033E-003  0.1006395E+03  0.7546771E-02  0.1407939E+00
         -1   -1    0    0    0  501 -0.00000000000E+00  0.00000000000E+00  0.88165134346E+01  0.88165134346E+01  0.00000000000E+00 0.  1.
          2   -1    0    0  502    0  0.00000000000E+00 -0.00000000000E+00 -0.25391669580E+04  0.25391669580E+04  0.00000000000E+00 0. -1.
         25    1    1    2    0    0 -0.95518207490E+02  0.47679977762E+02 -0.14835503317E+04  0.14926297916E+04  0.12500000000E+03 0.  0.
          2    1    1    2  502    0  0.70471936466E+02 -0.69214900126E+02 -0.86017607713E+03  0.86582901309E+03  0.00000000000E+00 0. -1.
         -1    1    1    2    0  501  0.25046271024E+02  0.21534922364E+02 -0.18662403575E+03  0.18952466672E+03  0.00000000000E+00 0.  1.
<mgrwt>
<rscale>  0 0.57656363E+02</rscale>
<asrwt>0</asrwt>
<pdfrwt beam="2">  1        2 0.39064107E+00 0.10063950E+03</pdfrwt>
<pdfrwt beam="1">  1       -1 0.13563867E-02 0.33031327E+02</pdfrwt>
<totfact> 0.43485779E+03</totfact>
</mgrwt>
</event>
<event>
 5    1  0.7114032E-003  0.9423247E+02  0.7546771E-02  0.1308579E+00
          2   -1    0    0  501    0  0.00000000000E+00  0.00000000000E+00  0.12019061853E+03  0.12019061853E+03  0.00000000000E+00 0. -1.
          1   -1    0    0  502    0 -0.00000000000E+00 -0.00000000000E+00 -0.19130610575E+04  0.19130610575E+04  0.00000000000E+00 0. -1.
         25    1    1    2    0    0  0.11182445170E+03  0.78510720508E+01 -0.15277947321E+04  0.15369931980E+04  0.12500000000E+03 0.  0.
          2    1    1    2  501    0 -0.54094248995E+02  0.61061077475E+02  0.94949011231E+02  0.12517970159E+03  0.00000000000E+00 0. -1.
          1    1    1    2  502    0 -0.57730202707E+02 -0.68912149525E+02 -0.36002471811E+03  0.37107877642E+03  0.00000000000E+00 0. -1.
<mgrwt>
<rscale>  0 0.87676153E+02</rscale>
<asrwt>0</asrwt>
<pdfrwt beam="1">  1        2 0.18490865E-01 0.81575995E+02</pdfrwt>
<pdfrwt beam="2">  1        1 0.29431708E+00 0.94232473E+02</pdfrwt>
<totfact> 0.17168549E+02</totfact>
</mgrwt>
</event>
<event>
 5    1  0.7114032E-003  0.2434301E+03  0.7546771E-02  0.1282211E+00
          2   -1    0    0  502    0  0.00000000000E+00  0.00000000000E+00  0.30860295543E+04  0.30860295543E+04  0.00000000000E+00 0. -1.
         -2   -1    0    0    0  501 -0.00000000000E+00 -0.00000000000E+00 -0.12330377889E+03  0.12330377889E+03  0.00000000000E+00 0.  1.
         25    1    1    2    0    0 -0.15689224188E+03  0.17903571495E+03  0.27178618011E+03  0.38231098662E+03  0.12500000000E+03 0.  0.
          2    1    1    2  502    0 -0.34597783731E+02 -0.20742252454E+02  0.25314903342E+04  0.25318117149E+04  0.00000000000E+00 0. -1.
         -2    1    1    2    0  501  0.19149002561E+03 -0.15829346250E+03  0.15944926111E+03  0.29521063166E+03  0.00000000000E+00 0.  1.
<mgrwt>
<rscale>  0 0.99094726E+02</rscale>
<asrwt>0</asrwt>
<pdfrwt beam="1">  1        2 0.47477372E+00 0.40339158E+02</pdfrwt>
<pdfrwt beam="2">  1       -2 0.18969814E-01 0.24343008E+03</pdfrwt>
<totfact> 0.58670948E+01</totfact>
</mgrwt>
</event>
<event>
 5    1  0.7114032E-003  0.8609254E+02  0.7546771E-02  0.1464867E+00
          2   -1    0    0  501    0  0.00000000000E+00  0.00000000000E+00  0.28606827041E+04  0.28606827041E+04  0.00000000000E+00 0. -1.
          1   -1    0    0  502    0 -0.00000000000E+00 -0.00000000000E+00 -0.30312846327E+03  0.30312846327E+03  0.00000000000E+00 0. -1.
         25    1    1    2    0    0 -0.69913700357E+02  0.24622306876E+02 -0.15417677140E+03  0.21187180164E+03  0.12500000000E+03 0.  0.
          2    1    1    2  501    0  0.70297121366E+02 -0.49793274282E+02  0.28298533837E+04  0.28311642886E+04  0.00000000000E+00 0. -1.
          1    1    1    2  502    0 -0.38342100938E+00  0.25170967405E+02 -0.11812237151E+03  0.12077507716E+03  0.00000000000E+00 0. -1.
<mgrwt>
<rscale>  0 0.46554098E+02</rscale>
<asrwt>0</asrwt>
<pdfrwt beam="1">  1        2 0.44010501E+00 0.86092544E+02</pdfrwt>
<pdfrwt beam="2">  1        1 0.46635150E-01 0.25173887E+02</pdfrwt>
<totfact> 0.35098713E+01</totfact>
</mgrwt>
</event>
<event>
 5    1  0.7114032E-003  0.6079323E+02  0.7546771E-02  0.1448330E+00
         -1   -1    0    0    0  501 -0.00000000000E+00  0.00000000000E+00  0.70841065127E+03  0.70841065127E+03  0.00000000000E+00 0.  1.
          1   -1    0    0  502    0  0.00000000000E+00 -0.00000000000E+00 -0.24400545326E+02  0.24400545326E+02  0.00000000000E+00 0. -1.
         25    1    1    2    0    0  0.26604963936E+02 -0.67734156167E+02  0.26570924074E+03  0.30252626437E+03  0.12500000000E+03 0.  0.
          1    1    1    2  502    0 -0.39283431779E+02  0.86459937331E+01  0.15447391064E+03  0.15962496763E+03  0.00000000000E+00 0. -1.
         -1    1    1    2    0  501  0.12678467843E+02  0.59088162434E+02  0.26382695456E+03  0.27065996460E+03  0.00000000000E+00 0.  1.
<mgrwt>
<rscale>  0 0.49450227E+02</rscale>
<asrwt>0</asrwt>
<pdfrwt beam="2">  1        1 0.37539306E-02 0.40223640E+02</pdfrwt>
<pdfrwt beam="1">  1       -1 0.10898624E+00 0.60793228E+02</pdfrwt>
<totfact> 0.18140307E+03</totfact>
</mgrwt>
</event>
<event>
 5    1  0.7114032E-003  0.6268083E+02  0.7546771E-02  0.1455477E+00
          2   -1    0    0  501    0  0.00000000000E+00  0.00000000000E+00  0.91611628457E+03  0.91611628457E+03  0.00000000000E+00 0. -1.
          1   -1    0    0  502    0 -0.00000000000E+00 -0.00000000000E+00 -0.17695516127E+04  0.17695516127E+04  0.00000000000E+00 0. -1.
         25    1    1    2    0    0  0.57844900455E+02  0.74301274572E+02  0.10804631570E+03  0.19017286412E+03  0.12500000000E+03 0.  0.
          2    1    1    2  501    0 -0.32932241026E+02 -0.16902031880E+02  0.76599331662E+03  0.76688719658E+03  0.00000000000E+00 0. -1.
          1    1    1    2  502    0 -0.24912659429E+02 -0.57399242692E+02 -0.17274749605E+04  0.17286078366E+04  0.00000000000E+00 0. -1.
<mgrwt>
<rscale>  0 0.48168623E+02</rscale>
<asrwt>0</asrwt>
<pdfrwt beam="1">  1        2 0.14094097E+00 0.37016364E+02</pdfrwt>
<pdfrwt beam="2">  1        1 0.27223871E+00 0.62680827E+02</pdfrwt>
<totfact> 0.24933061E+01</totfact>
</mgrwt>
</event>
<event>
 5    1  0.7114032E-003  0.4087988E+02  0.7546771E-02  0.1579746E+00
          2   -1    0    0  502    0  0.00000000000E+00  0.00000000000E+00  0.13031878832E+03  0.13031878832E+03  0.00000000000E+00 0. -1.
         -1   -1    0    0    0  501 -0.00000000000E+00 -0.00000000000E+00 -0.85604045073E+02  0.85604045073E+02  0.00000000000E+00 0.  1.
         25    1    1    2    0    0 -0.25101585872E+02 -0.57277438560E+01  0.25627366983E+02  0.13017165053E+03  0.12500000000E+03 0.  0.
          2    1    1    2  502    0 -0.94635962036E+01 -0.22732402800E+02  0.30836074979E+02  0.39461187391E+02  0.00000000000E+00 0. -1.
         -1    1    1    2    0  501  0.34565182076E+02  0.28460146656E+02 -0.11748698713E+02  0.46289995475E+02  0.00000000000E+00 0.  1.
<mgrwt>
<rscale>  0 0.31727116E+02</rscale>
<asrwt>0</asrwt>
<pdfrwt beam="1">  1        2 0.20049044E-01 0.24623602E+02</pdfrwt>
<pdfrwt beam="2">  1       -1 0.13169853E-01 0.40879880E+02</pdfrwt>
<totfact> 0.10110812E+04</totfact>
</mgrwt>
</event>
<event>
 5    1  0.7114032E-003  0.5703636E+02  0.7546771E-02  0.1506733E+00
          2   -1    0    0  502    0  0.00000000000E+00  0.00000000000E+00  0.38593355007E+03  0.38593355007E+03  0.00000000000E+00 0. -1.
         -1   -1    0    0    0  501 -0.00000000000E+00 -0.00000000000E+00 -0.34952454650E+02  0.34952454650E+02  0.00000000000E+00 0.  1.
         25    1    1    2    0    0  0.24838659769E+02  0.40642236574E+02  0.16602708886E+03  0.21321056411E+03  0.12500000000E+03 0.  0.
          2    1    1    2  502    0 -0.15927422915E+02  0.23435691992E+02  0.73976745479E+02  0.79217885175E+02  0.00000000000E+00 0. -1.
         -1    1    1    2    0  501 -0.89112368545E+01 -0.64077928566E+02  0.11097726108E+03  0.12845755544E+03  0.00000000000E+00 0.  1.
<mgrwt>
<rscale>  0 0.40201588E+02</rscale>
<asrwt>0</asrwt>
<pdfrwt beam="1">  1        2 0.59374389E-01 0.28335745E+02</pdfrwt>
<pdfrwt beam="2">  1       -1 0.53773010E-02 0.57036356E+02</pdfrwt>
<totfact> 0.12969174E+04</totfact>
</mgrwt>
</event>
<event>
 5    1  0.7114032E-003  0.9470713E+02  0.7546771E-02  0.1437851E+00
         -1   -1    0    0    0  501 -0.00000000000E+00  0.00000000000E+00  0.88450810433E+01  0.88450810433E+01  0.00000000000E+00 0.  1.
          2   -1    0    0  502    0  0.00000000000E+00 -0.00000000000E+00 -0.27594866321E+04  0.27594866321E+04  0.00000000000E+00 0. -1.
         25    1    1    2    0    0 -0.94068441890E+02 -0.55732674379E+02 -0.11272250392E+04  0.11393929488E+04  0.12500000000E+03 0.  0.
          2    1    1    2  502    0  0.87157489636E+02  0.28688464590E+02 -0.14793562218E+04  0.14821991388E+04  0.00000000000E+00 0. -1.
         -1    1    1    2    0  501  0.69109522546E+01  0.27044209788E+02 -0.14406029003E+03  0.14673962556E+03  0.00000000000E+00 0.  1.
<mgrwt>
<rscale>  0 0.51415810E+02</rscale>
<asrwt>0</asrwt>
<pdfrwt beam="2">  1        2 0.42453693E+00 0.94707129E+02</pdfrwt>
<pdfrwt beam="1">  1       -1 0.13607800E-02 0.27913268E+02</pdfrwt>
<totfact> 0.32152527E+03</totfact>
</mgrwt>
</event>
<event>
 5    1  0.7114032E-003  0.7215410E+02  0.7546771E-02  0.1425809E+00
          2   -1    0    0  502    0  0.00000000000E+00  0.00000000000E+00  0.20446051822E+03  0.20446051822E+03  0.00000000000E+00 0. -1.
         -1   -1    0    0    0  501 -0.00000000000E+00 -0.00000000000E+00 -0.89913293429E+02  0.89913293429E+02  0.00000000000E+00 0.  1.
         25    1    1    2    0    0 -0.10984122707E+01 -0.85119465701E+02  0.81412039806E+02  0.17175403977E+03  0.12500000000E+03 0.  0.
          2    1    1    2  502    0 -0.32780232469E+02  0.23149920365E+02  0.33059319015E+02  0.51994047999E+02  0.00000000000E+00 0. -1.
         -1    1    1    2    0  501  0.33878644739E+02  0.61969545336E+02  0.75865972018E-01  0.70625723885E+02  0.00000000000E+00 0.  1.
<mgrwt>
<rscale>  0 0.53810642E+02</rscale>
<asrwt>0</asrwt>
<pdfrwt beam="1">  1        2 0.31455464E-01 0.40130568E+02</pdfrwt>
<pdfrwt beam="2">  1       -1 0.13832814E-01 0.72154105E+02</pdfrwt>
<totfact> 0.62091078E+03</totfact>
</mgrwt>
</event>
<event>
 5    1  0.7114032E-003  0.9070312E+02  0.7546771E-02  0.1489479E+00
          1   -1    0    0  501    0  0.00000000000E+00  0.00000000000E+00  0.42929525161E+03  0.42929525161E+03  0.00000000000E+00 0. -1.
          1   -1    0    0  502    0 -0.00000000000E+00 -0.00000000000E+00 -0.96928648200E+03  0.96928648200E+03  0.00000000000E+00 0. -1.
         25    1    1    2    0    0  0.73063762450E+02 -0.24672289928E+02 -0.15778699496E+03  0.21556616398E+03  0.12500000000E+03 0.  0.
          1    1    1    2  501    0  0.83905058692E+01 -0.18228933491E+02  0.39744426234E+03  0.39795054501E+03  0.00000000000E+00 0. -1.
          1    1    1    2  502    0 -0.81454268319E+02  0.42901223420E+02 -0.77964849778E+03  0.78506502462E+03  0.00000000000E+00 0. -1.
<mgrwt>
<rscale>  0 0.42663362E+02</rscale>
<asrwt>0</asrwt>
<pdfrwt beam="1">  1        1 0.66045423E-01 0.20067252E+02</pdfrwt>
<pdfrwt beam="2">  1        1 0.14912100E+00 0.90703122E+02</pdfrwt>
<totfact> 0.12455742E+02</totfact>
</mgrwt>
</event>
<event>
 5    1  0.7114032E-003  0.1603310E+03  0.7546771E-02  0.1242442E+00
         -3   -1    0    0    0  501 -0.00000000000E+00  0.00000000000E+00  0.75750842094E+03  0.75750842094E+03  0.00000000000E+00 0.  1.
          2   -1    0    0  502    0  0.00000000000E+00 -0.00000000000E+00 -0.14925564601E+04  0.14925564601E+04  0.00000000000E+00 0. -1.
         25    1    1    2    0    0 -0.10428249608E+03  0.19112514339E+03 -0.11336306858E+03  0.27546296438E+03  0.12500000000E+03 0.  0.
          2    1    1    2  502    0  0.83683835914E+02 -0.34221821982E+02 -0.12872810037E+04  0.12904520526E+04  0.00000000000E+00 0. -1.
         -3    1    1    2    0  501  0.20598660169E+02 -0.15690332141E+03  0.66559603318E+03  0.68414986403E+03  0.00000000000E+00 0.  1.
<mgrwt>
<rscale>  0 0.12039792E+03</rscale>
<asrwt>0</asrwt>
<pdfrwt beam="2">  1        2 0.22962407E+00 0.90410826E+02</pdfrwt>
<pdfrwt beam="1">  1       -3 0.11653976E+00 0.16033100E+03</pdfrwt>
<totfact> 0.58906363E+00</totfact>
</mgrwt>
</event>
<event>
 5    1  0.7114032E-003  0.3944450E+02  0.7546771E-02  0.1588723E+00
          1   -1    0    0  502    0  0.00000000000E+00  0.00000000000E+00  0.78740906845E+02  0.78740906845E+02  0.00000000000E+00 0. -1.
         -2   -1    0    0    0  501 -0.00000000000E+00 -0.00000000000E+00 -0.18366285628E+03  0.18366285628E+03  0.00000000000E+00 0.  1.
         25    1    1    2    0    0  0.24975392788E+02  0.50216756377E+02 -0.31301533130E+02  0.14053568530E+03  0.12500000000E+03 0.  0.
          1    1    1    2  502    0 -0.26098676378E+02 -0.26091777221E+02  0.71271447439E+01  0.37586140257E+02  0.00000000000E+00 0. -1.
         -2    1    1    2    0  501  0.11232835902E+01 -0.24124979157E+02 -0.80747561052E+02  0.84281937574E+02  0.00000000000E+00 0.  1.
<mgrwt>
<rscale>  0 0.30864684E+02</rscale>
<asrwt>0</asrwt>
<pdfrwt beam="1">  1        1 0.12113986E-01 0.39444502E+02</pdfrwt>
<pdfrwt beam="2">  1       -2 0.28255824E-01 0.24151116E+02</pdfrwt>
<totfact> 0.41460845E+03</totfact>
</mgrwt>
</event>
<event>
 5    1  0.7114032E-003  0.1216614E+03  0.7546771E-02  0.1304327E+00
          2   -1    0    0  501    0  0.00000000000E+00  0.00000000000E+00  0.32136958348E+04  0.32136958348E+04  0.00000000000E+00 0. -1.
          1   -1    0    0  502    0 -0.00000000000E+00 -0.00000000000E+00 -0.89174935935E+03  0.89174935935E+03  0.00000000000E+00 0. -1.
         25    1    1    2    0    0 -0.15949244529E+03 -0.27157619589E+02  0.31167454154E+03  0.37274843561E+03  0.12500000000E+03 0.  0.
          2    1    1    2  501    0  0.10352016230E+03  0.61530173143E+02  0.28689669224E+04  0.28714932679E+04  0.00000000000E+00 0. -1.
          1    1    1    2  502    0  0.55972282986E+02 -0.34372553554E+02 -0.85869498849E+03  0.86120349056E+03  0.00000000000E+00 0. -1.
<mgrwt>
<rscale>  0 0.89393453E+02</rscale>
<asrwt>0</asrwt>
<pdfrwt beam="1">  1        2 0.49441474E+00 0.12166139E+03</pdfrwt>
<pdfrwt beam="2">  1        1 0.13719221E+00 0.65683856E+02</pdfrwt>
<totfact> 0.50890980E+00</totfact>
</mgrwt>
</event>
<event>
 5    1  0.7114032E-003  0.1257826E+03  0.7546771E-02  0.1340502E+00
          1   -1    0    0  502    0  0.00000000000E+00  0.00000000000E+00  0.12134569587E+04  0.12134569587E+04  0.00000000000E+00 0. -1.
          1   -1    0    0  501    0 -0.00000000000E+00 -0.00000000000E+00 -0.83231630246E+03  0.83231630246E+03  0.00000000000E+00 0. -1.
         25    1    1    2    0    0 -0.98571121284E+02 -0.10699391251E+03  0.50836057607E+03  0.54334099659E+03  0.12500000000E+03 0.  0.
          1    1    1    2  501    0 -0.59393280522E+01  0.45655135138E+02 -0.80882723559E+03  0.81013650949E+03  0.00000000000E+00 0. -1.
          1    1    1    2  502    0  0.10451044934E+03  0.61338777373E+02  0.68160731577E+03  0.69229575511E+03  0.00000000000E+00 0. -1.
<mgrwt>
<rscale>  0 0.76098705E+02</rscale>
<asrwt>0</asrwt>
<pdfrwt beam="1">  1        1 0.18668569E+00 0.12578264E+03</pdfrwt>
<pdfrwt beam="2">  1        1 0.12804866E+00 0.46039841E+02</pdfrwt>
<totfact> 0.34102195E+01</totfact>
</mgrwt>
</event>
<event>
 5    1  0.7114032E-003  0.1249451E+03  0.7546771E-02  0.1373516E+00
          2   -1    0    0  501    0  0.00000000000E+00  0.00000000000E+00  0.17549762748E+04  0.17549762748E+04  0.00000000000E+00 0. -1.
          2   -1    0    0  502    0 -0.00000000000E+00 -0.00000000000E+00 -0.76373765820E+03  0.76373765820E+03  0.00000000000E+00 0. -1.
         25    1    1    2    0    0 -0.13938645214E+03  0.71829921476E+02 -0.33103640760E+01  0.20055941556E+03  0.12500000000E+03 0.  0.
          2    1    1    2  501    0  0.34174638308E+02 -0.78928090386E+01  0.16504379829E+04  0.16508106305E+04  0.00000000000E+00 0. -1.
          2    1    1    2  502    0  0.10521181383E+03 -0.63937112438E+02 -0.65588900226E+03  0.66734388691E+03  0.00000000000E+00 0. -1.
<mgrwt>
<rscale>  0 0.66199349E+02</rscale>
<asrwt>0</asrwt>
<pdfrwt beam="1">  1        2 0.26999635E+00 0.35074240E+02</pdfrwt>
<pdfrwt beam="2">  1        2 0.11749810E+00 0.12494508E+03</pdfrwt>
<totfact> 0.73602273E+01</totfact>
</mgrwt>
</event>
<event>
 5    1  0.7114032E-003  0.7999690E+02  0.7546771E-02  0.1407112E+00
          1   -1    0    0  502    0  0.00000000000E+00  0.00000000000E+00  0.13397903864E+04  0.13397903864E+04  0.00000000000E+00 0. -1.
         -2   -1    0    0    0  501 -0.00000000000E+00 -0.00000000000E+00 -0.77297970706E+02  0.77297970706E+02  0.00000000000E+00 0.  1.
         25    1    1    2    0    0  0.69651224692E+02 -0.36080125232E+02  0.51966306093E+03  0.54021085275E+03  0.12500000000E+03 0.  0.
          1    1    1    2  502    0 -0.26791369289E+02 -0.32117307943E+02  0.78489420572E+03  0.78600776912E+03  0.00000000000E+00 0. -1.
         -2    1    1    2    0  501 -0.42859855403E+02  0.68197433175E+02 -0.42064850952E+02  0.90869735240E+02  0.00000000000E+00 0.  1.
<mgrwt>
<rscale>  0 0.57843236E+02</rscale>
<asrwt>0</asrwt>
<pdfrwt beam="1">  1        1 0.20612158E+00 0.41824621E+02</pdfrwt>
<pdfrwt beam="2">  1       -2 0.11891996E-01 0.79996899E+02</pdfrwt>
<totfact> 0.44615285E+02</totfact>
</mgrwt>
</event>
<event>
 5    1  0.7114032E-003  0.9662177E+02  0.7546771E-02  0.1414244E+00
          2   -1    0    0  502    0  0.00000000000E+00  0.00000000000E+00  0.75273433919E+02  0.75273433919E+02  0.00000000000E+00 0. -1.
         -1   -1    0    0    0  501 -0.00000000000E+00 -0.00000000000E+00 -0.45376036033E+03  0.45376036033E+03  0.00000000000E+00 0.  1.
         25    1    1    2    0    0 -0.87499737783E+02 -0.77310418292E+02 -0.34312145251E+03  0.38339331771E+03  0.12500000000E+03 0.  0.
          2    1    1    2  502    0  0.54746094165E+02  0.76951499229E+02  0.38840203317E+01  0.94518536139E+02  0.00000000000E+00 0. -1.
         -1    1    1    2    0  501  0.32753643618E+02  0.35891906366E+00 -0.39249494233E+02  0.51121940404E+02  0.00000000000E+00 0.  1.
<mgrwt>
<rscale>  0 0.56257490E+02</rscale>
<asrwt>0</asrwt>
<pdfrwt beam="1">  1        2 0.11580528E-01 0.96621773E+02</pdfrwt>
<pdfrwt beam="2">  1       -1 0.69809287E-01 0.32755610E+02</pdfrwt>
<totfact> 0.13030968E+03</totfact>
</mgrwt>
</event>
<event>
 5    1  0.7114032E-003  0.7932750E+02  0.7546771E-02  0.1344999E+00
          1   -1    0    0  502    0 -0.00000000000E+00  0.00000000000E+00  0.18023187216E+04  0.18023187216E+04  0.00000000000E+00 0. -1.
          2   -1    0    0  501    0  0.00000000000E+00 -0.00000000000E+00 -0.12744854288E+03  0.12744854288E+03  0.00000000000E+00 0. -1.
         25    1    1    2    0    0  0.84139071010E+02 -0.26657508174E+02  0.41140140356E+02  0.15845351735E+03  0.12500000000E+03 0.  0.
          2    1    1    2  501    0 -0.71503041573E+02 -0.42419856232E+02 -0.42665723999E+02  0.93447809826E+02  0.00000000000E+00 0. -1.
          1    1    1    2  502    0 -0.12636029437E+02  0.69077364406E+02  0.16763957624E+04  0.16778659373E+04  0.00000000000E+00 0. -1.
<mgrwt>
<rscale>  0 0.74636862E+02</rscale>
<asrwt>0</asrwt>
<pdfrwt beam="2">  1        2 0.19607469E-01 0.79327499E+02</pdfrwt>
<pdfrwt beam="1">  1        1 0.27727979E+00 0.70223582E+02</pdfrwt>
<totfact> 0.19496908E+02</totfact>
</mgrwt>
</event>
<event>
 5    1  0.7114032E-003  0.1529392E+03  0.7546771E-02  0.1368886E+00
          1   -1    0    0  501    0  0.00000000000E+00  0.00000000000E+00  0.23051578768E+04  0.23051578768E+04  0.00000000000E+00 0. -1.
          1   -1    0    0  502    0 -0.00000000000E+00 -0.00000000000E+00 -0.55242273016E+03  0.55242273016E+03  0.00000000000E+00 0. -1.
         25    1    1    2    0    0 -0.82743398905E+02  0.15880416891E+03  0.11720142738E+03  0.24784351657E+03  0.12500000000E+03 0.  0.
          1    1    1    2  501    0  0.79873255218E+02 -0.12917121020E+03  0.21194608123E+04  0.21248950734E+04  0.00000000000E+00 0. -1.
          1    1    1    2  502    0  0.28701436874E+01 -0.29632958712E+02 -0.48392709305E+03  0.48484201690E+03  0.00000000000E+00 0. -1.
<mgrwt>
<rscale>  0 0.67477759E+02</rscale>
<asrwt>0</asrwt>
<pdfrwt beam="1">  1        1 0.35463967E+00 0.15293916E+03</pdfrwt>
<pdfrwt beam="2">  1        1 0.84988114E-01 0.29771630E+02</pdfrwt>
<totfact> 0.11635983E+01</totfact>
</mgrwt>
</event>
<event>
 5    1  0.7114032E-003  0.1257424E+03  0.7546771E-02  0.1277471E+00
          1   -1    0    0  502    0  0.00000000000E+00  0.00000000000E+00  0.10553586555E+04  0.10553586555E+04  0.00000000000E+00 0. -1.
          1   -1    0    0  501    0 -0.00000000000E+00 -0.00000000000E+00 -0.12882949668E+04  0.12882949668E+04  0.00000000000E+00 0. -1.
         25    1    1    2    0    0 -0.16310080635E+03 -0.61113106251E+02 -0.59306279991E+03  0.63062284245E+03  0.12500000000E+03 0.  0.
          1    1    1    2  501    0  0.11551855499E+03 -0.52986167651E+01 -0.66988061859E+03  0.67978868411E+03  0.00000000000E+00 0. -1.
          1    1    1    2  502    0  0.47582251355E+02  0.66411723016E+02  0.10300071072E+04  0.10332420957E+04  0.00000000000E+00 0. -1.
<mgrwt>
<rscale>  0 0.10135542E+03</rscale>
<asrwt>0</asrwt>
<pdfrwt beam="1">  1        1 0.16236287E+00 0.81698149E+02</pdfrwt>
<pdfrwt beam="2">  1        1 0.19819923E+00 0.12574239E+03</pdfrwt>
<totfact> 0.20161286E+01</totfact>
</mgrwt>
</event>
<event>
 5    1  0.7114032E-003  0.8390561E+02  0.7546771E-02  0.1441508E+00
          1   -1    0    0  502    0  0.00000000000E+00  0.00000000000E+00  0.13356115444E+04  0.13356115444E+04  0.00000000000E+00 0. -1.
         -2   -1    0    0    0  501 -0.00000000000E+00 -0.00000000000E+00 -0.17053642417E+02  0.17053642417E+02  0.00000000000E+00 0.  1.
         25    1    1    2    0    0  0.75033474474E+02 -0.70889577264E+02  0.56875332565E+03  0.59140569822E+03  0.12500000000E+03 0.  0.
          1    1    1    2  502    0 -0.69188080591E+02  0.40795033615E+02  0.68358733375E+03  0.68828981405E+03  0.00000000000E+00 0. -1.
         -2    1    1    2    0  501 -0.58453938831E+01  0.30094543649E+02  0.66217242584E+02  0.72969674540E+02  0.00000000000E+00 0.  1.
<mgrwt>
<rscale>  0 0.50717770E+02</rscale>
<asrwt>0</asrwt>
<pdfrwt beam="1">  1        1 0.20547862E+00 0.83905606E+02</pdfrwt>
<pdfrwt beam="2">  1       -2 0.26236383E-02 0.30656976E+02</pdfrwt>
<totfact> 0.35134845E+03</totfact>
</mgrwt>
</event>
<event>
 5    1  0.7114032E-003  0.7870636E+02  0.7546771E-02  0.1378635E+00
         -2   -1    0    0    0  501 -0.00000000000E+00  0.00000000000E+00  0.53496811480E+02  0.53496811480E+02  0.00000000000E+00 0.  1.
          1   -1    0    0  502    0  0.00000000000E+00 -0.00000000000E+00 -0.80101135142E+03  0.80101135142E+03  0.00000000000E+00 0. -1.
         25    1    1    2    0    0 -0.37850413112E+02  0.44225914260E+02 -0.51305295483E+03  0.53125974789E+03  0.12500000000E+03 0.  0.
          1    1    1    2  502    0  0.38832794636E+02 -0.97606856082E+02 -0.24699617455E+03  0.26840677066E+03  0.00000000000E+00 0. -1.
         -2    1    1    2    0  501 -0.98238152405E+00  0.53380941822E+02  0.12534589437E+02  0.54841644356E+02  0.00000000000E+00 0.  1.
<mgrwt>
<rscale>  0 0.64823848E+02</rscale>
<asrwt>0</asrwt>
<pdfrwt beam="2">  1        1 0.12323251E+00 0.78706364E+02</pdfrwt>
<pdfrwt beam="1">  1       -2 0.82302789E-02 0.53389981E+02</pdfrwt>
<totfact> 0.17260541E+03</totfact>
</mgrwt>
</event>
<event>
 5    1  0.7114032E-003  0.8667687E+02  0.7546771E-02  0.1421027E+00
          1   -1    0    0  502    0  0.00000000000E+00  0.00000000000E+00  0.12692060330E+03  0.12692060330E+03  0.00000000000E+00 0. -1.
         -2   -1    0    0    0  501 -0.00000000000E+00 -0.00000000000E+00 -0.19821539072E+03  0.19821539072E+03  0.00000000000E+00 0.  1.
         25    1    1    2    0    0  0.46538115176E+02  0.65211219425E+02 -0.22083305890E+02  0.15010320350E+03  0.12500000000E+03 0.  0.
          1    1    1    2  502    0 -0.26271000264E+02  0.22595821260E+02  0.36737597259E+02  0.50501362810E+02  0.00000000000E+00 0. -1.
         -2    1    1    2    0  501 -0.20267114912E+02 -0.87807040685E+02 -0.85949078786E+02  0.12453142770E+03  0.00000000000E+00 0.  1.
<mgrwt>
<rscale>  0 0.54804162E+02</rscale>
<asrwt>0</asrwt>
<pdfrwt beam="1">  1        1 0.19526247E-01 0.34651646E+02</pdfrwt>
<pdfrwt beam="2">  1       -2 0.30494675E-01 0.86676867E+02</pdfrwt>
<totfact> 0.20842319E+03</totfact>
</mgrwt>
</event>
<event>
 5    1  0.7114032E-003  0.8627819E+02  0.7546771E-02  0.1451341E+00
         -1   -1    0    0    0  501 -0.00000000000E+00  0.00000000000E+00  0.46535828552E+02  0.46535828552E+02  0.00000000000E+00 0.  1.
          2   -1    0    0  502    0  0.00000000000E+00 -0.00000000000E+00 -0.20686196014E+04  0.20686196014E+04  0.00000000000E+00 0. -1.
         25    1    1    2    0    0  0.73020220681E+02 -0.39445199585E+01 -0.23929354354E+03  0.27970325676E+03  0.12500000000E+03 0.  0.
          2    1    1    2  502    0  0.15901082654E+02  0.22706228324E+02 -0.17302629025E+04  0.17304849404E+04  0.00000000000E+00 0. -1.
         -1    1    1    2    0  501 -0.88921303335E+02 -0.18761708365E+02 -0.52527326748E+02  0.10496723271E+03  0.00000000000E+00 0.  1.
<mgrwt>
<rscale>  0 0.48904610E+02</rscale>
<asrwt>0</asrwt>
<pdfrwt beam="2">  1        2 0.31824917E+00 0.27720340E+02</pdfrwt>
<pdfrwt beam="1">  1       -1 0.71593582E-02 0.86278194E+02</pdfrwt>
<totfact> 0.95230327E+02</totfact>
</mgrwt>
</event>
<event>
 5    1  0.7114032E-003  0.4987659E+02  0.7546771E-02  0.1448049E+00
         -1   -1    0    0    0  501 -0.00000000000E+00  0.00000000000E+00  0.34533051767E+03  0.34533051767E+03  0.00000000000E+00 0.  1.
          2   -1    0    0  502    0  0.00000000000E+00 -0.00000000000E+00 -0.17217987972E+03  0.17217987972E+03  0.00000000000E+00 0.  1.
         25    1    1    2    0    0  0.31071086706E+02  0.23283730035E+01 -0.62336881746E+02  0.14311436188E+03  0.12500000000E+03 0.  0.
          2    1    1    2  502    0 -0.30618433536E+02 -0.51455688395E+02 -0.54084135314E+02  0.80686244385E+02  0.00000000000E+00 0.  1.
         -1    1    1    2    0  501 -0.45265317042E+00  0.49127315391E+02  0.28957165501E+03  0.29370979112E+03  0.00000000000E+00 0.  1.
<mgrwt>
<rscale>  0 0.49501587E+02</rscale>
<asrwt>0</asrwt>
<pdfrwt beam="2">  1        2 0.26489212E-01 0.49876592E+02</pdfrwt>
<pdfrwt beam="1">  1       -1 0.53127772E-01 0.49129401E+02</pdfrwt>
<totfact> 0.82038949E+02</totfact>
</mgrwt>
</event>
<event>
 5    1  0.7114032E-003  0.8341784E+02  0.7546771E-02  0.1402162E+00
          3   -1    0    0  502    0 -0.00000000000E+00  0.00000000000E+00  0.31774904881E+03  0.31774904881E+03  0.00000000000E+00 0. -1.
          2   -1    0    0  501    0  0.00000000000E+00 -0.00000000000E+00 -0.45423682809E+03  0.45423682809E+03  0.00000000000E+00 0.  1.
         25    1    1    2    0    0 -0.27234025562E+02 -0.64705745209E+02  0.18535829184E+03  0.23433143614E+03  0.12500000000E+03 0.  0.
          2    1    1    2  501    0 -0.41293906054E+02 -0.58173821751E+01 -0.40605526663E+03  0.40819101922E+03  0.00000000000E+00 0.  1.
          3    1    1    2  502    0  0.68527931616E+02  0.70523127384E+02  0.84209195507E+02  0.12946342154E+03  0.00000000000E+00 0. -1.
<mgrwt>
<rscale>  0 0.58980188E+02</rscale>
<asrwt>0</asrwt>
<pdfrwt beam="2">  1        2 0.69882589E-01 0.41701662E+02</pdfrwt>
<pdfrwt beam="1">  1        3 0.48884469E-01 0.83417841E+02</pdfrwt>
<totfact> 0.17466929E+02</totfact>
</mgrwt>
</event>
<event>
 5    1  0.7114032E-003  0.2743838E+03  0.7546771E-02  0.1261342E+00
          1   -1    0    0  502    0 -0.00000000000E+00  0.00000000000E+00  0.45714214561E+03  0.45714214561E+03  0.00000000000E+00 0. -1.
          2   -1    0    0  501    0  0.00000000000E+00 -0.00000000000E+00 -0.50993395386E+03  0.50993395386E+03  0.00000000000E+00 0.  1.
         25    1    1    2    0    0 -0.25508719134E+03 -0.21705594359E+02 -0.18714256379E+03  0.34086353163E+03  0.12500000000E+03 0.  0.
          2    1    1    2  501    0 -0.16210016077E+02 -0.40653557444E+02 -0.19219607313E+03  0.19711622683E+03  0.00000000000E+00 0.  1.
          1    1    1    2  502    0  0.27129720741E+03  0.62359151802E+02  0.32654682866E+03  0.42909634101E+03  0.00000000000E+00 0. -1.
<mgrwt>
<rscale>  0 0.10958432E+03</rscale>
<asrwt>0</asrwt>
<pdfrwt beam="2">  1        2 0.78451378E-01 0.43766155E+02</pdfrwt>
<pdfrwt beam="1">  1        1 0.70329561E-01 0.27438381E+03</pdfrwt>
<totfact> 0.43416814E+02</totfact>
</mgrwt>
</event>
<event>
 5    1  0.7114032E-003  0.5592557E+02  0.7546771E-02  0.1480084E+00
          1   -1    0    0  502    0  0.00000000000E+00  0.00000000000E+00  0.20455972524E+03  0.20455972524E+03  0.00000000000E+00 0. -1.
         -3   -1    0    0    0  501 -0.00000000000E+00 -0.00000000000E+00 -0.49105444313E+03  0.49105444313E+03  0.00000000000E+00 0.  1.
         25    1    1    2    0    0  0.53964107519E+02  0.33736939653E+02 -0.35453411447E+03  0.38127384426E+03  0.12500000000E+03 0.  0.
          1    1    1    2  502    0 -0.23629868157E+02 -0.50718543335E+02  0.18450208855E+03  0.19279979769E+03  0.00000000000E+00 0. -1.
         -3    1    1    2    0  501 -0.30334239361E+02  0.16981603682E+02 -0.11646269197E+03  0.12154052642E+03  0.00000000000E+00 0.  1.
<mgrwt>
<rscale>  0 0.44093091E+02</rscale>
<asrwt>0</asrwt>
<pdfrwt beam="1">  1        1 0.31470727E-01 0.55925568E+02</pdfrwt>
<pdfrwt beam="2">  1       -3 0.75546837E-01 0.34764075E+02</pdfrwt>
<totfact> 0.11870954E+02</totfact>
</mgrwt>
</event>
<event>
 5    1  0.7114032E-003  0.1313718E+03  0.7546771E-02  0.1303255E+00
          2   -1    0    0  502    0  0.00000000000E+00  0.00000000000E+00  0.62350049803E+03  0.62350049803E+03  0.00000000000E+00 0. -1.
          2   -1    0    0  501    0 -0.00000000000E+00 -0.00000000000E+00 -0.14791689385E+04  0.14791689385E+04  0.00000000000E+00 0. -1.
         25    1    1    2    0    0 -0.78709140642E+02 -0.14231486163E+03 -0.20483709165E+03  0.28988253272E+03  0.12500000000E+03 0.  0.
          2    1    1    2  501    0  0.18915959551E+02  0.12823145448E+03 -0.12267613531E+04  0.12335901008E+04  0.00000000000E+00 0. -1.
          2    1    1    2  502    0  0.59793181092E+02  0.14083407147E+02  0.57593000422E+03  0.57919680302E+03  0.00000000000E+00 0. -1.
<mgrwt>
<rscale>  0 0.89833674E+02</rscale>
<asrwt>0</asrwt>
<pdfrwt beam="1">  1        2 0.95923154E-01 0.61429365E+02</pdfrwt>
<pdfrwt beam="2">  1        2 0.22756445E+00 0.13137184E+03</pdfrwt>
<totfact> 0.11560666E+02</totfact>
</mgrwt>
</event>
<event>
 5    1  0.7114032E-003  0.1206780E+03  0.7546771E-02  0.1393136E+00
          1   -1    0    0  501    0  0.00000000000E+00  0.00000000000E+00  0.57089461328E+02  0.57089461328E+02  0.00000000000E+00 0. -1.
          1   -1    0    0  502    0 -0.00000000000E+00 -0.00000000000E+00 -0.36631470619E+04  0.36631470619E+04  0.00000000000E+00 0. -1.
         25    1    1    2    0    0 -0.93042594740E+02  0.45212727687E+02 -0.12980082905E+03  0.20778443254E+03  0.12500000000E+03 0.  0.
          1    1    1    2  501    0 -0.25107733160E+02 -0.18129722871E+02  0.29729598485E+01  0.31111470652E+02  0.00000000000E+00 0. -1.
          1    1    1    2  502    0  0.11815032790E+03 -0.27083004816E+02 -0.34792297314E+04  0.34813406200E+04  0.00000000000E+00 0. -1.
<mgrwt>
<rscale>  0 0.61133363E+02</rscale>
<asrwt>0</asrwt>
<pdfrwt beam="1">  1        1 0.87829952E-02 0.30969099E+02</pdfrwt>
<pdfrwt beam="2">  1        1 0.56356101E+00 0.12067797E+03</pdfrwt>
<totfact> 0.21439470E+01</totfact>
</mgrwt>
</event>
<event>
 5    1  0.7114032E-003  0.1389392E+03  0.7546771E-02  0.1366402E+00
          2   -1    0    0  502    0  0.00000000000E+00  0.00000000000E+00  0.41235642139E+03  0.41235642139E+03  0.00000000000E+00 0. -1.
         -3   -1    0    0    0  501 -0.00000000000E+00 -0.00000000000E+00 -0.18847862545E+03  0.18847862545E+03  0.00000000000E+00 0.  1.
         25    1    1    2    0    0 -0.33012123820E+02 -0.16279352381E+03  0.75400669017E+02  0.22113749705E+03  0.12500000000E+03 0.  0.
          2    1    1    2  502    0  0.27029791928E+02  0.12987788701E+03  0.24441366500E+03  0.27809515426E+03  0.00000000000E+00 0. -1.
         -3    1    1    2    0  501  0.59823318919E+01  0.32915636803E+02 -0.95936538067E+02  0.10160239553E+03  0.00000000000E+00 0.  1.
<mgrwt>
<rscale>  0 0.68177635E+02</rscale>
<asrwt>0</asrwt>
<pdfrwt beam="1">  1        2 0.63439449E-01 0.13893917E+03</pdfrwt>
<pdfrwt beam="2">  1       -3 0.28996712E-01 0.33454857E+02</pdfrwt>
<totfact> 0.47006543E+02</totfact>
</mgrwt>
</event>
<event>
 5    1  0.7114032E-003  0.4016236E+02  0.7546771E-02  0.1541190E+00
          2   -1    0    0  501    0  0.00000000000E+00  0.00000000000E+00  0.50561489250E+03  0.50561489250E+03  0.00000000000E+00 0. -1.
          2   -1    0    0  502    0 -0.00000000000E+00 -0.00000000000E+00 -0.11471745299E+04  0.11471745299E+04  0.00000000000E+00 0. -1.
         25    1    1    2    0    0  0.53072323530E+02  0.46138825472E+02  0.28269905211E+03  0.31700034196E+03  0.12500000000E+03 0.  0.
          2    1    1    2  501    0 -0.28611502341E+02 -0.14327875573E+02  0.20416237327E+03  0.20665473802E+03  0.00000000000E+00 0. -1.
          2    1    1    2  502    0 -0.24460821189E+02 -0.31810949899E+02 -0.11284210627E+04  0.11291343424E+04  0.00000000000E+00 0. -1.
<mgrwt>
<rscale>  0 0.35848804E+02</rscale>
<asrwt>0</asrwt>
<pdfrwt beam="1">  1        2 0.77786908E-01 0.31998533E+02</pdfrwt>
<pdfrwt beam="2">  1        2 0.17648839E+00 0.40162364E+02</pdfrwt>
<totfact> 0.23741045E+02</totfact>
</mgrwt>
</event>
<event>
 5    1  0.7114032E-003  0.1196781E+03  0.7546771E-02  0.1368208E+00
         -2   -1    0    0    0  501 -0.00000000000E+00  0.00000000000E+00  0.59368225502E+03  0.59368225502E+03  0.00000000000E+00 0.  1.
          1   -1    0    0  502    0  0.00000000000E+00 -0.00000000000E+00 -0.49803340086E+02  0.49803340086E+02  0.00000000000E+00 0. -1.
         25    1    1    2    0    0  0.13425721637E+03 -0.18610220840E+02  0.33398818609E+03  0.38150288192E+03  0.12500000000E+03 0.  0.
          1    1    1    2  502    0 -0.10552269514E+03  0.43872738465E+02  0.12798272279E+03  0.17157923447E+03  0.00000000000E+00 0. -1.
         -2    1    1    2    0  501 -0.28734521232E+02 -0.25262517625E+02  0.81908006066E+02  0.90403478721E+02  0.00000000000E+00 0.  1.
<mgrwt>
<rscale>  0 0.67667927E+02</rscale>
<asrwt>0</asrwt>
<pdfrwt beam="2">  1        1 0.76620527E-02 0.11967815E+03</pdfrwt>
<pdfrwt beam="1">  1       -2 0.91335727E-01 0.38260522E+02</pdfrwt>
<totfact> 0.85026615E+02</totfact>
</mgrwt>
</event>
<event>
 5    1  0.7114032E-003  0.6534927E+02  0.7546771E-02  0.1415937E+00
         -2   -1    0    0    0  501 -0.00000000000E+00  0.00000000000E+00  0.73262064345E+02  0.73262064345E+02  0.00000000000E+00 0.  1.
          1   -1    0    0  502    0  0.00000000000E+00 -0.00000000000E+00 -0.32669208917E+03  0.32669208917E+03  0.00000000000E+00 0. -1.
         25    1    1    2    0    0  0.36382364516E+02  0.97683344945E+02 -0.20078878264E+03  0.25847020633E+03  0.12500000000E+03 0.  0.
          1    1    1    2  502    0 -0.73219212311E+00 -0.47794064205E+02 -0.63224004523E+02  0.79259595170E+02  0.00000000000E+00 0. -1.
         -2    1    1    2    0  501 -0.35650172393E+02 -0.49889280741E+02  0.10582762340E+02  0.62224352011E+02  0.00000000000E+00 0.  1.
<mgrwt>
<rscale>  0 0.55889833E+02</rscale>
<asrwt>0</asrwt>
<pdfrwt beam="2">  1        1 0.50260322E-01 0.47799672E+02</pdfrwt>
<pdfrwt beam="1">  1       -2 0.11271087E-01 0.65349265E+02</pdfrwt>
<totfact> 0.34899477E+03</totfact>
</mgrwt>
</event>
<event>
 5    1  0.7114032E-003  0.8031050E+02  0.7546771E-02  0.1495987E+00
         -3   -1    0    0    0  501 -0.00000000000E+00  0.00000000000E+00  0.18044391755E+03  0.18044391755E+03  0.00000000000E+00 0.  1.
          1   -1    0    0  502    0  0.00000000000E+00 -0.00000000000E+00 -0.11344521177E+03  0.11344521177E+03  0.00000000000E+00 0. -1.
         25    1    1    2    0    0 -0.47552472824E+02 -0.79252847149E+02  0.96194031279E+02  0.18281286362E+03  0.12500000000E+03 0.  0.
          1    1    1    2  502    0  0.13463008061E+02  0.16971732598E+02 -0.33557223132E+02  0.39942202214E+02  0.00000000000E+00 0. -1.
         -3    1    1    2    0  501  0.34089464763E+02  0.62281114552E+02  0.43618976335E+01  0.71134063490E+02  0.00000000000E+00 0.  1.
<mgrwt>
<rscale>  0 0.41710656E+02</rscale>
<asrwt>0</asrwt>
<pdfrwt beam="2">  1        1 0.17453110E-01 0.21663155E+02</pdfrwt>
<pdfrwt beam="1">  1       -3 0.27760603E-01 0.80310500E+02</pdfrwt>
<totfact> 0.16995507E+03</totfact>
</mgrwt>
</event>
<event>
 5    1  0.7114032E-003  0.6368438E+02  0.7546771E-02  0.1465891E+00
          1   -1    0    0  501    0  0.00000000000E+00  0.00000000000E+00  0.53636348953E+02  0.53636348953E+02  0.00000000000E+00 0. -1.
          1   -1    0    0  502    0 -0.00000000000E+00 -0.00000000000E+00 -0.56752713583E+03  0.56752713583E+03  0.00000000000E+00 0. -1.
         25    1    1    2    0    0 -0.19149407847E+02 -0.47270600063E+02 -0.12844110781E+03  0.18634196421E+03  0.12500000000E+03 0.  0.
          1    1    1    2  501    0 -0.67876249020E+01  0.68913954262E+02 -0.26279617055E+02  0.74066343344E+02  0.00000000000E+00 0. -1.
          1    1    1    2  502    0  0.25937032749E+02 -0.21643354199E+02 -0.35917006202E+03  0.36075517723E+03  0.00000000000E+00 0. -1.
<mgrwt>
<rscale>  0 0.46382432E+02</rscale>
<asrwt>0</asrwt>
<pdfrwt beam="1">  1        1 0.82517461E-02 0.63684379E+02</pdfrwt>
<pdfrwt beam="2">  1        1 0.87311866E-01 0.33781126E+02</pdfrwt>
<totfact> 0.36333968E+03</totfact>
</mgrwt>
</event>
<event>
 5    1  0.7114032E-003  0.7444384E+02  0.7546771E-02  0.1376200E+00
         -3   -1    0    0    0  501 -0.00000000000E+00  0.00000000000E+00  0.49084551803E+03  0.49084551803E+03  0.00000000000E+00 0.  1.
          2   -1    0    0  502    0  0.00000000000E+00 -0.00000000000E+00 -0.34897535475E+03  0.34897535475E+03  0.00000000000E+00 0. -1.
         25    1    1    2    0    0 -0.48997038567E+02 -0.24546735620E+02  0.28587085059E+03  0.31678130506E+03  0.12500000000E+03 0.  0.
          2    1    1    2  502    0  0.17692450844E+02  0.72878176743E+02 -0.32477197041E+03  0.33331829266E+03  0.00000000000E+00 0. -1.
         -3    1    1    2    0  501  0.31304587723E+02 -0.48331441123E+02  0.18077128311E+03  0.18972127506E+03  0.00000000000E+00 0.  1.
<mgrwt>
<rscale>  0 0.65473402E+02</rscale>
<asrwt>0</asrwt>
<pdfrwt beam="2">  1        2 0.53688516E-01 0.74443836E+02</pdfrwt>
<pdfrwt beam="1">  1       -3 0.75514695E-01 0.57583899E+02</pdfrwt>
<totfact> 0.92845683E+01</totfact>
</mgrwt>
</event>
<event>
 5    1  0.7114032E-003  0.1347398E+03  0.7546771E-02  0.1342864E+00
          3   -1    0    0  502    0  0.00000000000E+00  0.00000000000E+00  0.43322417760E+03  0.43322417760E+03  0.00000000000E+00 0. -1.
          3   -1    0    0  501    0 -0.00000000000E+00 -0.00000000000E+00 -0.31186338769E+03  0.31186338769E+03  0.00000000000E+00 0. -1.
         25    1    1    2    0    0  0.82606068070E+02 -0.86431364899E+02  0.43807007998E+02  0.17843261269E+03  0.12500000000E+03 0.  0.
          3    1    1    2  501    0 -0.62353671061E+02  0.12335267128E+03 -0.22343748287E+03  0.26273212700E+03  0.00000000000E+00 0. -1.
          3    1    1    2  502    0 -0.20252397009E+02 -0.36921306378E+02  0.30099126479E+03  0.30392282561E+03  0.00000000000E+00 0. -1.
<mgrwt>
<rscale>  0 0.75326204E+02</rscale>
<asrwt>0</asrwt>
<pdfrwt beam="1">  1        3 0.66649873E-01 0.42111073E+02</pdfrwt>
<pdfrwt beam="2">  1        3 0.47978983E-01 0.13473979E+03</pdfrwt>
<totfact> 0.21670699E+01</totfact>
</mgrwt>
</event>
<event>
 5    1  0.7114032E-003  0.4441614E+02  0.7546771E-02  0.1534083E+00
         -2   -1    0    0    0  501 -0.00000000000E+00  0.00000000000E+00  0.73221493380E+01  0.73221493380E+01  0.00000000000E+00 0.  1.
          1   -1    0    0  502    0  0.00000000000E+00 -0.00000000000E+00 -0.15154254445E+04  0.15154254445E+04  0.00000000000E+00 0. -1.
         25    1    1    2    0    0 -0.25752734895E+02  0.11249197273E+02 -0.90686879369E+03  0.91587431276E+03  0.12500000000E+03 0.  0.
          1    1    1    2  502    0 -0.68081767188E+01  0.29533742520E+02 -0.23022321047E+03  0.23220964635E+03  0.00000000000E+00 0. -1.
         -2    1    1    2    0  501  0.32560911614E+02 -0.40782939794E+02 -0.37101129098E+03  0.37466363472E+03  0.00000000000E+00 0.  1.
<mgrwt>
<rscale>  0 0.36690294E+02</rscale>
<asrwt>0</asrwt>
<pdfrwt beam="2">  1        1 0.23314251E+00 0.30308303E+02</pdfrwt>
<pdfrwt beam="1">  1       -2 0.11264838E-02 0.44416136E+02</pdfrwt>
<totfact> 0.10377085E+04</totfact>
</mgrwt>
</event>
<event>
 5    1  0.7114032E-003  0.7234911E+02  0.7546771E-02  0.1379738E+00
         -1   -1    0    0    0  501 -0.00000000000E+00  0.00000000000E+00  0.54514294538E+02  0.54514294538E+02  0.00000000000E+00 0.  1.
          1   -1    0    0  502    0  0.00000000000E+00 -0.00000000000E+00 -0.75865185134E+03  0.75865185134E+03  0.00000000000E+00 0. -1.
         25    1    1    2    0    0  0.15856080062E+02  0.31015848194E+02 -0.27929309965E+03  0.30796596180E+03  0.12500000000E+03 0.  0.
          1    1    1    2  502    0 -0.72056362788E+02 -0.43457223360E+02 -0.43812054261E+03  0.44612807526E+03  0.00000000000E+00 0. -1.
         -1    1    1    2    0  501  0.56200282726E+02  0.12441375166E+02  0.13276085461E+02  0.59072108814E+02  0.00000000000E+00 0.  1.
<mgrwt>
<rscale>  0 0.64532795E+02</rscale>
<asrwt>0</asrwt>
<pdfrwt beam="2">  1        1 0.11671566E+00 0.72349115E+02</pdfrwt>
<pdfrwt beam="1">  1       -1 0.83868155E-02 0.57560921E+02</pdfrwt>
<totfact> 0.19076005E+03</totfact>
</mgrwt>
</event>
<event>
 5    1  0.7114032E-003  0.1181752E+03  0.7546771E-02  0.1289143E+00
          1   -1    0    0  502    0  0.00000000000E+00  0.00000000000E+00  0.11102093182E+03  0.11102093182E+03  0.00000000000E+00 0.  1.
          1   -1    0    0  501    0 -0.00000000000E+00 -0.00000000000E+00 -0.88473396140E+03  0.88473396140E+03  0.00000000000E+00 0. -1.
         25    1    1    2    0    0 -0.31664539428E+02  0.58101339307E+02 -0.12862359157E+03  0.19117383973E+03  0.12500000000E+03 0.  0.
          1    1    1    2  501    0  0.76933709752E+00  0.77833676480E+02 -0.65982719683E+03  0.66440244036E+03  0.00000000000E+00 0. -1.
          1    1    1    2  502    0  0.30895202330E+02 -0.13593501579E+03  0.14737758828E+02  0.14017861313E+03  0.00000000000E+00 0.  1.
<mgrwt>
<rscale>  0 0.95908605E+02</rscale>
<asrwt>0</asrwt>
<pdfrwt beam="1">  1        1 0.17080143E-01 0.11817521E+03</pdfrwt>
<pdfrwt beam="2">  1        1 0.13611292E+00 0.77837479E+02</pdfrwt>
<totfact> 0.76556578E+02</totfact>
</mgrwt>
</event>
<event>
 5    1  0.7114032E-003  0.4043111E+02  0.7546771E-02  0.1577682E+00
         -1   -1    0    0    0  501 -0.00000000000E+00  0.00000000000E+00  0.19082626347E+03  0.19082626347E+03  0.00000000000E+00 0.  1.
          3   -1    0    0  502    0  0.00000000000E+00 -0.00000000000E+00 -0.18481166077E+03  0.18481166077E+03  0.00000000000E+00 0. -1.
         25    1    1    2    0    0 -0.52236300898E+02  0.16436865767E+02  0.26472391959E+02  0.13901291028E+03  0.12500000000E+03 0.  0.
          3    1    1    2  502    0  0.22929853287E+02  0.10493261847E+02 -0.12356018726E+03  0.12610712348E+03  0.00000000000E+00 0. -1.
         -1    1    1    2    0  501  0.29306447611E+02 -0.26930127614E+02  0.10310239800E+03  0.11051789049E+03  0.00000000000E+00 0.  1.
<mgrwt>
<rscale>  0 0.31930284E+02</rscale>
<asrwt>0</asrwt>
<pdfrwt beam="2">  1        3 0.28432563E-01 0.25216794E+02</pdfrwt>
<pdfrwt beam="1">  1       -1 0.29357887E-01 0.40431112E+02</pdfrwt>
<totfact> 0.45584618E+02</totfact>
</mgrwt>
</event>
<event>
 5    1  0.7114032E-003  0.6573048E+02  0.7546771E-02  0.1493019E+00
          1   -1    0    0  502    0 -0.00000000000E+00  0.00000000000E+00  0.31027910879E+02  0.31027910879E+02  0.00000000000E+00 0. -1.
          2   -1    0    0  501    0  0.00000000000E+00 -0.00000000000E+00 -0.26514349756E+04  0.26514349756E+04  0.00000000000E+00 0. -1.
         25    1    1    2    0    0  0.69832528010E+02  0.17883441035E+02 -0.64923369021E+03  0.66507577308E+03  0.12500000000E+03 0.  0.
          2    1    1    2  501    0 -0.47876044245E+01 -0.26590396408E+02 -0.19474018657E+04  0.19475892783E+04  0.00000000000E+00 0. -1.
          1    1    1    2  502    0 -0.65044923586E+02  0.87069553730E+01 -0.23771508809E+02  0.69797835118E+02  0.00000000000E+00 0. -1.
<mgrwt>
<rscale>  0 0.42141473E+02</rscale>
<asrwt>0</asrwt>
<pdfrwt beam="2">  1        2 0.40791312E+00 0.27017963E+02</pdfrwt>
<pdfrwt beam="1">  1        1 0.47735242E-02 0.65730483E+02</pdfrwt>
<totfact> 0.98732262E+02</totfact>
</mgrwt>
</event>
<event>
 5    1  0.7114032E-003  0.6538278E+02  0.7546771E-02  0.1465263E+00
         -1   -1    0    0    0  501 -0.00000000000E+00  0.00000000000E+00  0.38640307373E+02  0.38640307373E+02  0.00000000000E+00 0.  1.
          1   -1    0    0  502    0  0.00000000000E+00 -0.00000000000E+00 -0.54796560697E+03  0.54796560697E+03  0.00000000000E+00 0. -1.
         25    1    1    2    0    0 -0.46231585590E+02  0.62911412549E+02 -0.16500733431E+03  0.22124110312E+03  0.12500000000E+03 0.  0.
          1    1    1    2  502    0  0.56441087269E+02 -0.31474797540E+02 -0.31377493176E+03  0.32036068269E+03  0.00000000000E+00 0. -1.
         -1    1    1    2    0  501 -0.10209501679E+02 -0.31436615009E+02 -0.30543033527E+02  0.45004128530E+02  0.00000000000E+00 0.  1.
<mgrwt>
<rscale>  0 0.46487537E+02</rscale>
<asrwt>0</asrwt>
<pdfrwt beam="2">  1        1 0.84302404E-01 0.65382783E+02</pdfrwt>
<pdfrwt beam="1">  1       -1 0.59446624E-02 0.33052907E+02</pdfrwt>
<totfact> 0.46361847E+03</totfact>
</mgrwt>
</event>
<event>
 5    1  0.7114032E-003  0.1415477E+03  0.7546771E-02  0.1262026E+00
          1   -1    0    0  502    0 -0.00000000000E+00  0.00000000000E+00  0.72803017110E+02  0.72803017110E+02  0.00000000000E+00 0. -1.
          2   -1    0    0  501    0  0.00000000000E+00 -0.00000000000E+00 -0.22939459491E+04  0.22939459491E+04  0.00000000000E+00 0. -1.
         25    1    1    2    0    0 -0.20510764326E+03  0.12020575968E+02 -0.82225224309E+03  0.85670145957E+03  0.12500000000E+03 0.  0.
          2    1    1    2  501    0  0.77232043307E+02  0.33717637043E+02 -0.13682267820E+04  0.13708195339E+04  0.00000000000E+00 0. -1.
          1    1    1    2  502    0  0.12787559995E+03 -0.45738213011E+02 -0.30663906853E+02  0.13922797268E+03  0.00000000000E+00 0. -1.
<mgrwt>
<rscale>  0 0.10921730E+03</rscale>
<asrwt>0</asrwt>
<pdfrwt beam="2">  1        2 0.35291477E+00 0.84271392E+02</pdfrwt>
<pdfrwt beam="1">  1        1 0.11200464E-01 0.14154765E+03</pdfrwt>
<totfact> 0.43133822E+02</totfact>
</mgrwt>
</event>
<event>
 5    1  0.7114032E-003  0.8898211E+02  0.7546771E-02  0.1345213E+00
          2   -1    0    0  501    0  0.00000000000E+00  0.00000000000E+00  0.47042497618E+03  0.47042497618E+03  0.00000000000E+00 0. -1.
          2   -1    0    0  502    0 -0.00000000000E+00 -0.00000000000E+00 -0.72640146412E+03  0.72640146412E+03  0.00000000000E+00 0. -1.
         25    1    1    2    0    0 -0.12554260452E+03  0.62079993783E+02 -0.15785838843E+02  0.18838541314E+03  0.12500000000E+03 0.  0.
          2    1    1    2  501    0  0.63102964408E+02 -0.59593504637E+02  0.37762595296E+03  0.38747223160E+03  0.00000000000E+00 0. -1.
          2    1    1    2  502    0  0.62439640108E+02 -0.24864891456E+01 -0.61781660205E+03  0.62096879556E+03  0.00000000000E+00 0. -1.
<mgrwt>
<rscale>  0 0.74568186E+02</rscale>
<asrwt>0</asrwt>
<pdfrwt beam="1">  1        2 0.72373073E-01 0.88982107E+02</pdfrwt>
<pdfrwt beam="2">  1        2 0.11175407E+00 0.62489129E+02</pdfrwt>
<totfact> 0.44139347E+02</totfact>
</mgrwt>
</event>
<event>
 5    1  0.7114032E-003  0.1067937E+03  0.7546771E-02  0.1394395E+00
         -1   -1    0    0    0  501  0.00000000000E+00  0.00000000000E+00  0.99963640362E+03  0.99963640362E+03  0.00000000000E+00 0.  1.
         -1   -1    0    0    0  502 -0.00000000000E+00 -0.00000000000E+00 -0.20224531305E+03  0.20224531305E+03  0.00000000000E+00 0.  1.
         25    1    1    2    0    0 -0.11495751061E+03  0.52899648519E+02 -0.88753661313E+02  0.19878585074E+03  0.12500000000E+03 0.  0.
         -1    1    1    2    0  502  0.10367069628E+02 -0.33057727059E+02 -0.50048251320E+02  0.60869671522E+02  0.00000000000E+00 0.  1.
         -1    1    1    2    0  501  0.10459044098E+03 -0.19841921460E+02  0.93619300320E+03  0.94222619441E+03  0.00000000000E+00 0.  1.
<mgrwt>
<rscale>  0 0.60826710E+02</rscale>
<asrwt>0</asrwt>
<pdfrwt beam="1">  1       -1 0.15379021E+00 0.10679371E+03</pdfrwt>
<pdfrwt beam="2">  1       -1 0.31114664E-01 0.34645194E+02</pdfrwt>
<totfact> 0.29633068E+01</totfact>
</mgrwt>
</event>
<event>
 5    1  0.7114032E-003  0.4852323E+02  0.7546771E-02  0.1492750E+00
         -1   -1    0    0    0  501 -0.00000000000E+00  0.00000000000E+00  0.46179266250E+02  0.46179266250E+02  0.00000000000E+00 0.  1.
          1   -1    0    0  502    0  0.00000000000E+00 -0.00000000000E+00 -0.15579568208E+04  0.15579568208E+04  0.00000000000E+00 0. -1.
         25    1    1    2    0    0  0.12613836757E+02 -0.21084723110E+02 -0.19462995422E+03  0.23261447398E+03  0.12500000000E+03 0.  0.
          1    1    1    2  502    0 -0.47957147522E+02  0.11320083203E+02 -0.13313045815E+04  0.13322161691E+04  0.00000000000E+00 0. -1.
         -1    1    1    2    0  501  0.35343310765E+02  0.97646399069E+01  0.14156981239E+02  0.39305443976E+02  0.00000000000E+00 0.  1.
<mgrwt>
<rscale>  0 0.42180807E+02</rscale>
<asrwt>0</asrwt>
<pdfrwt beam="2">  1        1 0.23968563E+00 0.48523231E+02</pdfrwt>
<pdfrwt beam="1">  1       -1 0.71045036E-02 0.36667394E+02</pdfrwt>
<totfact> 0.68181758E+02</totfact>
</mgrwt>
</event>
<event>
 5    1  0.7114032E-003  0.9051271E+02  0.7546771E-02  0.1424207E+00
         -1   -1    0    0    0  501 -0.00000000000E+00  0.00000000000E+00  0.83758504697E+02  0.83758504697E+02  0.00000000000E+00 0.  1.
          1   -1    0    0  502    0  0.00000000000E+00 -0.00000000000E+00 -0.88611129121E+03  0.88611129121E+03  0.00000000000E+00 0. -1.
         25    1    1    2    0    0  0.14795617893E+02 -0.82154454486E+02 -0.20639917543E+03  0.25533093099E+03  0.12500000000E+03 0.  0.
          1    1    1    2  502    0 -0.47041161022E+02  0.79157935708E+02 -0.64730891887E+03  0.65382542476E+03  0.00000000000E+00 0. -1.
         -1    1    1    2    0  501  0.32245543129E+02  0.29965187779E+01  0.51355307794E+02  0.60713440152E+02  0.00000000000E+00 0.  1.
<mgrwt>
<rscale>  0 0.54140619E+02</rscale>
<asrwt>0</asrwt>
<pdfrwt beam="2">  1        1 0.13632482E+00 0.90512711E+02</pdfrwt>
<pdfrwt beam="1">  1       -1 0.12885923E-01 0.32384474E+02</pdfrwt>
<totfact> 0.75565074E+02</totfact>
</mgrwt>
</event>
<event>
 5    1  0.7114032E-003  0.7068729E+02  0.7546771E-02  0.1447822E+00
          1   -1    0    0  502    0  0.00000000000E+00  0.00000000000E+00  0.14768779376E+03  0.14768779376E+03  0.00000000000E+00 0. -1.
         -1   -1    0    0    0  501 -0.00000000000E+00 -0.00000000000E+00 -0.35884360169E+03  0.35884360169E+03  0.00000000000E+00 0.  1.
         25    1    1    2    0    0  0.62393226470E+02  0.37438122383E+02 -0.14052029635E+03  0.20165684071E+03  0.12500000000E+03 0.  0.
          1    1    1    2  502    0  0.92776366860E+01 -0.33461096890E+02  0.10742098936E+03  0.11289370444E+03  0.00000000000E+00 0. -1.
         -1    1    1    2    0  501 -0.71670863156E+02 -0.39770254931E+01 -0.17805650093E+03  0.19198085030E+03  0.00000000000E+00 0.  1.
<mgrwt>
<rscale>  0 0.49542995E+02</rscale>
<asrwt>0</asrwt>
<pdfrwt beam="1">  1        1 0.22721199E-01 0.34723473E+02</pdfrwt>
<pdfrwt beam="2">  1       -1 0.55206708E-01 0.70687295E+02</pdfrwt>
<totfact> 0.70670080E+02</totfact>
</mgrwt>
</event>
<event>
 5    1  0.1351861E-002  0.8291744E+02  0.7546771E-02  0.1349800E+00
          2   -1    0    0  502    0  0.00000000000E+00  0.00000000000E+00  0.54966176215E+02  0.54966176215E+02  0.00000000000E+00 0. -1.
         -1   -1    0    0    0  501 -0.00000000000E+00 -0.00000000000E+00 -0.51635704579E+03  0.51635704579E+03  0.00000000000E+00 0.  1.
         25    1    1    2    0    0  0.68906682216E+02 -0.11305319109E+03 -0.24263988755E+03  0.30336161573E+03  0.12500000000E+03 0.  0.
          2    1    1    2  502    0 -0.46583929671E+02  0.44577460322E+02 -0.41605927253E+02  0.76735035381E+02  0.00000000000E+00 0. -1.
         -1    1    1    2    0  501 -0.22322752545E+02  0.68475730765E+02 -0.17714505477E+03  0.19122657089E+03  0.00000000000E+00 0.  1.
<mgrwt>
<rscale>  0 0.73117862E+02</rscale>
<asrwt>0</asrwt>
<pdfrwt beam="1">  1        2 0.84563347E-02 0.64476449E+02</pdfrwt>
<pdfrwt beam="2">  1       -1 0.79439547E-01 0.82917435E+02</pdfrwt>
<totfact> 0.14093681E+03</totfact>
</mgrwt>
</event>
<event>
 5    1  0.7114032E-003  0.5853480E+02  0.7546771E-02  0.1505388E+00
          2   -1    0    0  502    0  0.00000000000E+00  0.00000000000E+00  0.62363834849E+03  0.62363834849E+03  0.00000000000E+00 0. -1.
         -2   -1    0    0    0  501 -0.00000000000E+00 -0.00000000000E+00 -0.39839736099E+02  0.39839736099E+02  0.00000000000E+00 0.  1.
         25    1    1    2    0    0 -0.36517518787E+02 -0.27215491690E+02  0.12222940009E+03  0.18066332891E+03  0.12500000000E+03 0.  0.
          2    1    1    2  502    0 -0.27854105330E+02  0.76565953721E+00  0.35141486553E+03  0.35251786499E+03  0.00000000000E+00 0. -1.
         -2    1    1    2    0  501  0.64371624117E+02  0.26449832152E+02  0.11015434677E+03  0.13029689069E+03  0.00000000000E+00 0.  1.
<mgrwt>
<rscale>  0 0.40386265E+02</rscale>
<asrwt>0</asrwt>
<pdfrwt beam="1">  1        2 0.95944354E-01 0.27864627E+02</pdfrwt>
<pdfrwt beam="2">  1       -2 0.61291907E-02 0.58534801E+02</pdfrwt>
<totfact> 0.63979510E+03</totfact>
</mgrwt>
</event>
<event>
 5    1  0.7114032E-003  0.7011698E+02  0.7546771E-02  0.1455843E+00
          2   -1    0    0  501    0  0.00000000000E+00  0.00000000000E+00  0.43037788925E+03  0.43037788925E+03  0.00000000000E+00 0.  1.
          1   -1    0    0  502    0 -0.00000000000E+00 -0.00000000000E+00 -0.21412478589E+04  0.21412478589E+04  0.00000000000E+00 0. -1.
         25    1    1    2    0    0  0.56815738659E+02  0.32305229797E+02  0.87436404442E+02  0.16595716572E+03  0.12500000000E+03 0.  0.
          2    1    1    2  501    0 -0.38736572209E+02 -0.59914901869E+02  0.29935900311E+03  0.30774361120E+03  0.00000000000E+00 0.  1.
          1    1    1    2  502    0 -0.18079166449E+02  0.27609672072E+02 -0.20976653772E+04  0.20979249712E+04  0.00000000000E+00 0. -1.
<mgrwt>
<rscale>  0 0.48104260E+02</rscale>
<asrwt>0</asrwt>
<pdfrwt beam="1">  1        2 0.66211983E-01 0.70116977E+02</pdfrwt>
<pdfrwt beam="2">  1        1 0.32942275E+00 0.33002276E+02</pdfrwt>
<totfact> 0.36839375E+01</totfact>
</mgrwt>
</event>
<event>
 5    1  0.7114032E-003  0.1100329E+03  0.7546771E-02  0.1451220E+00
          2   -1    0    0  501    0  0.00000000000E+00  0.00000000000E+00  0.19814420099E+04  0.19814420099E+04  0.00000000000E+00 0. -1.
          1   -1    0    0  502    0 -0.00000000000E+00 -0.00000000000E+00 -0.19642103299E+02  0.19642103299E+02  0.00000000000E+00 0. -1.
         25    1    1    2    0    0 -0.22718713873E+02  0.95719281828E+02  0.43785416742E+03  0.46585361736E+03  0.12500000000E+03 0.  0.
          2    1    1    2  501    0  0.79205955545E+01 -0.11166631269E+03  0.14941492046E+04  0.14983370605E+04  0.00000000000E+00 0. -1.
          1    1    1    2  502    0  0.14798118319E+02  0.15947030864E+02  0.29796534560E+02  0.36893435336E+02  0.00000000000E+00 0. -1.
<mgrwt>
<rscale>  0 0.48926430E+02</rscale>
<asrwt>0</asrwt>
<pdfrwt beam="1">  1        2 0.30483707E+00 0.11003287E+03</pdfrwt>
<pdfrwt beam="2">  1        1 0.30218636E-02 0.21755278E+02</pdfrwt>
<totfact> 0.27947358E+03</totfact>
</mgrwt>
</event>
<event>
 5    1  0.7114032E-003  0.7330744E+02  0.7546771E-02  0.1435858E+00
         -1   -1    0    0    0  501 -0.00000000000E+00  0.00000000000E+00  0.22830397723E+02  0.22830397723E+02  0.00000000000E+00 0.  1.
          1   -1    0    0  502    0  0.00000000000E+00 -0.00000000000E+00 -0.28305770313E+04  0.28305770313E+04  0.00000000000E+00 0. -1.
         25    1    1    2    0    0  0.60106205880E+01 -0.45310125868E+02 -0.44456801383E+03  0.46406341591E+03  0.12500000000E+03 0.  0.
          1    1    1    2  502    0  0.16513009014E+02 -0.32669022015E+02 -0.22487698422E+04  0.22490677507E+04  0.00000000000E+00 0. -1.
         -1    1    1    2    0  501 -0.22523629602E+02  0.77979147883E+02 -0.11440877763E+03  0.14027626240E+03  0.00000000000E+00 0.  1.
<mgrwt>
<rscale>  0 0.51801904E+02</rscale>
<asrwt>0</asrwt>
<pdfrwt beam="2">  1        1 0.43547349E+00 0.36605252E+02</pdfrwt>
<pdfrwt beam="1">  1       -1 0.35123681E-02 0.73307439E+02</pdfrwt>
<totfact> 0.34574076E+02</totfact>
</mgrwt>
</event>
<event>
 5    1  0.7114032E-003  0.1156568E+03  0.7546771E-02  0.1406260E+00
         -1   -1    0    0    0  501 -0.00000000000E+00  0.00000000000E+00  0.12181184953E+02  0.12181184953E+02  0.00000000000E+00 0.  1.
          2   -1    0    0  502    0  0.00000000000E+00 -0.00000000000E+00 -0.24476602686E+04  0.24476602686E+04  0.00000000000E+00 0. -1.
         25    1    1    2    0    0  0.76904925394E+02 -0.10462418511E+03 -0.16568728006E+04  0.16666472527E+04  0.12500000000E+03 0.  0.
          2    1    1    2  502    0 -0.72728741552E+02  0.75802167862E+02 -0.72132832946E+03  0.72893758127E+03  0.00000000000E+00 0. -1.
         -1    1    1    2    0  501 -0.41761838415E+01  0.28822017249E+02 -0.57277953579E+02  0.64256619550E+02  0.00000000000E+00 0.  1.
<mgrwt>
<rscale>  0 0.58036824E+02</rscale>
<asrwt>0</asrwt>
<pdfrwt beam="2">  1        2 0.37656336E+00 0.11565679E+03</pdfrwt>
<pdfrwt beam="1">  1       -1 0.18740273E-02 0.29123001E+02</pdfrwt>
<totfact> 0.29901925E+03</totfact>
</mgrwt>
</event>
<event>
 5    1  0.7114032E-003  0.1687916E+03  0.7546771E-02  0.1390400E+00
          2   -1    0    0  502    0  0.00000000000E+00  0.00000000000E+00  0.20001640453E+04  0.20001640453E+04  0.00000000000E+00 0. -1.
         -3   -1    0    0    0  501 -0.00000000000E+00 -0.00000000000E+00 -0.49938095725E+02  0.49938095725E+02  0.00000000000E+00 0.  1.
         25    1    1    2    0    0  0.51241501371E+02  0.15725067379E+03  0.16704304831E+04  0.16832458123E+04  0.12500000000E+03 0.  0.
          2    1    1    2  502    0  0.22135534871E+02 -0.47163573350E+01  0.15478706115E+03  0.15643292565E+03  0.00000000000E+00 0. -1.
         -3    1    1    2    0  501 -0.73377036242E+02 -0.15253431646E+03  0.12500840535E+03  0.21042340305E+03  0.00000000000E+00 0.  1.
<mgrwt>
<rscale>  0 0.61807444E+02</rscale>
<asrwt>0</asrwt>
<pdfrwt beam="1">  1        2 0.30771748E+00 0.22632409E+02</pdfrwt>
<pdfrwt beam="2">  1       -3 0.76827855E-02 0.16879158E+03</pdfrwt>
<totfact> 0.68163674E+02</totfact>
</mgrwt>
</event>
<event>
 5    1  0.7114032E-003  0.1465344E+03  0.7546771E-02  0.1352962E+00
          2   -1    0    0  502    0  0.00000000000E+00  0.00000000000E+00  0.11338020980E+04  0.11338020980E+04  0.00000000000E+00 0. -1.
         -3   -1    0    0    0  501 -0.00000000000E+00 -0.00000000000E+00 -0.58653691770E+03  0.58653691770E+03  0.00000000000E+00 0.  1.
         25    1    1    2    0    0 -0.10741791331E+03  0.69668158332E+02 -0.22138759791E+03  0.28465721297E+03  0.12500000000E+03 0.  0.
          2    1    1    2  502    0  0.13774759033E+03 -0.51189217151E+02  0.10963051663E+04  0.11061101899E+04  0.00000000000E+00 0. -1.
         -3    1    1    2    0  501 -0.30329677020E+02 -0.18478941180E+02 -0.32765238807E+03  0.32957161283E+03  0.00000000000E+00 0.  1.
<mgrwt>
<rscale>  0 0.72140575E+02</rscale>
<asrwt>0</asrwt>
<pdfrwt beam="1">  1        2 0.17443109E+00 0.14653439E+03</pdfrwt>
<pdfrwt beam="2">  1       -3 0.90236449E-01 0.35515638E+02</pdfrwt>
<totfact> 0.15235985E+01</totfact>
</mgrwt>
</event>
<event>
 5    1  0.7114032E-003  0.3741252E+02  0.7546771E-02  0.1538453E+00
         -2   -1    0    0    0  501 -0.00000000000E+00  0.00000000000E+00  0.10659755101E+03  0.10659755101E+03  0.00000000000E+00 0.  1.
          2   -1    0    0  502    0  0.00000000000E+00 -0.00000000000E+00 -0.16233328887E+03  0.16233328887E+03  0.00000000000E+00 0. -1.
         25    1    1    2    0    0  0.11330007402E+02 -0.12101980874E+02 -0.71750643981E+01  0.12629848993E+03  0.12500000000E+03 0.  0.
          2    1    1    2  502    0  0.29722021517E+02  0.18421613118E+02 -0.82106149350E+02  0.89242221812E+02  0.00000000000E+00 0. -1.
         -2    1    1    2    0  501 -0.41052028920E+02 -0.63196322436E+01  0.33545475890E+02  0.53390128140E+02  0.00000000000E+00 0.  1.
<mgrwt>
<rscale>  0 0.36169564E+02</rscale>
<asrwt>0</asrwt>
<pdfrwt beam="2">  1        2 0.24974352E-01 0.34967905E+02</pdfrwt>
<pdfrwt beam="1">  1       -2 0.16399623E-01 0.37412517E+02</pdfrwt>
<totfact> 0.53977776E+03</totfact>
</mgrwt>
</event>
<event>
 5    1  0.7936107E-003  0.1255304E+03  0.7546771E-02  0.1327873E+00
          2   -1    0    0  502    0  0.00000000000E+00  0.00000000000E+00  0.46071952336E+03  0.46071952336E+03  0.00000000000E+00 0. -1.
         -1   -1    0    0    0  501 -0.00000000000E+00 -0.00000000000E+00 -0.75137150656E+02  0.75137150656E+02  0.00000000000E+00 0.  1.
         25    1    1    2    0    0  0.10997496227E+03 -0.10384575816E+03  0.16685447218E+03  0.25757299684E+03  0.12500000000E+03 0.  0.
          2    1    1    2  502    0 -0.12211280759E+02  0.50048181461E+02  0.11464996291E+03  0.12569228235E+03  0.00000000000E+00 0. -1.
         -1    1    1    2    0  501 -0.97763681507E+02  0.53797576695E+02  0.10407793761E+03  0.15259139483E+03  0.00000000000E+00 0.  1.
<mgrwt>
<rscale>  0 0.80416857E+02</rscale>
<asrwt>0</asrwt>
<pdfrwt beam="1">  1        2 0.70879925E-01 0.51516365E+02</pdfrwt>
<pdfrwt beam="2">  1       -1 0.11559562E-01 0.12553042E+03</pdfrwt>
<totfact> 0.36833447E+03</totfact>
</mgrwt>
</event>
<event>
 5    1  0.7114032E-003  0.1019572E+03  0.7546771E-02  0.1309463E+00
          2   -1    0    0  502    0  0.00000000000E+00  0.00000000000E+00  0.13250166951E+04  0.13250166951E+04  0.00000000000E+00 0. -1.
         -1   -1    0    0    0  501 -0.00000000000E+00 -0.00000000000E+00 -0.80426701650E+02  0.80426701650E+02  0.00000000000E+00 0.  1.
         25    1    1    2    0    0  0.12029524643E+03 -0.11257305044E+03  0.44817506491E+03  0.49358841843E+03  0.12500000000E+03 0.  0.
          2    1    1    2  502    0 -0.67994634146E+02  0.31153950202E+02  0.81060680980E+03  0.81404989956E+03  0.00000000000E+00 0. -1.
         -1    1    1    2    0  501 -0.52300612288E+02  0.81419100234E+02 -0.14191881299E+02  0.97805078719E+02  0.00000000000E+00 0.  1.
<mgrwt>
<rscale>  0 0.87324549E+02</rscale>
<asrwt>0</asrwt>
<pdfrwt beam="1">  1        2 0.20384871E+00 0.74791971E+02</pdfrwt>
<pdfrwt beam="2">  1       -1 0.12373340E-01 0.10195716E+03</pdfrwt>
<totfact> 0.88206167E+02</totfact>
</mgrwt>
</event>
<event>
 5    1  0.7114032E-003  0.9903985E+02  0.7546771E-02  0.1314339E+00
          1   -1    0    0  501    0  0.00000000000E+00  0.00000000000E+00  0.14862339038E+04  0.14862339038E+04  0.00000000000E+00 0. -1.
          3   -1    0    0  502    0 -0.00000000000E+00 -0.00000000000E+00 -0.71511813757E+02  0.71511813757E+02  0.00000000000E+00 0. -1.
         25    1    1    2    0    0 -0.20072559858E+02  0.36262444991E+02  0.26526013190E+03  0.29615166748E+03  0.12500000000E+03 0.  0.
          1    1    1    2  501    0  0.71904991195E+01 -0.10879963207E+03  0.11776694963E+04  0.11827064326E+04  0.00000000000E+00 0. -1.
          3    1    1    2  502    0  0.12882060739E+02  0.72537187077E+02 -0.28207538078E+02  0.78887617547E+02  0.00000000000E+00 0. -1.
<mgrwt>
<rscale>  0 0.85419447E+02</rscale>
<asrwt>0</asrwt>
<pdfrwt beam="1">  1        1 0.22865135E+00 0.99039847E+02</pdfrwt>
<pdfrwt beam="2">  1        3 0.11001819E-01 0.73672186E+02</pdfrwt>
<totfact> 0.24603187E+02</totfact>
</mgrwt>
</event>
<event>
 5    1  0.7114032E-003  0.6913211E+02  0.7546771E-02  0.1392135E+00
          2   -1    0    0  501    0  0.00000000000E+00  0.00000000000E+00  0.24445368055E+04  0.24445368055E+04  0.00000000000E+00 0. -1.
          1   -1    0    0  502    0 -0.00000000000E+00 -0.00000000000E+00 -0.51951535774E+02  0.51951535774E+02  0.00000000000E+00 0. -1.
         25    1    1    2    0    0  0.20702366666E+02  0.21755342826E+01  0.60469228395E+03  0.61782770997E+03  0.12500000000E+03 0.  0.
          2    1    1    2  501    0  0.37112939748E+02  0.39904047486E+02  0.18044408439E+04  0.18052635437E+04  0.00000000000E+00 0. -1.
          1    1    1    2  502    0 -0.57815306414E+02 -0.42079581769E+02 -0.16547858089E+02  0.73397087578E+02  0.00000000000E+00 0. -1.
<mgrwt>
<rscale>  0 0.61378767E+02</rscale>
<asrwt>0</asrwt>
<pdfrwt beam="1">  1        2 0.37608250E+00 0.54494984E+02</pdfrwt>
<pdfrwt beam="2">  1        1 0.79925459E-02 0.69132106E+02</pdfrwt>
<totfact> 0.57079555E+02</totfact>
</mgrwt>
</event>
<event>
 5    1  0.7114032E-003  0.1210099E+03  0.7546771E-02  0.1383680E+00
         -2   -1    0    0    0  501 -0.00000000000E+00  0.00000000000E+00  0.28567756339E+03  0.28567756339E+03  0.00000000000E+00 0.  1.
          2   -1    0    0  502    0  0.00000000000E+00 -0.00000000000E+00 -0.29037577294E+04  0.29037577294E+04  0.00000000000E+00 0. -1.
         25    1    1    2    0    0 -0.74694136393E+02  0.49050002070E+02  0.20616037634E+03  0.25712296180E+03  0.12500000000E+03 0.  0.
          2    1    1    2  502    0  0.10715492612E+03 -0.56604354591E+02 -0.28717349647E+04  0.28742908584E+04  0.00000000000E+00 0. -1.
         -2    1    1    2    0  501 -0.32460789730E+02  0.75543525208E+01  0.47494422423E+02  0.58021472518E+02  0.00000000000E+00 0.  1.
<mgrwt>
<rscale>  0 0.63506277E+02</rscale>
<asrwt>0</asrwt>
<pdfrwt beam="2">  1        2 0.44673193E+00 0.12100993E+03</pdfrwt>
<pdfrwt beam="1">  1       -2 0.43950397E-01 0.33328233E+02</pdfrwt>
<totfact> 0.13225510E+01</totfact>
</mgrwt>
</event>
<event>
 5    1  0.7114032E-003  0.9972614E+02  0.7546771E-02  0.1468629E+00
          2   -1    0    0  501    0  0.00000000000E+00  0.00000000000E+00  0.21547870993E+04  0.21547870993E+04  0.00000000000E+00 0. -1.
          1   -1    0    0  502    0 -0.00000000000E+00 -0.00000000000E+00 -0.86812740334E+03  0.86812740334E+03  0.00000000000E+00 0. -1.
         25    1    1    2    0    0 -0.22245308873E+02  0.10676014773E+03 -0.42668204547E+02  0.17128385385E+03  0.12500000000E+03 0.  0.
          2    1    1    2  501    0  0.23367593836E+01 -0.99614953334E+02  0.20891446524E+04  0.20915195381E+04  0.00000000000E+00 0. -1.
          1    1    1    2  502    0  0.19908549490E+02 -0.71451943958E+01 -0.75981675191E+03  0.76011111072E+03  0.00000000000E+00 0. -1.
<mgrwt>
<rscale>  0 0.45928208E+02</rscale>
<asrwt>0</asrwt>
<pdfrwt beam="1">  1        2 0.33150571E+00 0.99726138E+02</pdfrwt>
<pdfrwt beam="2">  1        1 0.13355806E+00 0.21151930E+02</pdfrwt>
<totfact> 0.22133856E+01</totfact>
</mgrwt>
</event>
<event>
 5    1  0.7114032E-003  0.3748314E+02  0.7546771E-02  0.1567714E+00
          2   -1    0    0  502    0  0.00000000000E+00  0.00000000000E+00  0.12799089684E+04  0.12799089684E+04  0.00000000000E+00 0. -1.
          2   -1    0    0  501    0 -0.00000000000E+00 -0.00000000000E+00 -0.14281555778E+02  0.14281555778E+02  0.00000000000E+00 0. -1.
         25    1    1    2    0    0 -0.96078714526E+01  0.60775956858E+02  0.61039131702E+03  0.62608992007E+03  0.12500000000E+03 0.  0.
          2    1    1    2  501    0  0.14485548420E+02 -0.25058165966E+02  0.29503232128E+02  0.41330176634E+02  0.00000000000E+00 0. -1.
          2    1    1    2  502    0 -0.48776769675E+01 -0.35717790892E+02  0.62573286343E+03  0.62677042743E+03  0.00000000000E+00 0. -1.
<mgrwt>
<rscale>  0 0.32937881E+02</rscale>
<asrwt>0</asrwt>
<pdfrwt beam="1">  1        2 0.19690898E+00 0.37483141E+02</pdfrwt>
<pdfrwt beam="2">  1        2 0.21971634E-02 0.28943787E+02</pdfrwt>
<totfact> 0.11454500E+04</totfact>
</mgrwt>
</event>
<event>
 5    1  0.7114032E-003  0.1092439E+03  0.7546771E-02  0.1284730E+00
          2   -1    0    0  502    0  0.00000000000E+00  0.00000000000E+00  0.43910994035E+03  0.43910994035E+03  0.00000000000E+00 0. -1.
         -1   -1    0    0    0  501 -0.00000000000E+00 -0.00000000000E+00 -0.25199312034E+03  0.25199312034E+03  0.00000000000E+00 0.  1.
         25    1    1    2    0    0 -0.49517993449E+02 -0.12381085732E+03  0.14518738716E+03  0.23342137318E+03  0.12500000000E+03 0.  0.
          2    1    1    2  502    0 -0.35849337297E+02  0.10341066726E+03  0.22746822702E+03  0.25242966425E+03  0.00000000000E+00 0. -1.
         -1    1    1    2    0  501  0.85367330745E+02  0.20400190055E+02 -0.18553879417E+03  0.20525202327E+03  0.00000000000E+00 0.  1.
<mgrwt>
<rscale>  0 0.97920628E+02</rscale>
<asrwt>0</asrwt>
<pdfrwt beam="1">  1        2 0.67555375E-01 0.10924393E+03</pdfrwt>
<pdfrwt beam="2">  1       -1 0.38768172E-01 0.87771003E+02</pdfrwt>
<totfact> 0.54119336E+02</totfact>
</mgrwt>
</event>
<event>
 5    1  0.7114032E-003  0.1653512E+03  0.7546771E-02  0.1261813E+00
          1   -1    0    0  502    0 -0.00000000000E+00  0.00000000000E+00  0.19662186579E+03  0.19662186579E+03  0.00000000000E+00 0. -1.
          2   -1    0    0  501    0  0.00000000000E+00 -0.00000000000E+00 -0.80348693024E+03  0.80348693024E+03  0.00000000000E+00 0. -1.
         25    1    1    2    0    0  0.14750850311E+03  0.15874308696E+03 -0.26024139467E+03  0.36098297695E+03  0.12500000000E+03 0.  0.
          2    1    1    2  501    0 -0.69307267080E+02 -0.20552849529E+02 -0.44599224188E+03  0.45181301078E+03  0.00000000000E+00 0. -1.
          1    1    1    2  502    0 -0.78201236031E+02 -0.13819023743E+03  0.99368572093E+02  0.18731280831E+03  0.00000000000E+00 0. -1.
<mgrwt>
<rscale>  0 0.10933125E+03</rscale>
<asrwt>0</asrwt>
<pdfrwt beam="2">  1        2 0.12361337E+00 0.72290503E+02</pdfrwt>
<pdfrwt beam="1">  1        1 0.30249518E-01 0.16535121E+03</pdfrwt>
<totfact> 0.75082050E+02</totfact>
</mgrwt>
</event>
<event>
 5    1  0.7114032E-003  0.1209117E+03  0.7546771E-02  0.1324465E+00
          2   -1    0    0  502    0  0.00000000000E+00  0.00000000000E+00  0.76416322763E+03  0.76416322763E+03  0.00000000000E+00 0. -1.
         -1   -1    0    0    0  501 -0.00000000000E+00 -0.00000000000E+00 -0.44205246441E+02  0.44205246441E+02  0.00000000000E+00 0.  1.
         25    1    1    2    0    0 -0.82140882873E+02 -0.12641544444E+03  0.33892625197E+03  0.39143836489E+03  0.12500000000E+03 0.  0.
          2    1    1    2  502    0  0.35875793428E+01  0.55004672734E+02  0.19603398883E+03  0.20363621860E+03  0.00000000000E+00 0. -1.
         -1    1    1    2    0  501  0.78553303530E+02  0.71410771709E+02  0.18499774038E+03  0.21329389058E+03  0.00000000000E+00 0.  1.
<mgrwt>
<rscale>  0 0.81638481E+02</rscale>
<asrwt>0</asrwt>
<pdfrwt beam="1">  1        2 0.11756356E+00 0.55121545E+02</pdfrwt>
<pdfrwt beam="2">  1       -1 0.68008077E-02 0.12091173E+03</pdfrwt>
<totfact> 0.47041899E+03</totfact>
</mgrwt>
</event>
<event>
 5    1  0.7114032E-003  0.1479564E+03  0.7546771E-02  0.1213162E+00
         -1   -1    0    0    0  501 -0.00000000000E+00  0.00000000000E+00  0.16908610076E+03  0.16908610076E+03  0.00000000000E+00 0.  1.
          1   -1    0    0  502    0  0.00000000000E+00 -0.00000000000E+00 -0.25681126647E+04  0.25681126647E+04  0.00000000000E+00 0. -1.
         25    1    1    2    0    0 -0.18507878346E+01  0.10774918603E+03 -0.29054657178E+02  0.16757829695E+03  0.12500000000E+03 0.  0.
          1    1    1    2  502    0 -0.12797682663E+03 -0.80254276620E+02 -0.24222732781E+04  0.24269789144E+04  0.00000000000E+00 0. -1.
         -1    1    1    2    0  501  0.12982761446E+03 -0.27494909414E+02  0.52301371329E+02  0.14264155413E+03  0.00000000000E+00 0.  1.
<mgrwt>
<rscale>  0 0.14012446E+03</rscale>
<asrwt>0</asrwt>
<pdfrwt beam="2">  1        1 0.39509424E+00 0.14795637E+03</pdfrwt>
<pdfrwt beam="1">  1       -1 0.26013247E-01 0.13270712E+03</pdfrwt>
<totfact> 0.20175274E+01</totfact>
</mgrwt>
</event>
<event>
 5    1  0.7114032E-003  0.1203263E+03  0.7546771E-02  0.1309343E+00
          2   -1    0    0  502    0  0.00000000000E+00  0.00000000000E+00  0.38185013600E+03  0.38185013600E+03  0.00000000000E+00 0. -1.
          2   -1    0    0  501    0 -0.00000000000E+00 -0.00000000000E+00 -0.44624173745E+04  0.44624173745E+04  0.00000000000E+00 0.  1.
         25    1    1    2    0    0  0.15147583604E+03 -0.80020379716E+02 -0.15111442105E+04  0.15259521667E+04  0.12500000000E+03 0.  0.
          2    1    1    2  501    0 -0.63424049643E+02 -0.15662454897E+01 -0.29338968893E+04  0.29345827677E+04  0.00000000000E+00 0.  1.
          2    1    1    2  502    0 -0.88051786394E+02  0.81586625206E+02  0.36447386125E+03  0.38373257620E+03  0.00000000000E+00 0. -1.
<mgrwt>
<rscale>  0 0.87372245E+02</rscale>
<asrwt>0</asrwt>
<pdfrwt beam="1">  1        2 0.58746174E-01 0.12032632E+03</pdfrwt>
<pdfrwt beam="2">  1        2 0.68652576E+00 0.63443386E+02</pdfrwt>
<totfact> 0.34227587E+00</totfact>
</mgrwt>
</event>
<event>
 5    1  0.7114032E-003  0.8133007E+02  0.7546771E-02  0.1328592E+00
         -2   -1    0    0    0  501 -0.00000000000E+00  0.00000000000E+00  0.55946375385E+02  0.55946375385E+02  0.00000000000E+00 0.  1.
          1   -1    0    0  502    0  0.00000000000E+00 -0.00000000000E+00 -0.14783016112E+04  0.14783016112E+04  0.00000000000E+00 0.  1.
         25    1    1    2    0    0 -0.11131321060E+03  0.37663526819E+02 -0.28297256013E+03  0.33091938882E+03  0.12500000000E+03 0.  0.
          1    1    1    2  502    0  0.74197641612E+02  0.32087509231E+02 -0.11187513626E+04  0.11216681815E+04  0.00000000000E+00 0.  1.
         -2    1    1    2    0  501  0.37115568984E+02 -0.69751036050E+02 -0.20631313078E+02  0.81660416178E+02  0.00000000000E+00 0.  1.
<mgrwt>
<rscale>  0 0.80162259E+02</rscale>
<asrwt>0</asrwt>
<pdfrwt beam="2">  1        1 0.22743100E+00 0.81330070E+02</pdfrwt>
<pdfrwt beam="1">  1       -2 0.86071354E-02 0.79011218E+02</pdfrwt>
<totfact> 0.56432367E+02</totfact>
</mgrwt>
</event>
<event>
 5    1  0.7114032E-003  0.5277524E+02  0.7546771E-02  0.1517693E+00
          2   -1    0    0  501    0  0.00000000000E+00  0.00000000000E+00  0.62313831273E+03  0.62313831273E+03  0.00000000000E+00 0. -1.
          2   -1    0    0  502    0 -0.00000000000E+00 -0.00000000000E+00 -0.11661380728E+04  0.11661380728E+04  0.00000000000E+00 0. -1.
         25    1    1    2    0    0  0.69789716772E+02 -0.26356117738E+01  0.27608522567E+03  0.31100739999E+03  0.12500000000E+03 0.  0.
          2    1    1    2  501    0 -0.20041072567E+02  0.20175425702E+02  0.32837153800E+03  0.32960060583E+03  0.00000000000E+00 0. -1.
          2    1    1    2  502    0 -0.49748644205E+02 -0.17539813928E+02 -0.11474565237E+04  0.11486683797E+04  0.00000000000E+00 0. -1.
<mgrwt>
<rscale>  0 0.38740118E+02</rscale>
<asrwt>0</asrwt>
<pdfrwt beam="1">  1        2 0.95867433E-01 0.28437517E+02</pdfrwt>
<pdfrwt beam="2">  1        2 0.17940586E+00 0.52775238E+02</pdfrwt>
<totfact> 0.18349296E+02</totfact>
</mgrwt>
</event>
<event>
 5    1  0.7114032E-003  0.9197297E+02  0.7546771E-02  0.1353910E+00
          1   -1    0    0  502    0 -0.00000000000E+00  0.00000000000E+00  0.38554284740E+02  0.38554284740E+02  0.00000000000E+00 0. -1.
          2   -1    0    0  501    0  0.00000000000E+00 -0.00000000000E+00 -0.11039185017E+04  0.11039185017E+04  0.00000000000E+00 0. -1.
         25    1    1    2    0    0  0.10214151684E+03  0.89054533301E+02 -0.35694469748E+03  0.40174384429E+03  0.12500000000E+03 0.  0.
          2    1    1    2  501    0 -0.38877660297E+02 -0.40487467790E+02 -0.61642276736E+03  0.61897312998E+03  0.00000000000E+00 0. -1.
          1    1    1    2  502    0 -0.63263856542E+02 -0.48567065511E+02 -0.91996752112E+02  0.12175581217E+03  0.00000000000E+00 0. -1.
<mgrwt>
<rscale>  0 0.71850886E+02</rscale>
<asrwt>0</asrwt>
<pdfrwt beam="2">  1        2 0.16983358E+00 0.56131164E+02</pdfrwt>
<pdfrwt beam="1">  1        1 0.59314298E-02 0.91972970E+02</pdfrwt>
<totfact> 0.40670019E+03</totfact>
</mgrwt>
</event>
<event>
 5    1  0.7114032E-003  0.1615759E+03  0.7546771E-02  0.1277465E+00
          2   -1    0    0  502    0  0.00000000000E+00  0.00000000000E+00  0.16904541722E+04  0.16904541722E+04  0.00000000000E+00 0. -1.
          2   -1    0    0  501    0 -0.00000000000E+00 -0.00000000000E+00 -0.95998681321E+02  0.95998681321E+02  0.00000000000E+00 0.  1.
         25    1    1    2    0    0  0.47176966831E+02  0.10937916220E+03  0.34038614486E+03  0.38167682001E+03  0.12500000000E+03 0.  0.
          2    1    1    2  501    0 -0.32338094893E+02 -0.17120680447E+03  0.27299839116E+02  0.17635986928E+03  0.00000000000E+00 0.  1.
          2    1    1    2  502    0 -0.14838871937E+02  0.61827642264E+02  0.12267695069E+04  0.12284161643E+04  0.00000000000E+00 0. -1.
<mgrwt>
<rscale>  0 0.10135851E+03</rscale>
<asrwt>0</asrwt>
<pdfrwt beam="1">  1        2 0.26006985E+00 0.63583406E+02</pdfrwt>
<pdfrwt beam="2">  1        2 0.14769029E-01 0.16157594E+03</pdfrwt>
<totfact> 0.74019724E+02</totfact>
</mgrwt>
</event>
<event>
 5    1  0.7114032E-003  0.1032129E+03  0.7546771E-02  0.1326289E+00
          2   -1    0    0  501    0  0.00000000000E+00  0.00000000000E+00  0.29549458339E+04  0.29549458339E+04  0.00000000000E+00 0. -1.
          2   -1    0    0  502    0 -0.00000000000E+00 -0.00000000000E+00 -0.22744300780E+02  0.22744300780E+02  0.00000000000E+00 0. -1.
         25    1    1    2    0    0  0.95845079521E+02 -0.67442771630E+02  0.18514155618E+04  0.18593276713E+04  0.12500000000E+03 0.  0.
          2    1    1    2  501    0 -0.56841551841E+02 -0.28393783442E+02  0.94750333919E+03  0.94963137413E+03  0.00000000000E+00 0. -1.
          2    1    1    2  502    0 -0.39003527679E+02  0.95836555072E+02  0.13328263214E+03  0.16873108928E+03  0.00000000000E+00 0. -1.
<mgrwt>
<rscale>  0 0.80981575E+02</rscale>
<asrwt>0</asrwt>
<pdfrwt beam="1">  1        2 0.45460675E+00 0.63538720E+02</pdfrwt>
<pdfrwt beam="2">  1        2 0.34991255E-02 0.10321290E+03</pdfrwt>
<totfact> 0.99250236E+02</totfact>
</mgrwt>
</event>
<event>
 5    1  0.7114032E-003  0.8256916E+02  0.7546771E-02  0.1361337E+00
          1   -1    0    0  502    0  0.00000000000E+00  0.00000000000E+00  0.34789289075E+03  0.34789289075E+03  0.00000000000E+00 0. -1.
         -2   -1    0    0    0  501 -0.00000000000E+00 -0.00000000000E+00 -0.45813052437E+03  0.45813052437E+03  0.00000000000E+00 0.  1.
         25    1    1    2    0    0 -0.66527675202E+02 -0.14678689818E+02 -0.12456610818E+03  0.18916424295E+03  0.12500000000E+03 0.  0.
          1    1    1    2  502    0  0.46279180943E+02  0.69805198047E+02  0.30706905541E+03  0.31828592972E+03  0.00000000000E+00 0. -1.
         -2    1    1    2    0  501  0.20248494259E+02 -0.55126508229E+02 -0.29274058086E+03  0.29857324245E+03  0.00000000000E+00 0.  1.
<mgrwt>
<rscale>  0 0.69635408E+02</rscale>
<asrwt>0</asrwt>
<pdfrwt beam="1">  1        1 0.53521983E-01 0.82569157E+02</pdfrwt>
<pdfrwt beam="2">  1       -2 0.70481619E-01 0.58727621E+02</pdfrwt>
<totfact> 0.12463174E+02</totfact>
</mgrwt>
</event>
<event>
 5    1  0.7114032E-003  0.4391395E+02  0.7546771E-02  0.1585372E+00
          1   -1    0    0  502    0 -0.00000000000E+00  0.00000000000E+00  0.15390602867E+04  0.15390602867E+04  0.00000000000E+00 0. -1.
          2   -1    0    0  501    0  0.00000000000E+00 -0.00000000000E+00 -0.14741759108E+02  0.14741759108E+02  0.00000000000E+00 0.  1.
         25    1    1    2    0    0  0.14872915997E+02 -0.31333445198E+02  0.10891263751E+04  0.10968246210E+04  0.12500000000E+03 0.  0.
          2    1    1    2  501    0  0.30099715981E+01  0.44390501178E+02  0.36165511734E+02  0.57336905766E+02  0.00000000000E+00 0.  1.
          1    1    1    2  502    0 -0.17882887595E+02 -0.13057055980E+02  0.39902664079E+03  0.39964051902E+03  0.00000000000E+00 0. -1.
<mgrwt>
<rscale>  0 0.31182667E+02</rscale>
<asrwt>0</asrwt>
<pdfrwt beam="2">  1        2 0.22679642E-02 0.43913948E+02</pdfrwt>
<pdfrwt beam="1">  1        1 0.23677838E+00 0.22142366E+02</pdfrwt>
<totfact> 0.43606331E+03</totfact>
</mgrwt>
</event>
<event>
 5    1  0.7114032E-003  0.4234253E+02  0.7546771E-02  0.1548900E+00
          1   -1    0    0  502    0 -0.00000000000E+00  0.00000000000E+00  0.54344598580E+03  0.54344598580E+03  0.00000000000E+00 0. -1.
          2   -1    0    0  501    0  0.00000000000E+00 -0.00000000000E+00 -0.28893753699E+03  0.28893753699E+03  0.00000000000E+00 0. -1.
         25    1    1    2    0    0  0.40694837161E+02 -0.45341297579E+02  0.22848699980E+02  0.14092184404E+03  0.12500000000E+03 0.  0.
          2    1    1    2  501    0 -0.38644317438E+02  0.16539075571E+02 -0.22752227353E+03  0.23137266313E+03  0.00000000000E+00 0. -1.
          1    1    1    2  502    0 -0.20505197236E+01  0.28802222008E+02  0.45918202237E+03  0.46008901561E+03  0.00000000000E+00 0. -1.
<mgrwt>
<rscale>  0 0.34966349E+02</rscale>
<asrwt>0</asrwt>
<pdfrwt beam="2">  1        2 0.44451929E-01 0.42342526E+02</pdfrwt>
<pdfrwt beam="1">  1        1 0.83607075E-01 0.28875121E+02</pdfrwt>
<totfact> 0.65498520E+02</totfact>
</mgrwt>
</event>
<event>
 5    1  0.7114032E-003  0.4762366E+02  0.7546771E-02  0.1517426E+00
          1   -1    0    0  502    0 -0.00000000000E+00  0.00000000000E+00  0.54187751149E+03  0.54187751149E+03  0.00000000000E+00 0. -1.
          2   -1    0    0  501    0  0.00000000000E+00 -0.00000000000E+00 -0.19268996183E+03  0.19268996183E+03  0.00000000000E+00 0. -1.
         25    1    1    2    0    0  0.64956129477E+01  0.26717693657E+02 -0.60255423543E+01  0.12813014986E+03  0.12500000000E+03 0.  0.
          2    1    1    2  501    0  0.18427451542E+02 -0.46095781459E+02 -0.12016324960E+03  0.13001384001E+03  0.00000000000E+00 0. -1.
          1    1    1    2  502    0 -0.24923064489E+02  0.19378087802E+02  0.47537634161E+03  0.47642348346E+03  0.00000000000E+00 0. -1.
<mgrwt>
<rscale>  0 0.38774763E+02</rscale>
<asrwt>0</asrwt>
<pdfrwt beam="2">  1        2 0.29644610E-01 0.47623657E+02</pdfrwt>
<pdfrwt beam="1">  1        1 0.83365770E-01 0.31570072E+02</pdfrwt>
<totfact> 0.99720099E+02</totfact>
</mgrwt>
</event>
<event>
 5    1  0.7114032E-003  0.3221398E+02  0.7546771E-02  0.1588292E+00
          1   -1    0    0  502    0  0.00000000000E+00  0.00000000000E+00  0.18722592742E+03  0.18722592742E+03  0.00000000000E+00 0. -1.
         -2   -1    0    0    0  501 -0.00000000000E+00 -0.00000000000E+00 -0.57697531480E+02  0.57697531480E+02  0.00000000000E+00 0.  1.
         25    1    1    2    0    0  0.68260472558E+01 -0.71316187354E+01  0.73260959253E+02  0.14522266716E+03  0.12500000000E+03 0.  0.
          1    1    1    2  502    0  0.22995054548E+02  0.22560311595E+02  0.57711803102E+02  0.66093815219E+02  0.00000000000E+00 0. -1.
         -2    1    1    2    0  501 -0.29821101804E+02 -0.15428692860E+02 -0.14443664171E+01  0.33606976516E+02  0.00000000000E+00 0.  1.
<mgrwt>
<rscale>  0 0.30905338E+02</rscale>
<asrwt>0</asrwt>
<pdfrwt beam="1">  1        1 0.28803989E-01 0.32213975E+02</pdfrwt>
<pdfrwt beam="2">  1       -2 0.88765434E-02 0.29649863E+02</pdfrwt>
<totfact> 0.90121117E+03</totfact>
</mgrwt>
</event>
<event>
 5    1  0.7114032E-003  0.1881384E+03  0.7546771E-02  0.1192724E+00
          2   -1    0    0  501    0  0.00000000000E+00  0.00000000000E+00  0.12971386367E+04  0.12971386367E+04  0.00000000000E+00 0. -1.
          1   -1    0    0  502    0 -0.00000000000E+00 -0.00000000000E+00 -0.34091778836E+03  0.34091778836E+03  0.00000000000E+00 0. -1.
         25    1    1    2    0    0  0.44614735520E+02  0.10541224651E+03  0.12376890719E+03  0.20987129086E+03  0.12500000000E+03 0.  0.
          2    1    1    2  501    0  0.39090112094E+02 -0.20508229811E+03  0.11058507942E+04  0.11253856072E+04  0.00000000000E+00 0. -1.
          1    1    1    2  502    0 -0.83704847614E+02  0.99670051602E+02 -0.27339885306E+03  0.30279952700E+03  0.00000000000E+00 0. -1.
<mgrwt>
<rscale>  0 0.15648441E+03</rscale>
<asrwt>0</asrwt>
<pdfrwt beam="1">  1        2 0.19955979E+00 0.18813841E+03</pdfrwt>
<pdfrwt beam="2">  1        1 0.52448891E-01 0.13015614E+03</pdfrwt>
<totfact> 0.18486573E+02</totfact>
</mgrwt>
</event>
<event>
 5    1  0.7114032E-003  0.1196144E+03  0.7546771E-02  0.1402739E+00
          2   -1    0    0  501    0  0.00000000000E+00  0.00000000000E+00  0.14999666159E+03  0.14999666159E+03  0.00000000000E+00 0. -1.
          2   -1    0    0  502    0 -0.00000000000E+00 -0.00000000000E+00 -0.44739507770E+03  0.44739507770E+03  0.00000000000E+00 0. -1.
         25    1    1    2    0    0 -0.10217474361E+03 -0.82670069313E+01 -0.11287835251E+03  0.19716628541E+03  0.12500000000E+03 0.  0.
          2    1    1    2  501    0 -0.22904081534E+02  0.17706412346E+02  0.92074080864E+02  0.96518134856E+02  0.00000000000E+00 0. -1.
          2    1    1    2  502    0  0.12507882515E+03 -0.94394054150E+01 -0.27659414446E+03  0.30370731902E+03  0.00000000000E+00 0. -1.
<mgrwt>
<rscale>  0 0.58846078E+02</rscale>
<asrwt>0</asrwt>
<pdfrwt beam="1">  1        2 0.23076410E-01 0.28950198E+02</pdfrwt>
<pdfrwt beam="2">  1        2 0.68830011E-01 0.11961441E+03</pdfrwt>
<totfact> 0.23921023E+03</totfact>
</mgrwt>
</event>
<event>
 5    1  0.7114032E-003  0.1848161E+03  0.7546771E-02  0.1289482E+00
         -1   -1    0    0    0  501 -0.00000000000E+00  0.00000000000E+00  0.12904363175E+03  0.12904363175E+03  0.00000000000E+00 0.  1.
          1   -1    0    0  502    0  0.00000000000E+00 -0.00000000000E+00 -0.11119347397E+04  0.11119347397E+04  0.00000000000E+00 0. -1.
         25    1    1    2    0    0 -0.18095542062E+02 -0.20836621493E+03 -0.58984134225E+03  0.63818628722E+03  0.12500000000E+03 0.  0.
          1    1    1    2  502    0  0.42906060927E+02  0.16540250017E+03 -0.47621956862E+03  0.50594860872E+03  0.00000000000E+00 0. -1.
         -1    1    1    2    0  501 -0.24810518866E+02  0.42963714761E+02  0.83169802920E+02  0.96843475517E+02  0.00000000000E+00 0.  1.
<mgrwt>
<rscale>  0 0.95756298E+02</rscale>
<asrwt>0</asrwt>
<pdfrwt beam="2">  1        1 0.17106688E+00 0.18481611E+03</pdfrwt>
<pdfrwt beam="1">  1       -1 0.19852866E-01 0.49612928E+02</pdfrwt>
<totfact> 0.26299472E+02</totfact>
</mgrwt>
</event>
<event>
 5    1  0.7114032E-003  0.8736182E+02  0.7546771E-02  0.1459091E+00
          2   -1    0    0  501    0  0.00000000000E+00  0.00000000000E+00  0.33954820112E+03  0.33954820112E+03  0.00000000000E+00 0. -1.
          3   -1    0    0  502    0 -0.00000000000E+00 -0.00000000000E+00 -0.10990351159E+03  0.10990351159E+03  0.00000000000E+00 0.  1.
         25    1    1    2    0    0  0.10280095225E+03 -0.38899050425E+02  0.57905965048E+02  0.17623641138E+03  0.12500000000E+03 0.  0.
          2    1    1    2  501    0 -0.79828665993E+02  0.27006672618E+02  0.21042745246E+03  0.22667529426E+03  0.00000000000E+00 0. -1.
          3    1    1    2  502    0 -0.22972286254E+02  0.11892377807E+02 -0.38688727982E+02  0.46540007075E+02  0.00000000000E+00 0.  1.
<mgrwt>
<rscale>  0 0.47538169E+02</rscale>
<asrwt>0</asrwt>
<pdfrwt beam="1">  1        2 0.52238184E-01 0.87361821E+02</pdfrwt>
<pdfrwt beam="2">  1        3 0.16908233E-01 0.25868022E+02</pdfrwt>
<totfact> 0.14009962E+03</totfact>
</mgrwt>
</event>
<event>
 5    1  0.7114032E-003  0.8081877E+02  0.7546771E-02  0.1342172E+00
          2   -1    0    0  502    0  0.00000000000E+00  0.00000000000E+00  0.34281101785E+04  0.34281101785E+04  0.00000000000E+00 0. -1.
          2   -1    0    0  501    0 -0.00000000000E+00 -0.00000000000E+00 -0.21431586391E+03  0.21431586391E+03  0.00000000000E+00 0. -1.
         25    1    1    2    0    0 -0.12326739702E+03  0.27235606441E+02  0.30989422192E+01  0.17768295605E+03  0.12500000000E+03 0.  0.
          2    1    1    2  501    0  0.56929051033E+02 -0.51473108884E+02 -0.11502151131E+03  0.13827633873E+03  0.00000000000E+00 0. -1.
          2    1    1    2  502    0  0.66338345989E+02  0.24237502443E+02  0.33257168836E+04  0.33264667476E+04  0.00000000000E+00 0. -1.
<mgrwt>
<rscale>  0 0.75551450E+02</rscale>
<asrwt>0</asrwt>
<pdfrwt beam="1">  1        2 0.52740153E+00 0.70627422E+02</pdfrwt>
<pdfrwt beam="2">  1        2 0.32971674E-01 0.80818773E+02</pdfrwt>
<totfact> 0.34552503E+01</totfact>
</mgrwt>
</event>
<event>
 5    1  0.7114032E-003  0.8651387E+02  0.7546771E-02  0.1425596E+00
         -1   -1    0    0    0  501 -0.00000000000E+00  0.00000000000E+00  0.14129959697E+02  0.14129959697E+02  0.00000000000E+00 0.  1.
          2   -1    0    0  502    0  0.00000000000E+00 -0.00000000000E+00 -0.15012394299E+04  0.15012394299E+04  0.00000000000E+00 0. -1.
         25    1    1    2    0    0 -0.63587942157E+02 -0.80181914356E+02 -0.78213096971E+03  0.79864035683E+03  0.12500000000E+03 0.  0.
          2    1    1    2  502    0 -0.28267221377E+01  0.33404584059E+02 -0.39020016112E+03  0.39163761608E+03  0.00000000000E+00 0. -1.
         -1    1    1    2    0  501  0.66414664295E+02  0.46777330297E+02 -0.31477833940E+03  0.32509141671E+03  0.00000000000E+00 0.  1.
<mgrwt>
<rscale>  0 0.53854326E+02</rscale>
<asrwt>0</asrwt>
<pdfrwt beam="2">  1        2 0.23095968E+00 0.33523970E+02</pdfrwt>
<pdfrwt beam="1">  1       -1 0.21738422E-02 0.86513869E+02</pdfrwt>
<totfact> 0.97725839E+03</totfact>
</mgrwt>
</event>
<event>
 5    1  0.7114032E-003  0.1357102E+03  0.7546771E-02  0.1287452E+00
         -1   -1    0    0    0  501 -0.00000000000E+00  0.00000000000E+00  0.65878270664E+03  0.65878270664E+03  0.00000000000E+00 0.  1.
          3   -1    0    0  502    0  0.00000000000E+00 -0.00000000000E+00 -0.24363524657E+03  0.24363524657E+03  0.00000000000E+00 0. -1.
         25    1    1    2    0    0 -0.10309073138E+03  0.52960500026E+02  0.29806533781E+03  0.34336636274E+03  0.12500000000E+03 0.  0.
          3    1    1    2  502    0  0.13791373607E+03  0.64509957744E+01 -0.19529748431E+03  0.23917132211E+03  0.00000000000E+00 0. -1.
         -1    1    1    2    0  501 -0.34823004695E+02 -0.59411495801E+02  0.31237960657E+03  0.31988026837E+03  0.00000000000E+00 0.  1.
<mgrwt>
<rscale>  0 0.96672954E+02</rscale>
<asrwt>0</asrwt>
<pdfrwt beam="2">  1        3 0.37482346E-01 0.13571016E+03</pdfrwt>
<pdfrwt beam="1">  1       -1 0.10135119E+00 0.68864849E+02</pdfrwt>
<totfact> 0.32738469E+01</totfact>
</mgrwt>
</event>
<event>
 5    1  0.7114032E-003  0.1069073E+03  0.7546771E-02  0.1393379E+00
          1   -1    0    0  501    0  0.00000000000E+00  0.00000000000E+00  0.13190966381E+04  0.13190966381E+04  0.00000000000E+00 0. -1.
          3   -1    0    0  502    0 -0.00000000000E+00 -0.00000000000E+00 -0.18997752248E+02  0.18997752248E+02  0.00000000000E+00 0. -1.
         25    1    1    2    0    0 -0.56597297280E+02 -0.59947626638E+02  0.78801178526E+03  0.80211255177E+03  0.12500000000E+03 0.  0.
          1    1    1    2  501    0 -0.20186063212E+02 -0.28458114620E+02  0.19210286508E+03  0.19524562020E+03  0.00000000000E+00 0. -1.
          3    1    1    2  502    0  0.76783360492E+02  0.88405741258E+02  0.31998423548E+03  0.34073621834E+03  0.00000000000E+00 0. -1.
<mgrwt>
<rscale>  0 0.61074057E+02</rscale>
<asrwt>0</asrwt>
<pdfrwt beam="1">  1        1 0.20293787E+00 0.34890420E+02</pdfrwt>
<pdfrwt beam="2">  1        3 0.29227322E-02 0.10690729E+03</pdfrwt>
<totfact> 0.29755806E+03</totfact>
</mgrwt>
</event>
<event>
 5    1  0.7114032E-003  0.1523367E+03  0.7546771E-02  0.1271076E+00
          1   -1    0    0  502    0  0.00000000000E+00  0.00000000000E+00  0.76673728037E+02  0.76673728037E+02  0.00000000000E+00 0. -1.
         -3   -1    0    0    0  501 -0.00000000000E+00 -0.00000000000E+00 -0.13748136386E+04  0.13748136386E+04  0.00000000000E+00 0.  1.
         25    1    1    2    0    0  0.14477541464E+03  0.83131527615E+02 -0.54025665987E+03  0.57911400441E+03  0.12500000000E+03 0.  0.
          1    1    1    2  502    0 -0.15167917019E+03 -0.11757568322E+02 -0.48938987474E+02  0.15981187558E+03  0.00000000000E+00 0. -1.
         -3    1    1    2    0  501  0.69037555482E+01 -0.71373959293E+02 -0.70894426318E+03  0.71256148662E+03  0.00000000000E+00 0.  1.
<mgrwt>
<rscale>  0 0.10451611E+03</rscale>
<asrwt>0</asrwt>
<pdfrwt beam="1">  1        1 0.11795958E-01 0.15233668E+03</pdfrwt>
<pdfrwt beam="2">  1       -3 0.21150979E+00 0.71707070E+02</pdfrwt>
<totfact> 0.38169733E+01</totfact>
</mgrwt>
</event>
<event>
 5    1  0.7114032E-003  0.1580692E+03  0.7546771E-02  0.1234293E+00
          2   -1    0    0  501    0  0.00000000000E+00  0.00000000000E+00  0.17046843165E+04  0.17046843165E+04  0.00000000000E+00 0. -1.
          2   -1    0    0  502    0 -0.00000000000E+00 -0.00000000000E+00 -0.20830816578E+03  0.20830816578E+03  0.00000000000E+00 0. -1.
         25    1    1    2    0    0 -0.19074314983E+03 -0.13703990275E+02  0.23911096397E+03  0.33071105462E+03  0.12500000000E+03 0.  0.
          2    1    1    2  501    0  0.13986883903E+03 -0.71967938296E+02  0.13996693270E+04  0.14084803517E+04  0.00000000000E+00 0. -1.
          2    1    1    2  502    0  0.50874310797E+02  0.85671928570E+02 -0.14240414024E+03  0.17380107595E+03  0.00000000000E+00 0. -1.
<mgrwt>
<rscale>  0 0.12549825E+03</rscale>
<asrwt>0</asrwt>
<pdfrwt beam="1">  1        2 0.26225912E+00 0.15806917E+03</pdfrwt>
<pdfrwt beam="2">  1        2 0.32047411E-01 0.99638722E+02</pdfrwt>
<totfact> 0.27716128E+02</totfact>
</mgrwt>
</event>
<event>
 5    1  0.7114032E-003  0.7829729E+02  0.7546771E-02  0.1373031E+00
          2   -1    0    0  501    0  0.00000000000E+00  0.00000000000E+00  0.98965743148E+03  0.98965743148E+03  0.00000000000E+00 0. -1.
          2   -1    0    0  502    0 -0.00000000000E+00 -0.00000000000E+00 -0.30781138658E+03  0.30781138658E+03  0.00000000000E+00 0. -1.
         25    1    1    2    0    0  0.38470687497E+02 -0.75073912616E+02  0.97415057294E+02  0.17952932780E+03  0.12500000000E+03 0.  0.
          2    1    1    2  501    0  0.34233459398E+02  0.44563442228E+02  0.84440455506E+03  0.84627234548E+03  0.00000000000E+00 0. -1.
          2    1    1    2  502    0 -0.72704146894E+02  0.30510470388E+02 -0.25997356745E+03  0.27166714478E+03  0.00000000000E+00 0. -1.
<mgrwt>
<rscale>  0 0.66331611E+02</rscale>
<asrwt>0</asrwt>
<pdfrwt beam="1">  1        2 0.15225499E+00 0.56194574E+02</pdfrwt>
<pdfrwt beam="2">  1        2 0.47355598E-01 0.78297287E+02</pdfrwt>
<totfact> 0.47344969E+02</totfact>
</mgrwt>
</event>
<event>
 5    1  0.7114032E-003  0.9189577E+02  0.7546771E-02  0.1420543E+00
          2   -1    0    0  501    0  0.00000000000E+00  0.00000000000E+00  0.22923144845E+04  0.22923144845E+04  0.00000000000E+00 0. -1.
          2   -1    0    0  502    0 -0.00000000000E+00 -0.00000000000E+00 -0.15999732921E+03  0.15999732921E+03  0.00000000000E+00 0. -1.
         25    1    1    2    0    0  0.11987518421E+02 -0.70835540817E+02  0.57272711419E+03  0.59059522667E+03  0.12500000000E+03 0.  0.
          2    1    1    2  501    0  0.10566879540E+02  0.94657988940E+02  0.17075292964E+04  0.17101836428E+04  0.00000000000E+00 0. -1.
          2    1    1    2  502    0 -0.22554397961E+02 -0.23822448123E+02 -0.14793925538E+03  0.15153294422E+03  0.00000000000E+00 0. -1.
<mgrwt>
<rscale>  0 0.54906280E+02</rscale>
<asrwt>0</asrwt>
<pdfrwt beam="1">  1        2 0.35266374E+00 0.91895775E+02</pdfrwt>
<pdfrwt beam="2">  1        2 0.24614975E-01 0.32805638E+02</pdfrwt>
<totfact> 0.18791219E+02</totfact>
</mgrwt>
</event>
<event>
 5    1  0.7114032E-003  0.1041529E+03  0.7546771E-02  0.1345238E+00
         -2   -1    0    0    0  501 -0.00000000000E+00  0.00000000000E+00  0.16470905260E+03  0.16470905260E+03  0.00000000000E+00 0.  1.
          1   -1    0    0  502    0  0.00000000000E+00 -0.00000000000E+00 -0.74480229567E+03  0.74480229567E+03  0.00000000000E+00 0. -1.
         25    1    1    2    0    0  0.50525468434E+02  0.44743250380E+02 -0.43002844915E+03  0.45288436548E+03  0.12500000000E+03 0.  0.
          1    1    1    2  502    0  0.51201816964E+02 -0.15077458164E+02 -0.28222701908E+03  0.28722995335E+03  0.00000000000E+00 0. -1.
         -2    1    1    2    0  501 -0.10172728540E+03 -0.29665792216E+02  0.13216222517E+03  0.16939702944E+03  0.00000000000E+00 0.  1.
<mgrwt>
<rscale>  0 0.74560196E+02</rscale>
<asrwt>0</asrwt>
<pdfrwt beam="2">  1        1 0.11458497E+00 0.53375611E+02</pdfrwt>
<pdfrwt beam="1">  1       -2 0.25339854E-01 0.10415287E+03</pdfrwt>
<totfact> 0.33200368E+02</totfact>
</mgrwt>
</event>
<event>
 5    1  0.7114032E-003  0.1035325E+03  0.7546771E-02  0.1341898E+00
          1   -1    0    0  501    0  0.00000000000E+00  0.00000000000E+00  0.16574809516E+04  0.16574809516E+04  0.00000000000E+00 0. -1.
          1   -1    0    0  502    0 -0.00000000000E+00 -0.00000000000E+00 -0.16571171571E+03  0.16571171571E+03  0.00000000000E+00 0.  1.
         25    1    1    2    0    0 -0.71850357563E+02  0.11245596942E+03  0.21713019783E+03  0.28386500621E+03  0.12500000000E+03 0.  0.
          1    1    1    2  501    0  0.17824888330E+02 -0.10082620179E+03  0.13992610237E+04  0.14030021604E+04  0.00000000000E+00 0. -1.
          1    1    1    2  502    0  0.54025469233E+02 -0.11629767629E+02 -0.12462198567E+03  0.13632550067E+03  0.00000000000E+00 0.  1.
<mgrwt>
<rscale>  0 0.75640742E+02</rscale>
<asrwt>0</asrwt>
<pdfrwt beam="1">  1        1 0.25499706E+00 0.10353253E+03</pdfrwt>
<pdfrwt beam="2">  1        1 0.25494111E-01 0.55263033E+02</pdfrwt>
<totfact> 0.13365796E+02</totfact>
</mgrwt>
</event>
<event>
 5    1  0.7114032E-003  0.2162306E+03  0.7546771E-02  0.1293032E+00
          3   -1    0    0  502    0  0.00000000000E+00  0.00000000000E+00  0.10994687235E+03  0.10994687235E+03  0.00000000000E+00 0. -1.
         -3   -1    0    0    0  501 -0.00000000000E+00 -0.00000000000E+00 -0.72607078357E+03  0.72607078357E+03  0.00000000000E+00 0.  1.
         25    1    1    2    0    0 -0.21966487890E+03 -0.42818102837E+02 -0.51097302891E+03  0.57166816006E+03  0.12500000000E+03 0.  0.
          3    1    1    2  502    0  0.18297326231E+02  0.36714083746E+02 -0.19925265300E+02  0.45604081942E+02  0.00000000000E+00 0. -1.
         -3    1    1    2    0  501  0.20136755267E+03  0.61040190909E+01 -0.85225617004E+02  0.21874541392E+03  0.00000000000E+00 0.  1.
<mgrwt>
<rscale>  0 0.94180556E+02</rscale>
<asrwt>0</asrwt>
<pdfrwt beam="1">  1        3 0.16914903E-01 0.41020923E+02</pdfrwt>
<pdfrwt beam="2">  1       -3 0.11170320E+00 0.21623056E+03</pdfrwt>
<totfact> 0.43780940E+01</totfact>
</mgrwt>
</event>
<event>
 5    1  0.7114032E-003  0.6121155E+02  0.7546771E-02  0.1437365E+00
          1   -1    0    0  502    0 -0.00000000000E+00  0.00000000000E+00  0.31176108312E+03  0.31176108312E+03  0.00000000000E+00 0. -1.
          2   -1    0    0  501    0  0.00000000000E+00 -0.00000000000E+00 -0.29132802572E+03  0.29132802572E+03  0.00000000000E+00 0. -1.
         25    1    1    2    0    0  0.20353671771E+02 -0.94521782090E+02 -0.24718702849E+02  0.15995203504E+03  0.12500000000E+03 0.  0.
          2    1    1    2  501    0 -0.28292909413E+02  0.51909635344E+02 -0.19259851817E+03  0.20146783407E+03  0.00000000000E+00 0. -1.
          1    1    1    2  502    0  0.79392376422E+01  0.42612146745E+02  0.23775027842E+03  0.24166923973E+03  0.00000000000E+00 0. -1.
<mgrwt>
<rscale>  0 0.51509624E+02</rscale>
<asrwt>0</asrwt>
<pdfrwt beam="2">  1        2 0.44819696E-01 0.61211555E+02</pdfrwt>
<pdfrwt beam="1">  1        1 0.47963244E-01 0.43345433E+02</pdfrwt>
<totfact> 0.12687626E+03</totfact>
</mgrwt>
</event>
<event>
 5    1  0.7114032E-003  0.6854970E+02  0.7546771E-02  0.1376381E+00
          1   -1    0    0  502    0  0.00000000000E+00  0.00000000000E+00  0.59278431705E+03  0.59278431705E+03  0.00000000000E+00 0. -1.
         -1   -1    0    0    0  501 -0.00000000000E+00 -0.00000000000E+00 -0.57798269749E+02  0.57798269749E+02  0.00000000000E+00 0.  1.
         25    1    1    2    0    0 -0.17064719306E+02 -0.54485786063E+02  0.26130275231E+03  0.29523555662E+03  0.12500000000E+03 0.  0.
          1    1    1    2  502    0  0.62382772089E+02 -0.27221896982E+01  0.27535392304E+03  0.28234518502E+03  0.00000000000E+00 0. -1.
         -1    1    1    2    0  501 -0.45318052783E+02  0.57207975761E+02 -0.16706280491E+01  0.73001845160E+02  0.00000000000E+00 0.  1.
<mgrwt>
<rscale>  0 0.65424688E+02</rscale>
<asrwt>0</asrwt>
<pdfrwt beam="1">  1        1 0.91197583E-01 0.62442138E+02</pdfrwt>
<pdfrwt beam="2">  1       -1 0.88920419E-02 0.68549700E+02</pdfrwt>
<totfact> 0.25025712E+03</totfact>
</mgrwt>
</event>
<event>
 5    1  0.7114032E-003  0.5885542E+02  0.7546771E-02  0.1437627E+00
         -1   -1    0    0    0  501 -0.00000000000E+00  0.00000000000E+00  0.19748328214E+03  0.19748328214E+03  0.00000000000E+00 0.  1.
          1   -1    0    0  502    0  0.00000000000E+00 -0.00000000000E+00 -0.76528705704E+03  0.76528705704E+03  0.00000000000E+00 0. -1.
         25    1    1    2    0    0  0.34561749105E+02 -0.97635483697E+01 -0.27516134840E+02  0.13293599608E+03  0.12500000000E+03 0.  0.
          1    1    1    2  502    0  0.18552855628E+02  0.40988743449E+02 -0.67772576877E+03  0.67921756691E+03  0.00000000000E+00 0. -1.
         -1    1    1    2    0  501 -0.53114604733E+02 -0.31225195079E+02  0.13743812871E+03  0.15061677618E+03  0.00000000000E+00 0.  1.
<mgrwt>
<rscale>  0 0.51458978E+02</rscale>
<asrwt>0</asrwt>
<pdfrwt beam="2">  1        1 0.11773647E+00 0.44992061E+02</pdfrwt>
<pdfrwt beam="1">  1       -1 0.30382044E-01 0.58855415E+02</pdfrwt>
<totfact> 0.26420272E+02</totfact>
</mgrwt>
</event>
<event>
 5    1  0.7114032E-003  0.9459075E+02  0.7546771E-02  0.1457334E+00
          2   -1    0    0  502    0  0.00000000000E+00  0.00000000000E+00  0.12551302855E+04  0.12551302855E+04  0.00000000000E+00 0.  1.
         -2   -1    0    0    0  501 -0.00000000000E+00 -0.00000000000E+00 -0.17466684795E+02  0.17466684795E+02  0.00000000000E+00 0. -1.
         25    1    1    2    0    0  0.40238609579E+02  0.80799577519E+02  0.49982140108E+03  0.52306228157E+03  0.12500000000E+03 0.  0.
          2    1    1    2  502    0 -0.63458583505E+02 -0.73986707994E+02  0.43786774493E+03  0.44858576307E+03  0.00000000000E+00 0. -1.
         -2    1    1    2    0  501  0.23219973927E+02 -0.68128695258E+01  0.29997445466E+03  0.30094892561E+03  0.00000000000E+00 0.  1.
<mgrwt>
<rscale>  0 0.47843323E+02</rscale>
<asrwt>0</asrwt>
<pdfrwt beam="1">  1        2 0.19309690E+00 0.94590750E+02</pdfrwt>
<pdfrwt beam="2">  1       -2 0.26871833E-02 0.24198809E+02</pdfrwt>
<totfact> 0.72613035E+03</totfact>
</mgrwt>
</event>
<event>
 5    1  0.7114032E-003  0.7518386E+02  0.7546771E-02  0.1358218E+00
          2   -1    0    0  501    0  0.00000000000E+00  0.00000000000E+00  0.84429846572E+03  0.84429846572E+03  0.00000000000E+00 0. -1.
          2   -1    0    0  502    0 -0.00000000000E+00 -0.00000000000E+00 -0.49920953751E+02  0.49920953751E+02  0.00000000000E+00 0. -1.
         25    1    1    2    0    0  0.28623738815E+02  0.29398806568E+02  0.13161636692E+03  0.18609534194E+03  0.12500000000E+03 0.  0.
          2    1    1    2  501    0 -0.44360914278E+02  0.60701906233E+02  0.57975487799E+03  0.58460955405E+03  0.00000000000E+00 0. -1.
          2    1    1    2  502    0  0.15737175463E+02 -0.90100712800E+02  0.83006267067E+02  0.12351452348E+03  0.00000000000E+00 0. -1.
<mgrwt>
<rscale>  0 0.70554452E+02</rscale>
<asrwt>0</asrwt>
<pdfrwt beam="1">  1        2 0.12989206E+00 0.75183856E+02</pdfrwt>
<pdfrwt beam="2">  1        2 0.76801473E-02 0.66210101E+02</pdfrwt>
<totfact> 0.43607095E+03</totfact>
</mgrwt>
</event>
<event>
 5    1  0.7114032E-003  0.5047131E+02  0.7546771E-02  0.1466143E+00
          2   -1    0    0  501    0  0.00000000000E+00  0.00000000000E+00  0.39324461249E+02  0.39324461249E+02  0.00000000000E+00 0. -1.
          1   -1    0    0  502    0 -0.00000000000E+00 -0.00000000000E+00 -0.92009028903E+03  0.92009028903E+03  0.00000000000E+00 0. -1.
         25    1    1    2    0    0 -0.59120820506E+01  0.72975481887E+02 -0.77875807180E+03  0.79211710502E+03  0.12500000000E+03 0.  0.
          2    1    1    2  501    0 -0.24857301050E+02 -0.43589184450E+02  0.66397301124E+01  0.50616088672E+02  0.00000000000E+00 0. -1.
          1    1    1    2  502    0  0.30769383101E+02 -0.29386297438E+02 -0.10864748609E+03  0.11668155659E+03  0.00000000000E+00 0. -1.
<mgrwt>
<rscale>  0 0.46340477E+02</rscale>
<asrwt>0</asrwt>
<pdfrwt beam="1">  1        2 0.60499178E-02 0.50471311E+02</pdfrwt>
<pdfrwt beam="2">  1        1 0.14155234E+00 0.42547731E+02</pdfrwt>
<totfact> 0.29682875E+03</totfact>
</mgrwt>
</event>
<event>
 5    1  0.7114032E-003  0.8074975E+02  0.7546771E-02  0.1385983E+00
          1   -1    0    0  502    0 -0.00000000000E+00  0.00000000000E+00  0.32129767543E+02  0.32129767543E+02  0.00000000000E+00 0. -1.
          2   -1    0    0  501    0  0.00000000000E+00 -0.00000000000E+00 -0.33999975263E+04  0.33999975263E+04  0.00000000000E+00 0. -1.
         25    1    1    2    0    0 -0.25388676527E+01 -0.11378393289E+03 -0.19551256254E+04  0.19624205565E+04  0.12500000000E+03 0.  0.
          2    1    1    2  501    0  0.23263314242E+02  0.69357692051E+02 -0.14184661380E+04  0.14203513143E+04  0.00000000000E+00 0. -1.
          1    1    1    2  502    0 -0.20724446589E+02  0.44426240841E+02  0.57240046791E+01  0.49355423119E+02  0.00000000000E+00 0. -1.
<mgrwt>
<rscale>  0 0.62916968E+02</rscale>
<asrwt>0</asrwt>
<pdfrwt beam="2">  1        2 0.52307658E+00 0.80749752E+02</pdfrwt>
<pdfrwt beam="1">  1        1 0.49430408E-02 0.49022378E+02</pdfrwt>
<totfact> 0.28659973E+02</totfact>
</mgrwt>
</event>
<event>
 5    1  0.7114032E-003  0.6389768E+02  0.7546771E-02  0.1530393E+00
         -2   -1    0    0    0  501 -0.00000000000E+00  0.00000000000E+00  0.31612038631E+03  0.31612038631E+03  0.00000000000E+00 0.  1.
          2   -1    0    0  502    0  0.00000000000E+00 -0.00000000000E+00 -0.11064884173E+04  0.11064884173E+04  0.00000000000E+00 0. -1.
         25    1    1    2    0    0  0.58990131783E+02 -0.26818317069E+02 -0.47058006997E+03  0.49119208059E+03  0.12500000000E+03 0.  0.
          2    1    1    2  502    0 -0.12811059163E+02 -0.17372347007E+02 -0.62207340052E+03  0.62244777879E+03  0.00000000000E+00 0. -1.
         -2    1    1    2    0  501 -0.46179072620E+02  0.44190664077E+02  0.30228543953E+03  0.30896894422E+03  0.00000000000E+00 0.  1.
<mgrwt>
<rscale>  0 0.37138193E+02</rscale>
<asrwt>0</asrwt>
<pdfrwt beam="2">  1        2 0.17022899E+00 0.21585219E+02</pdfrwt>
<pdfrwt beam="1">  1       -2 0.48633905E-01 0.63897678E+02</pdfrwt>
<totfact> 0.10809852E+02</totfact>
</mgrwt>
</event>
<event>
 5    1  0.7114032E-003  0.5605587E+02  0.7546771E-02  0.1518021E+00
          2   -1    0    0  502    0  0.00000000000E+00  0.00000000000E+00  0.25181031485E+04  0.25181031485E+04  0.00000000000E+00 0.  1.
         -1   -1    0    0    0  501 -0.00000000000E+00 -0.00000000000E+00 -0.37514856927E+02  0.37514856927E+02  0.00000000000E+00 0.  1.
         25    1    1    2    0    0  0.23351381572E+02 -0.32510084178E+02  0.54396980821E+03  0.55958050792E+03  0.12500000000E+03 0.  0.
          2    1    1    2  502    0  0.26331877318E+02  0.45048004893E+01  0.19387798754E+04  0.19389639157E+04  0.00000000000E+00 0.  1.
         -1    1    1    2    0  501 -0.49683258890E+02  0.28005283688E+02 -0.21613920450E+01  0.57073581840E+02  0.00000000000E+00 0.  1.
<mgrwt>
<rscale>  0 0.38697557E+02</rscale>
<asrwt>0</asrwt>
<pdfrwt beam="1">  1        2 0.38740035E+00 0.26714434E+02</pdfrwt>
<pdfrwt beam="2">  1       -1 0.57715184E-02 0.56055872E+02</pdfrwt>
<totfact> 0.76608841E+02</totfact>
</mgrwt>
</event>
<event>
 5    1  0.7114032E-003  0.1344039E+03  0.7546771E-02  0.1333834E+00
          1   -1    0    0  502    0  0.00000000000E+00  0.00000000000E+00  0.41232163605E+03  0.41232163605E+03  0.00000000000E+00 0. -1.
         -1   -1    0    0    0  501 -0.00000000000E+00 -0.00000000000E+00 -0.99667788762E+02  0.99667788762E+02  0.00000000000E+00 0.  1.
         25    1    1    2    0    0  0.12971332076E+03  0.95975334197E+02  0.93027945793E+02  0.22431230250E+03  0.12500000000E+03 0.  0.
          1    1    1    2  502    0 -0.36770874585E+02 -0.27069579055E+02  0.13991646508E+03  0.14717838336E+03  0.00000000000E+00 0. -1.
         -1    1    1    2    0  501 -0.92942446171E+02 -0.68905755142E+02  0.79709436409E+02  0.14049873894E+03  0.00000000000E+00 0.  1.
<mgrwt>
<rscale>  0 0.78338490E+02</rscale>
<asrwt>0</asrwt>
<pdfrwt beam="1">  1        1 0.63434097E-01 0.45660260E+02</pdfrwt>
<pdfrwt beam="2">  1       -1 0.15333506E-01 0.13440394E+03</pdfrwt>
<totfact> 0.18015699E+03</totfact>
</mgrwt>
</event>
<event>
 5    1  0.7114032E-003  0.9493805E+02  0.7546771E-02  0.1407221E+00
          3   -1    0    0  502    0 -0.00000000000E+00  0.00000000000E+00  0.19992507490E+03  0.19992507490E+03  0.00000000000E+00 0. -1.
          1   -1    0    0  501    0  0.00000000000E+00 -0.00000000000E+00 -0.72628376043E+03  0.72628376043E+03  0.00000000000E+00 0. -1.
         25    1    1    2    0    0  0.82020182136E+02  0.33358804628E+02 -0.19760007523E+03  0.25002181875E+03  0.12500000000E+03 0.  0.
          1    1    1    2  501    0  0.13639969221E+02 -0.32463088568E+02 -0.48862045563E+03  0.48988758970E+03  0.00000000000E+00 0. -1.
          3    1    1    2  502    0 -0.95660151357E+02 -0.89571605962E+00  0.15986184533E+03  0.18629942688E+03  0.00000000000E+00 0. -1.
<mgrwt>
<rscale>  0 0.57818509E+02</rscale>
<asrwt>0</asrwt>
<pdfrwt beam="2">  1        1 0.11173596E+00 0.35212226E+02</pdfrwt>
<pdfrwt beam="1">  1        3 0.30757704E-01 0.94938047E+02</pdfrwt>
<totfact> 0.15488727E+02</totfact>
</mgrwt>
</event>
<event>
 5    1  0.7114032E-003  0.1154630E+03  0.7546771E-02  0.1322452E+00
          2   -1    0    0  502    0  0.00000000000E+00  0.00000000000E+00  0.25429438185E+04  0.25429438185E+04  0.00000000000E+00 0. -1.
         -2   -1    0    0    0  501 -0.00000000000E+00 -0.00000000000E+00 -0.72654096059E+02  0.72654096059E+02  0.00000000000E+00 0.  1.
         25    1    1    2    0    0 -0.48979322909E+02 -0.35587823973E+02  0.10662429656E+03  0.17509770959E+03  0.12500000000E+03 0.  0.
          2    1    1    2  502    0  0.83494903013E+02  0.83147424888E+02  0.23772643804E+04  0.23801829399E+04  0.00000000000E+00 0. -1.
         -2    1    1    2    0  501 -0.34515580104E+02 -0.47559600915E+02 -0.13598954461E+02  0.60317265119E+02  0.00000000000E+00 0.  1.
<mgrwt>
<rscale>  0 0.82371737E+02</rscale>
<asrwt>0</asrwt>
<pdfrwt beam="1">  1        2 0.39122206E+00 0.11546305E+03</pdfrwt>
<pdfrwt beam="2">  1       -2 0.11177555E-01 0.58764283E+02</pdfrwt>
<totfact> 0.21565738E+02</totfact>
</mgrwt>
</event>
<event>
 5    1  0.7114032E-003  0.2442553E+03  0.7546771E-02  0.1253205E+00
          1   -1    0    0  502    0 -0.00000000000E+00  0.00000000000E+00  0.89543110602E+03  0.89543110602E+03  0.00000000000E+00 0. -1.
          2   -1    0    0  501    0  0.00000000000E+00 -0.00000000000E+00 -0.15093494457E+03  0.15093494457E+03  0.00000000000E+00 0. -1.
         25    1    1    2    0    0 -0.19374932520E+02  0.27425695002E+03  0.22505531872E+03  0.37665257085E+03  0.12500000000E+03 0.  0.
          2    1    1    2  501    0  0.36551404460E+02 -0.22382516992E+03  0.10163132519E+03  0.24852090076E+03  0.00000000000E+00 0. -1.
          1    1    1    2  502    0 -0.17176471940E+02 -0.50431780100E+02  0.41780951754E+03  0.42119257897E+03  0.00000000000E+00 0. -1.
<mgrwt>
<rscale>  0 0.11407494E+03</rscale>
<asrwt>0</asrwt>
<pdfrwt beam="2">  1        2 0.23220761E-01 0.24425532E+03</pdfrwt>
<pdfrwt beam="1">  1        1 0.13775863E+00 0.53276596E+02</pdfrwt>
<totfact> 0.66935359E+02</totfact>
</mgrwt>
</event>
<event>
 5    1  0.7114032E-003  0.7189766E+02  0.7546771E-02  0.1439285E+00
         -1   -1    0    0    0  501 -0.00000000000E+00  0.00000000000E+00  0.30851788586E+03  0.30851788586E+03  0.00000000000E+00 0.  1.
          2   -1    0    0  502    0  0.00000000000E+00 -0.00000000000E+00 -0.76643785429E+02  0.76643785429E+02  0.00000000000E+00 0. -1.
         25    1    1    2    0    0  0.31674213256E+02  0.81207693985E+02  0.21700706801E+03  0.26516978130E+03  0.12500000000E+03 0.  0.
          2    1    1    2  502    0  0.11017702596E+02 -0.34667445094E+02 -0.26048736390E+02  0.44741012364E+02  0.00000000000E+00 0. -1.
         -1    1    1    2    0  501 -0.42691915851E+02 -0.46540248891E+02  0.40915768808E+02  0.75250877623E+02  0.00000000000E+00 0.  1.
<mgrwt>
<rscale>  0 0.51140564E+02</rscale>
<asrwt>0</asrwt>
<pdfrwt beam="2">  1        2 0.11791352E-01 0.36376112E+02</pdfrwt>
<pdfrwt beam="1">  1       -1 0.47464289E-01 0.71897658E+02</pdfrwt>
<totfact> 0.24087060E+03</totfact>
</mgrwt>
</event>
<event>
 5    1  0.7114032E-003  0.3129642E+02  0.7546771E-02  0.1600624E+00
          2   -1    0    0  502    0  0.00000000000E+00  0.00000000000E+00  0.65850612751E+03  0.65850612751E+03  0.00000000000E+00 0. -1.
          2   -1    0    0  501    0 -0.00000000000E+00 -0.00000000000E+00 -0.24038180297E+03  0.24038180297E+03  0.00000000000E+00 0. -1.
         25    1    1    2    0    0 -0.36874070483E+02  0.44680706897E+02  0.34511436965E+02  0.14202852504E+03  0.12500000000E+03 0.  0.
          2    1    1    2  501    0  0.24068286858E+02 -0.19419580739E+02 -0.18498718907E+03  0.18755442588E+03  0.00000000000E+00 0. -1.
          2    1    1    2  502    0  0.12805783625E+02 -0.25261126157E+02  0.56860007665E+03  0.56930497956E+03  0.00000000000E+00 0. -1.
<mgrwt>
<rscale>  0 0.29771873E+02</rscale>
<asrwt>0</asrwt>
<pdfrwt beam="1">  1        2 0.10130863E+00 0.28321592E+02</pdfrwt>
<pdfrwt beam="2">  1        2 0.36981816E-01 0.31296419E+02</pdfrwt>
<totfact> 0.99833416E+02</totfact>
</mgrwt>
</event>
<event>
 5    1  0.7114032E-003  0.4481881E+02  0.7546771E-02  0.1478306E+00
         -1   -1    0    0    0  501 -0.00000000000E+00  0.00000000000E+00  0.39216755458E+02  0.39216755458E+02  0.00000000000E+00 0.  1.
          1   -1    0    0  502    0  0.00000000000E+00 -0.00000000000E+00 -0.41378250023E+03  0.41378250023E+03  0.00000000000E+00 0. -1.
         25    1    1    2    0    0  0.41079069321E+02  0.11578620636E+02 -0.10742388356E+03  0.17025406060E+03  0.12500000000E+03 0.  0.
          1    1    1    2  502    0 -0.32761882140E+02  0.32461698983E+02 -0.16228791030E+03  0.16871416257E+03  0.00000000000E+00 0. -1.
         -1    1    1    2    0  501 -0.83171871806E+01 -0.44040319618E+02 -0.10485395092E+03  0.11403103252E+03  0.00000000000E+00 0.  1.
<mgrwt>
<rscale>  0 0.44371103E+02</rscale>
<asrwt>0</asrwt>
<pdfrwt beam="2">  1        1 0.63658841E-01 0.43927872E+02</pdfrwt>
<pdfrwt beam="1">  1       -1 0.60333475E-02 0.44818806E+02</pdfrwt>
<totfact> 0.67211925E+03</totfact>
</mgrwt>
</event>
<event>
 5    1  0.7114032E-003  0.7580193E+02  0.7546771E-02  0.1397302E+00
          2   -1    0    0  502    0  0.00000000000E+00  0.00000000000E+00  0.69118597730E+03  0.69118597730E+03  0.00000000000E+00 0. -1.
          2   -1    0    0  501    0 -0.00000000000E+00 -0.00000000000E+00 -0.31754984135E+03  0.31754984135E+03  0.00000000000E+00 0. -1.
         25    1    1    2    0    0  0.10780589690E+03  0.51407073359E+02  0.10941956754E+03  0.20460312891E+03  0.12500000000E+03 0.  0.
          2    1    1    2  501    0 -0.60900653866E+02 -0.42776963602E+02 -0.26373338606E+03  0.27403294908E+03  0.00000000000E+00 0. -1.
          2    1    1    2  502    0 -0.46905243038E+02 -0.86301097570E+01  0.52794995448E+03  0.53009974067E+03  0.00000000000E+00 0. -1.
<mgrwt>
<rscale>  0 0.60126436E+02</rscale>
<asrwt>0</asrwt>
<pdfrwt beam="1">  1        2 0.10633630E+00 0.47692564E+02</pdfrwt>
<pdfrwt beam="2">  1        2 0.48853822E-01 0.75801929E+02</pdfrwt>
<totfact> 0.71178815E+02</totfact>
</mgrwt>
</event>
<event>
 5    1  0.7114032E-003  0.4254172E+02  0.7546771E-02  0.1515164E+00
         -1   -1    0    0    0  501 -0.00000000000E+00  0.00000000000E+00  0.38211564116E+02  0.38211564116E+02  0.00000000000E+00 0.  1.
          2   -1    0    0  502    0  0.00000000000E+00 -0.00000000000E+00 -0.50656050240E+03  0.50656050240E+03  0.00000000000E+00 0. -1.
         25    1    1    2    0    0  0.52636207430E+02  0.19367910473E+02 -0.11796615236E+03  0.18079463319E+03  0.12500000000E+03 0.  0.
          2    1    1    2  502    0 -0.21259813042E+02 -0.36777542160E+02 -0.29462208261E+03  0.29766884086E+03  0.00000000000E+00 0. -1.
         -1    1    1    2    0  501 -0.31376394388E+02  0.17409631687E+02 -0.55760703311E+02  0.66308592460E+02  0.00000000000E+00 0.  1.
<mgrwt>
<rscale>  0 0.39070640E+02</rscale>
<asrwt>0</asrwt>
<pdfrwt beam="2">  1        2 0.77932383E-01 0.42541721E+02</pdfrwt>
<pdfrwt beam="1">  1       -1 0.58787023E-02 0.35882773E+02</pdfrwt>
<totfact> 0.82019329E+03</totfact>
</mgrwt>
</event>
<event>
 5    1  0.7114032E-003  0.5382306E+02  0.7546771E-02  0.1439749E+00
          1   -1    0    0  502    0  0.00000000000E+00  0.00000000000E+00  0.18357390461E+04  0.18357390461E+04  0.00000000000E+00 0. -1.
         -2   -1    0    0    0  501 -0.00000000000E+00 -0.00000000000E+00 -0.11727438510E+02  0.11727438510E+02  0.00000000000E+00 0.  1.
         25    1    1    2    0    0  0.64146337657E+02 -0.63171312535E+02  0.12672413002E+04  0.12765699668E+04  0.12500000000E+03 0.  0.
          1    1    1    2  502    0 -0.45943885107E+02  0.15296331592E+02  0.44867764577E+03  0.45128311308E+03  0.00000000000E+00 0. -1.
         -2    1    1    2    0  501 -0.18202452550E+02  0.47874980944E+02  0.10809266160E+03  0.11961340465E+03  0.00000000000E+00 0.  1.
<mgrwt>
<rscale>  0 0.51051851E+02</rscale>
<asrwt>0</asrwt>
<pdfrwt beam="1">  1        1 0.28242116E+00 0.48423324E+02</pdfrwt>
<pdfrwt beam="2">  1       -2 0.18042228E-02 0.53823060E+02</pdfrwt>
<totfact> 0.33550363E+03</totfact>
</mgrwt>
</event>
<event>
 5    1  0.7114032E-003  0.6472432E+02  0.7546771E-02  0.1382419E+00
          2   -1    0    0  501    0  0.00000000000E+00  0.00000000000E+00  0.34074412752E+03  0.34074412752E+03  0.00000000000E+00 0. -1.
          1   -1    0    0  502    0 -0.00000000000E+00 -0.00000000000E+00 -0.17011567945E+04  0.17011567945E+04  0.00000000000E+00 0. -1.
         25    1    1    2    0    0 -0.73906087465E+02  0.21668653498E+02 -0.77578779946E+03  0.78955895923E+03  0.12500000000E+03 0.  0.
          2    1    1    2  501    0  0.48438298390E+02  0.40208869554E+02  0.32965738057E+03  0.33561437768E+03  0.00000000000E+00 0. -1.
          1    1    1    2  502    0  0.25467789074E+02 -0.61877523052E+02 -0.91428224811E+03  0.91672758514E+03  0.00000000000E+00 0. -1.
<mgrwt>
<rscale>  0 0.63832279E+02</rscale>
<asrwt>0</asrwt>
<pdfrwt beam="1">  1        2 0.52422174E-01 0.62952537E+02</pdfrwt>
<pdfrwt beam="2">  1        1 0.26171643E+00 0.64724316E+02</pdfrwt>
<totfact> 0.79730424E+01</totfact>
</mgrwt>
</event>
<event>
 5    1  0.7114032E-003  0.1097155E+03  0.7546771E-02  0.1287327E+00
         -2   -1    0    0    0  501  0.00000000000E+00  0.00000000000E+00  0.18477586688E+03  0.18477586688E+03  0.00000000000E+00 0.  1.
         -1   -1    0    0    0  502 -0.00000000000E+00 -0.00000000000E+00 -0.32106444825E+04  0.32106444825E+04  0.00000000000E+00 0.  1.
         25    1    1    2    0    0 -0.18410486764E+03  0.26204594105E+02 -0.11632133896E+04  0.11845976840E+04  0.12500000000E+03 0.  0.
         -2    1    1    2    0  501  0.83928587193E+02 -0.15126795403E+02  0.16231021931E+03  0.18335057944E+03  0.00000000000E+00 0.  1.
         -1    1    1    2    0  502  0.10017628044E+03 -0.11077798702E+02 -0.20249654453E+04  0.20274720860E+04  0.00000000000E+00 0.  1.
<mgrwt>
<rscale>  0 0.96729701E+02</rscale>
<asrwt>0</asrwt>
<pdfrwt beam="1">  1       -2 0.28427059E-01 0.85280875E+02</pdfrwt>
<pdfrwt beam="2">  1       -1 0.49394525E+00 0.10971551E+03</pdfrwt>
<totfact> 0.19322379E-01</totfact>
</mgrwt>
</event>
<event>
 5    1  0.7114032E-003  0.5320067E+02  0.7546771E-02  0.1435794E+00
          1   -1    0    0  502    0  0.00000000000E+00  0.00000000000E+00  0.11095194489E+04  0.11095194489E+04  0.00000000000E+00 0. -1.
          1   -1    0    0  501    0 -0.00000000000E+00 -0.00000000000E+00 -0.23773854092E+04  0.23773854092E+04  0.00000000000E+00 0. -1.
         25    1    1    2    0    0  0.53614904057E+02 -0.30538545806E+02  0.24699989391E+03  0.28362141723E+03  0.12500000000E+03 0.  0.
          1    1    1    2  501    0 -0.49416601615E+02 -0.19750545020E+02 -0.23580200131E+04  0.23586204584E+04  0.00000000000E+00 0. -1.
          1    1    1    2  502    0 -0.41983024419E+01  0.50289090827E+02  0.84315415890E+03  0.84466298253E+03  0.00000000000E+00 0. -1.
<mgrwt>
<rscale>  0 0.51814287E+02</rscale>
<asrwt>0</asrwt>
<pdfrwt beam="1">  1        1 0.17069530E+00 0.50464031E+02</pdfrwt>
<pdfrwt beam="2">  1        1 0.36575160E+00 0.53200672E+02</pdfrwt>
<totfact> 0.43539716E+00</totfact>
</mgrwt>
</event>
<event>
 5    1  0.7114032E-003  0.1688256E+03  0.7546771E-02  0.1298661E+00
          1   -1    0    0  502    0  0.00000000000E+00  0.00000000000E+00  0.21478542895E+04  0.21478542895E+04  0.00000000000E+00 0.  1.
          1   -1    0    0  501    0 -0.00000000000E+00 -0.00000000000E+00 -0.36428011357E+02  0.36428011357E+02  0.00000000000E+00 0. -1.
         25    1    1    2    0    0  0.54526554453E+02 -0.12295999867E+03  0.64180725414E+03  0.66755813071E+03  0.12500000000E+03 0.  0.
          1    1    1    2  501    0  0.18944593652E+02 -0.46126868220E+02  0.17346545973E+02  0.52796669001E+02  0.00000000000E+00 0. -1.
          1    1    1    2  502    0 -0.73471148105E+02  0.16908686689E+03  0.14522724781E+04  0.14639275012E+04  0.00000000000E+00 0.  1.
<mgrwt>
<rscale>  0 0.91752933E+02</rscale>
<asrwt>0</asrwt>
<pdfrwt beam="1">  1        1 0.33043902E+00 0.16882556E+03</pdfrwt>
<pdfrwt beam="2">  1        1 0.56043111E-02 0.49865676E+02</pdfrwt>
<totfact> 0.41983628E+02</totfact>
</mgrwt>
</event>
<event>
 5    1  0.7114032E-003  0.4153725E+02  0.7546771E-02  0.1514178E+00
          1   -1    0    0  502    0 -0.00000000000E+00  0.00000000000E+00  0.28399676530E+03  0.28399676530E+03  0.00000000000E+00 0.  1.
          2   -1    0    0  501    0  0.00000000000E+00 -0.00000000000E+00 -0.16968635301E+03  0.16968635301E+03  0.00000000000E+00 0. -1.
         25    1    1    2    0    0  0.22831955765E+02  0.51032286896E+02  0.10116549068E+02  0.13730599796E+03  0.12500000000E+03 0.  0.
          2    1    1    2  501    0 -0.35192614575E+02 -0.11407740319E+02 -0.10072110215E+03  0.10730049896E+03  0.00000000000E+00 0. -1.
          1    1    1    2  502    0  0.12360658810E+02 -0.39624546577E+02  0.20491496538E+03  0.20907662139E+03  0.00000000000E+00 0.  1.
<mgrwt>
<rscale>  0 0.39200581E+02</rscale>
<asrwt>0</asrwt>
<pdfrwt beam="2">  1        2 0.26105593E-01 0.36995360E+02</pdfrwt>
<pdfrwt beam="1">  1        1 0.43691810E-01 0.41537250E+02</pdfrwt>
<totfact> 0.24481555E+03</totfact>
</mgrwt>
</event>
<event>
 5    1  0.7114032E-003  0.1234580E+03  0.7546771E-02  0.1326147E+00
          1   -1    0    0  502    0  0.00000000000E+00  0.00000000000E+00  0.11035789536E+03  0.11035789536E+03  0.00000000000E+00 0. -1.
         -2   -1    0    0    0  501 -0.00000000000E+00 -0.00000000000E+00 -0.31789501730E+03  0.31789501730E+03  0.00000000000E+00 0.  1.
         25    1    1    2    0    0  0.13994077144E+03  0.51750562825E+02 -0.15924600585E+03  0.25148723754E+03  0.12500000000E+03 0.  0.
          1    1    1    2  502    0 -0.11612631075E+03 -0.41940831224E+01 -0.25869905958E+02  0.11904689167E+03  0.00000000000E+00 0. -1.
         -2    1    1    2    0  501 -0.23814460695E+02 -0.47556479703E+02 -0.22421210138E+02  0.57718783459E+02  0.00000000000E+00 0.  1.
<mgrwt>
<rscale>  0 0.81032287E+02</rscale>
<asrwt>0</asrwt>
<pdfrwt beam="1">  1        1 0.16978138E-01 0.12345797E+03</pdfrwt>
<pdfrwt beam="2">  1       -2 0.48906925E-01 0.53185969E+02</pdfrwt>
<totfact> 0.10847268E+03</totfact>
</mgrwt>
</event>
<event>
 5    1  0.7114032E-003  0.3570335E+02  0.7546771E-02  0.1560434E+00
         -3   -1    0    0    0  501 -0.00000000000E+00  0.00000000000E+00  0.11918669699E+02  0.11918669699E+02  0.00000000000E+00 0.  1.
          3   -1    0    0  502    0  0.00000000000E+00 -0.00000000000E+00 -0.12520654171E+04  0.12520654171E+04  0.00000000000E+00 0. -1.
         25    1    1    2    0    0 -0.30793464078E+02  0.15552538110E+01 -0.45041149553E+03  0.46845082085E+03  0.12500000000E+03 0.  0.
          3    1    1    2  502    0 -0.77639482103E+01 -0.30851924596E+02 -0.12320310067E+03  0.12724434824E+03  0.00000000000E+00 0. -1.
         -3    1    1    2    0  501  0.38557412288E+02  0.29296670785E+02 -0.66653215123E+03  0.66828891774E+03  0.00000000000E+00 0.  1.
<mgrwt>
<rscale>  0 0.33702529E+02</rscale>
<asrwt>0</asrwt>
<pdfrwt beam="2">  1        3 0.19262539E+00 0.31813836E+02</pdfrwt>
<pdfrwt beam="1">  1       -3 0.18336421E-02 0.35703349E+02</pdfrwt>
<totfact> 0.35771471E+02</totfact>
</mgrwt>
</event>
<event>
 5    1  0.7114032E-003  0.1559660E+03  0.7546771E-02  0.1331630E+00
          2   -1    0    0  502    0  0.00000000000E+00  0.00000000000E+00  0.25455579976E+04  0.25455579976E+04  0.00000000000E+00 0. -1.
         -3   -1    0    0    0  501 -0.00000000000E+00 -0.00000000000E+00 -0.24565957164E+02  0.24565957164E+02  0.00000000000E+00 0.  1.
         25    1    1    2    0    0  0.79225763026E+02 -0.10727484788E+03  0.83210942760E+03  0.85194818740E+03  0.12500000000E+03 0.  0.
          2    1    1    2  502    0  0.58981140394E+01 -0.39678737269E+02  0.11993692977E+04  0.12000399586E+04  0.00000000000E+00 0. -1.
         -3    1    1    2    0  501 -0.85123877065E+02  0.14695358515E+03  0.48951331506E+03  0.51813580870E+03  0.00000000000E+00 0.  1.
<mgrwt>
<rscale>  0 0.79098227E+02</rscale>
<asrwt>0</asrwt>
<pdfrwt beam="1">  1        2 0.39162410E+00 0.40114710E+02</pdfrwt>
<pdfrwt beam="2">  1       -3 0.37793800E-02 0.15596597E+03</pdfrwt>
<totfact> 0.10490616E+03</totfact>
</mgrwt>
</event>
<event>
 5    1  0.7114032E-003  0.7849801E+02  0.7546771E-02  0.1376537E+00
          2   -1    0    0  502    0  0.00000000000E+00  0.00000000000E+00  0.94281524145E+03  0.94281524145E+03  0.00000000000E+00 0. -1.
          2   -1    0    0  501    0 -0.00000000000E+00 -0.00000000000E+00 -0.24499423455E+03  0.24499423455E+03  0.00000000000E+00 0. -1.
         25    1    1    2    0    0  0.33151950408E+02 -0.42129351532E+01 -0.18937749001E+03  0.22935918198E+03  0.12500000000E+03 0.  0.
          2    1    1    2  501    0  0.26295120101E+02 -0.47689915902E+02 -0.12024925267E+02  0.55770603794E+02  0.00000000000E+00 0. -1.
          2    1    1    2  502    0 -0.59447070509E+02  0.51902851055E+02  0.89922342218E+03  0.90267969022E+03  0.00000000000E+00 0. -1.
<mgrwt>
<rscale>  0 0.65382781E+02</rscale>
<asrwt>0</asrwt>
<pdfrwt beam="1">  1        2 0.14504850E+00 0.78498015E+02</pdfrwt>
<pdfrwt beam="2">  1        2 0.37691421E-01 0.54458805E+02</pdfrwt>
<totfact> 0.62518906E+02</totfact>
</mgrwt>
</event>
<event>
 5    1  0.7114032E-003  0.1129048E+03  0.7546771E-02  0.1266401E+00
          2   -1    0    0  502    0  0.00000000000E+00  0.00000000000E+00  0.23642434222E+04  0.23642434222E+04  0.00000000000E+00 0.  1.
         -1   -1    0    0    0  501 -0.00000000000E+00 -0.00000000000E+00 -0.22684882134E+03  0.22684882134E+03  0.00000000000E+00 0.  1.
         25    1    1    2    0    0  0.18642088772E+03  0.12264931594E+02  0.72306081962E+03  0.75719556575E+03  0.12500000000E+03 0.  0.
          2    1    1    2  502    0 -0.90548226729E+02  0.45269919526E+02  0.16075104063E+04  0.16106948977E+04  0.00000000000E+00 0.  1.
         -1    1    1    2    0  501 -0.95872660986E+02 -0.57534851120E+02 -0.19317662502E+03  0.22320178017E+03  0.00000000000E+00 0.  1.
<mgrwt>
<rscale>  0 0.10691031E+03</rscale>
<asrwt>0</asrwt>
<pdfrwt beam="1">  1        2 0.36372974E+00 0.10123412E+03</pdfrwt>
<pdfrwt beam="2">  1       -1 0.34899820E-01 0.11290476E+03</pdfrwt>
<totfact> 0.48220892E+01</totfact>
</mgrwt>
</event>
<event>
 5    1  0.7114032E-003  0.3871942E+02  0.7546771E-02  0.1620155E+00
         -1   -1    0    0    0  501 -0.00000000000E+00  0.00000000000E+00  0.19632832984E+03  0.19632832984E+03  0.00000000000E+00 0.  1.
          2   -1    0    0  502    0  0.00000000000E+00 -0.00000000000E+00 -0.56838741245E+03  0.56838741245E+03  0.00000000000E+00 0. -1.
         25    1    1    2    0    0  0.19943981236E+02  0.31769486643E+02 -0.46248424884E+02  0.13845930620E+03  0.12500000000E+03 0.  0.
          2    1    1    2  502    0 -0.34608444482E+02 -0.17608535141E+02 -0.47454525576E+03  0.47613128935E+03  0.00000000000E+00 0. -1.
         -1    1    1    2    0  501  0.14664463247E+02 -0.14160951502E+02  0.14873459803E+03  0.15012514673E+03  0.00000000000E+00 0.  1.
<mgrwt>
<rscale>  0 0.28094920E+02</rscale>
<asrwt>0</asrwt>
<pdfrwt beam="2">  1        2 0.87444217E-01 0.38719416E+02</pdfrwt>
<pdfrwt beam="1">  1       -1 0.30204358E-01 0.20385756E+02</pdfrwt>
<totfact> 0.60906369E+02</totfact>
</mgrwt>
</event>
<event>
 5    1  0.7114032E-003  0.7350700E+02  0.7546771E-02  0.1453023E+00
          1   -1    0    0  502    0  0.00000000000E+00  0.00000000000E+00  0.63079072843E+03  0.63079072843E+03  0.00000000000E+00 0. -1.
         -2   -1    0    0    0  501 -0.00000000000E+00 -0.00000000000E+00 -0.16764709922E+03  0.16764709922E+03  0.00000000000E+00 0.  1.
         25    1    1    2    0    0  0.17621924908E+01  0.61830621778E+02  0.72950608550E+02  0.15739416253E+03  0.12500000000E+03 0.  0.
          1    1    1    2  502    0 -0.33535965997E+02 -0.66649442901E+02  0.51080414332E+03  0.51622444933E+03  0.00000000000E+00 0. -1.
         -2    1    1    2    0  501  0.31773773506E+02  0.48188211229E+01 -0.12061112266E+03  0.12481921578E+03  0.00000000000E+00 0.  1.
<mgrwt>
<rscale>  0 0.48603524E+02</rscale>
<asrwt>0</asrwt>
<pdfrwt beam="1">  1        1 0.97044727E-01 0.73507004E+02</pdfrwt>
<pdfrwt beam="2">  1       -2 0.25791862E-01 0.32137108E+02</pdfrwt>
<totfact> 0.38277806E+02</totfact>
</mgrwt>
</event>
<event>
 5    1  0.7114032E-003  0.7156331E+02  0.7546771E-02  0.1450311E+00
         -1   -1    0    0    0  501 -0.00000000000E+00  0.00000000000E+00  0.11262673849E+02  0.11262673849E+02  0.00000000000E+00 0.  1.
          2   -1    0    0  502    0  0.00000000000E+00 -0.00000000000E+00 -0.18499475413E+04  0.18499475413E+04  0.00000000000E+00 0. -1.
         25    1    1    2    0    0 -0.38982961027E+01  0.86151197386E+02 -0.69361141095E+03  0.71004155859E+03  0.12500000000E+03 0.  0.
          2    1    1    2  502    0  0.23454950186E+02 -0.24162769578E+02 -0.75228236118E+03  0.75303567316E+03  0.00000000000E+00 0. -1.
         -1    1    1    2    0  501 -0.19556654084E+02 -0.61988427808E+02 -0.39279109535E+03  0.39813298343E+03  0.00000000000E+00 0.  1.
<mgrwt>
<rscale>  0 0.49090335E+02</rscale>
<asrwt>0</asrwt>
<pdfrwt beam="2">  1        2 0.28460724E+00 0.33674532E+02</pdfrwt>
<pdfrwt beam="1">  1       -1 0.17327195E-02 0.71563311E+02</pdfrwt>
<totfact> 0.89464445E+03</totfact>
</mgrwt>
</event>
<event>
 5    1  0.7114032E-003  0.1388563E+03  0.7546771E-02  0.1282423E+00
          2   -1    0    0  501    0  0.00000000000E+00  0.00000000000E+00  0.64043997667E+03  0.64043997667E+03  0.00000000000E+00 0. -1.
          1   -1    0    0  502    0 -0.00000000000E+00 -0.00000000000E+00 -0.30930972719E+03  0.30930972719E+03  0.00000000000E+00 0. -1.
         25    1    1    2    0    0  0.12380045990E+03  0.31101097543E+02 -0.96686075474E+02  0.20314287910E+03  0.12500000000E+03 0.  0.
          2    1    1    2  501    0 -0.10075550053E+03 -0.97809926324E+02  0.57044350459E+03  0.58747276064E+03  0.00000000000E+00 0. -1.
          1    1    1    2  502    0 -0.23044959372E+02  0.66708828781E+02 -0.14262717963E+03  0.15913406411E+03  0.00000000000E+00 0. -1.
<mgrwt>
<rscale>  0 0.98995393E+02</rscale>
<asrwt>0</asrwt>
<pdfrwt beam="1">  1        2 0.98529227E-01 0.13885633E+03</pdfrwt>
<pdfrwt beam="2">  1        1 0.47586112E-01 0.70577178E+02</pdfrwt>
<totfact> 0.54771908E+02</totfact>
</mgrwt>
</event>
<event>
 5    1  0.7114032E-003  0.5428530E+02  0.7546771E-02  0.1516259E+00
          2   -1    0    0  502    0  0.00000000000E+00  0.00000000000E+00  0.31133582839E+02  0.31133582839E+02  0.00000000000E+00 0. -1.
         -1   -1    0    0    0  501 -0.00000000000E+00 -0.00000000000E+00 -0.44655089222E+03  0.44655089222E+03  0.00000000000E+00 0.  1.
         25    1    1    2    0    0 -0.30126931688E+02 -0.82082072708E+01 -0.33356472230E+03  0.35758276055E+03  0.12500000000E+03 0.  0.
          2    1    1    2  502    0  0.52892688804E+02  0.24360681522E+02 -0.43595803174E+02  0.72743889005E+02  0.00000000000E+00 0. -1.
         -1    1    1    2    0  501 -0.22765757116E+02 -0.16152474252E+02 -0.38256783909E+02  0.47357825505E+02  0.00000000000E+00 0.  1.
<mgrwt>
<rscale>  0 0.38926992E+02</rscale>
<asrwt>0</asrwt>
<pdfrwt beam="1">  1        2 0.47897822E-02 0.54285296E+02</pdfrwt>
<pdfrwt beam="2">  1       -1 0.68700133E-01 0.27913834E+02</pdfrwt>
<totfact> 0.38315760E+03</totfact>
</mgrwt>
</event>
<event>
 5    1  0.7114032E-003  0.2755723E+03  0.7546771E-02  0.1135841E+00
          2   -1    0    0  502    0  0.00000000000E+00  0.00000000000E+00  0.22671205017E+04  0.22671205017E+04  0.00000000000E+00 0. -1.
         -1   -1    0    0    0  501 -0.00000000000E+00 -0.00000000000E+00 -0.33078817708E+03  0.33078817708E+03  0.00000000000E+00 0.  1.
         25    1    1    2    0    0  0.16109388208E+03  0.13384786339E+03  0.41818548374E+03  0.48411836175E+03  0.12500000000E+03 0.  0.
          2    1    1    2  502    0 -0.30920720806E+03 -0.47396797750E+02  0.17764262056E+04  0.18037587471E+04  0.00000000000E+00 0. -1.
         -1    1    1    2    0  501  0.14811332598E+03 -0.86451065636E+02 -0.25827936472E+03  0.31003156989E+03  0.00000000000E+00 0.  1.
<mgrwt>
<rscale>  0 0.21739346E+03</rscale>
<asrwt>0</asrwt>
<pdfrwt beam="1">  1        2 0.34878776E+00 0.27557226E+03</pdfrwt>
<pdfrwt beam="2">  1       -1 0.50890490E-01 0.17149736E+03</pdfrwt>
<totfact> 0.24706301E+01</totfact>
</mgrwt>
</event>
<event>
 5    1  0.7114032E-003  0.1727787E+03  0.7546771E-02  0.1292911E+00
          2   -1    0    0  502    0  0.00000000000E+00  0.00000000000E+00  0.39990154796E+04  0.39990154796E+04  0.00000000000E+00 0. -1.
         -1   -1    0    0    0  501 -0.00000000000E+00 -0.00000000000E+00 -0.98903282838E+03  0.98903282838E+03  0.00000000000E+00 0.  1.
         25    1    1    2    0    0 -0.93607029292E+02 -0.77520463739E+02 -0.64187636814E+03  0.66513304700E+03  0.12500000000E+03 0.  0.
          2    1    1    2  502    0  0.13388867645E+03  0.10944013665E+03  0.39835321262E+04  0.39872837272E+04  0.00000000000E+00 0. -1.
         -1    1    1    2    0  501 -0.40281647160E+02 -0.31919672912E+02 -0.33167310684E+03  0.33563153371E+03  0.00000000000E+00 0.  1.
<mgrwt>
<rscale>  0 0.94233815E+02</rscale>
<asrwt>0</asrwt>
<pdfrwt beam="1">  1        2 0.61523314E+00 0.17277868E+03</pdfrwt>
<pdfrwt beam="2">  1       -1 0.15215890E+00 0.51395298E+02</pdfrwt>
<totfact> 0.23136032E-01</totfact>
</mgrwt>
</event>
<event>
 5    1  0.7114032E-003  0.1724634E+03  0.7546771E-02  0.1178768E+00
         -1   -1    0    0    0  501 -0.00000000000E+00  0.00000000000E+00  0.65098588306E+02  0.65098588306E+02  0.00000000000E+00 0.  1.
          2   -1    0    0  502    0  0.00000000000E+00 -0.00000000000E+00 -0.21977053135E+04  0.21977053135E+04  0.00000000000E+00 0. -1.
         25    1    1    2    0    0  0.33750862115E+00 -0.38258504437E+02 -0.22217159358E+03  0.25777712092E+03  0.12500000000E+03 0.  0.
          2    1    1    2  502    0 -0.16893190420E+02  0.20992538527E+03 -0.17703665449E+04  0.17828493348E+04  0.00000000000E+00 0. -1.
         -1    1    1    2    0  501  0.16555681799E+02 -0.17166688083E+03 -0.14006858673E+03  0.22217744612E+03  0.00000000000E+00 0.  1.
<mgrwt>
<rscale>  0 0.16912079E+03</rscale>
<asrwt>0</asrwt>
<pdfrwt beam="2">  1        2 0.33810844E+00 0.16584302E+03</pdfrwt>
<pdfrwt beam="1">  1       -1 0.10015169E-01 0.17246335E+03</pdfrwt>
<totfact> 0.41730035E+02</totfact>
</mgrwt>
</event>
<event>
 5    1  0.7114032E-003  0.7296199E+02  0.7546771E-02  0.1357209E+00
         -3   -1    0    0    0  501 -0.00000000000E+00  0.00000000000E+00  0.37084837366E+02  0.37084837366E+02  0.00000000000E+00 0.  1.
          2   -1    0    0  502    0  0.00000000000E+00 -0.00000000000E+00 -0.15976763365E+04  0.15976763365E+04  0.00000000000E+00 0. -1.
         25    1    1    2    0    0  0.29742656660E+02  0.69211360047E+02 -0.32418777923E+03  0.35552433698E+03  0.12500000000E+03 0.  0.
          2    1    1    2  502    0 -0.73298812470E+02 -0.15942932357E+02 -0.11981764035E+04  0.12005222143E+04  0.00000000000E+00 0. -1.
         -3    1    1    2    0  501  0.43556155810E+02 -0.53268427690E+02 -0.38227316410E+02  0.78714622640E+02  0.00000000000E+00 0.  1.
<mgrwt>
<rscale>  0 0.70855018E+02</rscale>
<asrwt>0</asrwt>
<pdfrwt beam="2">  1        2 0.24579639E+00 0.72961985E+02</pdfrwt>
<pdfrwt beam="1">  1       -3 0.57053589E-02 0.68808895E+02</pdfrwt>
<totfact> 0.13390530E+03</totfact>
</mgrwt>
</event>
<event>
 5    1  0.7114032E-003  0.5561069E+02  0.7546771E-02  0.1456611E+00
          2   -1    0    0  502    0  0.00000000000E+00  0.00000000000E+00  0.79705378196E+03  0.79705378196E+03  0.00000000000E+00 0.  1.
         -2   -1    0    0    0  501 -0.00000000000E+00 -0.00000000000E+00 -0.21867360418E+03  0.21867360418E+03  0.00000000000E+00 0.  1.
         25    1    1    2    0    0 -0.48140447481E+02 -0.79390178227E+02  0.33118669433E+03  0.36596438295E+03  0.12500000000E+03 0.  0.
          2    1    1    2  502    0  0.21424001202E+02  0.47792631323E+02  0.44479885947E+03  0.44787179954E+03  0.00000000000E+00 0.  1.
         -2    1    1    2    0  501  0.26716446279E+02  0.31597546904E+02 -0.19760537604E+03  0.20189120365E+03  0.00000000000E+00 0.  1.
<mgrwt>
<rscale>  0 0.47969598E+02</rscale>
<asrwt>0</asrwt>
<pdfrwt beam="1">  1        2 0.12262366E+00 0.55610689E+02</pdfrwt>
<pdfrwt beam="2">  1       -2 0.33642093E-01 0.41378418E+02</pdfrwt>
<totfact> 0.30527163E+02</totfact>
</mgrwt>
</event>
<event>
 5    1  0.7114032E-003  0.1332067E+03  0.7546771E-02  0.1354572E+00
          1   -1    0    0  502    0  0.00000000000E+00  0.00000000000E+00  0.35336906589E+03  0.35336906589E+03  0.00000000000E+00 0.  1.
         -2   -1    0    0    0  501 -0.00000000000E+00 -0.00000000000E+00 -0.28065768991E+03  0.28065768991E+03  0.00000000000E+00 0.  1.
         25    1    1    2    0    0 -0.12453043831E+03  0.13711135252E+02  0.13286279076E+03  0.22129922383E+03  0.12500000000E+03 0.  0.
          1    1    1    2  502    0  0.13830006465E+03  0.22284173757E+02  0.14639271197E+03  0.20261865264E+03  0.00000000000E+00 0.  1.
         -2    1    1    2    0  501 -0.13769626335E+02 -0.35995309009E+02 -0.20654412675E+03  0.21010887933E+03  0.00000000000E+00 0.  1.
<mgrwt>
<rscale>  0 0.71649633E+02</rscale>
<asrwt>0</asrwt>
<pdfrwt beam="1">  1        1 0.54364471E-01 0.13320667E+03</pdfrwt>
<pdfrwt beam="2">  1       -2 0.43178106E-01 0.38539134E+02</pdfrwt>
<totfact> 0.32038710E+02</totfact>
</mgrwt>
</event>
<event>
 5    1  0.7114032E-003  0.4711737E+02  0.7546771E-02  0.1536976E+00
          2   -1    0    0  501    0  0.00000000000E+00  0.00000000000E+00  0.16915518521E+04  0.16915518521E+04  0.00000000000E+00 0.  1.
          2   -1    0    0  502    0 -0.00000000000E+00 -0.00000000000E+00 -0.57477790191E+03  0.57477790191E+03  0.00000000000E+00 0.  1.
         25    1    1    2    0    0  0.41757432128E+02 -0.25433506902E+02 -0.19988016424E+03  0.24076467031E+03  0.12500000000E+03 0.  0.
          2    1    1    2  501    0  0.57786979238E+01  0.27432509490E+02  0.16693947898E+04  0.16696301687E+04  0.00000000000E+00 0.  1.
          2    1    1    2  502    0 -0.47536130052E+02 -0.19990025879E+01 -0.35274067537E+03  0.35593491503E+03  0.00000000000E+00 0.  1.
<mgrwt>
<rscale>  0 0.36344383E+02</rscale>
<asrwt>0</asrwt>
<pdfrwt beam="1">  1        2 0.26023874E+00 0.28034549E+02</pdfrwt>
<pdfrwt beam="2">  1        2 0.88427370E-01 0.47117368E+02</pdfrwt>
<totfact> 0.11474450E+02</totfact>
</mgrwt>
</event>
<event>
 5    1  0.7114032E-003  0.9108086E+02  0.7546771E-02  0.1437491E+00
          2   -1    0    0  502    0  0.00000000000E+00  0.00000000000E+00  0.19235202490E+04  0.19235202490E+04  0.00000000000E+00 0. -1.
         -2   -1    0    0    0  501 -0.00000000000E+00 -0.00000000000E+00 -0.11876066135E+02  0.11876066135E+02  0.00000000000E+00 0.  1.
         25    1    1    2    0    0 -0.61694379001E+02  0.55179516138E+02  0.14145500941E+04  0.14224724757E+04  0.12500000000E+03 0.  0.
          2    1    1    2  502    0 -0.23801851997E+02 -0.16747017901E+02  0.17737711817E+03  0.17974880478E+03  0.00000000000E+00 0. -1.
         -2    1    1    2    0  501  0.85496230998E+02 -0.38432498236E+02  0.31971697054E+03  0.33317503461E+03  0.00000000000E+00 0.  1.
<mgrwt>
<rscale>  0 0.51485299E+02</rscale>
<asrwt>0</asrwt>
<pdfrwt beam="1">  1        2 0.29592594E+00 0.29103106E+02</pdfrwt>
<pdfrwt beam="2">  1       -2 0.18270886E-02 0.91080864E+02</pdfrwt>
<totfact> 0.79956835E+03</totfact>
</mgrwt>
</event>
<event>
 5    1  0.7114032E-003  0.6444938E+02  0.7546771E-02  0.1461787E+00
          2   -1    0    0  502    0  0.00000000000E+00  0.00000000000E+00  0.32864925660E+04  0.32864925660E+04  0.00000000000E+00 0. -1.
         -1   -1    0    0    0  501 -0.00000000000E+00 -0.00000000000E+00 -0.17850677950E+02  0.17850677950E+02  0.00000000000E+00 0.  1.
         25    1    1    2    0    0  0.24645479242E+02 -0.39508445541E+02  0.22055939872E+04  0.22096239846E+04  0.12500000000E+03 0.  0.
          2    1    1    2  502    0 -0.22882440890E+02 -0.25665309843E+02  0.10102214162E+04  0.10108064226E+04  0.00000000000E+00 0. -1.
         -1    1    1    2    0  501 -0.17630383526E+01  0.65173755384E+02  0.52826484710E+02  0.83912836813E+02  0.00000000000E+00 0.  1.
<mgrwt>
<rscale>  0 0.47075246E+02</rscale>
<asrwt>0</asrwt>
<pdfrwt beam="1">  1        2 0.50561376E+00 0.34384797E+02</pdfrwt>
<pdfrwt beam="2">  1       -1 0.27462608E-02 0.64449378E+02</pdfrwt>
<totfact> 0.84011387E+02</totfact>
</mgrwt>
</event>
<event>
 5    1  0.7114032E-003  0.5159070E+02  0.7546771E-02  0.1546289E+00
         -2   -1    0    0    0  501 -0.00000000000E+00  0.00000000000E+00  0.19059025160E+02  0.19059025160E+02  0.00000000000E+00 0.  1.
          2   -1    0    0  502    0  0.00000000000E+00 -0.00000000000E+00 -0.10532070236E+04  0.10532070236E+04  0.00000000000E+00 0. -1.
         25    1    1    2    0    0  0.12531702816E+02  0.55750248117E+02 -0.83580879274E+03  0.84703392598E+03  0.12500000000E+03 0.  0.
          2    1    1    2  502    0  0.18934815039E+02 -0.14910814447E+02 -0.15784577114E+03  0.15967512979E+03  0.00000000000E+00 0. -1.
         -2    1    1    2    0  501 -0.31466517855E+02 -0.40839433670E+02 -0.40493434594E+02  0.65556993018E+02  0.00000000000E+00 0.  1.
<mgrwt>
<rscale>  0 0.35261720E+02</rscale>
<asrwt>0</asrwt>
<pdfrwt beam="2">  1        2 0.16203187E+00 0.24101029E+02</pdfrwt>
<pdfrwt beam="1">  1       -2 0.29321573E-02 0.51590697E+02</pdfrwt>
<totfact> 0.10099891E+04</totfact>
</mgrwt>
</event>
<event>
 5    1  0.7114032E-003  0.8658794E+02  0.7546771E-02  0.1314379E+00
          1   -1    0    0  502    0 -0.00000000000E+00  0.00000000000E+00  0.17737684154E+04  0.17737684154E+04  0.00000000000E+00 0. -1.
          2   -1    0    0  501    0  0.00000000000E+00 -0.00000000000E+00 -0.19261657351E+04  0.19261657351E+04  0.00000000000E+00 0. -1.
         25    1    1    2    0    0 -0.66230559904E+02  0.51506116721E+02 -0.53940414549E+03  0.56001892762E+03  0.12500000000E+03 0.  0.
          2    1    1    2  501    0  0.87083359240E+02  0.30108889547E+02 -0.13739042181E+04  0.13769905073E+04  0.00000000000E+00 0. -1.
          1    1    1    2  502    0 -0.20852799336E+02 -0.81615006268E+02  0.17609110438E+04  0.17629247156E+04  0.00000000000E+00 0. -1.
<mgrwt>
<rscale>  0 0.85404308E+02</rscale>
<asrwt>0</asrwt>
<pdfrwt beam="2">  1        2 0.29633319E+00 0.86587936E+02</pdfrwt>
<pdfrwt beam="1">  1        1 0.27288745E+00 0.84236859E+02</pdfrwt>
<totfact> 0.67399186E+00</totfact>
</mgrwt>
</event>
<event>
 5    1  0.7114032E-003  0.7884741E+02  0.7546771E-02  0.1462011E+00
         -2   -1    0    0    0  501 -0.00000000000E+00  0.00000000000E+00  0.10904959441E+04  0.10904959441E+04  0.00000000000E+00 0.  1.
          2   -1    0    0  502    0  0.00000000000E+00 -0.00000000000E+00 -0.64597665259E+02  0.64597665259E+02  0.00000000000E+00 0. -1.
         25    1    1    2    0    0 -0.52751798520E+02  0.10794956065E+02  0.32153221503E+03  0.34915218548E+03  0.12500000000E+03 0.  0.
          2    1    1    2  502    0  0.80772202194E+02 -0.92962726703E+01 -0.17799462431E+02  0.83230944941E+02  0.00000000000E+00 0. -1.
         -2    1    1    2    0  501 -0.28020403674E+02 -0.14986833949E+01  0.72216552629E+03  0.72271047898E+03  0.00000000000E+00 0.  1.
<mgrwt>
<rscale>  0 0.47037158E+02</rscale>
<asrwt>0</asrwt>
<pdfrwt beam="2">  1        2 0.99381031E-02 0.78847413E+02</pdfrwt>
<pdfrwt beam="1">  1       -2 0.16776859E+00 0.28060454E+02</pdfrwt>
<totfact> 0.16055517E+02</totfact>
</mgrwt>
</event>
<event>
 5    1  0.7114032E-003  0.6147245E+02  0.7546771E-02  0.1513653E+00
          1   -1    0    0  502    0  0.00000000000E+00  0.00000000000E+00  0.70849980915E+03  0.70849980915E+03  0.00000000000E+00 0. -1.
         -1   -1    0    0    0  501 -0.00000000000E+00 -0.00000000000E+00 -0.19612608635E+02  0.19612608635E+02  0.00000000000E+00 0.  1.
         25    1    1    2    0    0 -0.27990764570E+02  0.36122010155E+02  0.36408031802E+03  0.38764385780E+03  0.12500000000E+03 0.  0.
          1    1    1    2  502    0  0.52484072384E+02 -0.41545837176E+02  0.28961839131E+03  0.29725316991E+03  0.00000000000E+00 0. -1.
         -1    1    1    2    0  501 -0.24493307814E+02  0.54238270210E+01  0.35188491193E+02  0.43215390079E+02  0.00000000000E+00 0.  1.
<mgrwt>
<rscale>  0 0.39270064E+02</rscale>
<asrwt>0</asrwt>
<pdfrwt beam="1">  1        1 0.10899995E+00 0.61472451E+02</pdfrwt>
<pdfrwt beam="2">  1       -1 0.30173249E-02 0.25086650E+02</pdfrwt>
<totfact> 0.82020999E+03</totfact>
</mgrwt>
</event>
<event>
 5    1  0.7114032E-003  0.3328898E+03  0.7546771E-02  0.1219509E+00
          2   -1    0    0  502    0  0.00000000000E+00  0.00000000000E+00  0.20510323109E+04  0.20510323109E+04  0.00000000000E+00 0. -1.
         -3   -1    0    0    0  501 -0.00000000000E+00 -0.00000000000E+00 -0.23793573239E+03  0.23793573239E+03  0.00000000000E+00 0.  1.
         25    1    1    2    0    0  0.12169679907E+03 -0.31285581170E+03  0.65546669845E+03  0.74696081731E+03  0.12500000000E+03 0.  0.
          2    1    1    2  502    0 -0.53557321699E+02 -0.13191037886E+02  0.12043880887E+04  0.12056504711E+04  0.00000000000E+00 0. -1.
         -3    1    1    2    0  501 -0.68139477372E+02  0.32604684958E+03 -0.46758208640E+02  0.33635675491E+03  0.00000000000E+00 0.  1.
<mgrwt>
<rscale>  0 0.13550458E+03</rscale>
<asrwt>0</asrwt>
<pdfrwt beam="1">  1        2 0.31554342E+00 0.55157866E+02</pdfrwt>
<pdfrwt beam="2">  1       -3 0.36605499E-01 0.33288983E+03</pdfrwt>
<totfact> 0.38769578E+01</totfact>
</mgrwt>
</event>
<event>
 5    1  0.7114032E-003  0.6776061E+02  0.7546771E-02  0.1516937E+00
          2   -1    0    0  501    0  0.00000000000E+00  0.00000000000E+00  0.92819995210E+03  0.92819995210E+03  0.00000000000E+00 0. -1.
          1   -1    0    0  502    0 -0.00000000000E+00 -0.00000000000E+00 -0.49556698878E+03  0.49556698878E+03  0.00000000000E+00 0. -1.
         25    1    1    2    0    0 -0.64569945491E+02 -0.62159001381E+02 -0.61939065107E+01  0.15393629784E+03  0.12500000000E+03 0.  0.
          2    1    1    2  501    0  0.49263597931E+02  0.45994969147E+02  0.85269992175E+03  0.85535933725E+03  0.00000000000E+00 0. -1.
          1    1    1    2  502    0  0.15306347560E+02  0.16164032234E+02 -0.41387305192E+03  0.41447130579E+03  0.00000000000E+00 0. -1.
<mgrwt>
<rscale>  0 0.38838527E+02</rscale>
<asrwt>0</asrwt>
<pdfrwt beam="1">  1        2 0.14279999E+00 0.67760606E+02</pdfrwt>
<pdfrwt beam="2">  1        1 0.76241075E-01 0.22261182E+02</pdfrwt>
<totfact> 0.20527756E+02</totfact>
</mgrwt>
</event>
<event>
 5    1  0.7114032E-003  0.6835023E+02  0.7546771E-02  0.1464142E+00
          1   -1    0    0  502    0  0.00000000000E+00  0.00000000000E+00  0.23112378810E+04  0.23112378810E+04  0.00000000000E+00 0. -1.
         -2   -1    0    0    0  501 -0.00000000000E+00 -0.00000000000E+00 -0.76237925085E+02  0.76237925085E+02  0.00000000000E+00 0. -1.
         25    1    1    2    0    0 -0.74258642932E+02  0.47921977525E+02  0.74602768721E+02  0.17029807715E+03  0.12500000000E+03 0.  0.
          1    1    1    2  502    0  0.65986529049E+02 -0.17139189316E+02  0.21791363404E+04  0.21802025511E+04  0.00000000000E+00 0. -1.
         -2    1    1    2    0  501  0.82721138825E+01 -0.30782788209E+02 -0.18739153154E+02  0.36975177876E+02  0.00000000000E+00 0. -1.
<mgrwt>
<rscale>  0 0.46676067E+02</rscale>
<asrwt>0</asrwt>
<pdfrwt beam="1">  1        1 0.35557500E+00 0.68350227E+02</pdfrwt>
<pdfrwt beam="2">  1       -2 0.11728913E-01 0.31874879E+02</pdfrwt>
<totfact> 0.10050992E+02</totfact>
</mgrwt>
</event>
<event>
 5    1  0.7114032E-003  0.1706743E+03  0.7546771E-02  0.1385647E+00
         -2   -1    0    0    0  501 -0.00000000000E+00  0.00000000000E+00  0.11722131218E+02  0.11722131218E+02  0.00000000000E+00 0.  1.
          2   -1    0    0  502    0  0.00000000000E+00 -0.00000000000E+00 -0.35693024327E+04  0.35693024327E+04  0.00000000000E+00 0. -1.
         25    1    1    2    0    0 -0.96492461530E+02  0.14277887335E+03 -0.17079490988E+04  0.17211658043E+04  0.12500000000E+03 0.  0.
          2    1    1    2  502    0  0.21200832643E+02  0.95599904007E+01 -0.31221978687E+03  0.31308475536E+03  0.00000000000E+00 0. -1.
         -2    1    1    2    0  501  0.75291628887E+02 -0.15233886375E+03 -0.15374114158E+04  0.15467740042E+04  0.00000000000E+00 0.  1.
<mgrwt>
<rscale>  0 0.63002389E+02</rscale>
<asrwt>0</asrwt>
<pdfrwt beam="2">  1        2 0.54912385E+00 0.23256584E+02</pdfrwt>
<pdfrwt beam="1">  1       -2 0.18034035E-02 0.17067429E+03</pdfrwt>
<totfact> 0.12746165E+03</totfact>
</mgrwt>
</event>
<event>
 5    1  0.7114032E-003  0.7228078E+02  0.7546771E-02  0.1450213E+00
          2   -1    0    0  502    0  0.00000000000E+00  0.00000000000E+00  0.78708328225E+03  0.78708328225E+03  0.00000000000E+00 0.  1.
         -3   -1    0    0    0  501 -0.00000000000E+00 -0.00000000000E+00 -0.69243932782E+02  0.69243932782E+02  0.00000000000E+00 0.  1.
         25    1    1    2    0    0 -0.48354272491E+02  0.91363346332E+02  0.34711631749E+03  0.38314505685E+03  0.12500000000E+03 0.  0.
          2    1    1    2  502    0  0.12858054003E+02 -0.30787209507E+02  0.39686365199E+03  0.39826365651E+03  0.00000000000E+00 0.  1.
         -3    1    1    2    0  501  0.35496218489E+02 -0.60576136825E+02 -0.26140620007E+02  0.74918501680E+02  0.00000000000E+00 0.  1.
<mgrwt>
<rscale>  0 0.49108078E+02</rscale>
<asrwt>0</asrwt>
<pdfrwt beam="1">  1        2 0.12108973E+00 0.33364380E+02</pdfrwt>
<pdfrwt beam="2">  1       -3 0.10652913E-01 0.72280778E+02</pdfrwt>
<totfact> 0.14326187E+03</totfact>
</mgrwt>
</event>
<event>
 5    1  0.7114032E-003  0.5509395E+02  0.7546771E-02  0.1545885E+00
         -1   -1    0    0    0  501 -0.00000000000E+00  0.00000000000E+00  0.13595479733E+02  0.13595479733E+02  0.00000000000E+00 0.  1.
          2   -1    0    0  502    0  0.00000000000E+00 -0.00000000000E+00 -0.17537542266E+04  0.17537542266E+04  0.00000000000E+00 0. -1.
         25    1    1    2    0    0 -0.46693635678E+02  0.45532643765E+02 -0.42278575988E+03  0.44567512385E+03  0.12500000000E+03 0.  0.
          2    1    1    2  502    0  0.49630145835E+02 -0.23096574426E+02 -0.12360711607E+04  0.12372827152E+04  0.00000000000E+00 0. -1.
         -1    1    1    2    0  501 -0.29365101567E+01 -0.22436069338E+02 -0.81301826380E+02  0.84391867333E+02  0.00000000000E+00 0.  1.
<mgrwt>
<rscale>  0 0.35307708E+02</rscale>
<asrwt>0</asrwt>
<pdfrwt beam="2">  1        2 0.26980832E+00 0.55093955E+02</pdfrwt>
<pdfrwt beam="1">  1       -1 0.20916124E-02 0.22627424E+02</pdfrwt>
<totfact> 0.59876272E+03</totfact>
</mgrwt>
</event>
<event>
 5    1  0.7114032E-003  0.4268328E+02  0.7546771E-02  0.1570590E+00
         -1   -1    0    0    0  501 -0.00000000000E+00  0.00000000000E+00  0.11663598284E+02  0.11663598284E+02  0.00000000000E+00 0.  1.
          2   -1    0    0  502    0  0.00000000000E+00 -0.00000000000E+00 -0.14784217725E+04  0.14784217725E+04  0.00000000000E+00 0. -1.
         25    1    1    2    0    0  0.54506603991E+01 -0.30544642701E+02 -0.12312626139E+04  0.12379803348E+04  0.12500000000E+03 0.  0.
          2    1    1    2  502    0 -0.35889106488E+01  0.55438977466E+02 -0.20650540009E+03  0.21384770461E+03  0.00000000000E+00 0. -1.
         -1    1    1    2    0  501 -0.18617497503E+01 -0.24894334765E+02 -0.28990160217E+02  0.38257331388E+02  0.00000000000E+00 0.  1.
<mgrwt>
<rscale>  0 0.32642596E+02</rscale>
<asrwt>0</asrwt>
<pdfrwt beam="2">  1        2 0.22744955E+00 0.42683275E+02</pdfrwt>
<pdfrwt beam="1">  1       -1 0.17943993E-02 0.24963854E+02</pdfrwt>
<totfact> 0.10505765E+04</totfact>
</mgrwt>
</event>
<event>
 5    1  0.7114032E-003  0.7139560E+02  0.7546771E-02  0.1366832E+00
          3   -1    0    0  502    0 -0.00000000000E+00  0.00000000000E+00  0.20351780398E+03  0.20351780398E+03  0.00000000000E+00 0. -1.
          1   -1    0    0  501    0  0.00000000000E+00 -0.00000000000E+00 -0.75566268746E+03  0.75566268746E+03  0.00000000000E+00 0. -1.
         25    1    1    2    0    0  0.43723145913E+02  0.64366513565E+02 -0.41762396182E+03  0.44281998040E+03  0.12500000000E+03 0.  0.
          1    1    1    2  501    0 -0.64733380627E+02  0.42387651946E+01 -0.31527841673E+03  0.32188329834E+03  0.00000000000E+00 0. -1.
          3    1    1    2  502    0  0.21010234715E+02 -0.68605278760E+02  0.18075749507E+03  0.19447721270E+03  0.00000000000E+00 0. -1.
<mgrwt>
<rscale>  0 0.68055682E+02</rscale>
<asrwt>0</asrwt>
<pdfrwt beam="2">  1        1 0.11625580E+00 0.64872010E+02</pdfrwt>
<pdfrwt beam="1">  1        3 0.31310432E-01 0.71395597E+02</pdfrwt>
<totfact> 0.13486403E+02</totfact>
</mgrwt>
</event>
<event>
 5    1  0.7114032E-003  0.8536827E+02  0.7546771E-02  0.1401612E+00
          2   -1    0    0  502    0  0.00000000000E+00  0.00000000000E+00  0.31438622539E+03  0.31438622539E+03  0.00000000000E+00 0. -1.
          2   -1    0    0  501    0 -0.00000000000E+00 -0.00000000000E+00 -0.14443667432E+04  0.14443667432E+04  0.00000000000E+00 0. -1.
         25    1    1    2    0    0 -0.94255794760E+02 -0.82914917068E+02 -0.33221853074E+03  0.37650124898E+03  0.12500000000E+03 0.  0.
          2    1    1    2  501    0  0.29456594700E+02  0.28412380738E+02 -0.10834793012E+04  0.10842519773E+04  0.00000000000E+00 0. -1.
          2    1    1    2  502    0  0.64799200060E+02  0.54502536330E+02  0.28571731410E+03  0.29799974224E+03  0.00000000000E+00 0. -1.
<mgrwt>
<rscale>  0 0.59108369E+02</rscale>
<asrwt>0</asrwt>
<pdfrwt beam="1">  1        2 0.48367110E-01 0.85368267E+02</pdfrwt>
<pdfrwt beam="2">  1        2 0.22221028E+00 0.40926206E+02</pdfrwt>
<totfact> 0.27300864E+02</totfact>
</mgrwt>
</event>
<event>
 5    1  0.7114032E-003  0.8139748E+02  0.7546771E-02  0.1385406E+00
          1   -1    0    0  502    0 -0.00000000000E+00  0.00000000000E+00  0.94913064410E+03  0.94913064410E+03  0.00000000000E+00 0. -1.
          2   -1    0    0  501    0  0.00000000000E+00 -0.00000000000E+00 -0.33281091533E+03  0.33281091533E+03  0.00000000000E+00 0. -1.
         25    1    1    2    0    0  0.14239544899E+02  0.53116466894E+02  0.29968350163E+03  0.32933163353E+03  0.12500000000E+03 0.  0.
          2    1    1    2  501    0  0.28425196510E+02 -0.76927753969E+02 -0.31173482982E+03  0.32234217107E+03  0.00000000000E+00 0. -1.
          1    1    1    2  502    0 -0.42664741409E+02  0.23811287075E+02  0.62837105695E+03  0.63026775482E+03  0.00000000000E+00 0. -1.
<mgrwt>
<rscale>  0 0.63063822E+02</rscale>
<asrwt>0</asrwt>
<pdfrwt beam="2">  1        2 0.51201680E-01 0.81397476E+02</pdfrwt>
<pdfrwt beam="1">  1        1 0.14602010E+00 0.48859570E+02</pdfrwt>
<totfact> 0.25840130E+02</totfact>
</mgrwt>
</event>
<event>
 5    1  0.7114032E-003  0.7008153E+02  0.7546771E-02  0.1417793E+00
          1   -1    0    0  502    0  0.00000000000E+00  0.00000000000E+00  0.99759446855E+03  0.99759446855E+03  0.00000000000E+00 0. -1.
         -2   -1    0    0    0  501 -0.00000000000E+00 -0.00000000000E+00 -0.32172390187E+02  0.32172390187E+02  0.00000000000E+00 0.  1.
         25    1    1    2    0    0  0.24942003742E+02 -0.97289286635E+02  0.81917421937E+03  0.83472073805E+03  0.12500000000E+03 0.  0.
          1    1    1    2  502    0  0.14530940518E+02  0.41465028918E+02  0.10824890983E+03  0.11682603877E+03  0.00000000000E+00 0. -1.
         -2    1    1    2    0  501 -0.39472944260E+02  0.55824257717E+02  0.37998949167E+02  0.78220081923E+02  0.00000000000E+00 0.  1.
<mgrwt>
<rscale>  0 0.55490555E+02</rscale>
<asrwt>0</asrwt>
<pdfrwt beam="1">  1        1 0.15347605E+00 0.43937420E+02</pdfrwt>
<pdfrwt beam="2">  1       -2 0.49495992E-02 0.70081531E+02</pdfrwt>
<totfact> 0.27940655E+03</totfact>
</mgrwt>
</event>
<event>
 5    1  0.7114032E-003  0.1029683E+03  0.7546771E-02  0.1345209E+00
         -1   -1    0    0    0  501 -0.00000000000E+00  0.00000000000E+00  0.94304396783E+02  0.94304396783E+02  0.00000000000E+00 0.  1.
          2   -1    0    0  502    0  0.00000000000E+00 -0.00000000000E+00 -0.52134451041E+03  0.52134451041E+03  0.00000000000E+00 0. -1.
         25    1    1    2    0    0 -0.12660756600E+03  0.77054078388E+01 -0.32287947348E+03  0.36873432641E+03  0.12500000000E+03 0.  0.
          2    1    1    2  502    0  0.31801163952E+02 -0.43646890034E+02 -0.13128531210E+03  0.14195843832E+03  0.00000000000E+00 0. -1.
         -1    1    1    2    0  501  0.94806402052E+02  0.35941482195E+02  0.27124671947E+02  0.10495614246E+03  0.00000000000E+00 0.  1.
<mgrwt>
<rscale>  0 0.74569658E+02</rscale>
<asrwt>0</asrwt>
<pdfrwt beam="2">  1        2 0.80206848E-01 0.54003380E+02</pdfrwt>
<pdfrwt beam="1">  1       -1 0.14508369E-01 0.10296826E+03</pdfrwt>
<totfact> 0.22526600E+03</totfact>
</mgrwt>
</event>
<event>
 5    1  0.7114032E-003  0.6655114E+02  0.7546771E-02  0.1531180E+00
         -1   -1    0    0    0  501 -0.00000000000E+00  0.00000000000E+00  0.87824964192E+02  0.87824964192E+02  0.00000000000E+00 0.  1.
          2   -1    0    0  502    0  0.00000000000E+00 -0.00000000000E+00 -0.23275165667E+03  0.23275165667E+03  0.00000000000E+00 0. -1.
         25    1    1    2    0    0  0.11254833235E+02 -0.66652349488E+02 -0.15548577908E+03  0.21064195798E+03  0.12500000000E+03 0.  0.
          2    1    1    2  502    0 -0.20609701279E+02  0.56384027125E+00 -0.26510841867E+02  0.33584258800E+02  0.00000000000E+00 0. -1.
         -1    1    1    2    0  501  0.93548680433E+01  0.66088509217E+02  0.37069928474E+02  0.76350404083E+02  0.00000000000E+00 0.  1.
<mgrwt>
<rscale>  0 0.37042035E+02</rscale>
<asrwt>0</asrwt>
<pdfrwt beam="2">  1        2 0.35807947E-01 0.20617413E+02</pdfrwt>
<pdfrwt beam="1">  1       -1 0.13511533E-01 0.66551144E+02</pdfrwt>
<totfact> 0.54981178E+03</totfact>
</mgrwt>
</event>
<event>
 5    1  0.7114032E-003  0.5298617E+02  0.7546771E-02  0.1503553E+00
          1   -1    0    0  502    0  0.00000000000E+00  0.00000000000E+00  0.31590870524E+03  0.31590870524E+03  0.00000000000E+00 0. -1.
         -1   -1    0    0    0  501 -0.00000000000E+00 -0.00000000000E+00 -0.42043354066E+03  0.42043354066E+03  0.00000000000E+00 0.  1.
         25    1    1    2    0    0  0.52337057521E+01  0.21490553131E+02  0.17901776553E+03  0.21945750369E+03  0.12500000000E+03 0.  0.
          1    1    1    2  502    0  0.53978744579E+01  0.30699901763E+02  0.11277530955E+03  0.11700380960E+03  0.00000000000E+00 0. -1.
         -1    1    1    2    0  501 -0.10631580210E+02 -0.52190454893E+02 -0.39631791050E+03  0.39988093261E+03  0.00000000000E+00 0.  1.
<mgrwt>
<rscale>  0 0.40640166E+02</rscale>
<asrwt>0</asrwt>
<pdfrwt beam="1">  1        1 0.48601340E-01 0.31170836E+02</pdfrwt>
<pdfrwt beam="2">  1       -1 0.64682083E-01 0.52986166E+02</pdfrwt>
<totfact> 0.21476928E+02</totfact>
</mgrwt>
</event>
<event>
 5    1  0.7114032E-003  0.5189359E+02  0.7546771E-02  0.1522559E+00
         -1   -1    0    0    0  502 -0.00000000000E+00  0.00000000000E+00  0.25096109946E+03  0.25096109946E+03  0.00000000000E+00 0.  1.
         -2   -1    0    0    0  501  0.00000000000E+00 -0.00000000000E+00 -0.10415028213E+04  0.10415028213E+04  0.00000000000E+00 0.  1.
         25    1    1    2    0    0 -0.38174166671E+02  0.47757767247E+02  0.12906449745E+03  0.18979124278E+03  0.12500000000E+03 0.  0.
         -2    1    1    2    0  501  0.47310961077E+02 -0.21295774823E+02 -0.10083162404E+04  0.10096501759E+04  0.00000000000E+00 0.  1.
         -1    1    1    2    0  502 -0.91367944058E+01 -0.26461992425E+02  0.88710021084E+02  0.93022502094E+02  0.00000000000E+00 0.  1.
<mgrwt>
<rscale>  0 0.38115077E+02</rscale>
<asrwt>0</asrwt>
<pdfrwt beam="2">  1       -2 0.16023120E+00 0.51893587E+02</pdfrwt>
<pdfrwt beam="1">  1       -1 0.38609400E-01 0.27994965E+02</pdfrwt>
<totfact> 0.14016842E+01</totfact>
</mgrwt>
</event>
<event>
 5    1  0.7114032E-003  0.1169406E+03  0.7546771E-02  0.1317881E+00
          1   -1    0    0  502    0  0.00000000000E+00  0.00000000000E+00  0.96240278052E+03  0.96240278052E+03  0.00000000000E+00 0. -1.
         -1   -1    0    0    0  501 -0.00000000000E+00 -0.00000000000E+00 -0.47902381803E+03  0.47902381803E+03  0.00000000000E+00 0.  1.
         25    1    1    2    0    0  0.13264869507E+03  0.36230379813E+02  0.40555828739E+03  0.44610631154E+03  0.12500000000E+03 0.  0.
          1    1    1    2  502    0 -0.17830553752E+02 -0.57749948238E+02  0.52737969929E+03  0.53083173642E+03  0.00000000000E+00 0. -1.
         -1    1    1    2    0  501 -0.11481814132E+03  0.21519568424E+02 -0.44955902419E+03  0.46448855059E+03  0.00000000000E+00 0.  1.
<mgrwt>
<rscale>  0 0.84070691E+02</rscale>
<asrwt>0</asrwt>
<pdfrwt beam="1">  1        1 0.14806197E+00 0.60439930E+02</pdfrwt>
<pdfrwt beam="2">  1       -1 0.73695972E-01 0.11694059E+03</pdfrwt>
<totfact> 0.37565568E+01</totfact>
</mgrwt>
</event>
<event>
 5    1  0.7114032E-003  0.9475075E+02  0.7546771E-02  0.1370543E+00
          1   -1    0    0  502    0  0.00000000000E+00  0.00000000000E+00  0.97253392266E+02  0.97253392266E+02  0.00000000000E+00 0. -1.
         -1   -1    0    0    0  501 -0.00000000000E+00 -0.00000000000E+00 -0.25322059359E+04  0.25322059359E+04  0.00000000000E+00 0.  1.
         25    1    1    2    0    0  0.19729985418E+02 -0.48347538529E+02 -0.80515733506E+03  0.81647418269E+03  0.12500000000E+03 0.  0.
          1    1    1    2  502    0 -0.12924520344E+02  0.95256692494E+02  0.65950140329E+02  0.11657744937E+03  0.00000000000E+00 0. -1.
         -1    1    1    2    0  501 -0.68054650740E+01 -0.46909153965E+02 -0.16957453489E+04  0.16964076961E+04  0.00000000000E+00 0.  1.
<mgrwt>
<rscale>  0 0.67016481E+02</rscale>
<asrwt>0</asrwt>
<pdfrwt beam="1">  1        1 0.14962060E-01 0.94750753E+02</pdfrwt>
<pdfrwt beam="2">  1       -1 0.38957016E+00 0.47400243E+02</pdfrwt>
<totfact> 0.48949187E+00</totfact>
</mgrwt>
</event>
<event>
 5    1  0.7114032E-003  0.3381829E+02  0.7546771E-02  0.1561071E+00
          1   -1    0    0  502    0  0.00000000000E+00  0.00000000000E+00  0.99978675472E+02  0.99978675472E+02  0.00000000000E+00 0. -1.
         -2   -1    0    0    0  501 -0.00000000000E+00 -0.00000000000E+00 -0.10623417792E+03  0.10623417792E+03  0.00000000000E+00 0.  1.
         25    1    1    2    0    0  0.79014217397E+01  0.90395010725E+01 -0.60148256517E+01  0.12571922356E+03  0.12500000000E+03 0.  0.
          1    1    1    2  502    0  0.11431532454E+02 -0.36786824311E+02  0.17492885028E+02  0.42307817288E+02  0.00000000000E+00 0. -1.
         -2    1    1    2    0  501 -0.19332954193E+02  0.27747323238E+02 -0.17733561827E+02  0.38185812546E+02  0.00000000000E+00 0.  1.
<mgrwt>
<rscale>  0 0.33634558E+02</rscale>
<asrwt>0</asrwt>
<pdfrwt beam="1">  1        1 0.15381335E-01 0.33451819E+02</pdfrwt>
<pdfrwt beam="2">  1       -2 0.16343720E-01 0.33818295E+02</pdfrwt>
<totfact> 0.76265408E+03</totfact>
</mgrwt>
</event>
<event>
 5    1  0.7114032E-003  0.5054808E+02  0.7546771E-02  0.1570266E+00
          2   -1    0    0  501    0  0.00000000000E+00  0.00000000000E+00  0.38665412972E+04  0.38665412972E+04  0.00000000000E+00 0. -1.
          2   -1    0    0  502    0 -0.00000000000E+00 -0.00000000000E+00 -0.13671794855E+03  0.13671794855E+03  0.00000000000E+00 0. -1.
         25    1    1    2    0    0 -0.29027491987E+02  0.10308152009E+02  0.88232556491E+03  0.89166824312E+03  0.12500000000E+03 0.  0.
          2    1    1    2  501    0  0.50083497480E+02 -0.11982318671E+02  0.29784756938E+04  0.29789208434E+04  0.00000000000E+00 0. -1.
          2    1    1    2  502    0 -0.21056005493E+02  0.16741666625E+01 -0.13097791011E+03  0.13267015918E+03  0.00000000000E+00 0. -1.
<mgrwt>
<rscale>  0 0.32675674E+02</rscale>
<asrwt>0</asrwt>
<pdfrwt beam="1">  1        2 0.59485242E+00 0.50548080E+02</pdfrwt>
<pdfrwt beam="2">  1        2 0.21033533E-01 0.21122457E+02</pdfrwt>
<totfact> 0.29208573E+01</totfact>
</mgrwt>
</event>
<event>
 5    1  0.7114032E-003  0.2117596E+02  0.7546771E-02  0.1725016E+00
         -1   -1    0    0    0  502 -0.00000000000E+00  0.00000000000E+00  0.13028884584E+04  0.13028884584E+04  0.00000000000E+00 0.  1.
         -2   -1    0    0    0  501  0.00000000000E+00 -0.00000000000E+00 -0.36743882258E+03  0.36743882258E+03  0.00000000000E+00 0.  1.
         25    1    1    2    0    0 -0.20035189464E+02 -0.52151809463E+00 -0.13542255591E+03  0.18538055305E+03  0.12500000000E+03 0.  0.
         -2    1    1    2    0  501  0.11007461315E+02 -0.18379948293E+02 -0.20639693234E+03  0.20750585626E+03  0.00000000000E+00 0.  1.
         -1    1    1    2    0  502  0.90277281484E+01  0.18901466388E+02  0.12772691241E+04  0.12774408717E+04  0.00000000000E+00 0.  1.
<mgrwt>
<rscale>  0 0.21061032E+02</rscale>
<asrwt>0</asrwt>
<pdfrwt beam="2">  1       -2 0.56529050E-01 0.21175962E+02</pdfrwt>
<pdfrwt beam="1">  1       -1 0.20044438E+00 0.20946725E+02</pdfrwt>
<totfact> 0.46767728E+00</totfact>
</mgrwt>
</event>
<event>
 5    1  0.7114032E-003  0.6145987E+02  0.7546771E-02  0.1398395E+00
          1   -1    0    0  502    0 -0.00000000000E+00  0.00000000000E+00  0.12830426855E+03  0.12830426855E+03  0.00000000000E+00 0. -1.
          2   -1    0    0  501    0  0.00000000000E+00 -0.00000000000E+00 -0.13921372951E+04  0.13921372951E+04  0.00000000000E+00 0. -1.
         25    1    1    2    0    0  0.25387614827E+02 -0.41157179557E+02 -0.17925816032E+03  0.22382344036E+03  0.12500000000E+03 0.  0.
          2    1    1    2  501    0  0.37757086309E+02  0.44439659960E+02 -0.11803849012E+04  0.11818244354E+04  0.00000000000E+00 0. -1.
          1    1    1    2  502    0 -0.63144701136E+02 -0.32824804032E+01  0.95810035059E+02  0.11479368788E+03  0.00000000000E+00 0. -1.
<mgrwt>
<rscale>  0 0.59866091E+02</rscale>
<asrwt>0</asrwt>
<pdfrwt beam="2">  1        2 0.21417499E+00 0.58313643E+02</pdfrwt>
<pdfrwt beam="1">  1        1 0.19739116E-01 0.61459870E+02</pdfrwt>
<totfact> 0.58886548E+02</totfact>
</mgrwt>
</event>
<event>
 5    1  0.7114032E-003  0.6360722E+02  0.7546771E-02  0.1437662E+00
          1   -1    0    0  502    0  0.00000000000E+00  0.00000000000E+00  0.14166269929E+03  0.14166269929E+03  0.00000000000E+00 0. -1.
         -2   -1    0    0    0  501 -0.00000000000E+00 -0.00000000000E+00 -0.15335075448E+03  0.15335075448E+03  0.00000000000E+00 0.  1.
         25    1    1    2    0    0  0.60103398509E+02  0.65900729802E+02 -0.61582194847E+02  0.16544694444E+03  0.12500000000E+03 0.  0.
          1    1    1    2  502    0 -0.56414069773E+02 -0.24444460712E+02  0.60876484626E+02  0.86521819839E+02  0.00000000000E+00 0. -1.
         -2    1    1    2    0  501 -0.36893287362E+01 -0.41456269090E+02 -0.10982344967E+02  0.43044689502E+02  0.00000000000E+00 0.  1.
<mgrwt>
<rscale>  0 0.51452301E+02</rscale>
<asrwt>0</asrwt>
<pdfrwt beam="1">  1        1 0.21794261E-01 0.63607218E+02</pdfrwt>
<pdfrwt beam="2">  1       -2 0.23592424E-01 0.41620108E+02</pdfrwt>
<totfact> 0.28465395E+03</totfact>
</mgrwt>
</event>
<event>
 5    1  0.7114032E-003  0.9654297E+02  0.7546771E-02  0.1461265E+00
         -2   -1    0    0    0  501 -0.00000000000E+00  0.00000000000E+00  0.96293958407E+01  0.96293958407E+01  0.00000000000E+00 0.  1.
          1   -1    0    0  502    0  0.00000000000E+00 -0.00000000000E+00 -0.20209318561E+04  0.20209318561E+04  0.00000000000E+00 0. -1.
         25    1    1    2    0    0 -0.33107360500E+02 -0.87381679403E+02 -0.10822166762E+04  0.10934119029E+04  0.12500000000E+03 0.  0.
          1    1    1    2  502    0  0.12939843516E+02  0.98525067056E+02 -0.72911808699E+03  0.73585855514E+03  0.00000000000E+00 0. -1.
         -2    1    1    2    0  501  0.20167516983E+02 -0.11143387653E+02 -0.19996769703E+03  0.20129079384E+03  0.00000000000E+00 0.  1.
<mgrwt>
<rscale>  0 0.47164399E+02</rscale>
<asrwt>0</asrwt>
<pdfrwt beam="2">  1        1 0.31091274E+00 0.96542975E+02</pdfrwt>
<pdfrwt beam="1">  1       -2 0.14814448E-02 0.23041350E+02</pdfrwt>
<totfact> 0.26604242E+03</totfact>
</mgrwt>
</event>
<event>
 5    1  0.7114032E-003  0.7331821E+02  0.7546771E-02  0.1398539E+00
          2   -1    0    0  501    0  0.00000000000E+00  0.00000000000E+00  0.25439177688E+04  0.25439177688E+04  0.00000000000E+00 0. -1.
          3   -1    0    0  502    0 -0.00000000000E+00 -0.00000000000E+00 -0.95853202063E+02  0.95853202063E+02  0.00000000000E+00 0. -1.
         25    1    1    2    0    0  0.77054642931E+02  0.29060391704E+02  0.45081609301E+03  0.47501797237E+03  0.12500000000E+03 0.  0.
          2    1    1    2  501    0 -0.36585854981E+02  0.32333589232E+02  0.20645165798E+04  0.20650938705E+04  0.00000000000E+00 0. -1.
          3    1    1    2  502    0 -0.40468787951E+02 -0.61393980937E+02 -0.67268106072E+02  0.99659127971E+02  0.00000000000E+00 0. -1.
<mgrwt>
<rscale>  0 0.59831770E+02</rscale>
<asrwt>0</asrwt>
<pdfrwt beam="1">  1        2 0.39137191E+00 0.48826077E+02</pdfrwt>
<pdfrwt beam="2">  1        3 0.14746648E-01 0.73318212E+02</pdfrwt>
<totfact> 0.10286813E+02</totfact>
</mgrwt>
</event>
<event>
 5    1  0.7114032E-003  0.4509669E+02  0.7546771E-02  0.1512502E+00
          1   -1    0    0  502    0  0.00000000000E+00  0.00000000000E+00  0.32376819177E+04  0.32376819177E+04  0.00000000000E+00 0. -1.
         -1   -1    0    0    0  501 -0.00000000000E+00 -0.00000000000E+00 -0.38832091420E+01  0.38832091420E+01  0.00000000000E+00 0.  1.
         25    1    1    2    0    0  0.64742897703E+01  0.28902644324E+02  0.21323380327E+04  0.21362040551E+04  0.12500000000E+03 0.  0.
          1    1    1    2  502    0  0.34438669446E+02 -0.12896254539E+01  0.70465332979E+03  0.70549557070E+03  0.00000000000E+00 0. -1.
         -1    1    1    2    0  501 -0.40912959216E+02 -0.27613018870E+02  0.39680734608E+03  0.39986550107E+03  0.00000000000E+00 0.  1.
<mgrwt>
<rscale>  0 0.39422819E+02</rscale>
<asrwt>0</asrwt>
<pdfrwt beam="1">  1        1 0.49810275E+00 0.34462807E+02</pdfrwt>
<pdfrwt beam="2">  1       -1 0.59741938E-03 0.45096694E+02</pdfrwt>
<totfact> 0.20785137E+03</totfact>
</mgrwt>
</event>
<event>
 5    1  0.7114032E-003  0.1474003E+03  0.7546771E-02  0.1319066E+00
         -2   -1    0    0    0  501 -0.00000000000E+00  0.00000000000E+00  0.88780492886E+03  0.88780492886E+03  0.00000000000E+00 0.  1.
          1   -1    0    0  502    0  0.00000000000E+00 -0.00000000000E+00 -0.46351834344E+03  0.46351834344E+03  0.00000000000E+00 0. -1.
         25    1    1    2    0    0  0.40275475638E+02  0.17433094401E+03  0.10002512626E+03  0.24009043684E+03  0.12500000000E+03 0.  0.
          1    1    1    2  502    0  0.19975177155E+02 -0.43033932065E+02 -0.38474486867E+03  0.38765905249E+03  0.00000000000E+00 0. -1.
         -2    1    1    2    0  501 -0.60250652793E+02 -0.13129701195E+03  0.70900632783E+03  0.72357378298E+03  0.00000000000E+00 0.  1.
<mgrwt>
<rscale>  0 0.83625651E+02</rscale>
<asrwt>0</asrwt>
<pdfrwt beam="2">  1        1 0.71310515E-01 0.47443935E+02</pdfrwt>
<pdfrwt beam="1">  1       -2 0.13658537E+00 0.14740028E+03</pdfrwt>
<totfact> 0.19060362E+01</totfact>
</mgrwt>
</event>
<event>
 5    1  0.7114032E-003  0.7837923E+02  0.7546771E-02  0.1336231E+00
          2   -1    0    0  501    0  0.00000000000E+00  0.00000000000E+00  0.48967421115E+03  0.48967421115E+03  0.00000000000E+00 0. -1.
          2   -1    0    0  502    0 -0.00000000000E+00 -0.00000000000E+00 -0.67578747900E+03  0.67578747900E+03  0.00000000000E+00 0. -1.
         25    1    1    2    0    0 -0.19730567622E+02 -0.56706732552E+02 -0.12076307905E+02  0.13919693254E+03  0.12500000000E+03 0.  0.
          2    1    1    2  501    0  0.76676034626E+02 -0.30634337972E+00  0.41992176919E+03  0.42686485024E+03  0.00000000000E+00 0. -1.
          2    1    1    2  502    0 -0.56945467004E+02  0.57013075932E+02 -0.59395872913E+03  0.59939990737E+03  0.00000000000E+00 0. -1.
<mgrwt>
<rscale>  0 0.77523262E+02</rscale>
<asrwt>0</asrwt>
<pdfrwt beam="1">  1        2 0.75334495E-01 0.76676647E+02</pdfrwt>
<pdfrwt beam="2">  1        2 0.10396730E+00 0.78379226E+02</pdfrwt>
<totfact> 0.45724203E+02</totfact>
</mgrwt>
</event>
<event>
 5    1  0.7114032E-003  0.4694718E+03  0.7546771E-02  0.1022069E+00
         -2   -1    0    0    0  501 -0.00000000000E+00  0.00000000000E+00  0.16857741101E+02  0.16857741101E+02  0.00000000000E+00 0.  1.
          2   -1    0    0  502    0  0.00000000000E+00 -0.00000000000E+00 -0.32685841648E+04  0.32685841648E+04  0.00000000000E+00 0. -1.
         25    1    1    2    0    0  0.18843163123E+03  0.63988598011E+02 -0.20820299106E+04  0.20952504789E+04  0.12500000000E+03 0.  0.
          2    1    1    2  502    0 -0.78355145555E+02 -0.66240634528E+02 -0.71670633981E+03  0.72401334796E+03  0.00000000000E+00 0. -1.
         -2    1    1    2    0  501 -0.11007648567E+03  0.22520365174E+01 -0.45299017324E+03  0.46617807909E+03  0.00000000000E+00 0.  1.
<mgrwt>
<rscale>  0 0.46947181E+03</rscale>
<asrwt>0</asrwt>
<pdfrwt beam="2">  1        2 0.50285883E+00 0.46947181E+03</pdfrwt>
<pdfrwt beam="1">  1       -2 0.25935000E-02 0.46947181E+03</pdfrwt>
<totfact> 0.72690907E+02</totfact>
</mgrwt>
</event>
<event>
 5    1  0.7114032E-003  0.3515574E+02  0.7546771E-02  0.1578701E+00
          1   -1    0    0  502    0 -0.00000000000E+00  0.00000000000E+00  0.87170022205E+03  0.87170022205E+03  0.00000000000E+00 0. -1.
          2   -1    0    0  501    0  0.00000000000E+00 -0.00000000000E+00 -0.21270559733E+04  0.21270559733E+04  0.00000000000E+00 0.  1.
         25    1    1    2    0    0 -0.70046061652E+01 -0.67299716358E+01 -0.28366900931E+03  0.31014103867E+03  0.12500000000E+03 0.  0.
          2    1    1    2  501    0  0.35453277220E+02  0.21282061290E+01 -0.18297367038E+04  0.18300813832E+04  0.00000000000E+00 0.  1.
          1    1    1    2  502    0 -0.28448671055E+02  0.46017655068E+01  0.85804996183E+03  0.85853377344E+03  0.00000000000E+00 0. -1.
<mgrwt>
<rscale>  0 0.31829763E+02</rscale>
<asrwt>0</asrwt>
<pdfrwt beam="2">  1        2 0.32723938E+00 0.35155735E+02</pdfrwt>
<pdfrwt beam="1">  1        1 0.13410773E+00 0.28818451E+02</pdfrwt>
<totfact> 0.25366499E+01</totfact>
</mgrwt>
</event>
<event>
 5    1  0.7114032E-003  0.7008299E+02  0.7546771E-02  0.1371282E+00
          1   -1    0    0  502    0  0.00000000000E+00  0.00000000000E+00  0.18123172572E+03  0.18123172572E+03  0.00000000000E+00 0. -1.
         -2   -1    0    0    0  501 -0.00000000000E+00 -0.00000000000E+00 -0.20339913146E+03  0.20339913146E+03  0.00000000000E+00 0.  1.
         25    1    1    2    0    0  0.43800218232E+02  0.38501739413E+02 -0.72764570769E+02  0.15595039536E+03  0.12500000000E+03 0.  0.
          1    1    1    2  502    0  0.98670477195E+01 -0.72805500698E+02  0.11604954706E+03  0.13735172709E+03  0.00000000000E+00 0. -1.
         -2    1    1    2    0  501 -0.53667265952E+02  0.34303761285E+02 -0.65452382032E+02  0.91328734726E+02  0.00000000000E+00 0.  1.
<mgrwt>
<rscale>  0 0.66812162E+02</rscale>
<asrwt>0</asrwt>
<pdfrwt beam="1">  1        1 0.27881804E-01 0.70082993E+02</pdfrwt>
<pdfrwt beam="2">  1       -2 0.31292174E-01 0.63693983E+02</pdfrwt>
<totfact> 0.13141889E+03</totfact>
</mgrwt>
</event>
<event>
 5    1  0.7114032E-003  0.3577237E+02  0.7546771E-02  0.1554110E+00
          2   -1    0    0  502    0  0.00000000000E+00  0.00000000000E+00  0.67130467109E+03  0.67130467109E+03  0.00000000000E+00 0. -1.
         -1   -1    0    0    0  501 -0.00000000000E+00 -0.00000000000E+00 -0.18637782906E+02  0.18637782906E+02  0.00000000000E+00 0.  1.
         25    1    1    2    0    0  0.54308527326E+01  0.21269797087E+02  0.28119911304E+03  0.30851230057E+03  0.12500000000E+03 0.  0.
          2    1    1    2  502    0 -0.36525896707E+02 -0.10054249284E+02  0.30344634194E+03  0.30580207896E+03  0.00000000000E+00 0. -1.
         -1    1    1    2    0  501  0.31095043974E+02 -0.11215547803E+02  0.68021433203E+02  0.75628074465E+02  0.00000000000E+00 0.  1.
<mgrwt>
<rscale>  0 0.34387302E+02</rscale>
<asrwt>0</asrwt>
<pdfrwt beam="1">  1        2 0.10327762E+00 0.35772366E+02</pdfrwt>
<pdfrwt beam="2">  1       -1 0.28673517E-02 0.33055866E+02</pdfrwt>
<totfact> 0.16567162E+04</totfact>
</mgrwt>
</event>
<event>
 5    1  0.7114032E-003  0.2721902E+02  0.7546771E-02  0.1654128E+00
         -2   -1    0    0    0  501 -0.00000000000E+00  0.00000000000E+00  0.11008796263E+02  0.11008796263E+02  0.00000000000E+00 0.  1.
          1   -1    0    0  502    0  0.00000000000E+00 -0.00000000000E+00 -0.17292996328E+04  0.17292996328E+04  0.00000000000E+00 0. -1.
         25    1    1    2    0    0  0.14861020606E+02 -0.38333201933E+02 -0.14717291061E+04  0.14776000291E+04  0.12500000000E+03 0.  0.
          1    1    1    2  502    0 -0.20699913600E+02  0.11870412057E+02 -0.22938752328E+03  0.23062529988E+03  0.00000000000E+00 0. -1.
         -2    1    1    2    0  501  0.58388929939E+01  0.26462789876E+02 -0.17174207179E+02  0.32083100094E+02  0.00000000000E+00 0.  1.
<mgrwt>
<rscale>  0 0.25485272E+02</rscale>
<asrwt>0</asrwt>
<pdfrwt beam="2">  1        1 0.26604617E+00 0.23861959E+02</pdfrwt>
<pdfrwt beam="1">  1       -2 0.16936605E-02 0.27219016E+02</pdfrwt>
<totfact> 0.41265505E+03</totfact>
</mgrwt>
</event>
<event>
 5    1  0.7114032E-003  0.5074492E+02  0.7546771E-02  0.1512478E+00
         -2   -1    0    0    0  501 -0.00000000000E+00  0.00000000000E+00  0.30839969137E+02  0.30839969137E+02  0.00000000000E+00 0.  1.
          1   -1    0    0  502    0  0.00000000000E+00 -0.00000000000E+00 -0.52746238515E+03  0.52746238515E+03  0.00000000000E+00 0. -1.
         25    1    1    2    0    0 -0.48742795409E+02  0.56587969232E+02 -0.28323433096E+03  0.31847251781E+03  0.12500000000E+03 0.  0.
          1    1    1    2  502    0  0.10540730032E+02 -0.28761249956E+02 -0.17843915099E+03  0.18104929465E+03  0.00000000000E+00 0. -1.
         -2    1    1    2    0  501  0.38202065377E+02 -0.27826719276E+02 -0.34948934058E+02  0.58780541819E+02  0.00000000000E+00 0.  1.
<mgrwt>
<rscale>  0 0.39426082E+02</rscale>
<asrwt>0</asrwt>
<pdfrwt beam="2">  1        1 0.81148064E-01 0.30631952E+02</pdfrwt>
<pdfrwt beam="1">  1       -2 0.47446104E-02 0.50744919E+02</pdfrwt>
<totfact> 0.70426448E+03</totfact>
</mgrwt>
</event>
<event>
 5    1  0.7114032E-003  0.1257985E+03  0.7546771E-02  0.1304050E+00
          1   -1    0    0  502    0  0.00000000000E+00  0.00000000000E+00  0.60722880558E+03  0.60722880558E+03  0.00000000000E+00 0. -1.
          1   -1    0    0  501    0 -0.00000000000E+00 -0.00000000000E+00 -0.19522390828E+03  0.19522390828E+03  0.00000000000E+00 0. -1.
         25    1    1    2    0    0 -0.19811502365E+02  0.13409579900E+03  0.16022613199E+03  0.24427769507E+03  0.12500000000E+03 0.  0.
          1    1    1    2  501    0  0.74736419937E+02 -0.10186094368E+03 -0.12400875779E+03  0.17702925273E+03  0.00000000000E+00 0. -1.
          1    1    1    2  502    0 -0.54924917572E+02 -0.32234855319E+02  0.37578752310E+03  0.38114576606E+03  0.00000000000E+00 0. -1.
<mgrwt>
<rscale>  0 0.89507162E+02</rscale>
<asrwt>0</asrwt>
<pdfrwt beam="1">  1        1 0.93419815E-01 0.63685418E+02</pdfrwt>
<pdfrwt beam="2">  1        1 0.30034448E-01 0.12579853E+03</pdfrwt>
<totfact> 0.64928130E+02</totfact>
</mgrwt>
</event>
<event>
 5    1  0.7114032E-003  0.3766054E+02  0.7546771E-02  0.1534453E+00
          1   -1    0    0  501    0  0.00000000000E+00  0.00000000000E+00  0.19135572062E+04  0.19135572062E+04  0.00000000000E+00 0. -1.
          3   -1    0    0  502    0 -0.00000000000E+00 -0.00000000000E+00 -0.64238973656E+02  0.64238973656E+02  0.00000000000E+00 0. -1.
         25    1    1    2    0    0 -0.40069151718E+02  0.40471167812E+02  0.29359457898E+03  0.32413921261E+03  0.12500000000E+03 0.  0.
          1    1    1    2  501    0  0.29153037209E+01 -0.35539107671E+02  0.15972901697E+04  0.15976881465E+04  0.00000000000E+00 0. -1.
          3    1    1    2  502    0  0.37153847997E+02 -0.49320601407E+01 -0.41566516120E+02  0.55968820789E+02  0.00000000000E+00 0. -1.
<mgrwt>
<rscale>  0 0.36645840E+02</rscale>
<asrwt>0</asrwt>
<pdfrwt beam="1">  1        1 0.29439337E+00 0.35658480E+02</pdfrwt>
<pdfrwt beam="2">  1        3 0.98829205E-02 0.37660541E+02</pdfrwt>
<totfact> 0.16203028E+02</totfact>
</mgrwt>
</event>
<event>
 5    1  0.7114032E-003  0.7204193E+02  0.7546771E-02  0.1469699E+00
          1   -1    0    0  502    0  0.00000000000E+00  0.00000000000E+00  0.13709745887E+04  0.13709745887E+04  0.00000000000E+00 0. -1.
         -2   -1    0    0    0  501 -0.00000000000E+00 -0.00000000000E+00 -0.78277629597E+03  0.78277629597E+03  0.00000000000E+00 0.  1.
         25    1    1    2    0    0  0.59535639353E+02 -0.61076094045E+02  0.15341402250E+03  0.21548931277E+03  0.12500000000E+03 0.  0.
          1    1    1    2  502    0 -0.64016074047E+02  0.32367334265E+02  0.11851572891E+04  0.11873261987E+04  0.00000000000E+00 0. -1.
         -2    1    1    2    0  501  0.44804346936E+01  0.28708759780E+02 -0.75037301894E+03  0.75093537321E+03  0.00000000000E+00 0.  1.
<mgrwt>
<rscale>  0 0.45752271E+02</rscale>
<asrwt>0</asrwt>
<pdfrwt beam="1">  1        1 0.21091917E+00 0.72041933E+02</pdfrwt>
<pdfrwt beam="2">  1       -2 0.12042712E+00 0.29056276E+02</pdfrwt>
<totfact> 0.52070351E+00</totfact>
</mgrwt>
</event>
<event>
 5    1  0.7114032E-003  0.1007734E+03  0.7546771E-02  0.1289306E+00
          2   -1    0    0  501    0  0.00000000000E+00  0.00000000000E+00  0.10944800236E+04  0.10944800236E+04  0.00000000000E+00 0. -1.
          1   -1    0    0  502    0 -0.00000000000E+00 -0.00000000000E+00 -0.72239628494E+02  0.72239628494E+02  0.00000000000E+00 0. -1.
         25    1    1    2    0    0 -0.10624650821E+03  0.43785045774E+02  0.48642483472E+03  0.51520827883E+03  0.12500000000E+03 0.  0.
          2    1    1    2  501    0  0.95212716662E+02  0.46683145032E+02  0.54924568484E+03  0.55938859459E+03  0.00000000000E+00 0. -1.
          1    1    1    2  502    0  0.11033791550E+02 -0.90468190806E+02 -0.13430124473E+02  0.92122778655E+02  0.00000000000E+00 0. -1.
<mgrwt>
<rscale>  0 0.95834999E+02</rscale>
<asrwt>0</asrwt>
<pdfrwt beam="1">  1        2 0.16838153E+00 0.10077344E+03</pdfrwt>
<pdfrwt beam="2">  1        1 0.11113790E-01 0.91138565E+02</pdfrwt>
<totfact> 0.17316828E+03</totfact>
</mgrwt>
</event>
<event>
 5    1  0.7114032E-003  0.1432220E+03  0.7546771E-02  0.1400369E+00
         -2   -1    0    0    0  501 -0.00000000000E+00  0.00000000000E+00  0.83191198544E+02  0.83191198544E+02  0.00000000000E+00 0.  1.
          1   -1    0    0  502    0  0.00000000000E+00 -0.00000000000E+00 -0.48868985166E+03  0.48868985166E+03  0.00000000000E+00 0. -1.
         25    1    1    2    0    0  0.13950267805E+03  0.72611224448E+02 -0.11541287439E+03  0.23168625050E+03  0.12500000000E+03 0.  0.
          1    1    1    2  502    0 -0.13032406505E+03 -0.49749678032E+02 -0.28139038569E+03  0.31406996283E+03  0.00000000000E+00 0. -1.
         -2    1    1    2    0  501 -0.91786129980E+01 -0.22861546416E+02 -0.86953930355E+01  0.26124836864E+02  0.00000000000E+00 0.  1.
<mgrwt>
<rscale>  0 0.59399621E+02</rscale>
<asrwt>0</asrwt>
<pdfrwt beam="2">  1        1 0.75183053E-01 0.14322201E+03</pdfrwt>
<pdfrwt beam="1">  1       -2 0.12798646E-01 0.24635284E+02</pdfrwt>
<totfact> 0.15896411E+03</totfact>
</mgrwt>
</event>
<event>
 5    1  0.7114032E-003  0.1625310E+03  0.7546771E-02  0.1353289E+00
          2   -1    0    0  502    0  0.00000000000E+00  0.00000000000E+00  0.83468118695E+03  0.83468118695E+03  0.00000000000E+00 0. -1.
         -1   -1    0    0    0  501 -0.00000000000E+00 -0.00000000000E+00 -0.49258525989E+02  0.49258525989E+02  0.00000000000E+00 0.  1.
         25    1    1    2    0    0  0.42668374613E+02 -0.16643657711E+03  0.35074421350E+03  0.41008319606E+03  0.12500000000E+03 0.  0.
          2    1    1    2  502    0 -0.29615224873E+02  0.11939140444E+02  0.10072831562E+03  0.10566834051E+03  0.00000000000E+00 0. -1.
         -1    1    1    2    0  501 -0.13053149740E+02  0.15449743667E+03  0.33395013184E+03  0.36818817636E+03  0.00000000000E+00 0.  1.
<mgrwt>
<rscale>  0 0.72040396E+02</rscale>
<asrwt>0</asrwt>
<pdfrwt beam="1">  1        2 0.12841248E+00 0.31931248E+02</pdfrwt>
<pdfrwt beam="2">  1       -1 0.75782354E-02 0.16253103E+03</pdfrwt>
<totfact> 0.37597333E+03</totfact>
</mgrwt>
</event>
<event>
 5    1  0.7114032E-003  0.8254892E+02  0.7546771E-02  0.1358295E+00
          2   -1    0    0  501    0  0.00000000000E+00  0.00000000000E+00  0.20527843667E+03  0.20527843667E+03  0.00000000000E+00 0. -1.
          2   -1    0    0  502    0 -0.00000000000E+00 -0.00000000000E+00 -0.28279798800E+03  0.28279798800E+03  0.00000000000E+00 0. -1.
         25    1    1    2    0    0  0.11688594125E+02 -0.39222893029E+02 -0.39412782805E+02  0.13730777843E+03  0.12500000000E+03 0.  0.
          2    1    1    2  501    0  0.26566532039E+02  0.85787321656E+02  0.13799289730E+03  0.16464290111E+03  0.00000000000E+00 0. -1.
          2    1    1    2  502    0 -0.38255126165E+02 -0.46564428627E+02 -0.17609966583E+03  0.18612574512E+03  0.00000000000E+00 0. -1.
<mgrwt>
<rscale>  0 0.70531515E+02</rscale>
<asrwt>0</asrwt>
<pdfrwt beam="1">  1        2 0.31581298E-01 0.82548920E+02</pdfrwt>
<pdfrwt beam="2">  1        2 0.43507383E-01 0.60263593E+02</pdfrwt>
<totfact> 0.28760556E+03</totfact>
</mgrwt>
</event>
<event>
 5    1  0.7114032E-003  0.1955924E+03  0.7546771E-02  0.1312005E+00
          1   -1    0    0  502    0 -0.00000000000E+00  0.00000000000E+00  0.20011243783E+03  0.20011243783E+03  0.00000000000E+00 0.  1.
          2   -1    0    0  501    0  0.00000000000E+00 -0.00000000000E+00 -0.19712149046E+04  0.19712149046E+04  0.00000000000E+00 0. -1.
         25    1    1    2    0    0  0.94380713435E+02 -0.17314522046E+03 -0.47279962657E+02  0.23821708861E+03  0.12500000000E+03 0.  0.
          2    1    1    2  501    0  0.30848329016E+02  0.22358870361E+02 -0.17362890187E+04  0.17367069687E+04  0.00000000000E+00 0. -1.
          1    1    1    2  502    0 -0.12522904245E+03  0.15078635010E+03  0.12466514562E+02  0.19640328519E+03  0.00000000000E+00 0.  1.
<mgrwt>
<rscale>  0 0.86324303E+02</rscale>
<asrwt>0</asrwt>
<pdfrwt beam="2">  1        2 0.30326382E+00 0.38099061E+02</pdfrwt>
<pdfrwt beam="1">  1        1 0.30786530E-01 0.19559236E+03</pdfrwt>
<totfact> 0.18932225E+02</totfact>
</mgrwt>
</event>
<event>
 5    1  0.7114032E-003  0.9705958E+02  0.7546771E-02  0.1302961E+00
         -2   -1    0    0    0  501 -0.00000000000E+00  0.00000000000E+00  0.16734528182E+04  0.16734528182E+04  0.00000000000E+00 0.  1.
          2   -1    0    0  502    0  0.00000000000E+00 -0.00000000000E+00 -0.22424906171E+04  0.22424906171E+04  0.00000000000E+00 0. -1.
         25    1    1    2    0    0  0.52947314364E+02 -0.16459175250E+03  0.96831063379E+02  0.23429707195E+03  0.12500000000E+03 0.  0.
          2    1    1    2  502    0 -0.52299099774E+02  0.81224156148E+02 -0.21715305319E+04  0.21736783134E+04  0.00000000000E+00 0. -1.
         -2    1    1    2    0  501 -0.64821459082E+00  0.83367596356E+02  0.15056616696E+04  0.15079680499E+04  0.00000000000E+00 0.  1.
<mgrwt>
<rscale>  0 0.89954813E+02</rscale>
<asrwt>0</asrwt>
<pdfrwt beam="2">  1        2 0.34499855E+00 0.97059578E+02</pdfrwt>
<pdfrwt beam="1">  1       -2 0.25745428E+00 0.83370116E+02</pdfrwt>
<totfact> 0.45810546E-01</totfact>
</mgrwt>
</event>
<event>
 5    1  0.7114032E-003  0.7211156E+02  0.7546771E-02  0.1373097E+00
          2   -1    0    0  501    0  0.00000000000E+00  0.00000000000E+00  0.96444103292E+02  0.96444103292E+02  0.00000000000E+00 0. -1.
          1   -1    0    0  502    0 -0.00000000000E+00 -0.00000000000E+00 -0.62045572856E+03  0.62045572856E+03  0.00000000000E+00 0. -1.
         25    1    1    2    0    0  0.91430534732E+02  0.60102264300E+02 -0.32829222111E+03  0.36793016633E+03  0.12500000000E+03 0.  0.
          2    1    1    2  501    0 -0.25212472109E+02 -0.55526118845E+02  0.59535987923E+02  0.85225304234E+02  0.00000000000E+00 0. -1.
          1    1    1    2  502    0 -0.66218062623E+02 -0.45761454551E+01 -0.25525539208E+03  0.26374436128E+03  0.00000000000E+00 0. -1.
<mgrwt>
<rscale>  0 0.66313766E+02</rscale>
<asrwt>0</asrwt>
<pdfrwt beam="1">  1        2 0.14837554E-01 0.60982117E+02</pdfrwt>
<pdfrwt beam="2">  1        1 0.95454729E-01 0.72111559E+02</pdfrwt>
<totfact> 0.17568950E+03</totfact>
</mgrwt>
</event>
<event>
 5    1  0.7114032E-003  0.1296813E+03  0.7546771E-02  0.1413412E+00
          2   -1    0    0  501    0  0.00000000000E+00  0.00000000000E+00  0.24237960562E+03  0.24237960562E+03  0.00000000000E+00 0.  1.
          1   -1    0    0  502    0 -0.00000000000E+00 -0.00000000000E+00 -0.12535434918E+04  0.12535434918E+04  0.00000000000E+00 0. -1.
         25    1    1    2    0    0 -0.85607465476E+02  0.87230477368E+02 -0.33219975602E+03  0.37539242431E+03  0.12500000000E+03 0.  0.
          2    1    1    2  501    0  0.11544100574E+02  0.21681528596E+02  0.21526104701E+03  0.21665796385E+03  0.00000000000E+00 0.  1.
          1    1    1    2  502    0  0.74063364902E+02 -0.10891200596E+03 -0.89422517713E+03  0.90387270922E+03  0.00000000000E+00 0. -1.
<mgrwt>
<rscale>  0 0.56439345E+02</rscale>
<asrwt>0</asrwt>
<pdfrwt beam="1">  1        2 0.37289170E-01 0.24563284E+02</pdfrwt>
<pdfrwt beam="2">  1        1 0.19285285E+00 0.12968134E+03</pdfrwt>
<totfact> 0.20114276E+02</totfact>
</mgrwt>
</event>
<event>
 5    1  0.7114032E-003  0.1556500E+03  0.7546771E-02  0.1382228E+00
          2   -1    0    0  502    0  0.00000000000E+00  0.00000000000E+00  0.51127262700E+03  0.51127262700E+03  0.00000000000E+00 0. -1.
         -1   -1    0    0    0  501 -0.00000000000E+00 -0.00000000000E+00 -0.20356647063E+03  0.20356647063E+03  0.00000000000E+00 0.  1.
         25    1    1    2    0    0  0.28093334793E+02  0.13181357873E+03  0.26796775915E+03  0.32495503526E+03  0.12500000000E+03 0.  0.
          2    1    1    2  502    0 -0.76223214994E+01  0.25085724510E+02  0.17790167798E+03  0.17982324763E+03  0.00000000000E+00 0. -1.
         -1    1    1    2    0  501 -0.20471013293E+02 -0.15689930324E+03 -0.13816328076E+03  0.21006081475E+03  0.00000000000E+00 0.  1.
<mgrwt>
<rscale>  0 0.63881623E+02</rscale>
<asrwt>0</asrwt>
<pdfrwt beam="1">  1        2 0.78657327E-01 0.26218188E+02</pdfrwt>
<pdfrwt beam="2">  1       -1 0.31317919E-01 0.15565003E+03</pdfrwt>
<totfact> 0.67709668E+02</totfact>
</mgrwt>
</event>
<event>
 5    1  0.7114032E-003  0.4654474E+02  0.7546771E-02  0.1513589E+00
         -3   -1    0    0    0  501 -0.00000000000E+00  0.00000000000E+00  0.24556646547E+03  0.24556646547E+03  0.00000000000E+00 0.  1.
          1   -1    0    0  502    0  0.00000000000E+00 -0.00000000000E+00 -0.20218748588E+03  0.20218748588E+03  0.00000000000E+00 0. -1.
         25    1    1    2    0    0  0.23248137181E+02 -0.14409343507E+02  0.12585396574E+03  0.17947792554E+03  0.12500000000E+03 0.  0.
          1    1    1    2  502    0  0.29865088230E+02  0.14379458142E+02 -0.16600932866E+03  0.16928611731E+03  0.00000000000E+00 0. -1.
         -3    1    1    2    0  501 -0.53113225412E+02  0.29885364355E-01  0.83534342506E+02  0.98989908499E+02  0.00000000000E+00 0.  1.
<mgrwt>
<rscale>  0 0.39278447E+02</rscale>
<asrwt>0</asrwt>
<pdfrwt beam="2">  1        1 0.31105767E-01 0.33146528E+02</pdfrwt>
<pdfrwt beam="1">  1       -3 0.37779456E-01 0.46544736E+02</pdfrwt>
<totfact> 0.47315565E+02</totfact>
</mgrwt>
</event>
<event>
 5    1  0.7114032E-003  0.7816035E+02  0.7546771E-02  0.1366638E+00
         -1   -1    0    0    0  501 -0.00000000000E+00  0.00000000000E+00  0.22104688853E+02  0.22104688853E+02  0.00000000000E+00 0.  1.
          2   -1    0    0  502    0  0.00000000000E+00 -0.00000000000E+00 -0.18853494678E+04  0.18853494678E+04  0.00000000000E+00 0.  1.
         25    1    1    2    0    0 -0.83163247931E-01 -0.99428838549E+02 -0.12125135411E+04  0.12229882208E+04  0.12500000000E+03 0.  0.
          2    1    1    2  502    0 -0.44160229295E+02  0.59864462874E+02 -0.60495265587E+03  0.60950930724E+03  0.00000000000E+00 0.  1.
         -1    1    1    2    0  501  0.44243392543E+02  0.39564375674E+02 -0.45778581978E+02  0.74956628621E+02  0.00000000000E+00 0.  1.
<mgrwt>
<rscale>  0 0.68110772E+02</rscale>
<asrwt>0</asrwt>
<pdfrwt beam="2">  1        2 0.29005379E+00 0.78160355E+02</pdfrwt>
<pdfrwt beam="1">  1       -1 0.34007211E-02 0.59353329E+02</pdfrwt>
<totfact> 0.29344121E+03</totfact>
</mgrwt>
</event>
<event>
 5    1  0.7114032E-003  0.8862719E+02  0.7546771E-02  0.1340708E+00
          3   -1    0    0  502    0 -0.00000000000E+00  0.00000000000E+00  0.77866246856E+02  0.77866246856E+02  0.00000000000E+00 0.  1.
          1   -1    0    0  501    0  0.00000000000E+00 -0.00000000000E+00 -0.62311076426E+03  0.62311076426E+03  0.00000000000E+00 0. -1.
         25    1    1    2    0    0  0.90166671411E+02  0.15174228097E+02 -0.15286538003E+03  0.21760769803E+03  0.12500000000E+03 0.  0.
          1    1    1    2  501    0 -0.11296899236E+02 -0.64239282032E+02 -0.38467361122E+03  0.39016418654E+03  0.00000000000E+00 0. -1.
          3    1    1    2  502    0 -0.78869772175E+02  0.49065053936E+02 -0.77055261540E+01  0.93205126543E+02  0.00000000000E+00 0.  1.
<mgrwt>
<rscale>  0 0.76030992E+02</rscale>
<asrwt>0</asrwt>
<pdfrwt beam="2">  1        1 0.95863201E-01 0.65225036E+02</pdfrwt>
<pdfrwt beam="1">  1        3 0.11979422E-01 0.88627191E+02</pdfrwt>
<totfact> 0.95336604E+02</totfact>
</mgrwt>
</event>
<event>
 5    1  0.7114032E-003  0.1637221E+03  0.7546771E-02  0.1327676E+00
          1   -1    0    0  502    0  0.00000000000E+00  0.00000000000E+00  0.85442764706E+02  0.85442764706E+02  0.00000000000E+00 0. -1.
          1   -1    0    0  501    0 -0.00000000000E+00 -0.00000000000E+00 -0.83856397158E+03  0.83856397158E+03  0.00000000000E+00 0. -1.
         25    1    1    2    0    0 -0.11730808769E+02  0.16915978264E+03 -0.47012902518E+03  0.51516885023E+03  0.12500000000E+03 0.  0.
          1    1    1    2  501    0 -0.26413958255E+02 -0.15864375745E+03 -0.31777510014E+03  0.35615523755E+03  0.00000000000E+00 0. -1.
          1    1    1    2  502    0  0.38144767024E+02 -0.10516025188E+02  0.34782918443E+02  0.52682648495E+02  0.00000000000E+00 0. -1.
<mgrwt>
<rscale>  0 0.80486790E+02</rscale>
<asrwt>0</asrwt>
<pdfrwt beam="1">  1        1 0.13145040E-01 0.39567790E+02</pdfrwt>
<pdfrwt beam="2">  1        1 0.12900985E+00 0.16372214E+03</pdfrwt>
<totfact> 0.10523234E+03</totfact>
</mgrwt>
</event>
<event>
 5    1  0.7114032E-003  0.2636386E+02  0.7546771E-02  0.1682206E+00
          2   -1    0    0  502    0  0.00000000000E+00  0.00000000000E+00  0.95256121475E+01  0.95256121475E+01  0.00000000000E+00 0. -1.
         -1   -1    0    0    0  501 -0.00000000000E+00 -0.00000000000E+00 -0.12883787230E+04  0.12883787230E+04  0.00000000000E+00 0.  1.
         25    1    1    2    0    0  0.62207233604E+01 -0.45081077876E+02 -0.91296040148E+03  0.92260104902E+03  0.12500000000E+03 0.  0.
          2    1    1    2  502    0 -0.65449973730E+00  0.21088166140E+02 -0.21827123939E+02  0.30357247249E+02  0.00000000000E+00 0. -1.
         -1    1    1    2    0  501 -0.55662236231E+01  0.23992911736E+02 -0.34406558546E+03  0.34494603891E+03  0.00000000000E+00 0.  1.
<mgrwt>
<rscale>  0 0.23584594E+02</rscale>
<asrwt>0</asrwt>
<pdfrwt beam="1">  1        2 0.14654788E-02 0.21098320E+02</pdfrwt>
<pdfrwt beam="2">  1       -1 0.19821211E+00 0.26363856E+02</pdfrwt>
<totfact> 0.13717618E+03</totfact>
</mgrwt>
</event>
<event>
 5    1  0.7114032E-003  0.1459140E+03  0.7546771E-02  0.1282863E+00
         -2   -1    0    0    0  501 -0.00000000000E+00  0.00000000000E+00  0.13303998104E+03  0.13303998104E+03  0.00000000000E+00 0.  1.
          2   -1    0    0  502    0  0.00000000000E+00 -0.00000000000E+00 -0.59208298996E+03  0.59208298996E+03  0.00000000000E+00 0. -1.
         25    1    1    2    0    0 -0.96609812681E+02 -0.44889842483E+02 -0.17842445574E+03  0.24250534071E+03  0.12500000000E+03 0.  0.
          2    1    1    2  502    0 -0.20087246996E+02 -0.63796081197E+02 -0.31285246773E+03  0.31992202805E+03  0.00000000000E+00 0. -1.
         -2    1    1    2    0  501  0.11669705968E+03  0.10868592368E+03  0.32233914554E+02  0.16269560225E+03  0.00000000000E+00 0.  1.
<mgrwt>
<rscale>  0 0.98789057E+02</rscale>
<asrwt>0</asrwt>
<pdfrwt beam="2">  1        2 0.91089692E-01 0.66883761E+02</pdfrwt>
<pdfrwt beam="1">  1       -2 0.20467689E-01 0.14591401E+03</pdfrwt>
<totfact> 0.10505298E+03</totfact>
</mgrwt>
</event>
<event>
 5    1  0.7114032E-003  0.8994772E+02  0.7546771E-02  0.1317125E+00
          2   -1    0    0  502    0  0.00000000000E+00  0.00000000000E+00  0.41354734888E+03  0.41354734888E+03  0.00000000000E+00 0. -1.
         -2   -1    0    0    0  501 -0.00000000000E+00 -0.00000000000E+00 -0.12234701914E+03  0.12234701914E+03  0.00000000000E+00 0. -1.
         25    1    1    2    0    0 -0.29776406070E+01  0.79492172620E+02 -0.18595245481E+02  0.14932734179E+03  0.12500000000E+03 0.  0.
          2    1    1    2  502    0  0.76208802105E+02  0.21236001043E+02  0.21784193880E+03  0.23176250680E+03  0.00000000000E+00 0. -1.
         -2    1    1    2    0  501 -0.73231161498E+02 -0.10072817366E+03  0.91953636428E+02  0.15480451943E+03  0.00000000000E+00 0. -1.
<mgrwt>
<rscale>  0 0.84356191E+02</rscale>
<asrwt>0</asrwt>
<pdfrwt beam="1">  1        2 0.63622668E-01 0.79112257E+02</pdfrwt>
<pdfrwt beam="2">  1       -2 0.18822619E-01 0.89947717E+02</pdfrwt>
<totfact> 0.17410248E+03</totfact>
</mgrwt>
</event>
<event>
 5    1  0.7114032E-003  0.7436595E+02  0.7546771E-02  0.1494209E+00
          1   -1    0    0  502    0 -0.00000000000E+00  0.00000000000E+00  0.17659450108E+02  0.17659450108E+02  0.00000000000E+00 0. -1.
          2   -1    0    0  501    0  0.00000000000E+00 -0.00000000000E+00 -0.25358196622E+04  0.25358196622E+04  0.00000000000E+00 0. -1.
         25    1    1    2    0    0  0.29544293917E+02  0.65334174644E+02 -0.13200467552E+04  0.13278892483E+04  0.12500000000E+03 0.  0.
          2    1    1    2  501    0 -0.51346045546E+02 -0.56080463309E+02 -0.11994597026E+04  0.12018673026E+04  0.00000000000E+00 0. -1.
          1    1    1    2  502    0  0.21801751628E+02 -0.92537113347E+01  0.13462457133E+01  0.23722561520E+02  0.00000000000E+00 0. -1.
<mgrwt>
<rscale>  0 0.41967937E+02</rscale>
<asrwt>0</asrwt>
<pdfrwt beam="2">  1        2 0.39012613E+00 0.74365947E+02</pdfrwt>
<pdfrwt beam="1">  1        1 0.27168383E-02 0.23684331E+02</pdfrwt>
<totfact> 0.17775769E+03</totfact>
</mgrwt>
</event>
<event>
 5    1  0.7114032E-003  0.1416894E+03  0.7546771E-02  0.1253994E+00
          2   -1    0    0  502    0  0.00000000000E+00  0.00000000000E+00  0.42391436619E+03  0.42391436619E+03  0.00000000000E+00 0. -1.
          2   -1    0    0  501    0 -0.00000000000E+00 -0.00000000000E+00 -0.18520050924E+04  0.18520050924E+04  0.00000000000E+00 0. -1.
         25    1    1    2    0    0 -0.34433934040E+02  0.15038018504E+03 -0.21488478345E+03  0.29257540229E+03  0.12500000000E+03 0.  0.
          2    1    1    2  501    0  0.10673470873E+03 -0.94915519818E+02 -0.15896367007E+04  0.15960407558E+04  0.00000000000E+00 0. -1.
          2    1    1    2  502    0 -0.72300774689E+02 -0.55464665226E+02  0.37643075790E+03  0.38730330053E+03  0.00000000000E+00 0. -1.
<mgrwt>
<rscale>  0 0.11362841E+03</rscale>
<asrwt>0</asrwt>
<pdfrwt beam="1">  1        2 0.65217596E-01 0.91124811E+02</pdfrwt>
<pdfrwt beam="2">  1        2 0.28492386E+00 0.14168935E+03</pdfrwt>
<totfact> 0.11133228E+02</totfact>
</mgrwt>
</event>
<event>
 5    1  0.7114032E-003  0.6687034E+02  0.7546771E-02  0.1514167E+00
         -1   -1    0    0    0  501 -0.00000000000E+00  0.00000000000E+00  0.37624979504E+03  0.37624979504E+03  0.00000000000E+00 0.  1.
          2   -1    0    0  502    0  0.00000000000E+00 -0.00000000000E+00 -0.50825313901E+02  0.50825313901E+02  0.00000000000E+00 0. -1.
         25    1    1    2    0    0 -0.17074385452E+02 -0.68104094792E+02  0.27315748349E+03  0.30849588839E+03  0.12500000000E+03 0.  0.
          2    1    1    2  502    0  0.22851920117E+02  0.24400624952E+01 -0.12505329381E+02  0.26163857150E+02  0.00000000000E+00 0. -1.
         -1    1    1    2    0  501 -0.57775346648E+01  0.65664032297E+02  0.64772327035E+02  0.92415363408E+02  0.00000000000E+00 0.  1.
<mgrwt>
<rscale>  0 0.39202069E+02</rscale>
<asrwt>0</asrwt>
<pdfrwt beam="2">  1        2 0.78192793E-02 0.22981822E+02</pdfrwt>
<pdfrwt beam="1">  1       -1 0.57884582E-01 0.66870337E+02</pdfrwt>
<totfact> 0.26043829E+03</totfact>
</mgrwt>
</event>
<event>
 5    1  0.7114032E-003  0.1211696E+03  0.7546771E-02  0.1442707E+00
          2   -1    0    0  502    0  0.00000000000E+00  0.00000000000E+00  0.18420431123E+03  0.18420431123E+03  0.00000000000E+00 0. -1.
         -1   -1    0    0    0  501 -0.00000000000E+00 -0.00000000000E+00 -0.13807035516E+03  0.13807035516E+03  0.00000000000E+00 0.  1.
         25    1    1    2    0    0 -0.84834547742E+02  0.84740046470E+02  0.36780432503E+02  0.17707505804E+03  0.12500000000E+03 0.  0.
          2    1    1    2  502    0  0.10063862529E+03 -0.70850646589E+02  0.26078481754E+01  0.12310462174E+03  0.00000000000E+00 0. -1.
         -1    1    1    2    0  501 -0.15804077550E+02 -0.13889399881E+02  0.67456754000E+01  0.22094986600E+02  0.00000000000E+00 0.  1.
<mgrwt>
<rscale>  0 0.50491735E+02</rscale>
<asrwt>0</asrwt>
<pdfrwt beam="1">  1        2 0.28339125E-01 0.12116956E+03</pdfrwt>
<pdfrwt beam="2">  1       -1 0.21241593E-01 0.21040064E+02</pdfrwt>
<totfact> 0.34443539E+03</totfact>
</mgrwt>
</event>
<event>
 5    1  0.7114032E-003  0.1002179E+03  0.7546771E-02  0.1374758E+00
          1   -1    0    0  502    0  0.00000000000E+00  0.00000000000E+00  0.29498261062E+03  0.29498261062E+03  0.00000000000E+00 0. -1.
         -1   -1    0    0    0  501 -0.00000000000E+00 -0.00000000000E+00 -0.39398319598E+03  0.39398319598E+03  0.00000000000E+00 0.  1.
         25    1    1    2    0    0 -0.80765881206E+02  0.39271788529E+02 -0.13886287260E+03  0.20730002009E+03  0.12500000000E+03 0.  0.
          1    1    1    2  502    0  0.10127790222E+03 -0.11569753742E+01  0.24862454575E+03  0.26846362290E+03  0.00000000000E+00 0. -1.
         -1    1    1    2    0  501 -0.20512021016E+02 -0.38114813155E+02 -0.20876225852E+03  0.21320216361E+03  0.00000000000E+00 0.  1.
<mgrwt>
<rscale>  0 0.65862014E+02</rscale>
<asrwt>0</asrwt>
<pdfrwt beam="1">  1        1 0.45381940E-01 0.10021789E+03</pdfrwt>
<pdfrwt beam="2">  1       -1 0.60612800E-01 0.43283738E+02</pdfrwt>
<totfact> 0.26483927E+02</totfact>
</mgrwt>
</event>
<event>
 5    1  0.7114032E-003  0.7656053E+02  0.7546771E-02  0.1356828E+00
          2   -1    0    0  501    0  0.00000000000E+00  0.00000000000E+00  0.70437993140E+03  0.70437993140E+03  0.00000000000E+00 0. -1.
          2   -1    0    0  502    0 -0.00000000000E+00 -0.00000000000E+00 -0.79761497353E+03  0.79761497353E+03  0.00000000000E+00 0. -1.
         25    1    1    2    0    0  0.11882544018E+03  0.33652789205E+02  0.20756740863E+03  0.27195813020E+03  0.12500000000E+03 0.  0.
          2    1    1    2  501    0 -0.44059528320E+02 -0.48852561298E+02  0.46037180249E+03  0.46504839674E+03  0.00000000000E+00 0. -1.
          2    1    1    2  502    0 -0.74765911856E+02  0.15199772093E+02 -0.76117425325E+03  0.76498837799E+03  0.00000000000E+00 0. -1.
<mgrwt>
<rscale>  0 0.70969154E+02</rscale>
<asrwt>0</asrwt>
<pdfrwt beam="1">  1        2 0.10836614E+00 0.65786129E+02</pdfrwt>
<pdfrwt beam="2">  1        2 0.12271000E+00 0.76560528E+02</pdfrwt>
<totfact> 0.25280284E+02</totfact>
</mgrwt>
</event>
<event>
 5    1  0.7114032E-003  0.5331974E+02  0.7546771E-02  0.1519620E+00
          2   -1    0    0  502    0  0.00000000000E+00  0.00000000000E+00  0.32858955577E+03  0.32858955577E+03  0.00000000000E+00 0. -1.
         -1   -1    0    0    0  501 -0.00000000000E+00 -0.00000000000E+00 -0.40599674958E+02  0.40599674958E+02  0.00000000000E+00 0.  1.
         25    1    1    2    0    0 -0.51051640393E+02 -0.90299997740E+01  0.17033838203E+03  0.21754993743E+03  0.12500000000E+03 0.  0.
          2    1    1    2  502    0 -0.87612490375E+00  0.27772323098E+02  0.80332934136E+02  0.85002646030E+02  0.00000000000E+00 0. -1.
         -1    1    1    2    0  501  0.51927765297E+02 -0.18742323324E+02  0.37318564651E+02  0.66636647274E+02  0.00000000000E+00 0.  1.
<mgrwt>
<rscale>  0 0.38490904E+02</rscale>
<asrwt>0</asrwt>
<pdfrwt beam="1">  1        2 0.50552238E-01 0.27786139E+02</pdfrwt>
<pdfrwt beam="2">  1       -1 0.62461041E-02 0.53319739E+02</pdfrwt>
<totfact> 0.12164250E+04</totfact>
</mgrwt>
</event>
<event>
 5    1  0.7114032E-003  0.7518620E+02  0.7546771E-02  0.1470622E+00
         -2   -1    0    0    0  501 -0.00000000000E+00  0.00000000000E+00  0.13414665166E+02  0.13414665166E+02  0.00000000000E+00 0.  1.
          2   -1    0    0  502    0  0.00000000000E+00 -0.00000000000E+00 -0.16217398445E+04  0.16217398445E+04  0.00000000000E+00 0. -1.
         25    1    1    2    0    0  0.15854090204E+02  0.83548938037E+02 -0.59741867224E+03  0.61625144800E+03  0.12500000000E+03 0.  0.
          2    1    1    2  502    0 -0.24390390726E+02 -0.13040958598E+02 -0.67518478678E+03  0.67575102964E+03  0.00000000000E+00 0. -1.
         -2    1    1    2    0  501  0.85363005217E+01 -0.70507979439E+02 -0.33572172033E+03  0.34315203204E+03  0.00000000000E+00 0.  1.
<mgrwt>
<rscale>  0 0.45601426E+02</rscale>
<asrwt>0</asrwt>
<pdfrwt beam="2">  1        2 0.24949829E+00 0.27657870E+02</pdfrwt>
<pdfrwt beam="1">  1       -2 0.20637959E-02 0.75186198E+02</pdfrwt>
<totfact> 0.91232388E+03</totfact>
</mgrwt>
</event>
<event>
 5    1  0.7114032E-003  0.6386581E+02  0.7546771E-02  0.1408296E+00
          2   -1    0    0  502    0  0.00000000000E+00  0.00000000000E+00  0.40319647315E+03  0.40319647315E+03  0.00000000000E+00 0. -1.
         -1   -1    0    0    0  501 -0.00000000000E+00 -0.00000000000E+00 -0.48998514564E+02  0.48998514564E+02  0.00000000000E+00 0.  1.
         25    1    1    2    0    0  0.40902415837E+02 -0.69404465491E+02  0.12144767021E+03  0.19200136471E+03  0.12500000000E+03 0.  0.
          2    1    1    2  502    0 -0.50894415999E+02  0.10193324296E+02  0.14371887754E+03  0.15280465045E+03  0.00000000000E+00 0. -1.
         -1    1    1    2    0  501  0.99920001612E+01  0.59211141196E+02  0.89031410839E+02  0.10738897255E+03  0.00000000000E+00 0.  1.
<mgrwt>
<rscale>  0 0.57575732E+02</rscale>
<asrwt>0</asrwt>
<pdfrwt beam="1">  1        2 0.62030224E-01 0.51905158E+02</pdfrwt>
<pdfrwt beam="2">  1       -1 0.75382333E-02 0.63865809E+02</pdfrwt>
<totfact> 0.76683675E+03</totfact>
</mgrwt>
</event>
<event>
 5    1  0.7114032E-003  0.3057460E+03  0.7546771E-02  0.1169379E+00
          2   -1    0    0  501    0  0.00000000000E+00  0.00000000000E+00  0.16777949538E+04  0.16777949538E+04  0.00000000000E+00 0. -1.
          1   -1    0    0  502    0 -0.00000000000E+00 -0.00000000000E+00 -0.33042443000E+03  0.33042443000E+03  0.00000000000E+00 0. -1.
         25    1    1    2    0    0  0.34624975046E+03 -0.16694025678E+03  0.23511688454E+03  0.46761403788E+03  0.12500000000E+03 0.  0.
          2    1    1    2  501    0 -0.10197955633E+03  0.20770227113E+02  0.12286602097E+04  0.12330600728E+04  0.00000000000E+00 0. -1.
          1    1    1    2  502    0 -0.24427019413E+03  0.14617002966E+03 -0.11640657051E+03  0.30754527304E+03  0.00000000000E+00 0. -1.
<mgrwt>
<rscale>  0 0.17838153E+03</rscale>
<asrwt>0</asrwt>
<pdfrwt beam="1">  1        2 0.25812230E+00 0.10407321E+03</pdfrwt>
<pdfrwt beam="2">  1        1 0.50834529E-01 0.30574604E+03</pdfrwt>
<totfact> 0.12639504E+02</totfact>
</mgrwt>
</event>
<event>
 5    1  0.7114032E-003  0.5350939E+02  0.7546771E-02  0.1526661E+00
         -2   -1    0    0    0  501 -0.00000000000E+00  0.00000000000E+00  0.28263542756E+02  0.28263542756E+02  0.00000000000E+00 0.  1.
          1   -1    0    0  502    0  0.00000000000E+00 -0.00000000000E+00 -0.42051459129E+03  0.42051459129E+03  0.00000000000E+00 0. -1.
         25    1    1    2    0    0  0.25422728516E+02 -0.22673427057E+02 -0.26058808581E+03  0.29101812638E+03  0.12500000000E+03 0.  0.
          1    1    1    2  502    0  0.21641822461E+02 -0.15153456657E+02 -0.43743026918E+02  0.51102330006E+02  0.00000000000E+00 0. -1.
         -2    1    1    2    0  501 -0.47064550977E+02  0.37826883715E+02 -0.87919935807E+02  0.10665767765E+03  0.00000000000E+00 0.  1.
<mgrwt>
<rscale>  0 0.37599166E+02</rscale>
<asrwt>0</asrwt>
<pdfrwt beam="2">  1        1 0.64694556E-01 0.26419609E+02</pdfrwt>
<pdfrwt beam="1">  1       -2 0.43482371E-02 0.53509395E+02</pdfrwt>
<totfact> 0.10603694E+04</totfact>
</mgrwt>
</event>
<event>
 5    1  0.7114032E-003  0.5884768E+02  0.7546771E-02  0.1422555E+00
         -1   -1    0    0    0  501 -0.00000000000E+00  0.00000000000E+00  0.11627712664E+02  0.11627712664E+02  0.00000000000E+00 0.  1.
          2   -1    0    0  502    0  0.00000000000E+00 -0.00000000000E+00 -0.17819890267E+04  0.17819890267E+04  0.00000000000E+00 0. -1.
         25    1    1    2    0    0 -0.69679778433E+02 -0.10701529253E+02 -0.14074003043E+04  0.14146979928E+04  0.12500000000E+03 0.  0.
          2    1    1    2  502    0  0.30706038194E+02  0.42726966615E+02 -0.12417045359E+03  0.13485828118E+03  0.00000000000E+00 0. -1.
         -1    1    1    2    0  501  0.38973740239E+02 -0.32025437362E+02 -0.23879055614E+03  0.24406046539E+03  0.00000000000E+00 0.  1.
<mgrwt>
<rscale>  0 0.54483970E+02</rscale>
<asrwt>0</asrwt>
<pdfrwt beam="2">  1        2 0.27415212E+00 0.58847679E+02</pdfrwt>
<pdfrwt beam="1">  1       -1 0.17888791E-02 0.50443841E+02</pdfrwt>
<totfact> 0.82274067E+03</totfact>
</mgrwt>
</event>
<event>
 5    1  0.7114032E-003  0.4349989E+02  0.7546771E-02  0.1534603E+00
          1   -1    0    0  502    0  0.00000000000E+00  0.00000000000E+00  0.24603176924E+03  0.24603176924E+03  0.00000000000E+00 0. -1.
         -2   -1    0    0    0  501 -0.00000000000E+00 -0.00000000000E+00 -0.48186975612E+02  0.48186975612E+02  0.00000000000E+00 0.  1.
         25    1    1    2    0    0 -0.18985051145E+02 -0.14106690066E+02  0.11686945341E+03  0.17275097687E+03  0.12500000000E+03 0.  0.
          1    1    1    2  502    0 -0.26628600002E+02 -0.15559770442E+02  0.10819576268E+02  0.32684124968E+02  0.00000000000E+00 0. -1.
         -2    1    1    2    0  501  0.45613651147E+02  0.29666460508E+02  0.70155763955E+02  0.88783643011E+02  0.00000000000E+00 0.  1.
<mgrwt>
<rscale>  0 0.36627794E+02</rscale>
<asrwt>0</asrwt>
<pdfrwt beam="1">  1        1 0.37851041E-01 0.30841349E+02</pdfrwt>
<pdfrwt beam="2">  1       -2 0.74133810E-02 0.43499891E+02</pdfrwt>
<totfact> 0.88741828E+03</totfact>
</mgrwt>
</event>
<event>
 5    1  0.7114032E-003  0.8678625E+02  0.7546771E-02  0.1490454E+00
         -2   -1    0    0    0  501 -0.00000000000E+00  0.00000000000E+00  0.21436331019E+02  0.21436331019E+02  0.00000000000E+00 0.  1.
          1   -1    0    0  502    0  0.00000000000E+00 -0.00000000000E+00 -0.80325699656E+03  0.80325699656E+03  0.00000000000E+00 0. -1.
         25    1    1    2    0    0  0.79077479745E+02 -0.69149201884E+00 -0.49013228617E+03  0.51196521748E+03  0.12500000000E+03 0.  0.
          1    1    1    2  502    0  0.10264028399E+02 -0.18126850239E+02 -0.42274542665E+02  0.47128228654E+02  0.00000000000E+00 0. -1.
         -2    1    1    2    0  501 -0.89341508144E+02  0.18818342258E+02 -0.24941383671E+03  0.26559988144E+03  0.00000000000E+00 0.  1.
<mgrwt>
<rscale>  0 0.42518812E+02</rscale>
<asrwt>0</asrwt>
<pdfrwt beam="2">  1        1 0.12357798E+00 0.20831058E+02</pdfrwt>
<pdfrwt beam="1">  1       -2 0.32978975E-02 0.86786248E+02</pdfrwt>
<totfact> 0.74891588E+03</totfact>
</mgrwt>
</event>
<event>
 5    1  0.7114032E-003  0.1364730E+03  0.7546771E-02  0.1258272E+00
          2   -1    0    0  502    0  0.00000000000E+00  0.00000000000E+00  0.31989270216E+04  0.31989270216E+04  0.00000000000E+00 0. -1.
         -1   -1    0    0    0  501 -0.00000000000E+00 -0.00000000000E+00 -0.78861554874E+03  0.78861554874E+03  0.00000000000E+00 0.  1.
         25    1    1    2    0    0  0.41621285487E+02 -0.70246816081E+02  0.33165793908E+03  0.36371545902E+03  0.12500000000E+03 0.  0.
          2    1    1    2  502    0  0.11312376684E+02  0.14388468057E+03  0.28467444799E+04  0.28504008323E+04  0.00000000000E+00 0. -1.
         -1    1    1    2    0  501 -0.52933662170E+02 -0.73637864486E+02 -0.76809094607E+03  0.77342627904E+03  0.00000000000E+00 0.  1.
<mgrwt>
<rscale>  0 0.11125021E+03</rscale>
<asrwt>0</asrwt>
<pdfrwt beam="1">  1        2 0.49214261E+00 0.13647300E+03</pdfrwt>
<pdfrwt beam="2">  1       -1 0.12132547E+00 0.90689071E+02</pdfrwt>
<totfact> 0.13946634E+00</totfact>
</mgrwt>
</event>
<event>
 5    1  0.7114032E-003  0.1496176E+03  0.7546771E-02  0.1298346E+00
         -1   -1    0    0    0  501 -0.00000000000E+00  0.00000000000E+00  0.12597032794E+04  0.12597032794E+04  0.00000000000E+00 0.  1.
          2   -1    0    0  502    0  0.00000000000E+00 -0.00000000000E+00 -0.45723179629E+02  0.45723179629E+02  0.00000000000E+00 0. -1.
         25    1    1    2    0    0 -0.88143628302E+01  0.18019000410E+03  0.34620208654E+03  0.40991098460E+03  0.12500000000E+03 0.  0.
          2    1    1    2  502    0  0.14750206487E+00 -0.12442792271E+03  0.29778161089E+03  0.32273242398E+03  0.00000000000E+00 0. -1.
         -1    1    1    2    0  501  0.86668607653E+01 -0.55762081384E+02  0.56999640232E+03  0.57278305042E+03  0.00000000000E+00 0.  1.
<mgrwt>
<rscale>  0 0.91886660E+02</rscale>
<asrwt>0</asrwt>
<pdfrwt beam="2">  1        2 0.70343363E-02 0.14961759E+03</pdfrwt>
<pdfrwt beam="1">  1       -1 0.19380048E+00 0.56431589E+02</pdfrwt>
<totfact> 0.23057677E+02</totfact>
</mgrwt>
</event>
<event>
 5    1  0.7114032E-003  0.6364426E+02  0.7546771E-02  0.1392286E+00
         -1   -1    0    0    0  501 -0.00000000000E+00  0.00000000000E+00  0.39986631387E+03  0.39986631387E+03  0.00000000000E+00 0.  1.
          2   -1    0    0  502    0  0.00000000000E+00 -0.00000000000E+00 -0.60678398408E+03  0.60678398408E+03  0.00000000000E+00 0. -1.
         25    1    1    2    0    0  0.30735759146E+02  0.32077442589E+02 -0.48003192183E+03  0.49802539612E+03  0.12500000000E+03 0.  0.
          2    1    1    2  502    0 -0.94346126587E+02 -0.34154136467E+02 -0.93126692685E+02  0.13689513333E+03  0.00000000000E+00 0. -1.
         -1    1    1    2    0  501  0.63610367441E+02  0.20766938778E+01  0.36624094430E+03  0.37172976849E+03  0.00000000000E+00 0.  1.
<mgrwt>
<rscale>  0 0.61341661E+02</rscale>
<asrwt>0</asrwt>
<pdfrwt beam="2">  1        2 0.93351381E-01 0.59122371E+02</pdfrwt>
<pdfrwt beam="1">  1       -1 0.61517895E-01 0.63644257E+02</pdfrwt>
<totfact> 0.16849857E+02</totfact>
</mgrwt>
</event>
<event>
 5    1  0.7114032E-003  0.9973863E+02  0.7546771E-02  0.1353315E+00
          2   -1    0    0  501    0  0.00000000000E+00  0.00000000000E+00  0.27588285819E+03  0.27588285819E+03  0.00000000000E+00 0. -1.
          2   -1    0    0  502    0 -0.00000000000E+00 -0.00000000000E+00 -0.10969603412E+04  0.10969603412E+04  0.00000000000E+00 0.  1.
         25    1    1    2    0    0  0.14879318507E+01  0.82141718632E+02 -0.31747026950E+03  0.35094422334E+03  0.12500000000E+03 0.  0.
          2    1    1    2  501    0  0.50296602378E+02 -0.87114011441E+02  0.24845184945E+03  0.26804275908E+03  0.00000000000E+00 0. -1.
          2    1    1    2  502    0 -0.51784534228E+02  0.49722928098E+01 -0.75205906293E+03  0.75385621694E+03  0.00000000000E+00 0.  1.
<mgrwt>
<rscale>  0 0.72032446E+02</rscale>
<asrwt>0</asrwt>
<pdfrwt beam="1">  1        2 0.42443517E-01 0.99738631E+02</pdfrwt>
<pdfrwt beam="2">  1        2 0.16876313E+00 0.52022704E+02</pdfrwt>
<totfact> 0.46513624E+02</totfact>
</mgrwt>
</event>
<event>
 5    1  0.7114032E-003  0.4904564E+02  0.7546771E-02  0.1542007E+00
          1   -1    0    0  502    0 -0.00000000000E+00  0.00000000000E+00  0.88024672516E+03  0.88024672516E+03  0.00000000000E+00 0. -1.
          2   -1    0    0  501    0  0.00000000000E+00 -0.00000000000E+00 -0.18731129612E+04  0.18731129612E+04  0.00000000000E+00 0. -1.
         25    1    1    2    0    0  0.20285430891E+02  0.20232333001E+02  0.51029363925E+02  0.13802116500E+03  0.12500000000E+03 0.  0.
          2    1    1    2  501    0 -0.46133613152E+02 -0.16883577989E+02 -0.18290710146E+04  0.18297306201E+04  0.00000000000E+00 0. -1.
          1    1    1    2  502    0  0.25848182261E+02 -0.33487550113E+01  0.78517541469E+03  0.78560790126E+03  0.00000000000E+00 0. -1.
<mgrwt>
<rscale>  0 0.35753818E+02</rscale>
<asrwt>0</asrwt>
<pdfrwt beam="2">  1        2 0.28817122E+00 0.49045638E+02</pdfrwt>
<pdfrwt beam="1">  1        1 0.13542257E+00 0.26064203E+02</pdfrwt>
<totfact> 0.32056931E+01</totfact>
</mgrwt>
</event>
<event>
 5    1  0.7114032E-003  0.6109468E+02  0.7546771E-02  0.1511188E+00
          1   -1    0    0  502    0  0.00000000000E+00  0.00000000000E+00  0.20867921142E+04  0.20867921142E+04  0.00000000000E+00 0. -1.
         -2   -1    0    0    0  501 -0.00000000000E+00 -0.00000000000E+00 -0.71514543698E+01  0.71514543698E+01  0.00000000000E+00 0.  1.
         25    1    1    2    0    0  0.46532146198E+02 -0.41328855754E+02  0.96926171044E+03  0.97926838929E+03  0.12500000000E+03 0.  0.
          1    1    1    2  502    0 -0.25606609498E+02  0.56189551350E+02  0.97040762519E+03  0.97237026032E+03  0.00000000000E+00 0. -1.
         -2    1    1    2    0  501 -0.20925536700E+02 -0.14860695596E+02  0.13997132418E+03  0.14230491893E+03  0.00000000000E+00 0.  1.
<mgrwt>
<rscale>  0 0.39598307E+02</rscale>
<asrwt>0</asrwt>
<pdfrwt beam="1">  1        1 0.32104446E+00 0.61094675E+02</pdfrwt>
<pdfrwt beam="2">  1       -2 0.11002254E-02 0.25665509E+02</pdfrwt>
<totfact> 0.39415667E+03</totfact>
</mgrwt>
</event>
<event>
 5    1  0.7114032E-003  0.7193026E+02  0.7546771E-02  0.1466476E+00
          1   -1    0    0  502    0  0.00000000000E+00  0.00000000000E+00  0.40117871693E+04  0.40117871693E+04  0.00000000000E+00 0. -1.
          1   -1    0    0  501    0 -0.00000000000E+00 -0.00000000000E+00 -0.86675321438E+02  0.86675321438E+02  0.00000000000E+00 0. -1.
         25    1    1    2    0    0  0.17342329841E+02  0.97001996553E+02  0.14842836474E+04  0.14927937197E+04  0.12500000000E+03 0.  0.
          1    1    1    2  501    0 -0.21675548423E+01 -0.29703958417E+02 -0.79242186071E+02  0.84654282189E+02  0.00000000000E+00 0. -1.
          1    1    1    2  502    0 -0.15174774999E+02 -0.67298038137E+02  0.25200703866E+04  0.25210144888E+04  0.00000000000E+00 0. -1.
<mgrwt>
<rscale>  0 0.46284927E+02</rscale>
<asrwt>0</asrwt>
<pdfrwt beam="1">  1        1 0.61719788E+00 0.71930258E+02</pdfrwt>
<pdfrwt beam="2">  1        1 0.13334668E-01 0.29782939E+02</pdfrwt>
<totfact> 0.75156643E+00</totfact>
</mgrwt>
</event>
<event>
 5    1  0.7114032E-003  0.8797062E+02  0.7546771E-02  0.1322875E+00
          1   -1    0    0  502    0 -0.00000000000E+00  0.00000000000E+00  0.33615678087E+03  0.33615678087E+03  0.00000000000E+00 0. -1.
          2   -1    0    0  501    0  0.00000000000E+00 -0.00000000000E+00 -0.17613300061E+04  0.17613300061E+04  0.00000000000E+00 0.  1.
         25    1    1    2    0    0  0.88228798469E+02 -0.13448535745E+03 -0.75095772587E+03  0.77809584133E+03  0.12500000000E+03 0.  0.
          2    1    1    2  501    0 -0.27234181375E+02  0.71851844781E+02 -0.98936258860E+03  0.99234203778E+03  0.00000000000E+00 0.  1.
          1    1    1    2  502    0 -0.60994617093E+02  0.62633512670E+02  0.31514708927E+03  0.32704890781E+03  0.00000000000E+00 0. -1.
<mgrwt>
<rscale>  0 0.82217177E+02</rscale>
<asrwt>0</asrwt>
<pdfrwt beam="2">  1        2 0.27097385E+00 0.76840017E+02</pdfrwt>
<pdfrwt beam="1">  1        1 0.51716428E-01 0.87970624E+02</pdfrwt>
<totfact> 0.11652315E+02</totfact>
</mgrwt>
</event>
<event>
 5    1  0.7114032E-003  0.2052339E+03  0.7546771E-02  0.1332314E+00
         -1   -1    0    0    0  501 -0.00000000000E+00  0.00000000000E+00  0.38968103118E+03  0.38968103118E+03  0.00000000000E+00 0.  1.
          2   -1    0    0  502    0  0.00000000000E+00 -0.00000000000E+00 -0.16442461080E+04  0.16442461080E+04  0.00000000000E+00 0. -1.
         25    1    1    2    0    0  0.17921226065E+03  0.14983831273E+02  0.24791921205E+03  0.33080278909E+03  0.12500000000E+03 0.  0.
          2    1    1    2  502    0 -0.20305214522E+03 -0.33689726475E+02 -0.15937363031E+04  0.16069724874E+04  0.00000000000E+00 0. -1.
         -1    1    1    2    0  501  0.23839884570E+02  0.18705895202E+02  0.91252014206E+02  0.96151862740E+02  0.00000000000E+00 0.  1.
<mgrwt>
<rscale>  0 0.78861475E+02</rscale>
<asrwt>0</asrwt>
<pdfrwt beam="2">  1        2 0.25296094E+00 0.20523394E+03</pdfrwt>
<pdfrwt beam="1">  1       -1 0.59950929E-01 0.30302650E+02</pdfrwt>
<totfact> 0.40610188E+01</totfact>
</mgrwt>
</event>
<event>
 5    1  0.7114032E-003  0.4158952E+02  0.7546771E-02  0.1524418E+00
          2   -1    0    0  502    0  0.00000000000E+00  0.00000000000E+00  0.13654678663E+03  0.13654678663E+03  0.00000000000E+00 0. -1.
         -1   -1    0    0    0  501 -0.00000000000E+00 -0.00000000000E+00 -0.17088245354E+03  0.17088245354E+03  0.00000000000E+00 0.  1.
         25    1    1    2    0    0 -0.44139067012E+02 -0.39297317575E+01 -0.12920991845E+03  0.18515912900E+03  0.12500000000E+03 0.  0.
          2    1    1    2  502    0  0.25930209377E+02  0.33234681711E+02  0.45380908042E+02  0.61938248615E+02  0.00000000000E+00 0. -1.
         -1    1    1    2    0  501  0.18208857635E+02 -0.29304949954E+02  0.49493343500E+02  0.60331862552E+02  0.00000000000E+00 0.  1.
<mgrwt>
<rscale>  0 0.37879998E+02</rscale>
<asrwt>0</asrwt>
<pdfrwt beam="1">  1        2 0.21007198E-01 0.41589519E+02</pdfrwt>
<pdfrwt beam="2">  1       -1 0.26289608E-01 0.34501342E+02</pdfrwt>
<totfact> 0.33829879E+03</totfact>
</mgrwt>
</event>
<event>
 5    1  0.7114032E-003  0.8011398E+02  0.7546771E-02  0.1367602E+00
         -1   -1    0    0    0  501 -0.00000000000E+00  0.00000000000E+00  0.14051537117E+03  0.14051537117E+03  0.00000000000E+00 0.  1.
          1   -1    0    0  502    0  0.00000000000E+00 -0.00000000000E+00 -0.38629660275E+03  0.38629660275E+03  0.00000000000E+00 0. -1.
         25    1    1    2    0    0  0.60300825263E+02 -0.10162875367E+03 -0.31715219037E+03  0.36079787272E+03  0.12500000000E+03 0.  0.
          1    1    1    2  502    0  0.47284532627E+01  0.57248949781E+02 -0.32555116310E+01  0.57536065883E+02  0.00000000000E+00 0. -1.
         -1    1    1    2    0  501 -0.65029278526E+02  0.44379803891E+02  0.74626470425E+02  0.10847803532E+03  0.00000000000E+00 0.  1.
<mgrwt>
<rscale>  0 0.67838474E+02</rscale>
<asrwt>0</asrwt>
<pdfrwt beam="2">  1        1 0.59430246E-01 0.57443890E+02</pdfrwt>
<pdfrwt beam="1">  1       -1 0.21617750E-01 0.80113977E+02</pdfrwt>
<totfact> 0.11075476E+03</totfact>
</mgrwt>
</event>
<event>
 5    1  0.7114032E-003  0.4188449E+02  0.7546771E-02  0.1495825E+00
          2   -1    0    0  502    0  0.00000000000E+00  0.00000000000E+00  0.10565786599E+04  0.10565786599E+04  0.00000000000E+00 0. -1.
         -2   -1    0    0    0  501 -0.00000000000E+00 -0.00000000000E+00 -0.12556207978E+02  0.12556207978E+02  0.00000000000E+00 0.  1.
         25    1    1    2    0    0 -0.23298244757E+02 -0.29464954356E+02  0.65004050857E+03  0.66301482225E+03  0.12500000000E+03 0.  0.
          2    1    1    2  502    0 -0.12820215227E+02  0.50073349523E+02  0.15090639244E+03  0.15951312652E+03  0.00000000000E+00 0.  1.
         -2    1    1    2    0  501  0.36118459984E+02 -0.20608395168E+02  0.24307555090E+03  0.24660691910E+03  0.00000000000E+00 0. -1.
<mgrwt>
<rscale>  0 0.41734095E+02</rscale>
<asrwt>0</asrwt>
<pdfrwt beam="1">  1        2 0.16255049E+00 0.41884489E+02</pdfrwt>
<pdfrwt beam="2">  1       -2 0.19317251E-02 0.41584241E+02</pdfrwt>
<totfact> 0.17001007E+04</totfact>
</mgrwt>
</event>
<event>
 5    1  0.7114032E-003  0.3026708E+02  0.7546771E-02  0.1599866E+00
          1   -1    0    0  502    0  0.00000000000E+00  0.00000000000E+00  0.18868764176E+03  0.18868764176E+03  0.00000000000E+00 0. -1.
         -1   -1    0    0    0  501 -0.00000000000E+00 -0.00000000000E+00 -0.70985615870E+02  0.70985615870E+02  0.00000000000E+00 0.  1.
         25    1    1    2    0    0 -0.32621142582E+01  0.56753147866E+01  0.29025501124E+02  0.12849253014E+03  0.12500000000E+03 0.  0.
          1    1    1    2  502    0 -0.24892937635E+02  0.15677817522E+02  0.91128466721E+02  0.95759332460E+02  0.00000000000E+00 0. -1.
         -1    1    1    2    0  501  0.28155051893E+02 -0.21353132309E+02 -0.24519419503E+01  0.35421395030E+02  0.00000000000E+00 0.  1.
<mgrwt>
<rscale>  0 0.29839808E+02</rscale>
<asrwt>0</asrwt>
<pdfrwt beam="1">  1        1 0.29028868E-01 0.29418571E+02</pdfrwt>
<pdfrwt beam="2">  1       -1 0.10920864E-01 0.30267076E+02</pdfrwt>
<totfact> 0.68800153E+03</totfact>
</mgrwt>
</event>
<event>
 5    1  0.7114032E-003  0.2683539E+02  0.7546771E-02  0.1686964E+00
         -1   -1    0    0    0  501 -0.00000000000E+00  0.00000000000E+00  0.13485192752E+02  0.13485192752E+02  0.00000000000E+00 0.  1.
          2   -1    0    0  502    0  0.00000000000E+00 -0.00000000000E+00 -0.85127700907E+03  0.85127700907E+03  0.00000000000E+00 0. -1.
         25    1    1    2    0    0  0.11183131473E+02  0.54258328230E+01 -0.39915190227E+03  0.41845160195E+03  0.12500000000E+03 0.  0.
          2    1    1    2  502    0 -0.26610776429E+02  0.76148872862E+01 -0.41174445323E+03  0.41267373880E+03  0.00000000000E+00 0. -1.
         -1    1    1    2    0  501  0.15427644956E+02 -0.13040720109E+02 -0.26895460817E+02  0.33636861066E+02  0.00000000000E+00 0.  1.
<mgrwt>
<rscale>  0 0.23282967E+02</rscale>
<asrwt>0</asrwt>
<pdfrwt beam="2">  1        2 0.13096573E+00 0.26835391E+02</pdfrwt>
<pdfrwt beam="1">  1       -1 0.20746445E-02 0.20200807E+02</pdfrwt>
<totfact> 0.18286899E+04</totfact>
</mgrwt>
</event>
<event>
 5    1  0.7114032E-003  0.9337627E+02  0.7546771E-02  0.1332196E+00
         -1   -1    0    0    0  501 -0.00000000000E+00  0.00000000000E+00  0.28354124788E+03  0.28354124788E+03  0.00000000000E+00 0.  1.
          2   -1    0    0  502    0  0.00000000000E+00 -0.00000000000E+00 -0.62229886725E+03  0.62229886725E+03  0.00000000000E+00 0. -1.
         25    1    1    2    0    0  0.48936037496E+02  0.88911784819E+02 -0.72488975429E+02  0.17657772454E+03  0.12500000000E+03 0.  0.
          2    1    1    2  502    0 -0.87897324893E+02 -0.34808841071E+02 -0.48833578066E+03  0.49740268376E+03  0.00000000000E+00 0. -1.
         -1    1    1    2    0  501  0.38961287397E+02 -0.54102943748E+02  0.22206713672E+03  0.23185970682E+03  0.00000000000E+00 0.  1.
<mgrwt>
<rscale>  0 0.78902162E+02</rscale>
<asrwt>0</asrwt>
<pdfrwt beam="2">  1        2 0.95738287E-01 0.93376271E+02</pdfrwt>
<pdfrwt beam="1">  1       -1 0.43621730E-01 0.66671661E+02</pdfrwt>
<totfact> 0.30134726E+02</totfact>
</mgrwt>
</event>
<event>
 5    1  0.7114032E-003  0.6429526E+02  0.7546771E-02  0.1495832E+00
         -1   -1    0    0    0  501 -0.00000000000E+00  0.00000000000E+00  0.27672141179E+03  0.27672141179E+03  0.00000000000E+00 0.  1.
          2   -1    0    0  502    0  0.00000000000E+00 -0.00000000000E+00 -0.50874410048E+02  0.50874410048E+02  0.00000000000E+00 0. -1.
         25    1    1    2    0    0  0.18982298269E+02  0.52859180719E+02  0.12503204098E+03  0.18550588105E+03  0.12500000000E+03 0.  0.
          2    1    1    2  502    0  0.27023664143E+02 -0.18689424865E+01  0.11511671213E+02  0.29432803873E+02  0.00000000000E+00 0. -1.
         -1    1    1    2    0  501 -0.46005962412E+02 -0.50990238233E+02  0.89303289545E+02  0.11265713691E+03  0.00000000000E+00 0.  1.
<mgrwt>
<rscale>  0 0.41733006E+02</rscale>
<asrwt>0</asrwt>
<pdfrwt beam="2">  1        2 0.78268325E-02 0.27088215E+02</pdfrwt>
<pdfrwt beam="1">  1       -1 0.42572524E-01 0.64295259E+02</pdfrwt>
<totfact> 0.45868541E+03</totfact>
</mgrwt>
</event>
<event>
 5    1  0.7114032E-003  0.7180235E+02  0.7546771E-02  0.1447281E+00
         -1   -1    0    0    0  501 -0.00000000000E+00  0.00000000000E+00  0.35069675224E+03  0.35069675224E+03  0.00000000000E+00 0.  1.
          1   -1    0    0  502    0  0.00000000000E+00 -0.00000000000E+00 -0.44291176355E+03  0.44291176355E+03  0.00000000000E+00 0. -1.
         25    1    1    2    0    0 -0.23914640512E+01 -0.10343209307E+03  0.52110021154E+01  0.16234553126E+03  0.12500000000E+03 0.  0.
          1    1    1    2  502    0 -0.53896112137E+01  0.33895374505E+02 -0.35892621899E+03  0.36056341329E+03  0.00000000000E+00 0. -1.
         -1    1    1    2    0  501  0.77810752648E+01  0.69536718569E+02  0.26150020556E+03  0.27069957124E+03  0.00000000000E+00 0.  1.
<mgrwt>
<rscale>  0 0.49642142E+02</rscale>
<asrwt>0</asrwt>
<pdfrwt beam="2">  1        1 0.68140271E-01 0.34321193E+02</pdfrwt>
<pdfrwt beam="1">  1       -1 0.53953347E-01 0.71802348E+02</pdfrwt>
<totfact> 0.20055847E+02</totfact>
</mgrwt>
</event>
<event>
 5    1  0.7114032E-003  0.1616037E+03  0.7546771E-02  0.1339762E+00
         -2   -1    0    0    0  501 -0.00000000000E+00  0.00000000000E+00  0.12672141002E+03  0.12672141002E+03  0.00000000000E+00 0. -1.
          2   -1    0    0  502    0  0.00000000000E+00 -0.00000000000E+00 -0.56846325410E+03  0.56846325410E+03  0.00000000000E+00 0. -1.
         25    1    1    2    0    0  0.10789305678E+03 -0.15341754477E+03 -0.16991573276E+03  0.28226620588E+03  0.12500000000E+03 0.  0.
          2    1    1    2  502    0 -0.97137589830E+02  0.11899356094E+03 -0.31869370604E+03  0.35378080385E+03  0.00000000000E+00 0. -1.
         -2    1    1    2    0  501 -0.10755466947E+02  0.34423983829E+02  0.46867594719E+02  0.59137654389E+02  0.00000000000E+00 0. -1.
<mgrwt>
<rscale>  0 0.76342980E+02</rscale>
<asrwt>0</asrwt>
<pdfrwt beam="2">  1        2 0.87455886E-01 0.16160366E+03</pdfrwt>
<pdfrwt beam="1">  1       -2 0.19495601E-01 0.36065090E+02</pdfrwt>
<totfact> 0.11011642E+03</totfact>
</mgrwt>
</event>
<event>
 5    1  0.7114032E-003  0.6603507E+02  0.7546771E-02  0.1498875E+00
          2   -1    0    0  501    0  0.00000000000E+00  0.00000000000E+00  0.22289504393E+04  0.22289504393E+04  0.00000000000E+00 0. -1.
          1   -1    0    0  502    0 -0.00000000000E+00 -0.00000000000E+00 -0.33358695745E+03  0.33358695745E+03  0.00000000000E+00 0. -1.
         25    1    1    2    0    0 -0.70786471085E+01 -0.87697563074E+02  0.11243848861E+02  0.15327228696E+03  0.12500000000E+03 0.  0.
          2    1    1    2  501    0 -0.62722928024E+01  0.65589123151E+02  0.21455503274E+04  0.21465617816E+04  0.00000000000E+00 0. -1.
          1    1    1    2  502    0  0.13350939911E+02  0.22108439923E+02 -0.26143069437E+03  0.26270332825E+03  0.00000000000E+00 0. -1.
<mgrwt>
<rscale>  0 0.41297503E+02</rscale>
<asrwt>0</asrwt>
<pdfrwt beam="1">  1        2 0.34291544E+00 0.66035075E+02</pdfrwt>
<pdfrwt beam="2">  1        1 0.51321072E-01 0.25826938E+02</pdfrwt>
<totfact> 0.70018394E+01</totfact>
</mgrwt>
</event>
<event>
 5    1  0.7114032E-003  0.1476895E+03  0.7546771E-02  0.1298657E+00
          1   -1    0    0  502    0  0.00000000000E+00  0.00000000000E+00  0.29830292128E+03  0.29830292128E+03  0.00000000000E+00 0. -1.
          1   -1    0    0  501    0 -0.00000000000E+00 -0.00000000000E+00 -0.87247152717E+03  0.87247152717E+03  0.00000000000E+00 0. -1.
         25    1    1    2    0    0 -0.54039017788E+02 -0.84911175650E+02 -0.86071339379E+02  0.18210820590E+03  0.12500000000E+03 0.  0.
          1    1    1    2  501    0 -0.42150666324E+02 -0.38377012290E+02 -0.71270753538E+03  0.71498356955E+03  0.00000000000E+00 0. -1.
          1    1    1    2  502    0  0.96189684112E+02  0.12328818794E+03  0.22461026887E+03  0.27368267299E+03  0.00000000000E+00 0. -1.
<mgrwt>
<rscale>  0 0.91754641E+02</rscale>
<asrwt>0</asrwt>
<pdfrwt beam="1">  1        1 0.45892758E-01 0.14768948E+03</pdfrwt>
<pdfrwt beam="2">  1        1 0.13422639E+00 0.57004155E+02</pdfrwt>
<totfact> 0.23210864E+02</totfact>
</mgrwt>
</event>
<event>
 5    1  0.7114032E-003  0.1242510E+03  0.7546771E-02  0.1324096E+00
          1   -1    0    0  502    0  0.00000000000E+00  0.00000000000E+00  0.11975145983E+03  0.11975145983E+03  0.00000000000E+00 0.  1.
          1   -1    0    0  501    0 -0.00000000000E+00 -0.00000000000E+00 -0.60967045544E+03  0.60967045544E+03  0.00000000000E+00 0. -1.
         25    1    1    2    0    0 -0.89613041185E+02 -0.24003316410E+02 -0.11892243573E+03  0.19589334361E+03  0.12500000000E+03 0.  0.
          1    1    1    2  501    0  0.13332150689E+03 -0.73933106005E+01 -0.43200870444E+03  0.45217342465E+03  0.00000000000E+00 0. -1.
          1    1    1    2  502    0 -0.43708465707E+02  0.31396627010E+02  0.61012144563E+02  0.81355147017E+02  0.00000000000E+00 0.  1.
<mgrwt>
<rscale>  0 0.81772310E+02</rscale>
<asrwt>0</asrwt>
<pdfrwt beam="1">  1        1 0.18423302E-01 0.53816151E+02</pdfrwt>
<pdfrwt beam="2">  1        1 0.93795454E-01 0.12425100E+03</pdfrwt>
<totfact> 0.11283956E+03</totfact>
</mgrwt>
</event>
<event>
 5    1  0.7114032E-003  0.7328493E+02  0.7546771E-02  0.1411196E+00
         -1   -1    0    0    0  501 -0.00000000000E+00  0.00000000000E+00  0.22968959623E+03  0.22968959623E+03  0.00000000000E+00 0.  1.
          2   -1    0    0  502    0  0.00000000000E+00 -0.00000000000E+00 -0.89058184588E+02  0.89058184588E+02  0.00000000000E+00 0. -1.
         25    1    1    2    0    0  0.73533246649E+02  0.61895705247E+02  0.58360265209E+02  0.16813428338E+03  0.12500000000E+03 0.  0.
          2    1    1    2  502    0 -0.44207145665E+02  0.11309360679E+01  0.17772904462E+01  0.44257310193E+02  0.00000000000E+00 0. -1.
         -1    1    1    2    0  501 -0.29326100984E+02 -0.63026641315E+02  0.80493855986E+02  0.10635618725E+03  0.00000000000E+00 0.  1.
<mgrwt>
<rscale>  0 0.56927828E+02</rscale>
<asrwt>0</asrwt>
<pdfrwt beam="2">  1        2 0.13701259E-01 0.44221609E+02</pdfrwt>
<pdfrwt beam="1">  1       -1 0.35336861E-01 0.73284932E+02</pdfrwt>
<totfact> 0.34266474E+03</totfact>
</mgrwt>
</event>
<event>
 5    1  0.7114032E-003  0.3967868E+02  0.7546771E-02  0.1514396E+00
          2   -1    0    0  502    0  0.00000000000E+00  0.00000000000E+00  0.11124651991E+03  0.11124651991E+03  0.00000000000E+00 0. -1.
         -1   -1    0    0    0  501 -0.00000000000E+00 -0.00000000000E+00 -0.10744045703E+03  0.10744045703E+03  0.00000000000E+00 0.  1.
         25    1    1    2    0    0  0.23631917882E+02 -0.70975513967E+01 -0.24798613878E+02  0.12980298159E+03  0.12500000000E+03 0.  0.
          2    1    1    2  502    0 -0.80961116870E+01  0.43608326668E+02  0.12695031277E+02  0.46134553194E+02  0.00000000000E+00 0. -1.
         -1    1    1    2    0  501 -0.15535806194E+02 -0.36510775272E+02  0.15909645486E+02  0.42749442155E+02  0.00000000000E+00 0.  1.
<mgrwt>
<rscale>  0 0.39171831E+02</rscale>
<asrwt>0</asrwt>
<pdfrwt beam="1">  1        2 0.17114849E-01 0.38671453E+02</pdfrwt>
<pdfrwt beam="2">  1       -1 0.16529301E-01 0.39678684E+02</pdfrwt>
<totfact> 0.87232891E+03</totfact>
</mgrwt>
</event>
<event>
 5    1  0.7114032E-003  0.1034566E+03  0.7546771E-02  0.1301149E+00
          2   -1    0    0  502    0  0.00000000000E+00  0.00000000000E+00  0.22251128642E+04  0.22251128642E+04  0.00000000000E+00 0. -1.
         -3   -1    0    0    0  501 -0.00000000000E+00 -0.00000000000E+00 -0.41575185472E+02  0.41575185472E+02  0.00000000000E+00 0.  1.
         25    1    1    2    0    0 -0.10956362270E+02  0.12283801908E+03  0.42944486106E+03  0.46395809024E+03  0.12500000000E+03 0.  0.
          2    1    1    2  502    0  0.70251807371E+02 -0.37274560204E+02  0.16615186002E+04  0.16634208031E+04  0.00000000000E+00 0. -1.
         -3    1    1    2    0  501 -0.59295445101E+02 -0.85563458873E+02  0.92574217430E+02  0.13930915633E+03  0.00000000000E+00 0.  1.
<mgrwt>
<rscale>  0 0.90706678E+02</rscale>
<asrwt>0</asrwt>
<pdfrwt beam="1">  1        2 0.34232496E+00 0.79528041E+02</pdfrwt>
<pdfrwt beam="2">  1       -3 0.63961841E-02 0.10345661E+03</pdfrwt>
<totfact> 0.57137680E+02</totfact>
</mgrwt>
</event>
<event>
 5    1  0.7114032E-003  0.4843318E+02  0.7546771E-02  0.1530203E+00
          2   -1    0    0  502    0  0.00000000000E+00  0.00000000000E+00  0.10001144263E+04  0.10001144263E+04  0.00000000000E+00 0. -1.
         -3   -1    0    0    0  501 -0.00000000000E+00 -0.00000000000E+00 -0.15477900837E+03  0.15477900837E+03  0.00000000000E+00 0.  1.
         25    1    1    2    0    0  0.93775984253E+01 -0.57634337910E+02  0.47406330637E+02  0.14588357153E+03  0.12500000000E+03 0.  0.
          2    1    1    2  502    0  0.20544468399E+02  0.19771758931E+02  0.89771464760E+03  0.89816734864E+03  0.00000000000E+00 0. -1.
         -3    1    1    2    0  501 -0.29922066824E+02  0.37862578979E+02 -0.99785560326E+02  0.11084251449E+03  0.00000000000E+00 0.  1.
<mgrwt>
<rscale>  0 0.37161550E+02</rscale>
<asrwt>0</asrwt>
<pdfrwt beam="1">  1        2 0.15386375E+00 0.28513113E+02</pdfrwt>
<pdfrwt beam="2">  1       -3 0.23812156E-01 0.48433181E+02</pdfrwt>
<totfact> 0.26504375E+02</totfact>
</mgrwt>
</event>
<event>
 5    1  0.7114032E-003  0.5057744E+02  0.7546771E-02  0.1478727E+00
          1   -1    0    0  501    0  0.00000000000E+00  0.00000000000E+00  0.67500975406E+02  0.67500975406E+02  0.00000000000E+00 0. -1.
          1   -1    0    0  502    0 -0.00000000000E+00 -0.00000000000E+00 -0.40410853508E+03  0.40410853508E+03  0.00000000000E+00 0. -1.
         25    1    1    2    0    0  0.27841921022E+02 -0.45360383439E+02 -0.25877216042E+03  0.29226831501E+03  0.12500000000E+03 0.  0.
          1    1    1    2  501    0 -0.49438000058E+02  0.13113264414E+02  0.33696402956E+02  0.61249662248E+02  0.00000000000E+00 0. -1.
          1    1    1    2  502    0  0.21596079035E+02  0.32247119026E+02 -0.11153180221E+03  0.11809153323E+03  0.00000000000E+00 0. -1.
<mgrwt>
<rscale>  0 0.44305120E+02</rscale>
<asrwt>0</asrwt>
<pdfrwt beam="1">  1        1 0.10384766E-01 0.50577437E+02</pdfrwt>
<pdfrwt beam="2">  1        1 0.62170543E-01 0.38810660E+02</pdfrwt>
<totfact> 0.40111164E+03</totfact>
</mgrwt>
</event>
<event>
 5    1  0.7114032E-003  0.8570689E+02  0.7546771E-02  0.1369777E+00
          2   -1    0    0  502    0  0.00000000000E+00  0.00000000000E+00  0.39379521799E+04  0.39379521799E+04  0.00000000000E+00 0. -1.
         -3   -1    0    0    0  501 -0.00000000000E+00 -0.00000000000E+00 -0.13477626574E+02  0.13477626574E+02  0.00000000000E+00 0.  1.
         25    1    1    2    0    0 -0.62932714683E+02  0.32489971990E+02  0.15416786650E+04  0.15483585602E+04  0.12500000000E+03 0.  0.
          2    1    1    2  502    0 -0.25299176992E+02 -0.46270452076E+02  0.21895965981E+04  0.21902315552E+04  0.00000000000E+00 0. -1.
         -3    1    1    2    0  501  0.88231891675E+02  0.13780480086E+02  0.19319929028E+03  0.21283969110E+03  0.00000000000E+00 0.  1.
<mgrwt>
<rscale>  0 0.67229244E+02</rscale>
<asrwt>0</asrwt>
<pdfrwt beam="1">  1        2 0.60583788E+00 0.52735217E+02</pdfrwt>
<pdfrwt beam="2">  1       -3 0.20734842E-02 0.85706887E+02</pdfrwt>
<totfact> 0.34211311E+02</totfact>
</mgrwt>
</event>
<event>
 5    1  0.7114032E-003  0.1692539E+03  0.7546771E-02  0.1292204E+00
          2   -1    0    0  501    0  0.00000000000E+00  0.00000000000E+00  0.34154927907E+03  0.34154927907E+03  0.00000000000E+00 0. -1.
          1   -1    0    0  502    0 -0.00000000000E+00 -0.00000000000E+00 -0.15732061002E+04  0.15732061002E+04  0.00000000000E+00 0. -1.
         25    1    1    2    0    0 -0.18190961540E+03  0.93595061303E+02  0.17508819188E+02  0.24038032870E+03  0.12500000000E+03 0.  0.
          2    1    1    2  501    0  0.15220374217E+03 -0.49928829412E+02  0.18187628568E+03  0.24235892892E+03  0.00000000000E+00 0. -1.
          1    1    1    2  502    0  0.29705873230E+02 -0.43666231890E+02 -0.14310419260E+04  0.14320161216E+04  0.00000000000E+00 0. -1.
<mgrwt>
<rscale>  0 0.94544961E+02</rscale>
<asrwt>0</asrwt>
<pdfrwt beam="1">  1        2 0.52546043E-01 0.16925387E+03</pdfrwt>
<pdfrwt beam="2">  1        1 0.24203171E+00 0.52812676E+02</pdfrwt>
<totfact> 0.97771248E+01</totfact>
</mgrwt>
</event>
<event>
 5    1  0.7114032E-003  0.8319802E+02  0.7546771E-02  0.1421874E+00
          2   -1    0    0  501    0  0.00000000000E+00  0.00000000000E+00  0.48279918193E+03  0.48279918193E+03  0.00000000000E+00 0. -1.
          2   -1    0    0  502    0 -0.00000000000E+00 -0.00000000000E+00 -0.72775766636E+03  0.72775766636E+03  0.00000000000E+00 0. -1.
         25    1    1    2    0    0  0.51771221084E+02  0.74443893884E+02 -0.35913912849E+03  0.39093230396E+03  0.12500000000E+03 0.  0.
          2    1    1    2  501    0  0.18379929705E+02 -0.30799440212E+02  0.46135888795E+03  0.46275095983E+03  0.00000000000E+00 0. -1.
          2    1    1    2  502    0 -0.70151150789E+02 -0.43644453672E+02 -0.34717824388E+03  0.35687358451E+03  0.00000000000E+00 0. -1.
<mgrwt>
<rscale>  0 0.54626428E+02</rscale>
<asrwt>0</asrwt>
<pdfrwt beam="1">  1        2 0.74276797E-01 0.35866800E+02</pdfrwt>
<pdfrwt beam="2">  1        2 0.11196272E+00 0.83198017E+02</pdfrwt>
<totfact> 0.42845681E+02</totfact>
</mgrwt>
</event>
<event>
 5    1  0.7114032E-003  0.7898551E+02  0.7546771E-02  0.1457768E+00
          2   -1    0    0  502    0  0.00000000000E+00  0.00000000000E+00  0.51347372793E+03  0.51347372793E+03  0.00000000000E+00 0. -1.
         -1   -1    0    0    0  501 -0.00000000000E+00 -0.00000000000E+00 -0.41570828817E+02  0.41570828817E+02  0.00000000000E+00 0.  1.
         25    1    1    2    0    0 -0.27563747061E+02  0.84288251920E+02  0.16136513483E+03  0.22254881780E+03  0.12500000000E+03 0.  0.
          2    1    1    2  502    0  0.46568901150E+02 -0.62532114886E+02  0.27916654964E+03  0.28984977210E+03  0.00000000000E+00 0. -1.
         -1    1    1    2    0  501 -0.19005154090E+02 -0.21756137035E+02  0.31371214635E+02  0.42645966847E+02  0.00000000000E+00 0.  1.
<mgrwt>
<rscale>  0 0.47767619E+02</rscale>
<asrwt>0</asrwt>
<pdfrwt beam="1">  1        2 0.78995953E-01 0.78985509E+02</pdfrwt>
<pdfrwt beam="2">  1       -1 0.63955125E-02 0.28888153E+02</pdfrwt>
<totfact> 0.69305906E+03</totfact>
</mgrwt>
</event>
<event>
 5    1  0.7114032E-003  0.8067994E+02  0.7546771E-02  0.1431134E+00
          1   -1    0    0  502    0  0.00000000000E+00  0.00000000000E+00  0.75065499040E+01  0.75065499040E+01  0.00000000000E+00 0. -1.
          1   -1    0    0  501    0 -0.00000000000E+00 -0.00000000000E+00 -0.23691018950E+04  0.23691018950E+04  0.00000000000E+00 0. -1.
         25    1    1    2    0    0  0.52107164821E+02 -0.42035999421E+02 -0.12859994470E+04  0.12937935537E+04  0.12500000000E+03 0.  0.
          1    1    1    2  501    0 -0.84731508145E+02  0.30917967042E+02 -0.75282678532E+03  0.75821073446E+03  0.00000000000E+00 0. -1.
          1    1    1    2  502    0  0.32624343324E+02  0.11118032379E+02 -0.32276911277E+03  0.32460415675E+03  0.00000000000E+00 0. -1.
<mgrwt>
<rscale>  0 0.52733076E+02</rscale>
<asrwt>0</asrwt>
<pdfrwt beam="1">  1        1 0.11548536E-02 0.80679945E+02</pdfrwt>
<pdfrwt beam="2">  1        1 0.36447729E+00 0.34466773E+02</pdfrwt>
<totfact> 0.34578286E+03</totfact>
</mgrwt>
</event>
<event>
 5    1  0.7114032E-003  0.2977350E+03  0.7546771E-02  0.1126761E+00
          2   -1    0    0  502    0  0.00000000000E+00  0.00000000000E+00  0.24154829508E+04  0.24154829508E+04  0.00000000000E+00 0. -1.
          2   -1    0    0  501    0 -0.00000000000E+00 -0.00000000000E+00 -0.14866545278E+03  0.14866545278E+03  0.00000000000E+00 0. -1.
         25    1    1    2    0    0 -0.37186264674E+02 -0.35268805811E+03  0.16083852636E+04  0.16517565925E+04  0.12500000000E+03 0.  0.
          2    1    1    2  501    0 -0.10704296838E+03  0.14147620486E+03 -0.28234487874E+02  0.17964103074E+03  0.00000000000E+00 0. -1.
          2    1    1    2  502    0  0.14422923305E+03  0.21121185325E+03  0.68666672229E+03  0.73275078037E+03  0.00000000000E+00 0. -1.
<mgrwt>
<rscale>  0 0.22982746E+03</rscale>
<asrwt>0</asrwt>
<pdfrwt beam="1">  1        2 0.37161273E+00 0.29773495E+03</pdfrwt>
<pdfrwt beam="2">  1        2 0.22871610E-01 0.17740832E+03</pdfrwt>
<totfact> 0.16105282E+02</totfact>
</mgrwt>
</event>
<event>
 5    1  0.7114032E-003  0.1422724E+03  0.7546771E-02  0.1247810E+00
          2   -1    0    0  501    0  0.00000000000E+00  0.00000000000E+00  0.11477485146E+03  0.11477485146E+03  0.00000000000E+00 0. -1.
          1   -1    0    0  502    0 -0.00000000000E+00 -0.00000000000E+00 -0.15063152813E+04  0.15063152813E+04  0.00000000000E+00 0. -1.
         25    1    1    2    0    0  0.50552241370E+01 -0.88200795666E+02 -0.68598656337E+03  0.70285667157E+03  0.12500000000E+03 0.  0.
          2    1    1    2  501    0  0.86007686828E+02  0.12021121207E+03  0.50380787345E+02  0.15616107529E+03  0.00000000000E+00 0. -1.
          1    1    1    2  502    0 -0.91062910965E+02 -0.32010416404E+02 -0.75593465383E+03  0.76207238592E+03  0.00000000000E+00 0. -1.
<mgrwt>
<rscale>  0 0.11718735E+03</rscale>
<asrwt>0</asrwt>
<pdfrwt beam="1">  1        2 0.17657672E-01 0.14227239E+03</pdfrwt>
<pdfrwt beam="2">  1        1 0.23174078E+00 0.96525233E+02</pdfrwt>
<totfact> 0.33294685E+02</totfact>
</mgrwt>
</event>
<event>
 5    1  0.7114032E-003  0.1190543E+03  0.7546771E-02  0.1316675E+00
          2   -1    0    0  502    0  0.00000000000E+00  0.00000000000E+00  0.75066034589E+03  0.75066034589E+03  0.00000000000E+00 0. -1.
          2   -1    0    0  501    0 -0.00000000000E+00 -0.00000000000E+00 -0.17417280968E+04  0.17417280968E+04  0.00000000000E+00 0. -1.
         25    1    1    2    0    0 -0.71758450278E+02  0.27606889856E+01 -0.33413427118E+03  0.36390604250E+03  0.12500000000E+03 0.  0.
          2    1    1    2  501    0  0.12519844363E+03 -0.30067384798E+02 -0.13885006490E+04  0.13944578696E+04  0.00000000000E+00 0. -1.
          2    1    1    2  502    0 -0.53439993356E+02  0.27306695813E+02  0.73156716920E+03  0.73402453063E+03  0.00000000000E+00 0. -1.
<mgrwt>
<rscale>  0 0.84526543E+02</rscale>
<asrwt>0</asrwt>
<pdfrwt beam="1">  1        2 0.11548621E+00 0.60012403E+02</pdfrwt>
<pdfrwt beam="2">  1        2 0.26795816E+00 0.11905433E+03</pdfrwt>
<totfact> 0.69236346E+01</totfact>
</mgrwt>
</event>
<event>
 5    1  0.7114032E-003  0.4074448E+02  0.7546771E-02  0.1519503E+00
          2   -1    0    0  502    0  0.00000000000E+00  0.00000000000E+00  0.15004942869E+04  0.15004942869E+04  0.00000000000E+00 0. -1.
         -1   -1    0    0    0  501 -0.00000000000E+00 -0.00000000000E+00 -0.87606587125E+01  0.87606587125E+01  0.00000000000E+00 0.  1.
         25    1    1    2    0    0  0.33371718550E+02  0.55316098946E+01  0.63143976117E+03  0.64458160251E+03  0.12500000000E+03 0.  0.
          2    1    1    2  502    0 -0.38846554263E+01 -0.40558873927E+02  0.44590821408E+03  0.44776584080E+03  0.00000000000E+00 0. -1.
         -1    1    1    2    0  501 -0.29487063124E+02  0.35027264033E+02  0.41438565292E+03  0.41690750229E+03  0.00000000000E+00 0.  1.
<mgrwt>
<rscale>  0 0.38505924E+02</rscale>
<asrwt>0</asrwt>
<pdfrwt beam="1">  1        2 0.23084507E+00 0.40744482E+02</pdfrwt>
<pdfrwt beam="2">  1       -1 0.13477948E-02 0.36390356E+02</pdfrwt>
<totfact> 0.16369681E+04</totfact>
</mgrwt>
</event>
<event>
 5    1  0.7114032E-003  0.1649511E+03  0.7546771E-02  0.1209391E+00
         -3   -1    0    0    0  501 -0.00000000000E+00  0.00000000000E+00  0.11086657915E+03  0.11086657915E+03  0.00000000000E+00 0.  1.
          2   -1    0    0  502    0  0.00000000000E+00 -0.00000000000E+00 -0.14267783114E+04  0.14267783114E+04  0.00000000000E+00 0. -1.
         25    1    1    2    0    0 -0.13521636999E+03  0.12200690677E+03 -0.10455329609E+03  0.24438810065E+03  0.12500000000E+03 0.  0.
          2    1    1    2  502    0  0.19364841038E+02 -0.16597344983E+03 -0.11360073695E+04  0.11482312166E+04  0.00000000000E+00 0. -1.
         -3    1    1    2    0  501  0.11585152896E+03  0.43966543056E+02 -0.75351066585E+02  0.14502557328E+03  0.00000000000E+00 0.  1.
<mgrwt>
<rscale>  0 0.14296755E+03</rscale>
<asrwt>0</asrwt>
<pdfrwt beam="2">  1        2 0.21950434E+00 0.16495110E+03</pdfrwt>
<pdfrwt beam="1">  1       -3 0.17056398E-01 0.12391382E+03</pdfrwt>
<totfact> 0.27386912E+02</totfact>
</mgrwt>
</event>
<event>
 5    1  0.7114032E-003  0.1296537E+03  0.7546771E-02  0.1322205E+00
          1   -1    0    0  502    0  0.00000000000E+00  0.00000000000E+00  0.42192143534E+03  0.42192143534E+03  0.00000000000E+00 0. -1.
         -2   -1    0    0    0  501 -0.00000000000E+00 -0.00000000000E+00 -0.12637165064E+03  0.12637165064E+03  0.00000000000E+00 0.  1.
         25    1    1    2    0    0  0.15512217152E+03 -0.53304918923E+02  0.55515775218E+02  0.21356803079E+03  0.12500000000E+03 0.  0.
          1    1    1    2  502    0 -0.48862264077E+02  0.19059258182E+02  0.21366941531E+03  0.22001226150E+03  0.00000000000E+00 0. -1.
         -2    1    1    2    0  501 -0.10625990744E+03  0.34245660741E+02  0.26364594176E+02  0.11471279369E+03  0.00000000000E+00 0.  1.
<mgrwt>
<rscale>  0 0.82462444E+02</rscale>
<asrwt>0</asrwt>
<pdfrwt beam="1">  1        1 0.64910989E-01 0.52447842E+02</pdfrwt>
<pdfrwt beam="2">  1       -2 0.19441793E-01 0.12965366E+03</pdfrwt>
<totfact> 0.10991717E+03</totfact>
</mgrwt>
</event>
<event>
 5    1  0.7114032E-003  0.5828800E+02  0.7546771E-02  0.1461045E+00
          1   -1    0    0  502    0 -0.00000000000E+00  0.00000000000E+00  0.27554873617E+04  0.27554873617E+04  0.00000000000E+00 0. -1.
          2   -1    0    0  501    0  0.00000000000E+00 -0.00000000000E+00 -0.77452778839E+01  0.77452778839E+01  0.00000000000E+00 0. -1.
         25    1    1    2    0    0  0.10560219066E+02 -0.46215650898E+02  0.12446201410E+04  0.12517794134E+04  0.12500000000E+03 0.  0.
          2    1    1    2  501    0  0.37574870278E+02  0.70175352648E+01  0.10152768077E+03  0.10848496043E+03  0.00000000000E+00 0. -1.
          1    1    1    2  502    0 -0.48135089344E+02  0.39198115633E+02  0.14015942620E+04  0.14029682657E+04  0.00000000000E+00 0. -1.
<mgrwt>
<rscale>  0 0.47202042E+02</rscale>
<asrwt>0</asrwt>
<pdfrwt beam="2">  1        2 0.11915834E-02 0.38224556E+02</pdfrwt>
<pdfrwt beam="1">  1        1 0.42392035E+00 0.58287996E+02</pdfrwt>
<totfact> 0.15527996E+03</totfact>
</mgrwt>
</event>
<event>
 5    1  0.7114032E-003  0.5260346E+02  0.7546771E-02  0.1496034E+00
          1   -1    0    0  502    0  0.00000000000E+00  0.00000000000E+00  0.95241072026E+02  0.95241072026E+02  0.00000000000E+00 0. -1.
         -2   -1    0    0    0  501 -0.00000000000E+00 -0.00000000000E+00 -0.14088536021E+03  0.14088536021E+03  0.00000000000E+00 0.  1.
         25    1    1    2    0    0 -0.40919613947E+02  0.28234837718E+02 -0.19508634392E+02  0.13593089304E+03  0.12500000000E+03 0.  0.
          1    1    1    2  502    0  0.18838606196E+02 -0.52843254830E+02  0.29244063922E+01  0.56176995445E+02  0.00000000000E+00 0. -1.
         -2    1    1    2    0  501  0.22081007751E+02  0.24608417113E+02 -0.29060060180E+02  0.44018543748E+02  0.00000000000E+00 0.  1.
<mgrwt>
<rscale>  0 0.41703894E+02</rscale>
<asrwt>0</asrwt>
<pdfrwt beam="1">  1        1 0.14652473E-01 0.52603461E+02</pdfrwt>
<pdfrwt beam="2">  1       -2 0.21674671E-01 0.33062745E+02</pdfrwt>
<totfact> 0.52665204E+03</totfact>
</mgrwt>
</event>
<event>
 5    1  0.7114032E-003  0.6247388E+02  0.7546771E-02  0.1417225E+00
          2   -1    0    0  502    0  0.00000000000E+00  0.00000000000E+00  0.64147466412E+03  0.64147466412E+03  0.00000000000E+00 0.  1.
         -1   -1    0    0    0  501 -0.00000000000E+00 -0.00000000000E+00 -0.12643898885E+03  0.12643898885E+03  0.00000000000E+00 0.  1.
         25    1    1    2    0    0  0.13633065296E+02 -0.12655261167E+02 -0.13114350232E+02  0.12705511515E+03  0.12500000000E+03 0.  0.
          2    1    1    2  502    0 -0.13753824691E+02  0.62159492337E+02  0.57151304558E+03  0.57504793839E+03  0.00000000000E+00 0.  1.
         -1    1    1    2    0  501  0.12075939476E+00 -0.49504231169E+02 -0.43363020082E+02  0.65810599429E+02  0.00000000000E+00 0.  1.
<mgrwt>
<rscale>  0 0.55612322E+02</rscale>
<asrwt>0</asrwt>
<pdfrwt beam="1">  1        2 0.98688408E-01 0.62473876E+02</pdfrwt>
<pdfrwt beam="2">  1       -1 0.19452152E-01 0.49504378E+02</pdfrwt>
<totfact> 0.10967513E+03</totfact>
</mgrwt>
</event>
<event>
 5    1  0.7114032E-003  0.6018349E+02  0.7546771E-02  0.1404874E+00
         -1   -1    0    0    0  501 -0.00000000000E+00  0.00000000000E+00  0.84338161175E+03  0.84338161175E+03  0.00000000000E+00 0.  1.
          1   -1    0    0  502    0  0.00000000000E+00 -0.00000000000E+00 -0.37509024198E+03  0.37509024198E+03  0.00000000000E+00 0. -1.
         25    1    1    2    0    0  0.86383190089E+02  0.72028823544E+02 -0.23128628490E+03  0.28595201089E+03  0.12500000000E+03 0.  0.
          1    1    1    2  502    0 -0.32055778989E+02 -0.46622413577E+02 -0.10842222421E+03  0.12229718361E+03  0.00000000000E+00 0. -1.
         -1    1    1    2    0  501 -0.54327411100E+02 -0.25406409966E+02  0.80799987888E+03  0.81022265924E+03  0.00000000000E+00 0.  1.
<mgrwt>
<rscale>  0 0.58353600E+02</rscale>
<asrwt>0</asrwt>
<pdfrwt beam="2">  1        1 0.57706191E-01 0.56579346E+02</pdfrwt>
<pdfrwt beam="1">  1       -1 0.12975102E+00 0.60183493E+02</pdfrwt>
<totfact> 0.40347386E+01</totfact>
</mgrwt>
</event>
<event>
 5    1  0.7114032E-003  0.2058927E+03  0.7546771E-02  0.1255086E+00
          2   -1    0    0  502    0  0.00000000000E+00  0.00000000000E+00  0.58701386570E+03  0.58701386570E+03  0.00000000000E+00 0. -1.
          2   -1    0    0  501    0 -0.00000000000E+00 -0.00000000000E+00 -0.32462936602E+03  0.32462936602E+03  0.00000000000E+00 0. -1.
         25    1    1    2    0    0  0.16298021522E+03  0.90016423353E+02  0.78184720498E+02  0.23749391054E+03  0.12500000000E+03 0.  0.
          2    1    1    2  501    0  0.45959553288E+02 -0.41665287576E+02 -0.21348925716E+03  0.22231945405E+03  0.00000000000E+00 0. -1.
          2    1    1    2  502    0 -0.20893976850E+03 -0.48351135777E+02  0.39768903634E+03  0.45182986712E+03  0.00000000000E+00 0. -1.
<mgrwt>
<rscale>  0 0.11301524E+03</rscale>
<asrwt>0</asrwt>
<pdfrwt beam="1">  1        2 0.90309825E-01 0.20589268E+03</pdfrwt>
<pdfrwt beam="2">  1        2 0.49942979E-01 0.62034480E+02</pdfrwt>
<totfact> 0.80648559E+02</totfact>
</mgrwt>
</event>
<event>
 5    1  0.7114032E-003  0.1231990E+03  0.7546771E-02  0.1366757E+00
         -1   -1    0    0    0  501 -0.00000000000E+00  0.00000000000E+00  0.41469513096E+02  0.41469513096E+02  0.00000000000E+00 0.  1.
          2   -1    0    0  502    0  0.00000000000E+00 -0.00000000000E+00 -0.24920363426E+04  0.24920363426E+04  0.00000000000E+00 0.  1.
         25    1    1    2    0    0 -0.13245712032E+03  0.53501951239E+02 -0.16553945771E+04  0.16662423453E+04  0.12500000000E+03 0.  0.
          2    1    1    2  502    0  0.33175079371E+02  0.17734616817E+02 -0.72575180873E+03  0.72672607660E+03  0.00000000000E+00 0.  1.
         -1    1    1    2    0  501  0.99282040946E+02 -0.71236568056E+02 -0.69420443630E+02  0.14053743372E+03  0.00000000000E+00 0.  1.
<mgrwt>
<rscale>  0 0.68077017E+02</rscale>
<asrwt>0</asrwt>
<pdfrwt beam="2">  1        2 0.38339014E+00 0.37617848E+02</pdfrwt>
<pdfrwt beam="1">  1       -1 0.63799261E-02 0.12319897E+03</pdfrwt>
<totfact> 0.69286066E+02</totfact>
</mgrwt>
</event>
<event>
 5    1  0.7114032E-003  0.7789832E+02  0.7546771E-02  0.1419932E+00
         -2   -1    0    0    0  501 -0.00000000000E+00  0.00000000000E+00  0.17397303521E+02  0.17397303521E+02  0.00000000000E+00 0.  1.
          2   -1    0    0  502    0  0.00000000000E+00 -0.00000000000E+00 -0.25053308494E+04  0.25053308494E+04  0.00000000000E+00 0. -1.
         25    1    1    2    0    0  0.52520042451E+02 -0.54341593768E+02 -0.79415542523E+03  0.80747706041E+03  0.12500000000E+03 0.  0.
          2    1    1    2  502    0 -0.75924034873E+02  0.23291379072E+02 -0.16649608619E+04  0.16668538085E+04  0.00000000000E+00 0. -1.
         -2    1    1    2    0  501  0.23403992423E+02  0.31050214697E+02 -0.28817258779E+02  0.48397283990E+02  0.00000000000E+00 0.  1.
<mgrwt>
<rscale>  0 0.55035402E+02</rscale>
<asrwt>0</asrwt>
<pdfrwt beam="2">  1        2 0.38543557E+00 0.77898324E+02</pdfrwt>
<pdfrwt beam="1">  1       -2 0.26765079E-02 0.38882679E+02</pdfrwt>
<totfact> 0.18596830E+03</totfact>
</mgrwt>
</event>
<event>
 5    1  0.7114032E-003  0.5601893E+02  0.7546771E-02  0.1534315E+00
          1   -1    0    0  502    0  0.00000000000E+00  0.00000000000E+00  0.15966662630E+04  0.15966662630E+04  0.00000000000E+00 0.  1.
          1   -1    0    0  501    0 -0.00000000000E+00 -0.00000000000E+00 -0.11186728609E+03  0.11186728609E+03  0.00000000000E+00 0. -1.
         25    1    1    2    0    0  0.45721584702E+01 -0.43903248288E+02  0.15832791735E+03  0.20649728632E+03  0.12500000000E+03 0.  0.
          1    1    1    2  501    0  0.17122644958E+02  0.54153099204E+02 -0.78482692513E+02  0.96877634921E+02  0.00000000000E+00 0. -1.
          1    1    1    2  502    0 -0.21694803428E+02 -0.10249850916E+02  0.14049537521E+04  0.14051586278E+04  0.00000000000E+00 0.  1.
<mgrwt>
<rscale>  0 0.36662407E+02</rscale>
<asrwt>0</asrwt>
<pdfrwt beam="1">  1        1 0.24564095E+00 0.23994248E+02</pdfrwt>
<pdfrwt beam="2">  1        1 0.17210353E-01 0.56018931E+02</pdfrwt>
<totfact> 0.27864577E+02</totfact>
</mgrwt>
</event>
<event>
 5    1  0.7114032E-003  0.6374513E+02  0.7546771E-02  0.1399459E+00
          1   -1    0    0  502    0 -0.00000000000E+00  0.00000000000E+00  0.56148802141E+03  0.56148802141E+03  0.00000000000E+00 0. -1.
          2   -1    0    0  501    0  0.00000000000E+00 -0.00000000000E+00 -0.44525094600E+03  0.44525094600E+03  0.00000000000E+00 0. -1.
         25    1    1    2    0    0 -0.64431782769E+02  0.80463678000E+02  0.95509776620E+02  0.18807704681E+03  0.12500000000E+03 0.  0.
          2    1    1    2  501    0  0.11775603857E+02 -0.62148598036E+02 -0.39458578892E+03  0.39962364532E+03  0.00000000000E+00 0. -1.
          1    1    1    2  502    0  0.52656178912E+02 -0.18315079964E+02  0.41531308771E+03  0.41903827528E+03  0.00000000000E+00 0. -1.
<mgrwt>
<rscale>  0 0.59613935E+02</rscale>
<asrwt>0</asrwt>
<pdfrwt beam="2">  1        2 0.68500145E-01 0.63745131E+02</pdfrwt>
<pdfrwt beam="1">  1        1 0.86382773E-01 0.55750474E+02</pdfrwt>
<totfact> 0.39661795E+02</totfact>
</mgrwt>
</event>
<event>
 5    1  0.7114032E-003  0.3651020E+02  0.7546771E-02  0.1544534E+00
          2   -1    0    0  502    0  0.00000000000E+00  0.00000000000E+00  0.44088802058E+03  0.44088802058E+03  0.00000000000E+00 0. -1.
         -1   -1    0    0    0  501 -0.00000000000E+00 -0.00000000000E+00 -0.22906853260E+03  0.22906853260E+03  0.00000000000E+00 0.  1.
         25    1    1    2    0    0  0.34250013775E+02  0.57679809436E+02 -0.64688091419E+01  0.14201010299E+03  0.12500000000E+03 0.  0.
          2    1    1    2  502    0 -0.80490096910E+01 -0.33490634401E+02  0.37025412015E+03  0.37185282389E+03  0.00000000000E+00 0. -1.
         -1    1    1    2    0  501 -0.26201004084E+02 -0.24189175035E+02 -0.15196582302E+03  0.15609362630E+03  0.00000000000E+00 0.  1.
<mgrwt>
<rscale>  0 0.35462205E+02</rscale>
<asrwt>0</asrwt>
<pdfrwt beam="1">  1        2 0.67828926E-01 0.34444291E+02</pdfrwt>
<pdfrwt beam="2">  1       -1 0.35241313E-01 0.36510202E+02</pdfrwt>
<totfact> 0.62989447E+02</totfact>
</mgrwt>
</event>
<event>
 5    1  0.7114032E-003  0.1117603E+03  0.7546771E-02  0.1325018E+00
          2   -1    0    0  501    0  0.00000000000E+00  0.00000000000E+00  0.11076768538E+04  0.11076768538E+04  0.00000000000E+00 0. -1.
          2   -1    0    0  502    0 -0.00000000000E+00 -0.00000000000E+00 -0.98808474030E+03  0.98808474030E+03  0.00000000000E+00 0. -1.
         25    1    1    2    0    0  0.93408934353E+02 -0.13770479433E+03  0.13396304461E+03  0.24750542765E+03  0.12500000000E+03 0.  0.
          2    1    1    2  501    0 -0.45979426397E+02  0.37516743704E+02  0.91267722730E+03  0.91460446913E+03  0.00000000000E+00 0. -1.
          2    1    1    2  502    0 -0.47429507957E+02  0.10018805062E+03 -0.92704815846E+03  0.93365169727E+03  0.00000000000E+00 0. -1.
<mgrwt>
<rscale>  0 0.81438388E+02</rscale>
<asrwt>0</asrwt>
<pdfrwt beam="1">  1        2 0.17041182E+00 0.59343186E+02</pdfrwt>
<pdfrwt beam="2">  1        2 0.15201304E+00 0.11176028E+03</pdfrwt>
<totfact> 0.10753789E+02</totfact>
</mgrwt>
</event>
<event>
 5    1  0.1113544E-002  0.1254354E+03  0.7546771E-02  0.1358548E+00
         -1   -1    0    0    0  501 -0.00000000000E+00  0.00000000000E+00  0.11432771650E+02  0.11432771650E+02  0.00000000000E+00 0.  1.
          2   -1    0    0  502    0  0.00000000000E+00 -0.00000000000E+00 -0.31631334012E+04  0.31631334012E+04  0.00000000000E+00 0. -1.
         25    1    1    2    0    0 -0.80702279964E+02  0.10596060191E+03 -0.95373073425E+03  0.97106530192E+03  0.12500000000E+03 0.  0.
          2    1    1    2  502    0  0.39500068910E+02  0.24360147038E+01 -0.63860741785E+03  0.63983249663E+03  0.00000000000E+00 0. -1.
         -1    1    1    2    0  501  0.41202211054E+02 -0.10839661662E+03 -0.15593624774E+04  0.15636683743E+04  0.00000000000E+00 0.  1.
<mgrwt>
<rscale>  0 0.70456500E+02</rscale>
<asrwt>0</asrwt>
<pdfrwt beam="2">  1        2 0.48663628E+00 0.39575114E+02</pdfrwt>
<pdfrwt beam="1">  1       -1 0.17588866E-02 0.12543536E+03</pdfrwt>
<totfact> 0.19822020E+03</totfact>
</mgrwt>
</event>
<event>
 5    1  0.7114032E-003  0.8242564E+02  0.7546771E-02  0.1365038E+00
         -1   -1    0    0    0  501 -0.00000000000E+00  0.00000000000E+00  0.57759044304E+03  0.57759044304E+03  0.00000000000E+00 0.  1.
          1   -1    0    0  502    0  0.00000000000E+00 -0.00000000000E+00 -0.30026622839E+03  0.30026622839E+03  0.00000000000E+00 0. -1.
         25    1    1    2    0    0 -0.84287528448E+01  0.39341697370E+02  0.46121590772E+03  0.47954554170E+03  0.12500000000E+03 0.  0.
          1    1    1    2  502    0 -0.36300333183E+02 -0.74732667698E+02 -0.27696138948E+03  0.28915445194E+03  0.00000000000E+00 0. -1.
         -1    1    1    2    0  501  0.44729086028E+02  0.35390970328E+02  0.93069696411E+02  0.10915667780E+03  0.00000000000E+00 0.  1.
<mgrwt>
<rscale>  0 0.68566070E+02</rscale>
<asrwt>0</asrwt>
<pdfrwt beam="2">  1        1 0.46194804E-01 0.82425641E+02</pdfrwt>
<pdfrwt beam="1">  1       -1 0.88860068E-01 0.57036935E+02</pdfrwt>
<totfact> 0.12223941E+02</totfact>
</mgrwt>
</event>
<event>
 5    1  0.7114032E-003  0.2433188E+02  0.7546771E-02  0.1684235E+00
          1   -1    0    0  502    0  0.00000000000E+00  0.00000000000E+00  0.85988046949E+03  0.85988046949E+03  0.00000000000E+00 0. -1.
         -2   -1    0    0    0  501 -0.00000000000E+00 -0.00000000000E+00 -0.13187483234E+02  0.13187483234E+02  0.00000000000E+00 0.  1.
         25    1    1    2    0    0 -0.42164450943E+01 -0.31098620277E+01  0.63418130711E+03  0.64640419239E+03  0.12500000000E+03 0.  0.
          1    1    1    2  502    0  0.13816925102E+02  0.23580627440E+02  0.19782122125E+03  0.19970024784E+03  0.00000000000E+00 0. -1.
         -2    1    1    2    0  501 -0.96004800080E+01 -0.20470765412E+02  0.14690457895E+02  0.26963512496E+02  0.00000000000E+00 0.  1.
<mgrwt>
<rscale>  0 0.23455252E+02</rscale>
<asrwt>0</asrwt>
<pdfrwt beam="1">  1        1 0.13228926E+00 0.24331881E+02</pdfrwt>
<pdfrwt beam="2">  1       -2 0.20288442E-02 0.22610207E+02</pdfrwt>
<totfact> 0.10946350E+04</totfact>
</mgrwt>
</event>
<event>
 5    1  0.7114032E-003  0.7525550E+02  0.7546771E-02  0.1515946E+00
          2   -1    0    0  501    0  0.00000000000E+00  0.00000000000E+00  0.11461758227E+03  0.11461758227E+03  0.00000000000E+00 0. -1.
          1   -1    0    0  502    0 -0.00000000000E+00 -0.00000000000E+00 -0.64429198808E+03  0.64429198808E+03  0.00000000000E+00 0. -1.
         25    1    1    2    0    0  0.53265049833E+02  0.26356257594E+02 -0.35814707893E+03  0.38396112823E+03  0.12500000000E+03 0.  0.
          2    1    1    2  501    0 -0.61174219082E+02 -0.44919631728E+02  0.87104711413E+02  0.11553046847E+03  0.00000000000E+00 0. -1.
          1    1    1    2  502    0  0.79091692488E+01  0.18563374134E+02 -0.25863203829E+03  0.25941797364E+03  0.00000000000E+00 0. -1.
<mgrwt>
<rscale>  0 0.38968057E+02</rscale>
<asrwt>0</asrwt>
<pdfrwt beam="1">  1        2 0.17633474E-01 0.75255500E+02</pdfrwt>
<pdfrwt beam="2">  1        1 0.99121844E-01 0.20178053E+02</pdfrwt>
<totfact> 0.14542388E+03</totfact>
</mgrwt>
</event>
<event>
 5    1  0.7114032E-003  0.7201399E+02  0.7546771E-02  0.1452834E+00
         -1   -1    0    0    0  501 -0.00000000000E+00  0.00000000000E+00  0.95031931795E+03  0.95031931795E+03  0.00000000000E+00 0.  1.
          2   -1    0    0  502    0  0.00000000000E+00 -0.00000000000E+00 -0.21755329558E+04  0.21755329558E+04  0.00000000000E+00 0.  1.
         25    1    1    2    0    0  0.98456192216E+02  0.27653025495E+02 -0.31481591486E+03  0.35382534089E+03  0.12500000000E+03 0.  0.
          2    1    1    2  502    0 -0.32807255842E+02  0.16522409320E+01 -0.18396772980E+04  0.18399705451E+04  0.00000000000E+00 0.  1.
         -1    1    1    2    0  501 -0.65648936375E+02 -0.29305266427E+02  0.92927957501E+03  0.93205638779E+03  0.00000000000E+00 0.  1.
<mgrwt>
<rscale>  0 0.48637183E+02</rscale>
<asrwt>0</asrwt>
<pdfrwt beam="2">  1        2 0.33469738E+00 0.32848835E+02</pdfrwt>
<pdfrwt beam="1">  1       -1 0.14620297E+00 0.72013987E+02</pdfrwt>
<totfact> 0.39432462E+00</totfact>
</mgrwt>
</event>
<event>
 5    1  0.7901750E-003  0.1378453E+03  0.7546771E-02  0.1407280E+00
          2   -1    0    0  502    0  0.00000000000E+00  0.00000000000E+00  0.22348405576E+02  0.22348405576E+02  0.00000000000E+00 0. -1.
         -1   -1    0    0    0  501 -0.00000000000E+00 -0.00000000000E+00 -0.14655241068E+04  0.14655241068E+04  0.00000000000E+00 0.  1.
         25    1    1    2    0    0  0.39187460362E+02  0.14182999335E+03 -0.70190609761E+03  0.72797566850E+03  0.12500000000E+03 0.  0.
          2    1    1    2  502    0 -0.51961666489E+02 -0.12122856146E+03 -0.48933980850E+03  0.50680353894E+03  0.00000000000E+00 0. -1.
         -1    1    1    2    0  501  0.12774206128E+02 -0.20601431892E+02 -0.25192979510E+03  0.25309330492E+03  0.00000000000E+00 0.  1.
<mgrwt>
<rscale>  0 0.57805114E+02</rscale>
<asrwt>0</asrwt>
<pdfrwt beam="1">  1        2 0.34382163E-02 0.13784527E+03</pdfrwt>
<pdfrwt beam="2">  1       -1 0.22546525E+00 0.24240448E+02</pdfrwt>
<totfact> 0.40201476E+02</totfact>
</mgrwt>
</event>
<event>
 5    1  0.7114032E-003  0.1084195E+03  0.7546771E-02  0.1270863E+00
          3   -1    0    0  501    0  0.00000000000E+00  0.00000000000E+00  0.23504146593E+03  0.23504146593E+03  0.00000000000E+00 0. -1.
          3   -1    0    0  502    0 -0.00000000000E+00 -0.00000000000E+00 -0.26792054121E+04  0.26792054121E+04  0.00000000000E+00 0. -1.
         25    1    1    2    0    0  0.14456178275E+03  0.13026964146E+03 -0.32903747760E+03  0.40219267794E+03  0.12500000000E+03 0.  0.
          3    1    1    2  501    0 -0.97125953142E+02 -0.41146339583E+02  0.18326123349E+03  0.21145011642E+03  0.00000000000E+00 0. -1.
          3    1    1    2  502    0 -0.47435829609E+02 -0.89123301879E+02 -0.22983877020E+04  0.23006040837E+04  0.00000000000E+00 0. -1.
<mgrwt>
<rscale>  0 0.10462380E+03</rscale>
<asrwt>0</asrwt>
<pdfrwt beam="1">  1        3 0.36160222E-01 0.10841950E+03</pdfrwt>
<pdfrwt beam="2">  1        3 0.41218549E+00 0.10096099E+03</pdfrwt>
<totfact> 0.23212045E-01</totfact>
</mgrwt>
</event>
<event>
 5    1  0.7114032E-003  0.5505881E+02  0.7546771E-02  0.1453778E+00
          1   -1    0    0  501    0  0.00000000000E+00  0.00000000000E+00  0.79287980753E+03  0.79287980753E+03  0.00000000000E+00 0. -1.
          3   -1    0    0  502    0 -0.00000000000E+00 -0.00000000000E+00 -0.13502674899E+03  0.13502674899E+03  0.00000000000E+00 0. -1.
         25    1    1    2    0    0  0.50962227305E+02  0.75804794068E+02  0.20640933866E+03  0.25801808174E+03  0.12500000000E+03 0.  0.
          1    1    1    2  501    0 -0.40925561996E+02 -0.34333852850E+02  0.55516736567E+03  0.55773158328E+03  0.00000000000E+00 0. -1.
          3    1    1    2  502    0 -0.10036665309E+02 -0.41470941218E+02 -0.10372364580E+03  0.11215689151E+03  0.00000000000E+00 0. -1.
<mgrwt>
<rscale>  0 0.48469159E+02</rscale>
<asrwt>0</asrwt>
<pdfrwt beam="1">  1        1 0.12198151E+00 0.55058813E+02</pdfrwt>
<pdfrwt beam="2">  1        3 0.20773346E-01 0.42668180E+02</pdfrwt>
<totfact> 0.24902372E+02</totfact>
</mgrwt>
</event>
<event>
 5    1  0.7114032E-003  0.8026084E+02  0.7546771E-02  0.1352044E+00
          2   -1    0    0  501    0  0.00000000000E+00  0.00000000000E+00  0.20055229680E+02  0.20055229680E+02  0.00000000000E+00 0. -1.
          2   -1    0    0  502    0 -0.00000000000E+00 -0.00000000000E+00 -0.21104550994E+04  0.21104550994E+04  0.00000000000E+00 0. -1.
         25    1    1    2    0    0  0.82045499454E+02  0.10568892474E+03 -0.70190725880E+03  0.72539672783E+03  0.12500000000E+03 0.  0.
          2    1    1    2  501    0 -0.41177100637E+02 -0.54695283541E+02 -0.14985510355E+03  0.16475339061E+03  0.00000000000E+00 0. -1.
          2    1    1    2  502    0 -0.40868398818E+02 -0.50993641198E+02 -0.12386375074E+04  0.12403602106E+04  0.00000000000E+00 0. -1.
<mgrwt>
<rscale>  0 0.72422500E+02</rscale>
<asrwt>0</asrwt>
<pdfrwt beam="1">  1        2 0.30854214E-02 0.80260844E+02</pdfrwt>
<pdfrwt beam="2">  1        2 0.32468525E+00 0.65349655E+02</pdfrwt>
<totfact> 0.31322383E+03</totfact>
</mgrwt>
</event>
<event>
 5    1  0.7114032E-003  0.1044371E+03  0.7546771E-02  0.1445530E+00
          1   -1    0    0  502    0  0.00000000000E+00  0.00000000000E+00  0.44037878001E+03  0.44037878001E+03  0.00000000000E+00 0. -1.
          1   -1    0    0  501    0 -0.00000000000E+00 -0.00000000000E+00 -0.20176200183E+03  0.20176200183E+03  0.00000000000E+00 0. -1.
         25    1    1    2    0    0 -0.79378566817E+02  0.94024780583E+02  0.13026920807E+03  0.21848726005E+03  0.12500000000E+03 0.  0.
          1    1    1    2  501    0  0.57091140670E+02 -0.85382450141E+02 -0.14028961024E+03  0.17386988203E+03  0.00000000000E+00 0. -1.
          1    1    1    2  502    0  0.22287426147E+02 -0.86423304422E+01  0.24863718034E+03  0.24978363975E+03  0.00000000000E+00 0. -1.
<mgrwt>
<rscale>  0 0.49965014E+02</rscale>
<asrwt>0</asrwt>
<pdfrwt beam="1">  1        1 0.67750581E-01 0.23904377E+02</pdfrwt>
<pdfrwt beam="2">  1        1 0.31040308E-01 0.10443705E+03</pdfrwt>
<totfact> 0.94953441E+02</totfact>
</mgrwt>
</event>
<event>
 5    1  0.7114032E-003  0.1443106E+03  0.7546771E-02  0.1212919E+00
          3   -1    0    0  502    0  0.00000000000E+00  0.00000000000E+00  0.20402665454E+04  0.20402665454E+04  0.00000000000E+00 0. -1.
         -1   -1    0    0    0  501 -0.00000000000E+00 -0.00000000000E+00 -0.55166017719E+02  0.55166017719E+02  0.00000000000E+00 0.  1.
         25    1    1    2    0    0  0.37477954438E+02  0.35556038795E+02  0.23187619527E+03  0.26844068041E+03  0.12500000000E+03 0.  0.
          3    1    1    2  502    0 -0.10277536617E+02 -0.16922698433E+03  0.16427006884E+04  0.16514263386E+04  0.00000000000E+00 0. -1.
         -1    1    1    2    0  501 -0.27200417820E+02  0.13367094553E+03  0.11052364399E+03  0.17556554414E+03  0.00000000000E+00 0.  1.
<mgrwt>
<rscale>  0 0.14030486E+03</rscale>
<asrwt>0</asrwt>
<pdfrwt beam="1">  1        3 0.31388710E+00 0.14431055E+03</pdfrwt>
<pdfrwt beam="2">  1       -1 0.84870812E-02 0.13641035E+03</pdfrwt>
<totfact> 0.13340785E+01</totfact>
</mgrwt>
</event>
<event>
 5    1  0.7114032E-003  0.6684434E+02  0.7546771E-02  0.1462374E+00
          3   -1    0    0  502    0  0.00000000000E+00  0.00000000000E+00  0.23874737855E+03  0.23874737855E+03  0.00000000000E+00 0. -1.
         -1   -1    0    0    0  501 -0.00000000000E+00 -0.00000000000E+00 -0.53405304433E+03  0.53405304433E+03  0.00000000000E+00 0.  1.
         25    1    1    2    0    0 -0.32602683258E+02 -0.30911167816E+02 -0.38094197239E+03  0.40343552344E+03  0.12500000000E+03 0.  0.
          3    1    1    2  502    0  0.23944559572E+02  0.62767854027E+02  0.22050660837E+03  0.23051314446E+03  0.00000000000E+00 0. -1.
         -1    1    1    2    0  501  0.86581236863E+01 -0.31856686211E+02 -0.13487030177E+03  0.13885175498E+03  0.00000000000E+00 0.  1.
<mgrwt>
<rscale>  0 0.46975365E+02</rscale>
<asrwt>0</asrwt>
<pdfrwt beam="1">  1        3 0.36730366E-01 0.66844338E+02</pdfrwt>
<pdfrwt beam="2">  1       -1 0.82162006E-01 0.33012294E+02</pdfrwt>
<totfact> 0.51508602E+01</totfact>
</mgrwt>
</event>
<event>
 5    1  0.7114032E-003  0.7912125E+02  0.7546771E-02  0.1399213E+00
         -1   -1    0    0    0  501 -0.00000000000E+00  0.00000000000E+00  0.32793424131E+03  0.32793424131E+03  0.00000000000E+00 0.  1.
          2   -1    0    0  502    0  0.00000000000E+00 -0.00000000000E+00 -0.96029141895E+03  0.96029141895E+03  0.00000000000E+00 0. -1.
         25    1    1    2    0    0  0.40794597081E+02 -0.39593163481E+02 -0.70010374899E+02  0.15413718026E+03  0.12500000000E+03 0.  0.
          2    1    1    2  502    0 -0.18126727557E+02  0.78471314310E+02 -0.84451870798E+03  0.84835026584E+03  0.00000000000E+00 0. -1.
         -1    1    1    2    0  501 -0.22667869524E+02 -0.38878150829E+02  0.28217190524E+03  0.28573821416E+03  0.00000000000E+00 0.  1.
<mgrwt>
<rscale>  0 0.59672086E+02</rscale>
<asrwt>0</asrwt>
<pdfrwt beam="2">  1        2 0.14773714E+00 0.79121254E+02</pdfrwt>
<pdfrwt beam="1">  1       -1 0.50451422E-01 0.45003810E+02</pdfrwt>
<totfact> 0.13881733E+02</totfact>
</mgrwt>
</event>
<event>
 5    1  0.7114032E-003  0.5496212E+02  0.7546771E-02  0.1518326E+00
          2   -1    0    0  501    0  0.00000000000E+00  0.00000000000E+00  0.15821301993E+03  0.15821301993E+03  0.00000000000E+00 0. -1.
          1   -1    0    0  502    0 -0.00000000000E+00 -0.00000000000E+00 -0.12934635240E+04  0.12934635240E+04  0.00000000000E+00 0. -1.
         25    1    1    2    0    0  0.38427782146E+02  0.69060709106E+01 -0.21720752540E+03  0.25363063172E+03  0.12500000000E+03 0.  0.
          2    1    1    2  501    0 -0.44176790581E+02 -0.33481711894E+02  0.13433222226E+03  0.14531950934E+03  0.00000000000E+00 0. -1.
          1    1    1    2  502    0  0.57490084350E+01  0.26575640984E+02 -0.10523752010E+04  0.10527264029E+04  0.00000000000E+00 0. -1.
<mgrwt>
<rscale>  0 0.38657986E+02</rscale>
<asrwt>0</asrwt>
<pdfrwt beam="1">  1        2 0.24340466E-01 0.54962118E+02</pdfrwt>
<pdfrwt beam="2">  1        1 0.19899438E+00 0.27190362E+02</pdfrwt>
<totfact> 0.34657977E+02</totfact>
</mgrwt>
</event>
<event>
 5    1  0.7114032E-003  0.1065836E+03  0.7546771E-02  0.1316249E+00
         -1   -1    0    0    0  501 -0.00000000000E+00  0.00000000000E+00  0.28846810930E+03  0.28846810930E+03  0.00000000000E+00 0.  1.
          1   -1    0    0  502    0  0.00000000000E+00 -0.00000000000E+00 -0.58533397483E+03  0.58533397483E+03  0.00000000000E+00 0. -1.
         25    1    1    2    0    0  0.71542845106E+02 -0.12931824566E+03  0.29190284414E+02  0.19575152631E+03  0.12500000000E+03 0.  0.
          1    1    1    2  502    0  0.77579987117E+01  0.66842558424E+02 -0.48505980074E+03  0.48970514032E+03  0.00000000000E+00 0. -1.
         -1    1    1    2    0  501 -0.79300843817E+02  0.62475687240E+02  0.15900365080E+03  0.18834541750E+03  0.00000000000E+00 0.  1.
<mgrwt>
<rscale>  0 0.84688535E+02</rscale>
<asrwt>0</asrwt>
<pdfrwt beam="2">  1        1 0.90051379E-01 0.67291264E+02</pdfrwt>
<pdfrwt beam="1">  1       -1 0.44379710E-01 0.10658364E+03</pdfrwt>
<totfact> 0.19731305E+02</totfact>
</mgrwt>
</event>
<event>
 5    1  0.7114032E-003  0.1240001E+03  0.7546771E-02  0.1326290E+00
          1   -1    0    0  502    0  0.00000000000E+00  0.00000000000E+00  0.32431126675E+03  0.32431126675E+03  0.00000000000E+00 0. -1.
         -3   -1    0    0    0  501 -0.00000000000E+00 -0.00000000000E+00 -0.59019211661E+03  0.59019211661E+03  0.00000000000E+00 0.  1.
         25    1    1    2    0    0  0.16553149241E+03  0.24398799287E+02  0.56860763739E+02  0.21645813184E+03  0.12500000000E+03 0.  0.
          1    1    1    2  502    0 -0.11340866030E+03 -0.15442576259E+02  0.16864740437E+03  0.20381841034E+03  0.00000000000E+00 0. -1.
         -3    1    1    2    0  501 -0.52122832119E+02 -0.89562230287E+01 -0.49138901797E+03  0.49422684118E+03  0.00000000000E+00 0.  1.
<mgrwt>
<rscale>  0 0.80981206E+02</rscale>
<asrwt>0</asrwt>
<pdfrwt beam="1">  1        1 0.49894041E-01 0.12400008E+03</pdfrwt>
<pdfrwt beam="2">  1       -3 0.90798787E-01 0.52886705E+02</pdfrwt>
<totfact> 0.47111086E+01</totfact>
</mgrwt>
</event>
<event>
 5    1  0.7114032E-003  0.6322745E+02  0.7546771E-02  0.1519858E+00
          3   -1    0    0  502    0 -0.00000000000E+00  0.00000000000E+00  0.37619482146E+03  0.37619482146E+03  0.00000000000E+00 0. -1.
          1   -1    0    0  501    0  0.00000000000E+00 -0.00000000000E+00 -0.91138074805E+03  0.91138074805E+03  0.00000000000E+00 0. -1.
         25    1    1    2    0    0 -0.10678956526E+02  0.40755478719E+02 -0.20336069248E+03  0.24239558660E+03  0.12500000000E+03 0.  0.
          1    1    1    2  501    0  0.22818339664E+02 -0.60754268405E+02 -0.68658716005E+03  0.68964750858E+03  0.00000000000E+00 0. -1.
          3    1    1    2  502    0 -0.12139383138E+02  0.19998789686E+02  0.35476192593E+03  0.35553247433E+03  0.00000000000E+00 0. -1.
<mgrwt>
<rscale>  0 0.38460277E+02</rscale>
<asrwt>0</asrwt>
<pdfrwt beam="2">  1        1 0.14021242E+00 0.63227448E+02</pdfrwt>
<pdfrwt beam="1">  1        3 0.57876126E-01 0.23394790E+02</pdfrwt>
<totfact> 0.28974718E+01</totfact>
</mgrwt>
</event>
<event>
 5    1  0.7114032E-003  0.6211336E+02  0.7546771E-02  0.1478823E+00
          1   -1    0    0  502    0  0.00000000000E+00  0.00000000000E+00  0.20831274938E+03  0.20831274938E+03  0.00000000000E+00 0. -1.
          1   -1    0    0  501    0 -0.00000000000E+00 -0.00000000000E+00 -0.69392068772E+03  0.69392068772E+03  0.00000000000E+00 0. -1.
         25    1    1    2    0    0  0.53513521972E+02 -0.20419895613E+02  0.11034015346E+03  0.17629696151E+03  0.12500000000E+03 0.  0.
          1    1    1    2  501    0 -0.61408199964E+02 -0.10158551816E+02 -0.65554273040E+03  0.65849102847E+03  0.00000000000E+00 0. -1.
          1    1    1    2  502    0  0.78946779929E+01  0.30578447428E+02  0.59594638602E+02  0.67445447125E+02  0.00000000000E+00 0. -1.
<mgrwt>
<rscale>  0 0.44290064E+02</rscale>
<asrwt>0</asrwt>
<pdfrwt beam="1">  1        1 0.32048116E-01 0.31581124E+02</pdfrwt>
<pdfrwt beam="2">  1        1 0.10675703E+00 0.62113363E+02</pdfrwt>
<totfact> 0.48733186E+02</totfact>
</mgrwt>
</event>
<event>
 5    1  0.7114032E-003  0.1478119E+03  0.7546771E-02  0.1268602E+00
          2   -1    0    0  502    0  0.00000000000E+00  0.00000000000E+00  0.27213773391E+03  0.27213773391E+03  0.00000000000E+00 0. -1.
          2   -1    0    0  501    0 -0.00000000000E+00 -0.00000000000E+00 -0.17479210494E+04  0.17479210494E+04  0.00000000000E+00 0.  1.
         25    1    1    2    0    0  0.33968597682E+02  0.20446305317E+03 -0.72930518864E+02  0.25279016263E+03  0.12500000000E+03 0.  0.
          2    1    1    2  501    0  0.13152255962E+02 -0.14522760660E+03 -0.15736808708E+04  0.15804225773E+04  0.00000000000E+00 0.  1.
          2    1    1    2  502    0 -0.47120853644E+02 -0.59235446574E+02  0.17082807423E+03  0.18684604337E+03  0.00000000000E+00 0. -1.
<mgrwt>
<rscale>  0 0.10577386E+03</rscale>
<asrwt>0</asrwt>
<pdfrwt beam="1">  1        2 0.41867343E-01 0.75691565E+02</pdfrwt>
<pdfrwt beam="2">  1        2 0.26891093E+00 0.14781185E+03</pdfrwt>
<totfact> 0.19908256E+02</totfact>
</mgrwt>
</event>
<event>
 5    1  0.7114032E-003  0.1815078E+03  0.7546771E-02  0.1280872E+00
         -3   -1    0    0    0  501 -0.00000000000E+00  0.00000000000E+00  0.25361449229E+02  0.25361449229E+02  0.00000000000E+00 0.  1.
          2   -1    0    0  502    0  0.00000000000E+00 -0.00000000000E+00 -0.25419394323E+04  0.25419394323E+04  0.00000000000E+00 0. -1.
         25    1    1    2    0    0  0.14587184663E+03  0.13630870387E+03 -0.12614811555E+04  0.12832842102E+04  0.12500000000E+03 0.  0.
          2    1    1    2  502    0  0.90139852978E+01 -0.54046867585E+02 -0.69379042565E+03  0.69595076734E+03  0.00000000000E+00 0. -1.
         -3    1    1    2    0  501 -0.15488583192E+03 -0.82261836286E+02 -0.56130640189E+03  0.58806590399E+03  0.00000000000E+00 0.  1.
<mgrwt>
<rscale>  0 0.99726779E+02</rscale>
<asrwt>0</asrwt>
<pdfrwt beam="2">  1        2 0.39106764E+00 0.54793392E+02</pdfrwt>
<pdfrwt beam="1">  1       -3 0.39017611E-02 0.18150784E+03</pdfrwt>
<totfact> 0.97513922E+02</totfact>
</mgrwt>
</event>
<event>
 5    1  0.7114032E-003  0.4647554E+02  0.7546771E-02  0.1542177E+00
         -2   -1    0    0    0  501 -0.00000000000E+00  0.00000000000E+00  0.67980398798E+02  0.67980398798E+02  0.00000000000E+00 0.  1.
          1   -1    0    0  502    0  0.00000000000E+00 -0.00000000000E+00 -0.27573956825E+03  0.27573956825E+03  0.00000000000E+00 0. -1.
         25    1    1    2    0    0 -0.87726623271E+01 -0.49192202388E+02 -0.25345406864E+02  0.13698256104E+03  0.12500000000E+03 0.  0.
          1    1    1    2  502    0 -0.23363410863E+02  0.14458039876E+02 -0.14162088512E+03  0.14426142584E+03  0.00000000000E+00 0. -1.
         -2    1    1    2    0  501  0.32136073190E+02  0.34734162512E+02 -0.40792877470E+02  0.62475980166E+02  0.00000000000E+00 0.  1.
<mgrwt>
<rscale>  0 0.35734052E+02</rscale>
<asrwt>0</asrwt>
<pdfrwt beam="2">  1        1 0.42421472E-01 0.27475150E+02</pdfrwt>
<pdfrwt beam="1">  1       -2 0.10458523E-01 0.46475542E+02</pdfrwt>
<totfact> 0.46418865E+03</totfact>
</mgrwt>
</event>
<event>
 5    1  0.7114032E-003  0.8826151E+02  0.7546771E-02  0.1438862E+00
          1   -1    0    0  502    0 -0.00000000000E+00  0.00000000000E+00  0.10023112208E+03  0.10023112208E+03  0.00000000000E+00 0. -1.
          2   -1    0    0  501    0  0.00000000000E+00 -0.00000000000E+00 -0.12992311524E+04  0.12992311524E+04  0.00000000000E+00 0. -1.
         25    1    1    2    0    0  0.51846904916E+02  0.45580218425E+02 -0.43645734972E+02  0.14931713914E+03  0.12500000000E+03 0.  0.
          2    1    1    2  501    0  0.24957110259E+02  0.16148249360E+02 -0.11511355439E+04  0.11515192850E+04  0.00000000000E+00 0. -1.
          1    1    1    2  502    0 -0.76804015175E+02 -0.61728467785E+02 -0.42187514083E+01  0.98625850291E+02  0.00000000000E+00 0. -1.
<mgrwt>
<rscale>  0 0.51221522E+02</rscale>
<asrwt>0</asrwt>
<pdfrwt beam="2">  1        2 0.19988171E+00 0.29725802E+02</pdfrwt>
<pdfrwt beam="1">  1        1 0.15420173E-01 0.88261514E+02</pdfrwt>
<totfact> 0.95778791E+02</totfact>
</mgrwt>
</event>
<event>
 5    1  0.7114032E-003  0.1827668E+03  0.7546771E-02  0.1249749E+00
          2   -1    0    0  501    0  0.00000000000E+00  0.00000000000E+00  0.26950469121E+03  0.26950469121E+03  0.00000000000E+00 0. -1.
          1   -1    0    0  502    0 -0.00000000000E+00 -0.00000000000E+00 -0.37748335134E+03  0.37748335134E+03  0.00000000000E+00 0. -1.
         25    1    1    2    0    0 -0.15892445961E+03  0.82840161008E+02  0.15035339160E+03  0.26523691015E+03  0.12500000000E+03 0.  0.
          2    1    1    2  501    0  0.13903035197E+03 -0.15379944623E+03 -0.18751977827E+03  0.27954852114E+03  0.00000000000E+00 0. -1.
          1    1    1    2  502    0  0.19894107634E+02  0.70959285218E+02 -0.70812273454E+02  0.10220261126E+03  0.00000000000E+00 0. -1.
<mgrwt>
<rscale>  0 0.11605625E+03</rscale>
<asrwt>0</asrwt>
<pdfrwt beam="1">  1        2 0.41462260E-01 0.18276681E+03</pdfrwt>
<pdfrwt beam="2">  1        1 0.58074362E-01 0.73695289E+02</pdfrwt>
<totfact> 0.11019468E+03</totfact>
</mgrwt>
</event>
<event>
 5    1  0.7114032E-003  0.1105576E+03  0.7546771E-02  0.1319961E+00
         -3   -1    0    0    0  501 -0.00000000000E+00  0.00000000000E+00  0.62420856343E+02  0.62420856343E+02  0.00000000000E+00 0.  1.
          2   -1    0    0  502    0  0.00000000000E+00 -0.00000000000E+00 -0.10409301410E+04  0.10409301410E+04  0.00000000000E+00 0.  1.
         25    1    1    2    0    0 -0.14901758294E+03  0.64034388990E+02 -0.43268014110E+03  0.47868961500E+03  0.12500000000E+03 0.  0.
          2    1    1    2  502    0  0.95484359530E+02 -0.31296517852E+02 -0.55249515166E+03  0.56155821386E+03  0.00000000000E+00 0.  1.
         -3    1    1    2    0  501  0.53533223414E+02 -0.32737871137E+02  0.66660080596E+01  0.63103168535E+02  0.00000000000E+00 0.  1.
<mgrwt>
<rscale>  0 0.83291649E+02</rscale>
<asrwt>0</asrwt>
<pdfrwt beam="2">  1        2 0.16014308E+00 0.11055759E+03</pdfrwt>
<pdfrwt beam="1">  1       -3 0.96032100E-02 0.62750093E+02</pdfrwt>
<totfact> 0.11065458E+03</totfact>
</mgrwt>
</event>
<event>
 5    1  0.7114032E-003  0.6694458E+02  0.7546771E-02  0.1405710E+00
         -3   -1    0    0    0  501 -0.00000000000E+00  0.00000000000E+00  0.40841460259E+03  0.40841460259E+03  0.00000000000E+00 0.  1.
          1   -1    0    0  502    0  0.00000000000E+00 -0.00000000000E+00 -0.65145767252E+03  0.65145767252E+03  0.00000000000E+00 0.  1.
         25    1    1    2    0    0  0.85546056233E+02 -0.33049544938E+02 -0.17944847652E+03  0.23714374519E+03  0.12500000000E+03 0.  0.
          1    1    1    2  502    0 -0.39143128279E+02  0.53055582232E+02 -0.43900703558E+03  0.44393046369E+03  0.00000000000E+00 0.  1.
         -3    1    1    2    0  501 -0.46402927953E+02 -0.20006037294E+02  0.37541244217E+03  0.37879806624E+03  0.00000000000E+00 0.  1.
<mgrwt>
<rscale>  0 0.58162163E+02</rscale>
<asrwt>0</asrwt>
<pdfrwt beam="2">  1        1 0.10022426E+00 0.66944584E+02</pdfrwt>
<pdfrwt beam="1">  1       -3 0.62833015E-01 0.50531903E+02</pdfrwt>
<totfact> 0.42306899E+01</totfact>
</mgrwt>
</event>
<event>
 5    1  0.7114032E-003  0.7125141E+02  0.7546771E-02  0.1413098E+00
          2   -1    0    0  502    0  0.00000000000E+00  0.00000000000E+00  0.44347936734E+03  0.44347936734E+03  0.00000000000E+00 0. -1.
         -1   -1    0    0    0  501 -0.00000000000E+00 -0.00000000000E+00 -0.39527569621E+02  0.39527569621E+02  0.00000000000E+00 0.  1.
         25    1    1    2    0    0 -0.82685304743E+02  0.26156627443E+01  0.21634879749E+03  0.26320240023E+03  0.12500000000E+03 0.  0.
          2    1    1    2  502    0  0.23154274730E+02 -0.38370800740E+02  0.66182533025E+02  0.79928508465E+02  0.00000000000E+00 0. -1.
         -1    1    1    2    0  501  0.59531030013E+02  0.35755137996E+02  0.12142046720E+03  0.13987602826E+03  0.00000000000E+00 0.  1.
<mgrwt>
<rscale>  0 0.56508186E+02</rscale>
<asrwt>0</asrwt>
<pdfrwt beam="1">  1        2 0.68227592E-01 0.44815609E+02</pdfrwt>
<pdfrwt beam="2">  1       -1 0.60811649E-02 0.71251406E+02</pdfrwt>
<totfact> 0.96288679E+03</totfact>
</mgrwt>
</event>
<event>
 5    1  0.7114032E-003  0.1594514E+03  0.7546771E-02  0.1197149E+00
         -1   -1    0    0    0  501 -0.00000000000E+00  0.00000000000E+00  0.92251716504E+03  0.92251716504E+03  0.00000000000E+00 0.  1.
          2   -1    0    0  502    0  0.00000000000E+00 -0.00000000000E+00 -0.12960915693E+03  0.12960915693E+03  0.00000000000E+00 0. -1.
         25    1    1    2    0    0 -0.47792732066E+02  0.18298064710E+03  0.51176973386E+03  0.55973147397E+03  0.12500000000E+03 0.  0.
          2    1    1    2  502    0 -0.97244597402E+02 -0.10931072229E+03 -0.22402834131E+02  0.14801092091E+03  0.00000000000E+00 0. -1.
         -1    1    1    2    0  501  0.14503732947E+03 -0.73669924818E+02  0.30354110839E+03  0.34438392710E+03  0.00000000000E+00 0.  1.
<mgrwt>
<rscale>  0 0.15273716E+03</rscale>
<asrwt>0</asrwt>
<pdfrwt beam="2">  1        2 0.19939871E-01 0.14630566E+03</pdfrwt>
<pdfrwt beam="1">  1       -1 0.14192571E+00 0.15945139E+03</pdfrwt>
<totfact> 0.14109720E+02</totfact>
</mgrwt>
</event>
<event>
 5    1  0.7114032E-003  0.1145525E+03  0.7546771E-02  0.1321615E+00
          1   -1    0    0  501    0  0.00000000000E+00  0.00000000000E+00  0.81583994223E+03  0.81583994223E+03  0.00000000000E+00 0. -1.
          1   -1    0    0  502    0 -0.00000000000E+00 -0.00000000000E+00 -0.19252938257E+04  0.19252938257E+04  0.00000000000E+00 0. -1.
         25    1    1    2    0    0  0.68912907802E+02  0.24477395610E+02 -0.11011171184E+04  0.11105998560E+04  0.12500000000E+03 0.  0.
          1    1    1    2  501    0 -0.11376427576E+03  0.14885133985E+02  0.80594383308E+03  0.81406961602E+03  0.00000000000E+00 0. -1.
          1    1    1    2  502    0  0.44851367959E+02 -0.39362529595E+02 -0.81428059811E+03  0.81646429585E+03  0.00000000000E+00 0. -1.
<mgrwt>
<rscale>  0 0.82679333E+02</rscale>
<asrwt>0</asrwt>
<pdfrwt beam="1">  1        1 0.12551384E+00 0.11455252E+03</pdfrwt>
<pdfrwt beam="2">  1        1 0.29619905E+00 0.59674567E+02</pdfrwt>
<totfact> 0.12703785E+01</totfact>
</mgrwt>
</event>
<event>
 5    1  0.7114032E-003  0.5516566E+02  0.7546771E-02  0.1434557E+00
          2   -1    0    0  502    0  0.00000000000E+00  0.00000000000E+00  0.38232153072E+03  0.38232153072E+03  0.00000000000E+00 0. -1.
         -1   -1    0    0    0  501 -0.00000000000E+00 -0.00000000000E+00 -0.54854110093E+02  0.54854110093E+02  0.00000000000E+00 0.  1.
         25    1    1    2    0    0 -0.36308146551E+02 -0.91274337496E+02  0.21913029695E+03  0.27072564199E+03  0.12500000000E+03 0.  0.
          2    1    1    2  502    0  0.10095689141E+02  0.48073151323E+02  0.10486429820E+03  0.11579927398E+03  0.00000000000E+00 0. -1.
         -1    1    1    2    0  501  0.26212457409E+02  0.43201186173E+02  0.34728254800E+01  0.50650724842E+02  0.00000000000E+00 0.  1.
<mgrwt>
<rscale>  0 0.52056087E+02</rscale>
<asrwt>0</asrwt>
<pdfrwt beam="1">  1        2 0.58818695E-01 0.49121796E+02</pdfrwt>
<pdfrwt beam="2">  1       -1 0.84390941E-02 0.55165659E+02</pdfrwt>
<totfact> 0.67705880E+03</totfact>
</mgrwt>
</event>
<event>
 5    1  0.7114032E-003  0.1791464E+03  0.7546771E-02  0.1199759E+00
         -2   -1    0    0    0  501  0.00000000000E+00  0.00000000000E+00  0.40706699659E+03  0.40706699659E+03  0.00000000000E+00 0.  1.
         -1   -1    0    0    0  502 -0.00000000000E+00 -0.00000000000E+00 -0.69073984643E+03  0.69073984643E+03  0.00000000000E+00 0.  1.
         25    1    1    2    0    0 -0.55589244421E+02  0.77857825184E+02  0.62493505627E+01  0.15753113794E+03  0.12500000000E+03 0.  0.
         -2    1    1    2    0  501  0.11761981967E+03 -0.18818886870E+03  0.27953786952E+03  0.35691860805E+03  0.00000000000E+00 0.  1.
         -1    1    1    2    0  502 -0.62030575248E+02  0.11033104351E+03 -0.56946006992E+03  0.58335709704E+03  0.00000000000E+00 0.  1.
<mgrwt>
<rscale>  0 0.15058252E+03</rscale>
<asrwt>0</asrwt>
<pdfrwt beam="1">  1       -2 0.62625692E-01 0.17914635E+03</pdfrwt>
<pdfrwt beam="2">  1       -1 0.10626767E+00 0.12657303E+03</pdfrwt>
<totfact> 0.16575898E+01</totfact>
</mgrwt>
</event>
<event>
 5    1  0.7114032E-003  0.4747585E+02  0.7546771E-02  0.1539802E+00
          1   -1    0    0  502    0 -0.00000000000E+00  0.00000000000E+00  0.11897139258E+03  0.11897139258E+03  0.00000000000E+00 0.  1.
          2   -1    0    0  501    0  0.00000000000E+00 -0.00000000000E+00 -0.97406165009E+03  0.97406165009E+03  0.00000000000E+00 0. -1.
         25    1    1    2    0    0  0.19020562048E+02  0.89514324566E+01 -0.46823889410E+03  0.48509233334E+03  0.12500000000E+03 0.  0.
          2    1    1    2  501    0  0.27084893108E+02  0.35363218999E+01 -0.49183930692E+03  0.49259719939E+03  0.00000000000E+00 0. -1.
          1    1    1    2  502    0 -0.46105455155E+02 -0.12487754357E+02  0.10498794351E+03  0.11534350995E+03  0.00000000000E+00 0.  1.
<mgrwt>
<rscale>  0 0.36011001E+02</rscale>
<asrwt>0</asrwt>
<pdfrwt beam="2">  1        2 0.14985563E+00 0.27314776E+02</pdfrwt>
<pdfrwt beam="1">  1        1 0.18303292E-01 0.47475849E+02</pdfrwt>
<totfact> 0.11145778E+03</totfact>
</mgrwt>
</event>
<event>
 5    1  0.7114032E-003  0.8503743E+02  0.7546771E-02  0.1417900E+00
          1   -1    0    0  502    0  0.00000000000E+00  0.00000000000E+00  0.94520701614E+03  0.94520701614E+03  0.00000000000E+00 0. -1.
         -1   -1    0    0    0  501 -0.00000000000E+00 -0.00000000000E+00 -0.21233234594E+02  0.21233234594E+02  0.00000000000E+00 0.  1.
         25    1    1    2    0    0 -0.87369996634E+02 -0.18560991008E+02  0.45408969336E+03  0.47937508938E+03  0.12500000000E+03 0.  0.
          1    1    1    2  502    0  0.18108097998E+02 -0.31322637724E+02  0.22122855426E+03  0.22416753571E+03  0.00000000000E+00 0. -1.
         -1    1    1    2    0  501  0.69261898636E+02  0.49883628732E+02  0.24865553392E+03  0.26289762564E+03  0.00000000000E+00 0.  1.
<mgrwt>
<rscale>  0 0.55467791E+02</rscale>
<asrwt>0</asrwt>
<pdfrwt beam="1">  1        1 0.14541643E+00 0.36180255E+02</pdfrwt>
<pdfrwt beam="2">  1       -1 0.32666522E-02 0.85037430E+02</pdfrwt>
<totfact> 0.58723975E+03</totfact>
</mgrwt>
</event>
<event>
 5    1  0.7114032E-003  0.8161266E+02  0.7546771E-02  0.1374409E+00
         -3   -1    0    0    0  501 -0.00000000000E+00  0.00000000000E+00  0.59101060919E+02  0.59101060919E+02  0.00000000000E+00 0.  1.
          2   -1    0    0  502    0  0.00000000000E+00 -0.00000000000E+00 -0.11016958233E+04  0.11016958233E+04  0.00000000000E+00 0. -1.
         25    1    1    2    0    0 -0.30158105389E+02  0.11927869289E+03 -0.17194546828E+03  0.24561588296E+03  0.12500000000E+03 0.  0.
          2    1    1    2  502    0  0.18467899753E+02 -0.50002490476E+02 -0.83444455106E+03  0.83614533496E+03  0.00000000000E+00 0. -1.
         -3    1    1    2    0  501  0.11690205636E+02 -0.69276202416E+02 -0.36204743033E+02  0.79035666297E+02  0.00000000000E+00 0.  1.
<mgrwt>
<rscale>  0 0.65956638E+02</rscale>
<asrwt>0</asrwt>
<pdfrwt beam="2">  1        2 0.16949167E+00 0.53303962E+02</pdfrwt>
<pdfrwt beam="1">  1       -3 0.90924709E-02 0.81612658E+02</pdfrwt>
<totfact> 0.12064170E+03</totfact>
</mgrwt>
</event>
<event>
 5    1  0.7114032E-003  0.1085197E+03  0.7546771E-02  0.1396275E+00
         -2   -1    0    0    0  501 -0.00000000000E+00  0.00000000000E+00  0.12588020171E+03  0.12588020171E+03  0.00000000000E+00 0. -1.
          2   -1    0    0  502    0  0.00000000000E+00 -0.00000000000E+00 -0.80467253348E+03  0.80467253348E+03  0.00000000000E+00 0. -1.
         25    1    1    2    0    0  0.80665007262E+02 -0.35479084848E+02 -0.75963176813E+02  0.17076595999E+03  0.12500000000E+03 0.  0.
          2    1    1    2  502    0 -0.87008960324E+02  0.68461433798E+02 -0.67297148875E+03  0.68201770634E+03  0.00000000000E+00 0. -1.
         -2    1    1    2    0  501  0.63439530617E+01 -0.32982348949E+02  0.70142333787E+02  0.77769068863E+02  0.00000000000E+00 0. -1.
<mgrwt>
<rscale>  0 0.60372539E+02</rscale>
<asrwt>0</asrwt>
<pdfrwt beam="2">  1        2 0.12379577E+00 0.10851973E+03</pdfrwt>
<pdfrwt beam="1">  1       -2 0.19366185E-01 0.33586918E+02</pdfrwt>
<totfact> 0.74485792E+02</totfact>
</mgrwt>
</event>
<event>
 5    1  0.8890875E-003  0.1003922E+03  0.7546771E-02  0.1391847E+00
          1   -1    0    0  502    0  0.00000000000E+00  0.00000000000E+00  0.69403660485E+03  0.69403660485E+03  0.00000000000E+00 0. -1.
         -2   -1    0    0    0  501 -0.00000000000E+00 -0.00000000000E+00 -0.32718448389E+02  0.32718448389E+02  0.00000000000E+00 0.  1.
         25    1    1    2    0    0 -0.10807253444E+03 -0.10731744144E+02  0.37237857159E+03  0.40753606419E+03  0.12500000000E+03 0.  0.
          1    1    1    2  502    0  0.19828128014E+02 -0.31962302426E+02  0.76007298114E+02  0.84804792338E+02  0.00000000000E+00 0. -1.
         -2    1    1    2    0  501  0.88244406425E+02  0.42694046569E+02  0.21293228675E+03  0.23441419671E+03  0.00000000000E+00 0.  1.
<mgrwt>
<rscale>  0 0.61449640E+02</rscale>
<asrwt>0</asrwt>
<pdfrwt beam="1">  1        1 0.10677485E+00 0.37613075E+02</pdfrwt>
<pdfrwt beam="2">  1       -2 0.50336080E-02 0.10039217E+03</pdfrwt>
<totfact> 0.48377843E+03</totfact>
</mgrwt>
</event>
<event>
 5    1  0.7114032E-003  0.8920538E+02  0.7546771E-02  0.1344615E+00
          2   -1    0    0  501    0  0.00000000000E+00  0.00000000000E+00  0.54742169110E+03  0.54742169110E+03  0.00000000000E+00 0. -1.
          1   -1    0    0  502    0 -0.00000000000E+00 -0.00000000000E+00 -0.13632198071E+04  0.13632198071E+04  0.00000000000E+00 0. -1.
         25    1    1    2    0    0  0.44357315586E+02  0.77615257646E+02 -0.57424182044E+03  0.59444963454E+03  0.12500000000E+03 0.  0.
          2    1    1    2  501    0 -0.60889126754E+02  0.14767465400E+02  0.53264784135E+03  0.53632013451E+03  0.00000000000E+00 0. -1.
          1    1    1    2  502    0  0.16531811168E+02 -0.92382723046E+02 -0.77420413694E+03  0.77987172916E+03  0.00000000000E+00 0. -1.
<mgrwt>
<rscale>  0 0.74760301E+02</rscale>
<asrwt>0</asrwt>
<pdfrwt beam="1">  1        2 0.84218722E-01 0.62654320E+02</pdfrwt>
<pdfrwt beam="2">  1        1 0.20972612E+00 0.89205383E+02</pdfrwt>
<totfact> 0.76843921E+01</totfact>
</mgrwt>
</event>
<event>
 5    1  0.7114032E-003  0.3769116E+02  0.7546771E-02  0.1589389E+00
          2   -1    0    0  501    0  0.00000000000E+00  0.00000000000E+00  0.73380313541E+02  0.73380313541E+02  0.00000000000E+00 0. -1.
          1   -1    0    0  502    0 -0.00000000000E+00 -0.00000000000E+00 -0.56127660907E+03  0.56127660907E+03  0.00000000000E+00 0. -1.
         25    1    1    2    0    0  0.41562357545E+01 -0.25449266283E+02 -0.51133283350E+03  0.52702106795E+03  0.12500000000E+03 0.  0.
          2    1    1    2  501    0 -0.29289421502E+02  0.24049582233E+02  0.55293255841E+02  0.67034295394E+02  0.00000000000E+00 0. -1.
          1    1    1    2  502    0  0.25133185747E+02  0.13996840492E+01 -0.31856717869E+02  0.40601559263E+02  0.00000000000E+00 0. -1.
<mgrwt>
<rscale>  0 0.30802056E+02</rscale>
<asrwt>0</asrwt>
<pdfrwt beam="1">  1        2 0.11289279E-01 0.37691155E+02</pdfrwt>
<pdfrwt beam="2">  1        1 0.86350251E-01 0.25172130E+02</pdfrwt>
<totfact> 0.27430929E+03</totfact>
</mgrwt>
</event>
<event>
 5    1  0.7114032E-003  0.5334640E+02  0.7546771E-02  0.1437566E+00
         -3   -1    0    0    0  501 -0.00000000000E+00  0.00000000000E+00  0.79716852188E+02  0.79716852188E+02  0.00000000000E+00 0.  1.
          2   -1    0    0  502    0  0.00000000000E+00 -0.00000000000E+00 -0.57497379479E+03  0.57497379479E+03  0.00000000000E+00 0. -1.
         25    1    1    2    0    0  0.66439657041E+01 -0.66342718053E+01 -0.23585385375E+03  0.26709585577E+03  0.12500000000E+03 0.  0.
          2    1    1    2  502    0  0.15933801034E+02  0.54967312801E+02 -0.30929993030E+03  0.31455005703E+03  0.00000000000E+00 0. -1.
         -3    1    1    2    0  501 -0.22577766738E+02 -0.48333040996E+02  0.49896841455E+02  0.73044734170E+02  0.00000000000E+00 0.  1.
<mgrwt>
<rscale>  0 0.51470813E+02</rscale>
<asrwt>0</asrwt>
<pdfrwt beam="2">  1        2 0.88457509E-01 0.49661169E+02</pdfrwt>
<pdfrwt beam="1">  1       -3 0.12264131E-01 0.53346400E+02</pdfrwt>
<totfact> 0.15310248E+03</totfact>
</mgrwt>
</event>
<event>
 5    1  0.7114032E-003  0.6317202E+02  0.7546771E-02  0.1394739E+00
          2   -1    0    0  501    0  0.00000000000E+00  0.00000000000E+00  0.10087073053E+03  0.10087073053E+03  0.00000000000E+00 0. -1.
          3   -1    0    0  502    0 -0.00000000000E+00 -0.00000000000E+00 -0.29495586098E+03  0.29495586098E+03  0.00000000000E+00 0. -1.
         25    1    1    2    0    0  0.22839629264E+02 -0.20469351604E+01 -0.40274060775E+02  0.13331481005E+03  0.12500000000E+03 0.  0.
          2    1    1    2  501    0 -0.73235191024E+02 -0.27478851213E+02  0.18662906179E+02  0.80416320081E+02  0.00000000000E+00 0. -1.
          3    1    1    2  502    0  0.50395561760E+02  0.29525786373E+02 -0.17247397585E+03  0.18209546137E+03  0.00000000000E+00 0. -1.
<mgrwt>
<rscale>  0 0.60743278E+02</rscale>
<asrwt>0</asrwt>
<pdfrwt beam="1">  1        2 0.15518574E-01 0.63172015E+02</pdfrwt>
<pdfrwt beam="2">  1        3 0.45377825E-01 0.58407916E+02</pdfrwt>
<totfact> 0.97398587E+02</totfact>
</mgrwt>
</event>
<event>
 5    1  0.7114032E-003  0.3183549E+02  0.7546771E-02  0.1581242E+00
         -1   -1    0    0    0  501 -0.00000000000E+00  0.00000000000E+00  0.28422108808E+02  0.28422108808E+02  0.00000000000E+00 0.  1.
          1   -1    0    0  502    0  0.00000000000E+00 -0.00000000000E+00 -0.49054544689E+03  0.49054544689E+03  0.00000000000E+00 0. -1.
         25    1    1    2    0    0  0.86989228288E+01  0.17639481691E+02 -0.16164542653E+03  0.20528289381E+03  0.12500000000E+03 0.  0.
          1    1    1    2  502    0 -0.27816724017E+02  0.15483152054E+02 -0.24018431621E+03  0.24228496421E+03  0.00000000000E+00 0. -1.
         -1    1    1    2    0  501  0.19117801188E+02 -0.33122633745E+02 -0.60293595347E+02  0.71399697677E+02  0.00000000000E+00 0.  1.
<mgrwt>
<rscale>  0 0.31581090E+02</rscale>
<asrwt>0</asrwt>
<pdfrwt beam="2">  1        1 0.75468529E-01 0.31835485E+02</pdfrwt>
<pdfrwt beam="1">  1       -1 0.43726322E-02 0.31328728E+02</pdfrwt>
<totfact> 0.83167373E+03</totfact>
</mgrwt>
</event>
<event>
 5    1  0.7114032E-003  0.1324573E+03  0.7546771E-02  0.1399796E+00
          1   -1    0    0  502    0 -0.00000000000E+00  0.00000000000E+00  0.11286849614E+04  0.11286849614E+04  0.00000000000E+00 0. -1.
          2   -1    0    0  501    0  0.00000000000E+00 -0.00000000000E+00 -0.81057012737E+02  0.81057012737E+02  0.00000000000E+00 0. -1.
         25    1    1    2    0    0  0.83818908637E+02  0.68500479373E+02  0.80741689576E+03  0.82417532642E+03  0.12500000000E+03 0.  0.
          2    1    1    2  501    0 -0.10810870545E+03 -0.79726171010E+02 -0.92776854712E+01  0.13464705710E+03  0.00000000000E+00 0. -1.
          1    1    1    2  502    0  0.24289796810E+02  0.11225691637E+02  0.24948873836E+03  0.25091959061E+03  0.00000000000E+00 0. -1.
<mgrwt>
<rscale>  0 0.59534362E+02</rscale>
<asrwt>0</asrwt>
<pdfrwt beam="2">  1        2 0.12470310E-01 0.13245725E+03</pdfrwt>
<pdfrwt beam="1">  1        1 0.17364383E+00 0.26758370E+02</pdfrwt>
<totfact> 0.97847424E+02</totfact>
</mgrwt>
</event>
<event>
 5    1  0.7114032E-003  0.1067280E+03  0.7546771E-02  0.1407345E+00
          2   -1    0    0  502    0  0.00000000000E+00  0.00000000000E+00  0.44167808527E+03  0.44167808527E+03  0.00000000000E+00 0. -1.
         -2   -1    0    0    0  501 -0.00000000000E+00 -0.00000000000E+00 -0.59138145258E+02  0.59138145258E+02  0.00000000000E+00 0.  1.
         25    1    1    2    0    0  0.12999508571E+02 -0.10848338599E+03  0.27179734662E+03  0.31849086312E+03  0.12500000000E+03 0.  0.
          2    1    1    2  502    0 -0.31146471409E+02  0.30141244835E+01  0.50794917879E+02  0.59659964046E+02  0.00000000000E+00 0. -1.
         -2    1    1    2    0  501  0.18146962838E+02  0.10546926151E+03  0.59947675512E+02  0.12266540336E+03  0.00000000000E+00 0.  1.
<mgrwt>
<rscale>  0 0.57790403E+02</rscale>
<asrwt>0</asrwt>
<pdfrwt beam="1">  1        2 0.67950473E-01 0.31291974E+02</pdfrwt>
<pdfrwt beam="2">  1       -2 0.90981765E-02 0.10672803E+03</pdfrwt>
<totfact> 0.52759139E+03</totfact>
</mgrwt>
</event>
<event>
 5    1  0.7114032E-003  0.6946982E+02  0.7546771E-02  0.1498684E+00
         -3   -1    0    0    0  501 -0.00000000000E+00  0.00000000000E+00  0.20693052371E+04  0.20693052371E+04  0.00000000000E+00 0.  1.
          2   -1    0    0  502    0  0.00000000000E+00 -0.00000000000E+00 -0.42537552504E+02  0.42537552504E+02  0.00000000000E+00 0. -1.
         25    1    1    2    0    0  0.45754143654E+02  0.55856476465E+01  0.15222926673E+04  0.15281114508E+04  0.12500000000E+03 0.  0.
          2    1    1    2  502    0 -0.68174915572E+02 -0.15665182378E+02 -0.82329890334E+01  0.70434360653E+02  0.00000000000E+00 0. -1.
         -3    1    1    2    0  501  0.22420771918E+02  0.10079534732E+02  0.51270800640E+03  0.51329697823E+03  0.00000000000E+00 0.  1.
<mgrwt>
<rscale>  0 0.41324641E+02</rscale>
<asrwt>0</asrwt>
<pdfrwt beam="2">  1        2 0.65442404E-02 0.69469821E+02</pdfrwt>
<pdfrwt beam="1">  1       -3 0.31835457E+00 0.24582271E+02</pdfrwt>
<totfact> 0.26170121E+01</totfact>
</mgrwt>
</event>
<event>
 5    1  0.7114032E-003  0.5542952E+02  0.7546771E-02  0.1435382E+00
         -1   -1    0    0    0  501 -0.00000000000E+00  0.00000000000E+00  0.14080683948E+02  0.14080683948E+02  0.00000000000E+00 0.  1.
          1   -1    0    0  502    0  0.00000000000E+00 -0.00000000000E+00 -0.20323862656E+04  0.20323862656E+04  0.00000000000E+00 0. -1.
         25    1    1    2    0    0 -0.59673739314E+02  0.54530473299E+02 -0.46514566617E+03  0.48838511283E+03  0.12500000000E+03 0.  0.
          1    1    1    2  502    0  0.11095221967E+02 -0.53717306626E+02 -0.12365342112E+04  0.12377501801E+04  0.00000000000E+00 0. -1.
         -1    1    1    2    0  501  0.48578517348E+02 -0.81316667328E+00 -0.31662570431E+03  0.32033165659E+03  0.00000000000E+00 0.  1.
<mgrwt>
<rscale>  0 0.51894712E+02</rscale>
<asrwt>0</asrwt>
<pdfrwt beam="2">  1        1 0.31267497E+00 0.55429521E+02</pdfrwt>
<pdfrwt beam="1">  1       -1 0.21662580E-02 0.48585323E+02</pdfrwt>
<totfact> 0.19193204E+03</totfact>
</mgrwt>
</event>
<event>
 5    1  0.7114032E-003  0.5284878E+02  0.7546771E-02  0.1546669E+00
          2   -1    0    0  501    0  0.00000000000E+00  0.00000000000E+00  0.17502822631E+04  0.17502822631E+04  0.00000000000E+00 0. -1.
          3   -1    0    0  502    0 -0.00000000000E+00 -0.00000000000E+00 -0.77562986854E+01  0.77562986854E+01  0.00000000000E+00 0. -1.
         25    1    1    2    0    0 -0.28278028725E+02 -0.27487860205E+02  0.86659770685E+03  0.87645411454E+03  0.12500000000E+03 0.  0.
          2    1    1    2  501    0 -0.33990597031E+00 -0.23467168651E+02  0.54710705343E+03  0.54761021855E+03  0.00000000000E+00 0. -1.
          3    1    1    2  502    0  0.28617934695E+02  0.50955028856E+02  0.32882120413E+03  0.33397422870E+03  0.00000000000E+00 0. -1.
<mgrwt>
<rscale>  0 0.35218479E+02</rscale>
<asrwt>0</asrwt>
<pdfrwt beam="1">  1        2 0.26927388E+00 0.23469630E+02</pdfrwt>
<pdfrwt beam="2">  1        3 0.11932781E-02 0.52848776E+02</pdfrwt>
<totfact> 0.12795459E+04</totfact>
</mgrwt>
</event>
<event>
 5    1  0.7114032E-003  0.1034074E+03  0.7546771E-02  0.1463532E+00
          1   -1    0    0  502    0  0.00000000000E+00  0.00000000000E+00  0.16819100763E+03  0.16819100763E+03  0.00000000000E+00 0. -1.
         -2   -1    0    0    0  501 -0.00000000000E+00 -0.00000000000E+00 -0.12732076053E+03  0.12732076053E+03  0.00000000000E+00 0.  1.
         25    1    1    2    0    0  0.10332369848E+03  0.25775068979E+01  0.30053801374E+02  0.16495654333E+03  0.12500000000E+03 0.  0.
          1    1    1    2  502    0 -0.18827885788E+01  0.21077768786E+02  0.15588537109E+02  0.26283449527E+02  0.00000000000E+00 0. -1.
         -2    1    1    2    0  501 -0.10144090990E+03 -0.23655275684E+02 -0.47720913864E+01  0.10427177530E+03  0.00000000000E+00 0.  1.
<mgrwt>
<rscale>  0 0.46779013E+02</rscale>
<asrwt>0</asrwt>
<pdfrwt beam="1">  1        1 0.25875540E-01 0.21161693E+02</pdfrwt>
<pdfrwt beam="2">  1       -2 0.19587809E-01 0.10340742E+03</pdfrwt>
<totfact> 0.31429496E+03</totfact>
</mgrwt>
</event>
<event>
 5    1  0.7114032E-003  0.1072066E+03  0.7546771E-02  0.1281835E+00
          2   -1    0    0  501    0  0.00000000000E+00  0.00000000000E+00  0.18016053851E+04  0.18016053851E+04  0.00000000000E+00 0. -1.
          1   -1    0    0  502    0 -0.00000000000E+00 -0.00000000000E+00 -0.76148255627E+03  0.76148255627E+03  0.00000000000E+00 0. -1.
         25    1    1    2    0    0 -0.18576309942E+03  0.22069258598E+02  0.10798028024E+03  0.24955905554E+03  0.12500000000E+03 0.  0.
          2    1    1    2  501    0  0.81991227416E+02 -0.41563441612E+02  0.16174877783E+04  0.16200977729E+04  0.00000000000E+00 0. -1.
          1    1    1    2  502    0  0.10377187201E+03  0.19494183014E+02 -0.68534522964E+03  0.69343111293E+03  0.00000000000E+00 0. -1.
<mgrwt>
<rscale>  0 0.99271807E+02</rscale>
<asrwt>0</asrwt>
<pdfrwt beam="1">  1        2 0.27717006E+00 0.91924322E+02</pdfrwt>
<pdfrwt beam="2">  1        1 0.11715116E+00 0.10720657E+03</pdfrwt>
<totfact> 0.37321987E+01</totfact>
</mgrwt>
</event>
<event>
 5    1  0.7114032E-003  0.5757403E+02  0.7546771E-02  0.1434850E+00
          2   -1    0    0  502    0  0.00000000000E+00  0.00000000000E+00  0.13928959042E+03  0.13928959042E+03  0.00000000000E+00 0. -1.
          2   -1    0    0  501    0 -0.00000000000E+00 -0.00000000000E+00 -0.40946113306E+03  0.40946113306E+03  0.00000000000E+00 0. -1.
         25    1    1    2    0    0 -0.38365165748E+02 -0.72041475991E+02 -0.66097461723E+01  0.14943409568E+03  0.12500000000E+03 0.  0.
          2    1    1    2  501    0 -0.10702955978E+02  0.45727310023E+02 -0.31799891247E+03  0.32144804942E+03  0.00000000000E+00 0. -1.
          2    1    1    2  502    0  0.49068121725E+02  0.26314165968E+02  0.54437115997E+02  0.77868578376E+02  0.00000000000E+00 0. -1.
<mgrwt>
<rscale>  0 0.51998646E+02</rscale>
<asrwt>0</asrwt>
<pdfrwt beam="1">  1        2 0.21429168E-01 0.57574025E+02</pdfrwt>
<pdfrwt beam="2">  1        2 0.62994020E-01 0.46963179E+02</pdfrwt>
<totfact> 0.29481728E+03</totfact>
</mgrwt>
</event>
<event>
 5    1  0.7114032E-003  0.2045304E+03  0.7546771E-02  0.1173759E+00
          1   -1    0    0  502    0 -0.00000000000E+00  0.00000000000E+00  0.73814987122E+03  0.73814987122E+03  0.00000000000E+00 0. -1.
          2   -1    0    0  501    0  0.00000000000E+00 -0.00000000000E+00 -0.46169756280E+03  0.46169756280E+03  0.00000000000E+00 0. -1.
         25    1    1    2    0    0  0.32908146762E+02 -0.81713762753E+02  0.11476052629E+03  0.19119378531E+03  0.12500000000E+03 0.  0.
          2    1    1    2  501    0 -0.17501181359E+02  0.22890414696E+03 -0.38172728810E+03  0.44544261395E+03  0.00000000000E+00 0. -1.
          1    1    1    2  502    0 -0.15406965403E+02 -0.14719038420E+03  0.54341907023E+03  0.56321103476E+03  0.00000000000E+00 0. -1.
<mgrwt>
<rscale>  0 0.17398100E+03</rscale>
<asrwt>0</asrwt>
<pdfrwt beam="2">  1        2 0.71030394E-01 0.20453044E+03</pdfrwt>
<pdfrwt beam="1">  1        1 0.11356152E+00 0.14799454E+03</pdfrwt>
<totfact> 0.25002577E+02</totfact>
</mgrwt>
</event>
<event>
 5    1  0.7114032E-003  0.1027129E+03  0.7546771E-02  0.1310826E+00
          3   -1    0    0  502    0 -0.00000000000E+00  0.00000000000E+00  0.30545989939E+03  0.30545989939E+03  0.00000000000E+00 0. -1.
          1   -1    0    0  501    0  0.00000000000E+00 -0.00000000000E+00 -0.10354646454E+04  0.10354646454E+04  0.00000000000E+00 0. -1.
         25    1    1    2    0    0  0.26881986439E+02 -0.84816694208E+02  0.11879823946E+03  0.19404776348E+03  0.12500000000E+03 0.  0.
          1    1    1    2  501    0  0.46037176207E+02  0.92559925858E+02 -0.98595111145E+03  0.99135581687E+03  0.00000000000E+00 0. -1.
          3    1    1    2  502    0 -0.72919162646E+02 -0.77432316497E+01  0.13714812598E+03  0.15552096443E+03  0.00000000000E+00 0. -1.
<mgrwt>
<rscale>  0 0.86786238E+02</rscale>
<asrwt>0</asrwt>
<pdfrwt beam="2">  1        1 0.15930225E+00 0.10271294E+03</pdfrwt>
<pdfrwt beam="1">  1        3 0.46993831E-01 0.73329134E+02</pdfrwt>
<totfact> 0.37538612E+01</totfact>
</mgrwt>
</event>
<event>
 5    1  0.7114032E-003  0.1034715E+03  0.7546771E-02  0.1422256E+00
         -2   -1    0    0    0  501 -0.00000000000E+00  0.00000000000E+00  0.25873266955E+03  0.25873266955E+03  0.00000000000E+00 0.  1.
          1   -1    0    0  502    0  0.00000000000E+00 -0.00000000000E+00 -0.89580927302E+02  0.89580927302E+02  0.00000000000E+00 0. -1.
         25    1    1    2    0    0 -0.39294089816E+02  0.97110492478E+02  0.13332397158E+03  0.21065316196E+03  0.12500000000E+03 0.  0.
          1    1    1    2  502    0  0.28024757106E+02  0.64387278401E+01  0.79536810366E+01  0.29834632042E+02  0.00000000000E+00 0. -1.
         -2    1    1    2    0  501  0.11269332710E+02 -0.10354922032E+03  0.27874089628E+02  0.10782580285E+03  0.00000000000E+00 0.  1.
<mgrwt>
<rscale>  0 0.54546417E+02</rscale>
<asrwt>0</asrwt>
<pdfrwt beam="2">  1        1 0.13781681E-01 0.28754899E+02</pdfrwt>
<pdfrwt beam="1">  1       -2 0.39805026E-01 0.10347147E+03</pdfrwt>
<totfact> 0.19425097E+03</totfact>
</mgrwt>
</event>
<event>
 5    1  0.7114032E-003  0.6572011E+02  0.7546771E-02  0.1414112E+00
          1   -1    0    0  502    0 -0.00000000000E+00  0.00000000000E+00  0.15662494907E+04  0.15662494907E+04  0.00000000000E+00 0. -1.
          2   -1    0    0  501    0  0.00000000000E+00 -0.00000000000E+00 -0.12396868807E+03  0.12396868807E+03  0.00000000000E+00 0. -1.
         25    1    1    2    0    0  0.15981914284E+02  0.55722823666E+02  0.33968672049E+03  0.36656857849E+03  0.12500000000E+03 0.  0.
          2    1    1    2  501    0 -0.58071351200E+02 -0.32220659341E+02 -0.10002519801E+03  0.12006453663E+03  0.00000000000E+00 0. -1.
          1    1    1    2  502    0  0.42089436916E+02 -0.23502164325E+02  0.12026192802E+04  0.12035850637E+04  0.00000000000E+00 0. -1.
<mgrwt>
<rscale>  0 0.56286236E+02</rscale>
<asrwt>0</asrwt>
<pdfrwt beam="2">  1        2 0.19072107E-01 0.65720109E+02</pdfrwt>
<pdfrwt beam="1">  1        1 0.24096145E+00 0.48206560E+02</pdfrwt>
<totfact> 0.29131428E+02</totfact>
</mgrwt>
</event>
<event>
 5    1  0.7114032E-003  0.1658702E+03  0.7546771E-02  0.1281879E+00
          1   -1    0    0  502    0 -0.00000000000E+00  0.00000000000E+00  0.81751046987E+03  0.81751046987E+03  0.00000000000E+00 0. -1.
          2   -1    0    0  501    0  0.00000000000E+00 -0.00000000000E+00 -0.76233375664E+03  0.76233375664E+03  0.00000000000E+00 0. -1.
         25    1    1    2    0    0 -0.12157648152E+03  0.82652986046E+02  0.29808464472E+03  0.35509408948E+03  0.12500000000E+03 0.  0.
          2    1    1    2  501    0  0.96010730786E+02 -0.13625667601E+03 -0.72250845511E+03  0.74148662151E+03  0.00000000000E+00 0. -1.
          1    1    1    2  502    0  0.25565750738E+02  0.53603689961E+02  0.47960052361E+03  0.48326351552E+03  0.00000000000E+00 0. -1.
<mgrwt>
<rscale>  0 0.99250887E+02</rscale>
<asrwt>0</asrwt>
<pdfrwt beam="2">  1        2 0.11728212E+00 0.16587018E+03</pdfrwt>
<pdfrwt beam="1">  1        1 0.12577084E+00 0.59388241E+02</pdfrwt>
<totfact> 0.12663324E+02</totfact>
</mgrwt>
</event>
<event>
 5    1  0.7114032E-003  0.1625373E+03  0.7546771E-02  0.1310919E+00
          3   -1    0    0  502    0 -0.00000000000E+00  0.00000000000E+00  0.43566714362E+03  0.43566714362E+03  0.00000000000E+00 0. -1.
          1   -1    0    0  501    0  0.00000000000E+00 -0.00000000000E+00 -0.11521025384E+04  0.11521025384E+04  0.00000000000E+00 0. -1.
         25    1    1    2    0    0 -0.93275505802E+02 -0.10668065861E+03  0.14294683986E+02  0.18950045091E+03  0.12500000000E+03 0.  0.
          1    1    1    2  501    0 -0.45076355722E+02  0.10575305260E+02 -0.10426978693E+04  0.10437253286E+04  0.00000000000E+00 0. -1.
          3    1    1    2  502    0  0.13835186152E+03  0.96105353351E+02  0.31196779049E+03  0.35454390255E+03  0.00000000000E+00 0. -1.
<mgrwt>
<rscale>  0 0.86749764E+02</rscale>
<asrwt>0</asrwt>
<pdfrwt beam="2">  1        1 0.17724654E+00 0.46300269E+02</pdfrwt>
<pdfrwt beam="1">  1        3 0.67025715E-01 0.16253732E+03</pdfrwt>
<totfact> 0.16685527E+01</totfact>
</mgrwt>
</event>
<event>
 5    1  0.7114032E-003  0.1052710E+03  0.7546771E-02  0.1410326E+00
          1   -1    0    0  501    0  0.00000000000E+00  0.00000000000E+00  0.17627062459E+03  0.17627062459E+03  0.00000000000E+00 0. -1.
          1   -1    0    0  502    0 -0.00000000000E+00 -0.00000000000E+00 -0.88713580911E+03  0.88713580911E+03  0.00000000000E+00 0. -1.
         25    1    1    2    0    0 -0.96134544170E+02  0.50194002306E+02 -0.31399348993E+02  0.16844051641E+03  0.12500000000E+03 0.  0.
          1    1    1    2  501    0  0.10344443392E+03 -0.20073708271E+02  0.81596316540E+02  0.13327289126E+03  0.00000000000E+00 0. -1.
          1    1    1    2  502    0 -0.73098897457E+01 -0.30120294035E+02 -0.76106215207E+03  0.76169302604E+03  0.00000000000E+00 0. -1.
<mgrwt>
<rscale>  0 0.57121234E+02</rscale>
<asrwt>0</asrwt>
<pdfrwt beam="1">  1        1 0.27118558E-01 0.10527102E+03</pdfrwt>
<pdfrwt beam="2">  1        1 0.13648243E+00 0.30994622E+02</pdfrwt>
<totfact> 0.44831795E+02</totfact>
</mgrwt>
</event>
<event>
 5    1  0.7114032E-003  0.1029969E+03  0.7546771E-02  0.1318866E+00
          2   -1    0    0  502    0  0.00000000000E+00  0.00000000000E+00  0.14963704782E+03  0.14963704782E+03  0.00000000000E+00 0. -1.
          2   -1    0    0  501    0 -0.00000000000E+00 -0.00000000000E+00 -0.17076907465E+04  0.17076907465E+04  0.00000000000E+00 0.  1.
         25    1    1    2    0    0  0.91612376927E+02  0.12259481782E+03 -0.52440254127E+03  0.56039748594E+03  0.12500000000E+03 0.  0.
          2    1    1    2  501    0 -0.63203761775E+02 -0.25138521031E+02 -0.11445597199E+04  0.11465790915E+04  0.00000000000E+00 0.  1.
          2    1    1    2  502    0 -0.28408615152E+02 -0.97456296791E+02  0.11090856244E+03  0.15035121689E+03  0.00000000000E+00 0. -1.
<mgrwt>
<rscale>  0 0.83700690E+02</rscale>
<asrwt>0</asrwt>
<pdfrwt beam="1">  1        2 0.23021084E-01 0.10299692E+03</pdfrwt>
<pdfrwt beam="2">  1        2 0.26272166E+00 0.68019561E+02</pdfrwt>
<totfact> 0.42768845E+02</totfact>
</mgrwt>
</event>
<event>
 5    1  0.7114032E-003  0.7084805E+02  0.7546771E-02  0.1384037E+00
         -1   -1    0    0    0  501 -0.00000000000E+00  0.00000000000E+00  0.32365621988E+03  0.32365621988E+03  0.00000000000E+00 0.  1.
          1   -1    0    0  502    0  0.00000000000E+00 -0.00000000000E+00 -0.88503230566E+03  0.88503230566E+03  0.00000000000E+00 0. -1.
         25    1    1    2    0    0 -0.15279470521E+02 -0.11724937792E+03  0.11735581528E+03  0.20827449729E+03  0.12500000000E+03 0.  0.
          1    1    1    2  502    0 -0.58857988170E+01  0.56454546973E+02 -0.83212609663E+03  0.83405970960E+03  0.00000000000E+00 0. -1.
         -1    1    1    2    0  501  0.21165269338E+02  0.60794830944E+02  0.15339419557E+03  0.16635431864E+03  0.00000000000E+00 0.  1.
<mgrwt>
<rscale>  0 0.63414300E+02</rscale>
<asrwt>0</asrwt>
<pdfrwt beam="2">  1        1 0.13615882E+00 0.56760536E+02</pdfrwt>
<pdfrwt beam="1">  1       -1 0.49793265E-01 0.70848051E+02</pdfrwt>
<totfact> 0.90700099E+01</totfact>
</mgrwt>
</event>
<event>
 5    1  0.7114032E-003  0.1081073E+03  0.7546771E-02  0.1371790E+00
         -2   -1    0    0    0  501 -0.00000000000E+00  0.00000000000E+00  0.23158522179E+03  0.23158522179E+03  0.00000000000E+00 0.  1.
          1   -1    0    0  502    0  0.00000000000E+00 -0.00000000000E+00 -0.28420048839E+03  0.28420048839E+03  0.00000000000E+00 0. -1.
         25    1    1    2    0    0  0.93893290192E+02 -0.17166916272E+02 -0.48400784195E+02  0.16455482025E+03  0.12500000000E+03 0.  0.
          1    1    1    2  502    0 -0.11189803922E+03 -0.19799487095E+02 -0.15654908748E+03  0.19344458550E+03  0.00000000000E+00 0. -1.
         -2    1    1    2    0  501  0.18004749026E+02  0.36966403368E+02  0.15233460507E+03  0.15778630444E+03  0.00000000000E+00 0.  1.
<mgrwt>
<rscale>  0 0.66671977E+02</rscale>
<asrwt>0</asrwt>
<pdfrwt beam="2">  1        1 0.43723152E-01 0.10810734E+03</pdfrwt>
<pdfrwt beam="1">  1       -2 0.35628496E-01 0.41117952E+02</pdfrwt>
<totfact> 0.59781190E+02</totfact>
</mgrwt>
</event>
<event>
 5    1  0.7114032E-003  0.8062645E+02  0.7546771E-02  0.1400145E+00
          2   -1    0    0  502    0  0.00000000000E+00  0.00000000000E+00  0.67446119175E+03  0.67446119175E+03  0.00000000000E+00 0.  1.
         -2   -1    0    0    0  501 -0.00000000000E+00 -0.00000000000E+00 -0.43003056294E+03  0.43003056294E+03  0.00000000000E+00 0.  1.
         25    1    1    2    0    0  0.12330057460E+02 -0.49160228379E+02 -0.15446501401E+03  0.20506876633E+03  0.12500000000E+03 0.  0.
          2    1    1    2  502    0 -0.13464407047E+02 -0.41719974224E+02  0.64013304017E+03  0.64163241472E+03  0.00000000000E+00 0.  1.
         -2    1    1    2    0  501  0.11343495871E+01  0.90880202603E+02 -0.24123739735E+03  0.25779057363E+03  0.00000000000E+00 0.  1.
<mgrwt>
<rscale>  0 0.59452271E+02</rscale>
<asrwt>0</asrwt>
<pdfrwt beam="1">  1        2 0.10376326E+00 0.43838870E+02</pdfrwt>
<pdfrwt beam="2">  1       -2 0.66158548E-01 0.80626451E+02</pdfrwt>
<totfact> 0.10217342E+02</totfact>
</mgrwt>
</event>
<event>
 5    1  0.7114032E-003  0.8286001E+02  0.7546771E-02  0.1450247E+00
          2   -1    0    0  502    0  0.00000000000E+00  0.00000000000E+00  0.32585913704E+03  0.32585913704E+03  0.00000000000E+00 0. -1.
         -1   -1    0    0    0  501 -0.00000000000E+00 -0.00000000000E+00 -0.53678650287E+02  0.53678650287E+02  0.00000000000E+00 0.  1.
         25    1    1    2    0    0  0.81712261917E+02  0.11432052047E+02  0.15564523157E+03  0.21600468438E+03  0.12500000000E+03 0.  0.
          2    1    1    2  502    0 -0.66434916337E+01  0.28328646993E+02  0.22290404935E+02  0.36653927125E+02  0.00000000000E+00 0. -1.
         -1    1    1    2    0  501 -0.75068770284E+02 -0.39760699040E+02  0.94244850241E+02  0.12687917582E+03  0.00000000000E+00 0.  1.
<mgrwt>
<rscale>  0 0.49101893E+02</rscale>
<asrwt>0</asrwt>
<pdfrwt beam="1">  1        2 0.50132174E-01 0.29097220E+02</pdfrwt>
<pdfrwt beam="2">  1       -1 0.82582541E-02 0.82860008E+02</pdfrwt>
<totfact> 0.84619562E+03</totfact>
</mgrwt>
</event>
<event>
 5    1  0.7114032E-003  0.1048654E+03  0.7546771E-02  0.1409278E+00
          2   -1    0    0  502    0  0.00000000000E+00  0.00000000000E+00  0.64668183693E+02  0.64668183693E+02  0.00000000000E+00 0. -1.
          2   -1    0    0  501    0 -0.00000000000E+00 -0.00000000000E+00 -0.10202500593E+04  0.10202500593E+04  0.00000000000E+00 0. -1.
         25    1    1    2    0    0  0.11367705034E+03 -0.29777312870E+02 -0.42161585774E+03  0.45518577705E+03  0.12500000000E+03 0.  0.
          2    1    1    2  501    0 -0.23303030404E+02 -0.21001096529E+02 -0.52472173477E+03  0.52565861186E+03  0.00000000000E+00 0. -1.
          2    1    1    2  502    0 -0.90374019940E+02  0.50778409400E+02 -0.92442831430E+01  0.10407385412E+03  0.00000000000E+00 0. -1.
<mgrwt>
<rscale>  0 0.57355290E+02</rscale>
<asrwt>0</asrwt>
<pdfrwt beam="1">  1        2 0.99489525E-02 0.10486543E+03</pdfrwt>
<pdfrwt beam="2">  1        2 0.15696153E+00 0.31370006E+02</pdfrwt>
<totfact> 0.26946350E+03</totfact>
</mgrwt>
</event>
<event>
 5    1  0.7114032E-003  0.5015519E+02  0.7546771E-02  0.1573950E+00
         -1   -1    0    0    0  501 -0.00000000000E+00  0.00000000000E+00  0.71713883614E+02  0.71713883614E+02  0.00000000000E+00 0.  1.
          2   -1    0    0  502    0  0.00000000000E+00 -0.00000000000E+00 -0.17381051342E+03  0.17381051342E+03  0.00000000000E+00 0. -1.
         25    1    1    2    0    0  0.77544855702E+01 -0.31715056696E+02 -0.30285675642E+02  0.13269588922E+03  0.12500000000E+03 0.  0.
          2    1    1    2  502    0 -0.17493779955E+02  0.50098872498E+02 -0.74903342413E+02  0.91795642965E+02  0.00000000000E+00 0. -1.
         -1    1    1    2    0  501  0.97392943848E+01 -0.18383815802E+02  0.30923882496E+01  0.21032864846E+02  0.00000000000E+00 0.  1.
<mgrwt>
<rscale>  0 0.32302372E+02</rscale>
<asrwt>0</asrwt>
<pdfrwt beam="2">  1        2 0.26740079E-01 0.50155193E+02</pdfrwt>
<pdfrwt beam="1">  1       -1 0.11032905E-01 0.20804291E+02</pdfrwt>
<totfact> 0.94248883E+03</totfact>
</mgrwt>
</event>
<event>
 5    1  0.7114032E-003  0.1531544E+03  0.7546771E-02  0.1316724E+00
          2   -1    0    0  502    0  0.00000000000E+00  0.00000000000E+00  0.21368571876E+04  0.21368571876E+04  0.00000000000E+00 0.  1.
         -2   -1    0    0    0  501 -0.00000000000E+00 -0.00000000000E+00 -0.21250883511E+02  0.21250883511E+02  0.00000000000E+00 0. -1.
         25    1    1    2    0    0  0.15978147685E+03 -0.67313723154E+02  0.79819506092E+03  0.82631810639E+03  0.12500000000E+03 0.  0.
          2    1    1    2  502    0 -0.11796877185E+03  0.87955528119E+02  0.10636039991E+04  0.10737347312E+04  0.00000000000E+00 0. -1.
         -2    1    1    2    0  501 -0.41812704996E+02 -0.20641804965E+02  0.25380724402E+03  0.25805523349E+03  0.00000000000E+00 0.  1.
<mgrwt>
<rscale>  0 0.84508214E+02</rscale>
<asrwt>0</asrwt>
<pdfrwt beam="1">  1        2 0.32874709E+00 0.15315440E+03</pdfrwt>
<pdfrwt beam="2">  1       -2 0.32693684E-02 0.46630316E+02</pdfrwt>
<totfact> 0.20517878E+03</totfact>
</mgrwt>
</event>
<event>
 5    1  0.1464666E-002  0.7877057E+02  0.7546771E-02  0.1372213E+00
          2   -1    0    0  502    0  0.00000000000E+00  0.00000000000E+00  0.28355558300E+04  0.28355558300E+04  0.00000000000E+00 0. -1.
         -1   -1    0    0    0  501 -0.00000000000E+00 -0.00000000000E+00 -0.80809352697E+01  0.80809352697E+01  0.00000000000E+00 0.  1.
         25    1    1    2    0    0  0.31154690941E+02 -0.10177209140E+03  0.12878856596E+04  0.12983076082E+04  0.12500000000E+03 0.  0.
          2    1    1    2  502    0 -0.45104669640E+02  0.33584705587E+02  0.94669690449E+03  0.94836564290E+03  0.00000000000E+00 0. -1.
         -1    1    1    2    0  501  0.13949978700E+02  0.68187385809E+02  0.59289233068E+03  0.59696351419E+03  0.00000000000E+00 0.  1.
<mgrwt>
<rscale>  0 0.66555652E+02</rscale>
<asrwt>0</asrwt>
<pdfrwt beam="1">  1        2 0.43623857E+00 0.56234897E+02</pdfrwt>
<pdfrwt beam="2">  1       -1 0.12432231E-02 0.78770567E+02</pdfrwt>
<totfact> 0.43311020E+03</totfact>
</mgrwt>
</event>
<event>
 5    1  0.7114032E-003  0.1122188E+03  0.7546771E-02  0.1324741E+00
          3   -1    0    0  502    0 -0.00000000000E+00  0.00000000000E+00  0.88676898332E+03  0.88676898332E+03  0.00000000000E+00 0. -1.
          2   -1    0    0  501    0  0.00000000000E+00 -0.00000000000E+00 -0.12076469358E+04  0.12076469358E+04  0.00000000000E+00 0. -1.
         25    1    1    2    0    0 -0.12124805072E+03 -0.12770780356E+02 -0.14504790422E+03  0.22699796729E+03  0.12500000000E+03 0.  0.
          2    1    1    2  501    0  0.17791512273E+02  0.56511761100E+02 -0.10170288929E+04  0.10187531035E+04  0.00000000000E+00 0. -1.
          3    1    1    2  502    0  0.10345653845E+03 -0.43740980743E+02  0.84119884455E+03  0.84866484834E+03  0.00000000000E+00 0. -1.
<mgrwt>
<rscale>  0 0.81538580E+02</rscale>
<asrwt>0</asrwt>
<pdfrwt beam="2">  1        2 0.18579184E+00 0.59246241E+02</pdfrwt>
<pdfrwt beam="1">  1        3 0.13642600E+00 0.11221876E+03</pdfrwt>
<totfact> 0.58926443E+00</totfact>
</mgrwt>
</event>
<event>
 5    1  0.7114032E-003  0.5021345E+02  0.7546771E-02  0.1467845E+00
         -1   -1    0    0    0  501 -0.00000000000E+00  0.00000000000E+00  0.11188813960E+02  0.11188813960E+02  0.00000000000E+00 0.  1.
          2   -1    0    0  502    0  0.00000000000E+00 -0.00000000000E+00 -0.28762450270E+04  0.28762450270E+04  0.00000000000E+00 0. -1.
         25    1    1    2    0    0 -0.32719250099E+02  0.37911856317E+02 -0.17559240831E+04  0.17610798516E+04  0.12500000000E+03 0.  0.
          2    1    1    2  502    0  0.40355821412E+02  0.12494578845E+02 -0.10378897989E+04  0.10387492197E+04  0.00000000000E+00 0. -1.
         -1    1    1    2    0  501 -0.76365713129E+01 -0.50406435162E+02 -0.71242331051E+02  0.87604769624E+02  0.00000000000E+00 0.  1.
<mgrwt>
<rscale>  0 0.46057649E+02</rscale>
<asrwt>0</asrwt>
<pdfrwt beam="2">  1        2 0.44249951E+00 0.42245791E+02</pdfrwt>
<pdfrwt beam="1">  1       -1 0.17213549E-02 0.50213454E+02</pdfrwt>
<totfact> 0.25468787E+03</totfact>
</mgrwt>
</event>
<event>
 5    1  0.7114032E-003  0.5938309E+02  0.7546771E-02  0.1503223E+00
          2   -1    0    0  502    0  0.00000000000E+00  0.00000000000E+00  0.59624012852E+03  0.59624012852E+03  0.00000000000E+00 0. -1.
         -1   -1    0    0    0  501 -0.00000000000E+00 -0.00000000000E+00 -0.33417850757E+02  0.33417850757E+02  0.00000000000E+00 0.  1.
         25    1    1    2    0    0 -0.71663713777E+01  0.48048285172E+02  0.50169078845E+03  0.51930592314E+03  0.12500000000E+03 0.  0.
          2    1    1    2  502    0 -0.27823182052E+02  0.17116988678E+01  0.33384510242E+02  0.43492354462E+02  0.00000000000E+00 0. -1.
         -1    1    1    2    0  501  0.34989553430E+02 -0.49759984040E+02  0.27746979065E+02  0.66859701675E+02  0.00000000000E+00 0.  1.
<mgrwt>
<rscale>  0 0.40685997E+02</rscale>
<asrwt>0</asrwt>
<pdfrwt beam="1">  1        2 0.91729243E-01 0.27875785E+02</pdfrwt>
<pdfrwt beam="2">  1       -1 0.51412083E-02 0.59383094E+02</pdfrwt>
<totfact> 0.89225146E+03</totfact>
</mgrwt>
</event>
<event>
 5    1  0.7114032E-003  0.4322157E+02  0.7546771E-02  0.1521811E+00
          2   -1    0    0  502    0  0.00000000000E+00  0.00000000000E+00  0.39569256056E+03  0.39569256056E+03  0.00000000000E+00 0. -1.
         -1   -1    0    0    0  501 -0.00000000000E+00 -0.00000000000E+00 -0.38206629990E+02  0.38206629990E+02  0.00000000000E+00 0.  1.
         25    1    1    2    0    0 -0.13624264544E+02 -0.35207943577E+02  0.30146380770E+03  0.32852800068E+03  0.12500000000E+03 0.  0.
          2    1    1    2  502    0 -0.16631504049E+02  0.50230159391E+02  0.46064595173E+02  0.70154278329E+02  0.00000000000E+00 0. -1.
         -1    1    1    2    0  501  0.30255768592E+02 -0.15022215814E+02  0.99575276982E+01  0.35216911547E+02  0.00000000000E+00 0.  1.
<mgrwt>
<rscale>  0 0.38210185E+02</rscale>
<asrwt>0</asrwt>
<pdfrwt beam="1">  1        2 0.60875776E-01 0.43221568E+02</pdfrwt>
<pdfrwt beam="2">  1       -1 0.58779434E-02 0.33779853E+02</pdfrwt>
<totfact> 0.10506561E+04</totfact>
</mgrwt>
</event>
<event>
 5    1  0.7114032E-003  0.4971571E+02  0.7546771E-02  0.1496008E+00
          1   -1    0    0  501    0  0.00000000000E+00  0.00000000000E+00  0.12458292386E+04  0.12458292386E+04  0.00000000000E+00 0. -1.
          1   -1    0    0  502    0 -0.00000000000E+00 -0.00000000000E+00 -0.20655731029E+02  0.20655731029E+02  0.00000000000E+00 0. -1.
         25    1    1    2    0    0 -0.23518631949E+02  0.35139638312E+01  0.24374148839E+03  0.27495524573E+03  0.12500000000E+03 0.  0.
          1    1    1    2  501    0  0.36127678543E+02 -0.36152730865E+02  0.91517700931E+03  0.91660306975E+03  0.00000000000E+00 0. -1.
          1    1    1    2  502    0 -0.12609046593E+02  0.32638767033E+02  0.66255009879E+02  0.74926654160E+02  0.00000000000E+00 0. -1.
<mgrwt>
<rscale>  0 0.41707751E+02</rscale>
<asrwt>0</asrwt>
<pdfrwt beam="1">  1        1 0.19166598E+00 0.49715712E+02</pdfrwt>
<pdfrwt beam="2">  1        1 0.31778057E-02 0.34989672E+02</pdfrwt>
<totfact> 0.36184539E+03</totfact>
</mgrwt>
</event>
<event>
 5    1  0.7114032E-003  0.8122422E+02  0.7546771E-02  0.1395924E+00
          2   -1    0    0  501    0  0.00000000000E+00  0.00000000000E+00  0.35490583849E+03  0.35490583849E+03  0.00000000000E+00 0. -1.
          1   -1    0    0  502    0 -0.00000000000E+00 -0.00000000000E+00 -0.24654618317E+03  0.24654618317E+03  0.00000000000E+00 0. -1.
         25    1    1    2    0    0  0.47662563464E+02 -0.35714527747E+02 -0.25143370112E+02  0.14072823636E+03  0.12500000000E+03 0.  0.
          2    1    1    2  501    0 -0.30837888135E+02  0.77450176524E+02  0.28799189218E+03  0.29981466800E+03  0.00000000000E+00 0. -1.
          1    1    1    2  502    0 -0.16824675330E+02 -0.41735648778E+02 -0.15448886675E+03  0.16090911729E+03  0.00000000000E+00 0. -1.
<mgrwt>
<rscale>  0 0.60456849E+02</rscale>
<asrwt>0</asrwt>
<pdfrwt beam="1">  1        2 0.54600898E-01 0.81224225E+02</pdfrwt>
<pdfrwt beam="2">  1        1 0.37930182E-01 0.44999268E+02</pdfrwt>
<totfact> 0.13692247E+03</totfact>
</mgrwt>
</event>
<event>
 5    1  0.7114032E-003  0.1196143E+03  0.7546771E-02  0.1391798E+00
         -2   -1    0    0    0  501 -0.00000000000E+00  0.00000000000E+00  0.15485978227E+04  0.15485978227E+04  0.00000000000E+00 0. -1.
          2   -1    0    0  502    0  0.00000000000E+00 -0.00000000000E+00 -0.17403243433E+04  0.17403243433E+04  0.00000000000E+00 0. -1.
         25    1    1    2    0    0  0.59939695825E+02  0.65014926627E+02 -0.98833754293E+03  0.10001278951E+04  0.12500000000E+03 0.  0.
          2    1    1    2  502    0  0.17258069718E+02  0.26448474105E+02 -0.74343445967E+03  0.74410493788E+03  0.00000000000E+00 0. -1.
         -2    1    1    2    0  501 -0.77197765542E+02 -0.91463400733E+02  0.15400454820E+04  0.15446893330E+04  0.00000000000E+00 0. -1.
<mgrwt>
<rscale>  0 0.61461730E+02</rscale>
<asrwt>0</asrwt>
<pdfrwt beam="2">  1        2 0.26774220E+00 0.31581051E+02</pdfrwt>
<pdfrwt beam="1">  1       -2 0.23824582E+00 0.11961427E+03</pdfrwt>
<totfact> 0.11475414E+00</totfact>
</mgrwt>
</event>
<event>
 5    1  0.7114032E-003  0.1205016E+03  0.7546771E-02  0.1356817E+00
          1   -1    0    0  502    0 -0.00000000000E+00  0.00000000000E+00  0.14013604108E+04  0.14013604108E+04  0.00000000000E+00 0. -1.
          2   -1    0    0  501    0  0.00000000000E+00 -0.00000000000E+00 -0.13742981090E+04  0.13742981090E+04  0.00000000000E+00 0. -1.
         25    1    1    2    0    0  0.55451635916E+02  0.61084286885E+02  0.84941203441E+02  0.17218066695E+03  0.12500000000E+03 0.  0.
          2    1    1    2  501    0  0.18004616150E+02  0.37724771667E+02 -0.13273710921E+04  0.13280291190E+04  0.00000000000E+00 0. -1.
          1    1    1    2  502    0 -0.73456252067E+02 -0.98809058552E+02  0.12694921905E+04  0.12754487338E+04  0.00000000000E+00 0. -1.
<mgrwt>
<rscale>  0 0.70972460E+02</rscale>
<asrwt>0</asrwt>
<pdfrwt beam="2">  1        2 0.21143048E+00 0.41801012E+02</pdfrwt>
<pdfrwt beam="1">  1        1 0.21559391E+00 0.12050163E+03</pdfrwt>
<totfact> 0.22569405E+01</totfact>
</mgrwt>
</event>
<event>
 5    1  0.7114032E-003  0.4183153E+02  0.7546771E-02  0.1554891E+00
         -1   -1    0    0    0  502 -0.00000000000E+00  0.00000000000E+00  0.90471347509E+03  0.90471347509E+03  0.00000000000E+00 0.  1.
         -2   -1    0    0    0  501  0.00000000000E+00 -0.00000000000E+00 -0.22380500147E+03  0.22380500147E+03  0.00000000000E+00 0.  1.
         25    1    1    2    0    0 -0.20823468950E+02  0.61599896891E+02 -0.31000743205E+02  0.14427130773E+03  0.12500000000E+03 0.  0.
         -2    1    1    2    0  501  0.20512537064E+01 -0.40653638289E+02 -0.13288764094E+03  0.13898219693E+03  0.00000000000E+00 0.  1.
         -1    1    1    2    0  502  0.18772215244E+02 -0.20946258602E+02  0.84479685777E+03  0.84526497190E+03  0.00000000000E+00 0.  1.
<mgrwt>
<rscale>  0 0.34301685E+02</rscale>
<asrwt>0</asrwt>
<pdfrwt beam="2">  1       -2 0.34431539E-01 0.41831528E+02</pdfrwt>
<pdfrwt beam="1">  1       -1 0.13918669E+00 0.28127243E+02</pdfrwt>
<totfact> 0.30307696E+01</totfact>
</mgrwt>
</event>
<event>
 5    1  0.7114032E-003  0.3316687E+03  0.7546771E-02  0.1110207E+00
          2   -1    0    0  501    0  0.00000000000E+00  0.00000000000E+00  0.16654101939E+04  0.16654101939E+04  0.00000000000E+00 0. -1.
          2   -1    0    0  502    0 -0.00000000000E+00 -0.00000000000E+00 -0.12440813396E+04  0.12440813396E+04  0.00000000000E+00 0. -1.
         25    1    1    2    0    0  0.34412778003E+02  0.14179346416E+03  0.50705229311E+03  0.54223302529E+03  0.12500000000E+03 0.  0.
          2    1    1    2  501    0  0.61447986589E+01  0.19590186753E+03  0.11084232722E+04  0.11256186968E+04  0.00000000000E+00 0. -1.
          2    1    1    2  502    0 -0.40557576662E+02 -0.33769533169E+03 -0.11941467109E+04  0.12416398114E+04  0.00000000000E+00 0. -1.
<mgrwt>
<rscale>  0 0.25496369E+03</rscale>
<asrwt>0</asrwt>
<pdfrwt beam="1">  1        2 0.25621695E+00 0.19599821E+03</pdfrwt>
<pdfrwt beam="2">  1        2 0.19139713E+00 0.33166874E+03</pdfrwt>
<totfact> 0.33497546E+01</totfact>
</mgrwt>
</event>
<event>
 5    1  0.7114032E-003  0.8266775E+02  0.7546771E-02  0.1399079E+00
         -1   -1    0    0    0  501 -0.00000000000E+00  0.00000000000E+00  0.19283690923E+02  0.19283690923E+02  0.00000000000E+00 0.  1.
          2   -1    0    0  502    0  0.00000000000E+00 -0.00000000000E+00 -0.10874145853E+04  0.10874145853E+04  0.00000000000E+00 0. -1.
         25    1    1    2    0    0 -0.95677386234E+02  0.22995110682E+02 -0.49890883272E+03  0.52365824802E+03  0.12500000000E+03 0.  0.
          2    1    1    2  502    0  0.20099236744E+02 -0.38148020107E+02 -0.29704969141E+03  0.30016290564E+03  0.00000000000E+00 0. -1.
         -1    1    1    2    0  501  0.75578149490E+02  0.15152909425E+02 -0.27217237025E+03  0.28287712257E+03  0.00000000000E+00 0.  1.
<mgrwt>
<rscale>  0 0.59703881E+02</rscale>
<asrwt>0</asrwt>
<pdfrwt beam="2">  1        2 0.16729460E+00 0.43119030E+02</pdfrwt>
<pdfrwt beam="1">  1       -1 0.29667208E-02 0.82667754E+02</pdfrwt>
<totfact> 0.99075114E+03</totfact>
</mgrwt>
</event>
<event>
 5    1  0.7114032E-003  0.4287034E+02  0.7546771E-02  0.1493985E+00
         -1   -1    0    0    0  501 -0.00000000000E+00  0.00000000000E+00  0.69802660295E+01  0.69802660295E+01  0.00000000000E+00 0.  1.
          2   -1    0    0  502    0  0.00000000000E+00 -0.00000000000E+00 -0.17774995197E+04  0.17774995197E+04  0.00000000000E+00 0. -1.
         25    1    1    2    0    0  0.24654523564E+02  0.94057585430E+01 -0.94684258711E+03  0.95542252359E+03  0.12500000000E+03 0.  0.
          2    1    1    2  502    0 -0.45570177821E+02  0.26030496828E+02 -0.41193881797E+03  0.41526836820E+03  0.00000000000E+00 0. -1.
         -1    1    1    2    0  501  0.20915654258E+02 -0.35436255371E+02 -0.41173784863E+03  0.41378889398E+03  0.00000000000E+00 0.  1.
<mgrwt>
<rscale>  0 0.42000560E+02</rscale>
<asrwt>0</asrwt>
<pdfrwt beam="2">  1        2 0.27346143E+00 0.42870343E+02</pdfrwt>
<pdfrwt beam="1">  1       -1 0.10738872E-02 0.41148424E+02</pdfrwt>
<totfact> 0.16737565E+04</totfact>
</mgrwt>
</event>
<event>
 5    1  0.7114032E-003  0.1128715E+03  0.7546771E-02  0.1386121E+00
          2   -1    0    0  501    0  0.00000000000E+00  0.00000000000E+00  0.98946829838E+03  0.98946829838E+03  0.00000000000E+00 0. -1.
          1   -1    0    0  502    0 -0.00000000000E+00 -0.00000000000E+00 -0.23873807324E+03  0.23873807324E+03  0.00000000000E+00 0. -1.
         25    1    1    2    0    0  0.12157022026E+03 -0.67606520984E+02  0.22524003166E+02  0.18836743576E+03  0.12500000000E+03 0.  0.
          2    1    1    2  501    0 -0.86673167615E+02  0.70678581600E+02  0.87846244748E+03  0.88555291853E+03  0.00000000000E+00 0. -1.
          1    1    1    2  502    0 -0.34897052649E+02 -0.30720606158E+01 -0.15025622551E+03  0.15428601733E+03  0.00000000000E+00 0. -1.
<mgrwt>
<rscale>  0 0.62881771E+02</rscale>
<asrwt>0</asrwt>
<pdfrwt beam="1">  1        2 0.15222589E+00 0.11287154E+03</pdfrwt>
<pdfrwt beam="2">  1        1 0.36728935E-01 0.35032012E+02</pdfrwt>
<totfact> 0.43469072E+02</totfact>
</mgrwt>
</event>
<event>
 5    1  0.7114032E-003  0.4507302E+02  0.7546771E-02  0.1517963E+00
          2   -1    0    0  502    0  0.00000000000E+00  0.00000000000E+00  0.61536758356E+03  0.61536758356E+03  0.00000000000E+00 0. -1.
         -1   -1    0    0    0  501 -0.00000000000E+00 -0.00000000000E+00 -0.22012771014E+02  0.22012771014E+02  0.00000000000E+00 0.  1.
         25    1    1    2    0    0 -0.31780913442E+02  0.83663049279E+01  0.44390553647E+03  0.46233877928E+03  0.12500000000E+03 0.  0.
          2    1    1    2  502    0  0.41309893543E+02 -0.40207712869E+02  0.10086908803E+03  0.11617977621E+03  0.00000000000E+00 0. -1.
         -1    1    1    2    0  501 -0.95289801009E+01  0.31841407941E+02  0.48580188037E+02  0.58861799082E+02  0.00000000000E+00 0.  1.
<mgrwt>
<rscale>  0 0.38705004E+02</rscale>
<asrwt>0</asrwt>
<pdfrwt beam="1">  1        2 0.94671923E-01 0.45073018E+02</pdfrwt>
<pdfrwt beam="2">  1       -1 0.33865806E-02 0.33236677E+02</pdfrwt>
<totfact> 0.14374789E+04</totfact>
</mgrwt>
</event>
<event>
 5    1  0.7114032E-003  0.1525555E+03  0.7546771E-02  0.1323642E+00
         -2   -1    0    0    0  501 -0.00000000000E+00  0.00000000000E+00  0.80961056101E+03  0.80961056101E+03  0.00000000000E+00 0. -1.
          2   -1    0    0  502    0  0.00000000000E+00 -0.00000000000E+00 -0.54826191659E+03  0.54826191659E+03  0.00000000000E+00 0. -1.
         25    1    1    2    0    0  0.13117633015E+03 -0.14182396164E+03 -0.54622621437E+02  0.23649502418E+03  0.12500000000E+03 0.  0.
          2    1    1    2  502    0 -0.35846617887E+02  0.25529396275E+02 -0.39359738891E+03  0.39605004059E+03  0.00000000000E+00 0. -1.
         -2    1    1    2    0  501 -0.95329712264E+02  0.11629456537E+03  0.70956865477E+03  0.72532741283E+03  0.00000000000E+00 0. -1.
<mgrwt>
<rscale>  0 0.81937212E+02</rscale>
<asrwt>0</asrwt>
<pdfrwt beam="2">  1        2 0.84347987E-01 0.44008296E+02</pdfrwt>
<pdfrwt beam="1">  1       -2 0.12455547E+00 0.15255548E+03</pdfrwt>
<totfact> 0.30428615E+01</totfact>
</mgrwt>
</event>
<event>
 5    1  0.7114032E-003  0.8447910E+02  0.7546771E-02  0.1351014E+00
         -2   -1    0    0    0  501 -0.00000000000E+00  0.00000000000E+00  0.40469841218E+03  0.40469841218E+03  0.00000000000E+00 0.  1.
          1   -1    0    0  502    0  0.00000000000E+00 -0.00000000000E+00 -0.35735637436E+03  0.35735637436E+03  0.00000000000E+00 0. -1.
         25    1    1    2    0    0 -0.27241344975E+02 -0.12180486032E+02 -0.26912238212E+02  0.13130012826E+03  0.12500000000E+03 0.  0.
          1    1    1    2  502    0 -0.61302351332E+02  0.12841374519E+02 -0.26903512461E+03  0.27622957381E+03  0.00000000000E+00 0. -1.
         -2    1    1    2    0  501  0.88543696307E+02 -0.66088848660E+00  0.34328940064E+03  0.35452508447E+03  0.00000000000E+00 0.  1.
<mgrwt>
<rscale>  0 0.72740433E+02</rscale>
<asrwt>0</asrwt>
<pdfrwt beam="2">  1        1 0.54977904E-01 0.62632892E+02</pdfrwt>
<pdfrwt beam="1">  1       -2 0.62261294E-01 0.84479103E+02</pdfrwt>
<totfact> 0.15576614E+02</totfact>
</mgrwt>
</event>
<event>
 5    1  0.7114032E-003  0.5445903E+02  0.7546771E-02  0.1437922E+00
         -2   -1    0    0    0  501 -0.00000000000E+00  0.00000000000E+00  0.10297527167E+02  0.10297527167E+02  0.00000000000E+00 0.  1.
          1   -1    0    0  502    0  0.00000000000E+00 -0.00000000000E+00 -0.17525072012E+04  0.17525072012E+04  0.00000000000E+00 0. -1.
         25    1    1    2    0    0 -0.53252209804E+02 -0.37968469848E+02 -0.62482025750E+03  0.64054879341E+03  0.12500000000E+03 0.  0.
          1    1    1    2  502    0 -0.19774641120E+00  0.48516537689E+02 -0.61870384637E+03  0.62060320902E+03  0.00000000000E+00 0. -1.
         -2    1    1    2    0  501  0.53449956215E+02 -0.10548067841E+02 -0.49868557021E+03  0.50165272599E+03  0.00000000000E+00 0.  1.
<mgrwt>
<rscale>  0 0.51402192E+02</rscale>
<asrwt>0</asrwt>
<pdfrwt beam="2">  1        1 0.26961655E+00 0.48516941E+02</pdfrwt>
<pdfrwt beam="1">  1       -2 0.15842346E-02 0.54459027E+02</pdfrwt>
<totfact> 0.45372270E+03</totfact>
</mgrwt>
</event>
<event>
 5    1  0.7114032E-003  0.1614857E+03  0.7546771E-02  0.1285172E+00
          2   -1    0    0  501    0  0.00000000000E+00  0.00000000000E+00  0.41414979363E+03  0.41414979363E+03  0.00000000000E+00 0. -1.
          1   -1    0    0  502    0 -0.00000000000E+00 -0.00000000000E+00 -0.14173293576E+04  0.14173293576E+04  0.00000000000E+00 0. -1.
         25    1    1    2    0    0  0.12314271991E+03  0.17938294139E+03 -0.30548472725E+03  0.39533313510E+03  0.12500000000E+03 0.  0.
          2    1    1    2  501    0 -0.93984449506E+02 -0.12794274507E+03  0.35129004633E+03  0.38549593956E+03  0.00000000000E+00 0. -1.
          1    1    1    2  502    0 -0.29158270403E+02 -0.51440196320E+02 -0.10489848830E+04  0.10506500766E+04  0.00000000000E+00 0. -1.
<mgrwt>
<rscale>  0 0.97716769E+02</rscale>
<asrwt>0</asrwt>
<pdfrwt beam="1">  1        2 0.63715353E-01 0.16148565E+03</pdfrwt>
<pdfrwt beam="2">  1        1 0.21805067E+00 0.59129506E+02</pdfrwt>
<totfact> 0.98411727E+01</totfact>
</mgrwt>
</event>
<event>
 5    1  0.7114032E-003  0.7196346E+02  0.7546771E-02  0.1447779E+00
          2   -1    0    0  502    0  0.00000000000E+00  0.00000000000E+00  0.11267645748E+04  0.11267645748E+04  0.00000000000E+00 0.  1.
          2   -1    0    0  501    0 -0.00000000000E+00 -0.00000000000E+00 -0.58228307217E+03  0.58228307217E+03  0.00000000000E+00 0.  1.
         25    1    1    2    0    0  0.32834245074E+02  0.19516749209E+02  0.37253279854E+03  0.39479700751E+03  0.12500000000E+03 0.  0.
          2    1    1    2  501    0 -0.59669431244E+02 -0.40586876345E+02 -0.56847707223E+03  0.57303919344E+03  0.00000000000E+00 0.  1.
          2    1    1    2  502    0  0.26835186170E+02  0.21070127137E+02  0.74042577632E+03  0.74121144602E+03  0.00000000000E+00 0.  1.
<mgrwt>
<rscale>  0 0.49550894E+02</rscale>
<asrwt>0</asrwt>
<pdfrwt beam="1">  1        2 0.17334840E+00 0.34118580E+02</pdfrwt>
<pdfrwt beam="2">  1        2 0.89582011E-01 0.71963462E+02</pdfrwt>
<totfact> 0.20896576E+02</totfact>
</mgrwt>
</event>
<event>
 5    1  0.7114032E-003  0.6891879E+02  0.7546771E-02  0.1440314E+00
         -1   -1    0    0    0  501 -0.00000000000E+00  0.00000000000E+00  0.91028637500E+02  0.91028637500E+02  0.00000000000E+00 0.  1.
          2   -1    0    0  502    0  0.00000000000E+00 -0.00000000000E+00 -0.25184796111E+03  0.25184796111E+03  0.00000000000E+00 0. -1.
         25    1    1    2    0    0  0.76689047853E+02 -0.20855884360E+02 -0.17505801974E+03  0.22931743991E+03  0.12500000000E+03 0.  0.
          2    1    1    2  502    0 -0.46308392150E+02  0.43106943684E+02 -0.16005679813E+02  0.65259923104E+02  0.00000000000E+00 0. -1.
         -1    1    1    2    0  501 -0.30380655703E+02 -0.22251059324E+02  0.30244375948E+02  0.48299235589E+02  0.00000000000E+00 0.  1.
<mgrwt>
<rscale>  0 0.50944239E+02</rscale>
<asrwt>0</asrwt>
<pdfrwt beam="2">  1        2 0.38745840E-01 0.68918794E+02</pdfrwt>
<pdfrwt beam="1">  1       -1 0.14004406E-01 0.37657587E+02</pdfrwt>
<totfact> 0.47687935E+03</totfact>
</mgrwt>
</event>
<event>
 5    1  0.7114032E-003  0.1117208E+03  0.7546771E-02  0.1271541E+00
          2   -1    0    0  502    0  0.00000000000E+00  0.00000000000E+00  0.61053236740E+03  0.61053236740E+03  0.00000000000E+00 0. -1.
          2   -1    0    0  501    0 -0.00000000000E+00 -0.00000000000E+00 -0.46863516442E+03  0.46863516442E+03  0.00000000000E+00 0.  1.
         25    1    1    2    0    0 -0.28833900078E+02 -0.16086490970E+03  0.29264971558E+03  0.35773980628E+03  0.12500000000E+03 0.  0.
          2    1    1    2  501    0  0.70411260348E+02  0.67208569598E+02 -0.42115673061E+03  0.43225886822E+03  0.00000000000E+00 0.  1.
          2    1    1    2  502    0 -0.41577360270E+02  0.93656340106E+02  0.27040421802E+03  0.28916885733E+03  0.00000000000E+00 0. -1.
<mgrwt>
<rscale>  0 0.10428188E+03</rscale>
<asrwt>0</asrwt>
<pdfrwt beam="1">  1        2 0.93928057E-01 0.11172082E+03</pdfrwt>
<pdfrwt beam="2">  1        2 0.72097717E-01 0.97338263E+02</pdfrwt>
<totfact> 0.53170975E+02</totfact>
</mgrwt>
</event>
<event>
 5    1  0.7114032E-003  0.7145986E+02  0.7546771E-02  0.1409962E+00
         -1   -1    0    0    0  501 -0.00000000000E+00  0.00000000000E+00  0.89805987257E+02  0.89805987257E+02  0.00000000000E+00 0.  1.
          1   -1    0    0  502    0  0.00000000000E+00 -0.00000000000E+00 -0.29548964108E+03  0.29548964108E+03  0.00000000000E+00 0. -1.
         25    1    1    2    0    0 -0.82560498841E+02  0.75539897980E+02 -0.53740210387E+02  0.17616901648E+03  0.12500000000E+03 0.  0.
          1    1    1    2  502    0  0.53137551336E+02 -0.40455033376E+02 -0.14895308716E+03  0.16323979681E+03  0.00000000000E+00 0. -1.
         -1    1    1    2    0  501  0.29422947504E+02 -0.35084864605E+02 -0.29903562718E+01  0.45886815043E+02  0.00000000000E+00 0.  1.
<mgrwt>
<rscale>  0 0.57202231E+02</rscale>
<asrwt>0</asrwt>
<pdfrwt beam="2">  1        1 0.45459945E-01 0.71459864E+02</pdfrwt>
<pdfrwt beam="1">  1       -1 0.13816306E-01 0.45789273E+02</pdfrwt>
<totfact> 0.29802139E+03</totfact>
</mgrwt>
</event>
<event>
 5    1  0.7114032E-003  0.6125407E+02  0.7546771E-02  0.1453585E+00
          2   -1    0    0  501    0  0.00000000000E+00  0.00000000000E+00  0.33973410121E+03  0.33973410121E+03  0.00000000000E+00 0. -1.
          2   -1    0    0  502    0 -0.00000000000E+00 -0.00000000000E+00 -0.38513831249E+03  0.38513831249E+03  0.00000000000E+00 0. -1.
         25    1    1    2    0    0 -0.87099180227E+02 -0.19886963723E+02  0.10608724887E+03  0.18671171065E+03  0.12500000000E+03 0.  0.
          2    1    1    2  501    0  0.50129934517E+02  0.30297195842E+02  0.18778963100E+03  0.19671267352E+03  0.00000000000E+00 0. -1.
          2    1    1    2  502    0  0.36969245710E+02 -0.10410232119E+02 -0.33928109114E+03  0.34144802953E+03  0.00000000000E+00 0. -1.
<mgrwt>
<rscale>  0 0.48503457E+02</rscale>
<asrwt>0</asrwt>
<pdfrwt beam="1">  1        2 0.52266785E-01 0.61254070E+02</pdfrwt>
<pdfrwt beam="2">  1        2 0.59252048E-01 0.38407005E+02</pdfrwt>
<totfact> 0.12328491E+03</totfact>
</mgrwt>
</event>
<event>
 5    1  0.8943931E-003  0.1392196E+03  0.7546771E-02  0.1380630E+00
          2   -1    0    0  502    0  0.00000000000E+00  0.00000000000E+00  0.12981542799E+04  0.12981542799E+04  0.00000000000E+00 0. -1.
         -1   -1    0    0    0  501 -0.00000000000E+00 -0.00000000000E+00 -0.27793529854E+02  0.27793529854E+02  0.00000000000E+00 0.  1.
         25    1    1    2    0    0 -0.14025921392E+03 -0.74573223340E+02  0.68481464938E+03  0.71402375082E+03  0.12500000000E+03 0.  0.
          2    1    1    2  502    0  0.11331203808E+03  0.62094591314E+02  0.55287757356E+03  0.56777545525E+03  0.00000000000E+00 0. -1.
         -1    1    1    2    0  501  0.26947175841E+02  0.12478632025E+02  0.32668527084E+02  0.44148603657E+02  0.00000000000E+00 0.  1.
<mgrwt>
<rscale>  0 0.64298519E+02</rscale>
<asrwt>0</asrwt>
<pdfrwt beam="1">  1        2 0.19971600E+00 0.13921964E+03</pdfrwt>
<pdfrwt beam="2">  1       -1 0.42759287E-02 0.29696238E+02</pdfrwt>
<totfact> 0.36852680E+03</totfact>
</mgrwt>
</event>
<event>
 5    1  0.7114032E-003  0.6127167E+02  0.7546771E-02  0.1529659E+00
         -2   -1    0    0    0  501 -0.00000000000E+00  0.00000000000E+00  0.24768217650E+03  0.24768217650E+03  0.00000000000E+00 0.  1.
          2   -1    0    0  502    0  0.00000000000E+00 -0.00000000000E+00 -0.42856760906E+04  0.42856760906E+04  0.00000000000E+00 0. -1.
         25    1    1    2    0    0  0.42567247190E+01  0.59522618211E+02 -0.28988272254E+04  0.29021346186E+04  0.12500000000E+03 0.  0.
          2    1    1    2  502    0 -0.26761976755E+02 -0.57250267881E+02 -0.13839526593E+04  0.13853948028E+04  0.00000000000E+00 0. -1.
         -2    1    1    2    0  501  0.22505252036E+02 -0.22723503301E+01  0.24478597060E+03  0.24582884564E+03  0.00000000000E+00 0.  1.
<mgrwt>
<rscale>  0 0.37228289E+02</rscale>
<asrwt>0</asrwt>
<pdfrwt beam="2">  1        2 0.65933479E+00 0.61271666E+02</pdfrwt>
<pdfrwt beam="1">  1       -2 0.38104950E-01 0.22619680E+02</pdfrwt>
<totfact> 0.23532563E+00</totfact>
</mgrwt>
</event>
<event>
 5    1  0.7114032E-003  0.6225559E+02  0.7546771E-02  0.1411781E+00
          2   -1    0    0  502    0  0.00000000000E+00  0.00000000000E+00  0.15736192800E+04  0.15736192800E+04  0.00000000000E+00 0. -1.
         -3   -1    0    0    0  501 -0.00000000000E+00 -0.00000000000E+00 -0.13577426101E+02  0.13577426101E+02  0.00000000000E+00 0.  1.
         25    1    1    2    0    0  0.34039531728E+02 -0.18097597986E+02  0.47038692810E+03  0.48823669966E+03  0.12500000000E+03 0.  0.
          2    1    1    2  502    0 -0.14160045953E+02  0.65952126270E+02  0.89458609551E+03  0.89712567243E+03  0.00000000000E+00 0. -1.
         -3    1    1    2    0  501 -0.19879485774E+02 -0.47854528284E+02  0.19506883032E+03  0.20183433403E+03  0.00000000000E+00 0.  1.
<mgrwt>
<rscale>  0 0.56798301E+02</rscale>
<asrwt>0</asrwt>
<pdfrwt beam="1">  1        2 0.24209513E+00 0.62255589E+02</pdfrwt>
<pdfrwt beam="2">  1       -3 0.20888360E-02 0.51819396E+02</pdfrwt>
<totfact> 0.61347861E+03</totfact>
</mgrwt>
</event>
<event>
 5    1  0.7114032E-003  0.6846759E+02  0.7546771E-02  0.1477882E+00
         -1   -1    0    0    0  501 -0.00000000000E+00  0.00000000000E+00  0.29572954211E+02  0.29572954211E+02  0.00000000000E+00 0.  1.
          2   -1    0    0  502    0  0.00000000000E+00 -0.00000000000E+00 -0.36689455318E+04  0.36689455318E+04  0.00000000000E+00 0. -1.
         25    1    1    2    0    0 -0.34108520859E+02  0.22825630640E+02 -0.19864683221E+04  0.19908203825E+04  0.12500000000E+03 0.  0.
          2    1    1    2  502    0 -0.27709575650E+02  0.80014284749E+01 -0.16364281357E+04  0.16366822803E+04  0.00000000000E+00 0. -1.
         -1    1    1    2    0  501  0.61818096510E+02 -0.30827059114E+02 -0.16476119870E+02  0.71015823277E+02  0.00000000000E+00 0.  1.
<mgrwt>
<rscale>  0 0.44437838E+02</rscale>
<asrwt>0</asrwt>
<pdfrwt beam="2">  1        2 0.56445329E+00 0.28841696E+02</pdfrwt>
<pdfrwt beam="1">  1       -1 0.45496842E-02 0.68467591E+02</pdfrwt>
<totfact> 0.25005786E+02</totfact>
</mgrwt>
</event>
<event>
 5    1  0.7114032E-003  0.9727529E+02  0.7546771E-02  0.1403988E+00
          3   -1    0    0  502    0 -0.00000000000E+00  0.00000000000E+00  0.17153910744E+02  0.17153910744E+02  0.00000000000E+00 0. -1.
          2   -1    0    0  501    0  0.00000000000E+00 -0.00000000000E+00 -0.26156718999E+04  0.26156718999E+04  0.00000000000E+00 0.  1.
         25    1    1    2    0    0  0.58282007416E+02  0.42392222367E+02 -0.14166203284E+04  0.14239494541E+04  0.12500000000E+03 0.  0.
          2    1    1    2  501    0  0.35037041139E+02 -0.38695623446E+01 -0.10017357558E+04  0.10023557713E+04  0.00000000000E+00 0.  1.
          3    1    1    2  502    0 -0.93319048554E+02 -0.38522660022E+02 -0.18016190502E+03  0.20652058537E+03  0.00000000000E+00 0. -1.
<mgrwt>
<rscale>  0 0.58557332E+02</rscale>
<asrwt>0</asrwt>
<pdfrwt beam="2">  1        2 0.40241132E+00 0.35250075E+02</pdfrwt>
<pdfrwt beam="1">  1        3 0.26390615E-02 0.97275289E+02</pdfrwt>
<totfact> 0.15988348E+03</totfact>
</mgrwt>
</event>
<event>
 5    1  0.7114032E-003  0.4971908E+02  0.7546771E-02  0.1475452E+00
          1   -1    0    0  502    0  0.00000000000E+00  0.00000000000E+00  0.37510654139E+03  0.37510654139E+03  0.00000000000E+00 0.  1.
         -1   -1    0    0    0  501 -0.00000000000E+00 -0.00000000000E+00 -0.48414944320E+02  0.48414944320E+02  0.00000000000E+00 0. -1.
         25    1    1    2    0    0 -0.53629820722E+02 -0.29783134966E+02  0.28008970286E+03  0.31279135929E+03  0.12500000000E+03 0.  0.
          1    1    1    2  502    0  0.36620672581E+02 -0.17081365294E+02 -0.28494611025E+01  0.40508840136E+02  0.00000000000E+00 0. -1.
         -1    1    1    2    0  501  0.17009148142E+02  0.46864500260E+02  0.49451355317E+02  0.70221286287E+02  0.00000000000E+00 0.  1.
<mgrwt>
<rscale>  0 0.44822687E+02</rscale>
<asrwt>0</asrwt>
<pdfrwt beam="1">  1        1 0.57708697E-01 0.40408498E+02</pdfrwt>
<pdfrwt beam="2">  1       -1 0.74484532E-02 0.49719078E+02</pdfrwt>
<totfact> 0.56329766E+03</totfact>
</mgrwt>
</event>
<event>
 5    1  0.7114032E-003  0.1237374E+03  0.7546771E-02  0.1401477E+00
          2   -1    0    0  501    0  0.00000000000E+00  0.00000000000E+00  0.50432093019E+03  0.50432093019E+03  0.00000000000E+00 0. -1.
          1   -1    0    0  502    0 -0.00000000000E+00 -0.00000000000E+00 -0.23123291134E+04  0.23123291134E+04  0.00000000000E+00 0. -1.
         25    1    1    2    0    0  0.18010015200E+01  0.12802338306E+03 -0.19772377244E+03  0.26667005907E+03  0.12500000000E+03 0.  0.
          2    1    1    2  501    0  0.27169205706E+02 -0.77969573584E+01  0.46758256001E+03  0.46843613088E+03  0.00000000000E+00 0. -1.
          1    1    1    2  502    0 -0.28970207226E+02 -0.12022642570E+03 -0.20778669707E+04  0.20815438536E+04  0.00000000000E+00 0. -1.
<mgrwt>
<rscale>  0 0.59140017E+02</rscale>
<asrwt>0</asrwt>
<pdfrwt beam="1">  1        2 0.77587837E-01 0.28265850E+02</pdfrwt>
<pdfrwt beam="2">  1        1 0.35574293E+00 0.12373736E+03</pdfrwt>
<totfact> 0.20373759E+01</totfact>
</mgrwt>
</event>
<event>
 5    1  0.7114032E-003  0.4845164E+02  0.7546771E-02  0.1535690E+00
          2   -1    0    0  501    0  0.00000000000E+00  0.00000000000E+00  0.25436429606E+03  0.25436429606E+03  0.00000000000E+00 0. -1.
          2   -1    0    0  502    0 -0.00000000000E+00 -0.00000000000E+00 -0.13318070412E+04  0.13318070412E+04  0.00000000000E+00 0. -1.
         25    1    1    2    0    0  0.45091363342E+02 -0.55007631115E+02 -0.47087542168E+03  0.49234919851E+03  0.12500000000E+03 0.  0.
          2    1    1    2  501    0 -0.75517011223E+01  0.26435381722E+02  0.24219465054E+03  0.24375008994E+03  0.00000000000E+00 0. -1.
          2    1    1    2  502    0 -0.37539662220E+02  0.28572249394E+02 -0.84876197396E+03  0.85007204878E+03  0.00000000000E+00 0. -1.
<mgrwt>
<rscale>  0 0.36497596E+02</rscale>
<asrwt>0</asrwt>
<pdfrwt beam="1">  1        2 0.39132969E-01 0.27492864E+02</pdfrwt>
<pdfrwt beam="2">  1        2 0.20489339E+00 0.48451644E+02</pdfrwt>
<totfact> 0.37423355E+02</totfact>
</mgrwt>
</event>
<event>
 5    1  0.7114032E-003  0.2692470E+02  0.7546771E-02  0.1674704E+00
          1   -1    0    0  502    0  0.00000000000E+00  0.00000000000E+00  0.23007399043E+03  0.23007399043E+03  0.00000000000E+00 0. -1.
         -3   -1    0    0    0  501 -0.00000000000E+00 -0.00000000000E+00 -0.17637782573E+03  0.17637782573E+03  0.00000000000E+00 0.  1.
         25    1    1    2    0    0  0.39916143574E+02 -0.25965991429E+02  0.68706058726E+02  0.15037637359E+03  0.12500000000E+03 0.  0.
          1    1    1    2  502    0 -0.22774666468E+02  0.12953476519E+02  0.11823526338E+03  0.12110349083E+03  0.00000000000E+00 0. -1.
         -3    1    1    2    0  501 -0.17141477106E+02  0.13012514910E+02 -0.13324515740E+03  0.13497195173E+03  0.00000000000E+00 0.  1.
<mgrwt>
<rscale>  0 0.24071723E+02</rscale>
<asrwt>0</asrwt>
<pdfrwt beam="1">  1        1 0.35395998E-01 0.26924695E+02</pdfrwt>
<pdfrwt beam="2">  1       -3 0.27135050E-01 0.21521054E+02</pdfrwt>
<totfact> 0.66802949E+02</totfact>
</mgrwt>
</event>
<event>
 5    1  0.7114032E-003  0.1099534E+03  0.7546771E-02  0.1392308E+00
          2   -1    0    0  502    0  0.00000000000E+00  0.00000000000E+00  0.15715509227E+03  0.15715509227E+03  0.00000000000E+00 0.  1.
         -3   -1    0    0    0  501 -0.00000000000E+00 -0.00000000000E+00 -0.34125937605E+03  0.34125937605E+03  0.00000000000E+00 0.  1.
         25    1    1    2    0    0 -0.73833353095E+02 -0.38047570007E+02  0.10028391659E+00  0.15007995092E+03  0.12500000000E+03 0.  0.
          2    1    1    2  502    0 -0.34215715459E+02 -0.24918676311E-02  0.65338125556E+02  0.73754903849E+02  0.00000000000E+00 0.  1.
         -3    1    1    2    0  501  0.10804906855E+03  0.38050061875E+02 -0.24954269325E+03  0.27457961355E+03  0.00000000000E+00 0.  1.
<mgrwt>
<rscale>  0 0.61336248E+02</rscale>
<asrwt>0</asrwt>
<pdfrwt beam="1">  1        2 0.24177706E-01 0.34215716E+02</pdfrwt>
<pdfrwt beam="2">  1       -3 0.52501443E-01 0.10995343E+03</pdfrwt>
<totfact> 0.45306190E+02</totfact>
</mgrwt>
</event>
<event>
 5    1  0.7114032E-003  0.1470481E+03  0.7546771E-02  0.1298799E+00
          1   -1    0    0  502    0 -0.00000000000E+00  0.00000000000E+00  0.92533895108E+02  0.92533895108E+02  0.00000000000E+00 0. -1.
          2   -1    0    0  501    0  0.00000000000E+00 -0.00000000000E+00 -0.33345629936E+04  0.33345629936E+04  0.00000000000E+00 0.  1.
         25    1    1    2    0    0 -0.40853250117E+02  0.10221963751E+03 -0.23407392839E+03  0.28728634894E+03  0.12500000000E+03 0.  0.
          2    1    1    2  501    0  0.93156468254E+01  0.56413820749E+02 -0.29739963107E+04  0.29745459076E+04  0.00000000000E+00 0.  1.
          1    1    1    2  502    0  0.31537603292E+02 -0.15863345826E+03 -0.33958859382E+02  0.16526463213E+03  0.00000000000E+00 0. -1.
<mgrwt>
<rscale>  0 0.91694513E+02</rscale>
<asrwt>0</asrwt>
<pdfrwt beam="2">  1        2 0.51300965E+00 0.57177797E+02</pdfrwt>
<pdfrwt beam="1">  1        1 0.14235985E-01 0.14704805E+03</pdfrwt>
<totfact> 0.90336858E+01</totfact>
</mgrwt>
</event>
<event>
 5    1  0.7114032E-003  0.7405088E+02  0.7546771E-02  0.1419207E+00
          2   -1    0    0  501    0  0.00000000000E+00  0.00000000000E+00  0.27334338431E+04  0.27334338431E+04  0.00000000000E+00 0. -1.
          1   -1    0    0  502    0 -0.00000000000E+00 -0.00000000000E+00 -0.12390378513E+03  0.12390378513E+03  0.00000000000E+00 0. -1.
         25    1    1    2    0    0  0.32709466660E+01  0.77643583942E+02  0.30201588575E+03  0.33597294603E+03  0.12500000000E+03 0.  0.
          2    1    1    2  501    0 -0.41231243588E+02 -0.61805876903E+02  0.24098900247E+04  0.24110350294E+04  0.00000000000E+00 0. -1.
          1    1    1    2  502    0  0.37960296922E+02 -0.15837707040E+02 -0.10237585250E+03  0.11032965278E+03  0.00000000000E+00 0. -1.
<mgrwt>
<rscale>  0 0.55189121E+02</rscale>
<asrwt>0</asrwt>
<pdfrwt beam="1">  1        2 0.42052824E+00 0.74050884E+02</pdfrwt>
<pdfrwt beam="2">  1        1 0.19062123E-01 0.41131704E+02</pdfrwt>
<totfact> 0.12350122E+02</totfact>
</mgrwt>
</event>
<event>
 5    1  0.7114032E-003  0.1098166E+03  0.7546771E-02  0.1400968E+00
         -1   -1    0    0    0  501 -0.00000000000E+00  0.00000000000E+00  0.37731627355E+02  0.37731627355E+02  0.00000000000E+00 0.  1.
          2   -1    0    0  502    0  0.00000000000E+00 -0.00000000000E+00 -0.75240115187E+03  0.75240115187E+03  0.00000000000E+00 0. -1.
         25    1    1    2    0    0  0.12161841680E+03  0.33997905465E+01 -0.26520197246E+03  0.31742665937E+03  0.12500000000E+03 0.  0.
          2    1    1    2  502    0 -0.10322806071E+03 -0.29559666726E+02 -0.39697346256E+03  0.41123926903E+03  0.00000000000E+00 0. -1.
         -1    1    1    2    0  501 -0.18390356089E+02  0.26159876179E+02 -0.52494089494E+02  0.61466850827E+02  0.00000000000E+00 0.  1.
<mgrwt>
<rscale>  0 0.59259019E+02</rscale>
<asrwt>0</asrwt>
<pdfrwt beam="2">  1        2 0.11575401E+00 0.10981656E+03</pdfrwt>
<pdfrwt beam="1">  1       -1 0.58048662E-02 0.31977247E+02</pdfrwt>
<totfact> 0.51805862E+03</totfact>
</mgrwt>
</event>
<event>
 5    1  0.7114032E-003  0.5178002E+02  0.7546771E-02  0.1546813E+00
          2   -1    0    0  502    0  0.00000000000E+00  0.00000000000E+00  0.61476843295E+02  0.61476843295E+02  0.00000000000E+00 0. -1.
          2   -1    0    0  501    0 -0.00000000000E+00 -0.00000000000E+00 -0.73004913999E+03  0.73004913999E+03  0.00000000000E+00 0. -1.
         25    1    1    2    0    0  0.64411688105E+02  0.28520120511E+02 -0.58801034193E+03  0.60526310399E+03  0.12500000000E+03 0.  0.
          2    1    1    2  501    0 -0.13773936886E+02 -0.19570670663E+02 -0.11942963230E+03  0.12180381586E+03  0.00000000000E+00 0. -1.
          2    1    1    2  502    0 -0.50637751218E+02 -0.89494498478E+01  0.38867677536E+02  0.64459063429E+02  0.00000000000E+00 0. -1.
<mgrwt>
<rscale>  0 0.35202140E+02</rscale>
<asrwt>0</asrwt>
<pdfrwt beam="1">  1        2 0.94579759E-02 0.51780020E+02</pdfrwt>
<pdfrwt beam="2">  1        2 0.11231525E+00 0.23931830E+02</pdfrwt>
<totfact> 0.41054409E+03</totfact>
</mgrwt>
</event>
<event>
 5    1  0.7114032E-003  0.1102911E+03  0.7546771E-02  0.1458936E+00
          2   -1    0    0  502    0  0.00000000000E+00  0.00000000000E+00  0.25209964077E+02  0.25209964077E+02  0.00000000000E+00 0. -1.
         -1   -1    0    0    0  501 -0.00000000000E+00 -0.00000000000E+00 -0.10555067863E+04  0.10555067863E+04  0.00000000000E+00 0.  1.
         25    1    1    2    0    0  0.10358438625E+03  0.39009002435E+02 -0.77785368504E+03  0.79557072764E+03  0.12500000000E+03 0.  0.
          2    1    1    2  502    0 -0.88507521313E+01  0.18505609205E+02 -0.55378043381E+02  0.59055237482E+02  0.00000000000E+00 0. -1.
         -1    1    1    2    0  501 -0.94733634114E+02 -0.57514611641E+02 -0.19706509384E+03  0.22609078529E+03  0.00000000000E+00 0.  1.
<mgrwt>
<rscale>  0 0.47564992E+02</rscale>
<asrwt>0</asrwt>
<pdfrwt beam="1">  1        2 0.38784553E-02 0.20513249E+02</pdfrwt>
<pdfrwt beam="2">  1       -1 0.16238569E+00 0.11029108E+03</pdfrwt>
<totfact> 0.61620713E+02</totfact>
</mgrwt>
</event>
<event>
 5    1  0.7114032E-003  0.1824910E+03  0.7546771E-02  0.1324730E+00
          2   -1    0    0  502    0  0.00000000000E+00  0.00000000000E+00  0.12061386867E+04  0.12061386867E+04  0.00000000000E+00 0. -1.
         -2   -1    0    0    0  501 -0.00000000000E+00 -0.00000000000E+00 -0.51197175810E+03  0.51197175810E+03  0.00000000000E+00 0.  1.
         25    1    1    2    0    0 -0.35955895056E+02  0.20289463691E+03  0.54655395029E+03  0.59733180113E+03  0.12500000000E+03 0.  0.
          2    1    1    2  502    0  0.41099229887E+02 -0.16682386134E+03  0.62184763656E+03  0.64514636363E+03  0.00000000000E+00 0. -1.
         -2    1    1    2    0  501 -0.51433348310E+01 -0.36070775565E+02 -0.47423465824E+03  0.47563228004E+03  0.00000000000E+00 0.  1.
<mgrwt>
<rscale>  0 0.81542459E+02</rscale>
<asrwt>0</asrwt>
<pdfrwt beam="1">  1        2 0.18555980E+00 0.18249098E+03</pdfrwt>
<pdfrwt beam="2">  1       -2 0.78764886E-01 0.36435625E+02</pdfrwt>
<totfact> 0.31452597E+01</totfact>
</mgrwt>
</event>
<event>
 5    1  0.7114032E-003  0.1433323E+03  0.7546771E-02  0.1278458E+00
          2   -1    0    0  502    0  0.00000000000E+00  0.00000000000E+00  0.14016888293E+04  0.14016888293E+04  0.00000000000E+00 0. -1.
         -3   -1    0    0    0  501 -0.00000000000E+00 -0.00000000000E+00 -0.67048048522E+03  0.67048048522E+03  0.00000000000E+00 0.  1.
         25    1    1    2    0    0  0.16498950696E+02  0.13153621903E+03  0.39805279524E+03  0.43777279505E+03  0.12500000000E+03 0.  0.
          2    1    1    2  502    0 -0.86907343440E+02 -0.12238945891E+03  0.97608449188E+03  0.98755911280E+03  0.00000000000E+00 0. -1.
         -3    1    1    2    0  501  0.70408392744E+02 -0.91467601219E+01 -0.64292894299E+03  0.64683740671E+03  0.00000000000E+00 0.  1.
<mgrwt>
<rscale>  0 0.10087913E+03</rscale>
<asrwt>0</asrwt>
<pdfrwt beam="1">  1        2 0.21564443E+00 0.14333230E+03</pdfrwt>
<pdfrwt beam="2">  1       -3 0.10315084E+00 0.71000035E+02</pdfrwt>
<totfact> 0.83252918E+00</totfact>
</mgrwt>
</event>
<event>
 5    1  0.7114032E-003  0.4517848E+02  0.7546771E-02  0.1534066E+00
          2   -1    0    0  501    0  0.00000000000E+00  0.00000000000E+00  0.24528549567E+04  0.24528549567E+04  0.00000000000E+00 0.  1.
          3   -1    0    0  502    0 -0.00000000000E+00 -0.00000000000E+00 -0.24095933129E+02  0.24095933129E+02  0.00000000000E+00 0. -1.
         25    1    1    2    0    0  0.34862247099E+02  0.21758118356E+02  0.15549176512E+04  0.15604751501E+04  0.12500000000E+03 0.  0.
          2    1    1    2  501    0  0.10092191245E+02 -0.28039172580E+02  0.87044800143E+03  0.87095796151E+03  0.00000000000E+00 0.  1.
          3    1    1    2  502    0 -0.44954438344E+02  0.62810542241E+01  0.33933709283E+01  0.45517778233E+02  0.00000000000E+00 0. -1.
<mgrwt>
<rscale>  0 0.36692295E+02</rscale>
<asrwt>0</asrwt>
<pdfrwt beam="1">  1        2 0.37736210E+00 0.29800126E+02</pdfrwt>
<pdfrwt beam="2">  1        3 0.37070686E-02 0.45178484E+02</pdfrwt>
<totfact> 0.10254747E+03</totfact>
</mgrwt>
</event>
<event>
 5    1  0.7114032E-003  0.2023455E+03  0.7546771E-02  0.1363407E+00
         -2   -1    0    0    0  501 -0.00000000000E+00  0.00000000000E+00  0.29912397143E+03  0.29912397143E+03  0.00000000000E+00 0.  1.
          2   -1    0    0  502    0  0.00000000000E+00 -0.00000000000E+00 -0.12003208208E+04  0.12003208208E+04  0.00000000000E+00 0. -1.
         25    1    1    2    0    0 -0.14269283038E+03 -0.12840866936E+03 -0.31707192560E+02  0.23125824584E+03  0.12500000000E+03 0.  0.
          2    1    1    2  502    0  0.22753320641E+01 -0.23442485421E+02 -0.10150201323E+04  0.10152933548E+04  0.00000000000E+00 0. -1.
         -2    1    1    2    0  501  0.14041749832E+03  0.15185115478E+03  0.14553047553E+03  0.25289319158E+03  0.00000000000E+00 0.  1.
<mgrwt>
<rscale>  0 0.69034566E+02</rscale>
<asrwt>0</asrwt>
<pdfrwt beam="2">  1        2 0.18466474E+00 0.23552649E+02</pdfrwt>
<pdfrwt beam="1">  1       -2 0.46019072E-01 0.20234545E+03</pdfrwt>
<totfact> 0.10751280E+02</totfact>
</mgrwt>
</event>
<event>
 5    1  0.7114032E-003  0.1462332E+03  0.7546771E-02  0.1339480E+00
          2   -1    0    0  501    0  0.00000000000E+00  0.00000000000E+00  0.15454994901E+03  0.15454994901E+03  0.00000000000E+00 0. -1.
          3   -1    0    0  502    0 -0.00000000000E+00 -0.00000000000E+00 -0.66210131489E+03  0.66210131489E+03  0.00000000000E+00 0. -1.
         25    1    1    2    0    0  0.64084310433E+02  0.11686276509E+03 -0.29307922360E+03  0.34537535525E+03  0.12500000000E+03 0.  0.
          2    1    1    2  501    0 -0.10284916639E+03 -0.10719000060E+03  0.83652663751E+02  0.17048582172E+03  0.00000000000E+00 0. -1.
          3    1    1    2  502    0  0.38764855952E+02 -0.96727644969E+01 -0.29812480603E+03  0.30079008694E+03  0.00000000000E+00 0. -1.
<mgrwt>
<rscale>  0 0.76436355E+02</rscale>
<asrwt>0</asrwt>
<pdfrwt beam="1">  1        2 0.23776915E-01 0.14623317E+03</pdfrwt>
<pdfrwt beam="2">  1        3 0.10186174E+00 0.39953428E+02</pdfrwt>
<totfact> 0.11561923E+02</totfact>
</mgrwt>
</event>
<event>
 5    1  0.7114032E-003  0.1039044E+03  0.7546771E-02  0.1311283E+00
          1   -1    0    0  501    0  0.00000000000E+00  0.00000000000E+00  0.71137843394E+03  0.71137843394E+03  0.00000000000E+00 0. -1.
          1   -1    0    0  502    0 -0.00000000000E+00 -0.00000000000E+00 -0.33003594398E+03  0.33003594398E+03  0.00000000000E+00 0. -1.
         25    1    1    2    0    0 -0.15209207577E+02 -0.16890403643E+03  0.24289347350E+03  0.32153092073E+03  0.12500000000E+03 0.  0.
          1    1    1    2  501    0  0.25516837197E+02  0.67529034082E+02  0.41704016158E+03  0.42324198256E+03  0.00000000000E+00 0. -1.
          1    1    1    2  502    0 -0.10307629620E+02  0.10137500234E+03 -0.27859114512E+03  0.29664147463E+03  0.00000000000E+00 0. -1.
<mgrwt>
<rscale>  0 0.86607021E+02</rscale>
<asrwt>0</asrwt>
<pdfrwt beam="1">  1        1 0.10944284E+00 0.72189192E+02</pdfrwt>
<pdfrwt beam="2">  1        1 0.50774761E-01 0.10390442E+03</pdfrwt>
<totfact> 0.27257914E+02</totfact>
</mgrwt>
</event>
<event>
 5    1  0.7114032E-003  0.8359920E+02  0.7546771E-02  0.1346050E+00
          1   -1    0    0  501    0  0.00000000000E+00  0.00000000000E+00  0.10955090607E+04  0.10955090607E+04  0.00000000000E+00 0.  1.
          1   -1    0    0  502    0 -0.00000000000E+00 -0.00000000000E+00 -0.26593089005E+03  0.26593089005E+03  0.00000000000E+00 0. -1.
         25    1    1    2    0    0  0.57055488726E+02 -0.56892153775E+02  0.86226492348E+02  0.17190710846E+03  0.12500000000E+03 0.  0.
          1    1    1    2  501    0 -0.59618570436E+02 -0.28397680032E+02  0.95710356950E+03  0.95937898920E+03  0.00000000000E+00 0.  1.
          1    1    1    2  502    0  0.25630817096E+01  0.85289833808E+02 -0.21375189116E+03  0.23015385314E+03  0.00000000000E+00 0. -1.
<mgrwt>
<rscale>  0 0.74300657E+02</rscale>
<asrwt>0</asrwt>
<pdfrwt beam="1">  1        1 0.16853985E+00 0.66036370E+02</pdfrwt>
<pdfrwt beam="2">  1        1 0.40912445E-01 0.83599198E+02</pdfrwt>
<totfact> 0.18319735E+02</totfact>
</mgrwt>
</event>
<event>
 5    1  0.7114032E-003  0.7080167E+02  0.7546771E-02  0.1373718E+00
          2   -1    0    0  501    0  0.00000000000E+00  0.00000000000E+00  0.24720669384E+03  0.24720669384E+03  0.00000000000E+00 0. -1.
          2   -1    0    0  502    0 -0.00000000000E+00 -0.00000000000E+00 -0.14928638468E+04  0.14928638468E+04  0.00000000000E+00 0. -1.
         25    1    1    2    0    0 -0.11799354819E+03  0.54269837112E+02 -0.31857698137E+03  0.36603822983E+03  0.12500000000E+03 0.  0.
          2    1    1    2  501    0  0.54560846085E+02 -0.29008710733E+02  0.21816821408E+03  0.22675043739E+03  0.00000000000E+00 0. -1.
          2    1    1    2  502    0  0.63432702103E+02 -0.25261126379E+02 -0.11452483857E+04  0.11472818735E+04  0.00000000000E+00 0. -1.
<mgrwt>
<rscale>  0 0.66144212E+02</rscale>
<asrwt>0</asrwt>
<pdfrwt beam="1">  1        2 0.38031800E-01 0.61793132E+02</pdfrwt>
<pdfrwt beam="2">  1        2 0.22967136E+00 0.70801667E+02</pdfrwt>
<totfact> 0.31525034E+02</totfact>
</mgrwt>
</event>
<event>
 5    1  0.7114032E-003  0.2196126E+03  0.7546771E-02  0.1239915E+00
          2   -1    0    0  501    0  0.00000000000E+00  0.00000000000E+00  0.63569478091E+03  0.63569478091E+03  0.00000000000E+00 0. -1.
          2   -1    0    0  502    0 -0.00000000000E+00 -0.00000000000E+00 -0.21760298692E+04  0.21760298692E+04  0.00000000000E+00 0. -1.
         25    1    1    2    0    0 -0.15535661944E+03 -0.22887681015E+03 -0.19285763328E+03  0.35963779020E+03  0.12500000000E+03 0.  0.
          2    1    1    2  501    0  0.14123088569E+03  0.16264854656E+03  0.53066804282E+03  0.57272094815E+03  0.00000000000E+00 0. -1.
          2    1    1    2  502    0  0.14125733746E+02  0.66228263589E+02 -0.18781454979E+04  0.18793659118E+04  0.00000000000E+00 0. -1.
<mgrwt>
<rscale>  0 0.12194963E+03</rscale>
<asrwt>0</asrwt>
<pdfrwt beam="1">  1        2 0.97799196E-01 0.21961258E+03</pdfrwt>
<pdfrwt beam="2">  1        2 0.33477383E+00 0.67717939E+02</pdfrwt>
<totfact> 0.52066682E+01</totfact>
</mgrwt>
</event>
<event>
 5    1  0.7114032E-003  0.5769037E+02  0.7546771E-02  0.1459655E+00
          1   -1    0    0  502    0 -0.00000000000E+00  0.00000000000E+00  0.14534937626E+03  0.14534937626E+03  0.00000000000E+00 0. -1.
          2   -1    0    0  501    0  0.00000000000E+00 -0.00000000000E+00 -0.39044723813E+03  0.39044723813E+03  0.00000000000E+00 0. -1.
         25    1    1    2    0    0 -0.19892757203E+02 -0.94120109206E+01 -0.27193113816E+03  0.30009307163E+03  0.12500000000E+03 0.  0.
          2    1    1    2  501    0 -0.38567538713E+02  0.58743212221E+01 -0.93808383817E+02  0.10159712381E+03  0.00000000000E+00 0. -1.
          1    1    1    2  502    0  0.58460295916E+02  0.35376896985E+01  0.12064166012E+03  0.13410641895E+03  0.00000000000E+00 0. -1.
<mgrwt>
<rscale>  0 0.47440872E+02</rscale>
<asrwt>0</asrwt>
<pdfrwt beam="2">  1        2 0.60068806E-01 0.39012340E+02</pdfrwt>
<pdfrwt beam="1">  1        1 0.22361442E-01 0.57690371E+02</pdfrwt>
<totfact> 0.23602063E+03</totfact>
</mgrwt>
</event>
<event>
 5    1  0.7114032E-003  0.1753082E+03  0.7546771E-02  0.1250433E+00
          1   -1    0    0  502    0 -0.00000000000E+00  0.00000000000E+00  0.17237491399E+04  0.17237491399E+04  0.00000000000E+00 0. -1.
          2   -1    0    0  501    0  0.00000000000E+00 -0.00000000000E+00 -0.43243186752E+03  0.43243186752E+03  0.00000000000E+00 0. -1.
         25    1    1    2    0    0 -0.21719461263E+03  0.11974436787E+03 -0.23470418541E+03  0.36362517520E+03  0.12500000000E+03 0.  0.
          2    1    1    2  501    0  0.73124630495E+02 -0.21808761028E+02 -0.11734934224E+03  0.13997750450E+03  0.00000000000E+00 0. -1.
          1    1    1    2  502    0  0.14406998213E+03 -0.97935606838E+02  0.16433708001E+04  0.16525783278E+04  0.00000000000E+00 0. -1.
<mgrwt>
<rscale>  0 0.11566039E+03</rscale>
<asrwt>0</asrwt>
<pdfrwt beam="2">  1        2 0.66527981E-01 0.76307494E+02</pdfrwt>
<pdfrwt beam="1">  1        1 0.26519217E+00 0.17530815E+03</pdfrwt>
<totfact> 0.54122280E+01</totfact>
</mgrwt>
</event>
<event>
 5    1  0.7114032E-003  0.1247824E+03  0.7546771E-02  0.1252789E+00
         -2   -1    0    0    0  501 -0.00000000000E+00  0.00000000000E+00  0.12811130432E+03  0.12811130432E+03  0.00000000000E+00 0.  1.
          2   -1    0    0  502    0  0.00000000000E+00 -0.00000000000E+00 -0.15571437296E+04  0.15571437296E+04  0.00000000000E+00 0. -1.
         25    1    1    2    0    0  0.20563023512E+03 -0.90554688094E+01 -0.19916802873E+03  0.31250391802E+03  0.12500000000E+03 0.  0.
          2    1    1    2  502    0 -0.10989416461E+03  0.51486128627E+02 -0.12583817875E+04  0.12642200251E+04  0.00000000000E+00 0. -1.
         -2    1    1    2    0  501 -0.95736070507E+02 -0.42430659817E+02  0.28517390903E+02  0.10853109081E+03  0.00000000000E+00 0.  1.
<mgrwt>
<rscale>  0 0.11431053E+03</rscale>
<asrwt>0</asrwt>
<pdfrwt beam="2">  1        2 0.23956058E+00 0.12478236E+03</pdfrwt>
<pdfrwt beam="1">  1       -2 0.19709431E-01 0.10471751E+03</pdfrwt>
<totfact> 0.28476572E+02</totfact>
</mgrwt>
</event>
<event>
 5    1  0.7114032E-003  0.5179029E+02  0.7546771E-02  0.1494795E+00
         -1   -1    0    0    0  501 -0.00000000000E+00  0.00000000000E+00  0.29482502621E+02  0.29482502621E+02  0.00000000000E+00 0.  1.
          1   -1    0    0  502    0  0.00000000000E+00 -0.00000000000E+00 -0.45805571695E+03  0.45805571695E+03  0.00000000000E+00 0. -1.
         25    1    1    2    0    0 -0.23835149386E+02 -0.35553762540E+01 -0.31403767301E+03  0.33885899002E+03  0.12500000000E+03 0.  0.
          1    1    1    2  502    0 -0.33415636401E+02  0.55339202014E+01 -0.63449734883E+02  0.71924251026E+02  0.00000000000E+00 0. -1.
         -1    1    1    2    0  501  0.57250785787E+02 -0.19785439474E+01 -0.51085806436E+02  0.76754978526E+02  0.00000000000E+00 0.  1.
<mgrwt>
<rscale>  0 0.41882897E+02</rscale>
<asrwt>0</asrwt>
<pdfrwt beam="2">  1        1 0.70470106E-01 0.33870770E+02</pdfrwt>
<pdfrwt beam="1">  1       -1 0.45357699E-02 0.51790292E+02</pdfrwt>
<totfact> 0.91345157E+03</totfact>
</mgrwt>
</event>
<event>
 5    1  0.7114032E-003  0.5955378E+02  0.7546771E-02  0.1497825E+00
         -2   -1    0    0    0  501 -0.00000000000E+00  0.00000000000E+00  0.68869190694E+02  0.68869190694E+02  0.00000000000E+00 0.  1.
          1   -1    0    0  502    0  0.00000000000E+00 -0.00000000000E+00 -0.30135957447E+03  0.30135957447E+03  0.00000000000E+00 0. -1.
         25    1    1    2    0    0 -0.42614401415E+02  0.65442910291E+02 -0.20987689766E+03  0.25646066733E+03  0.12500000000E+03 0.  0.
          1    1    1    2  502    0  0.27313900569E+02 -0.92740769964E+01 -0.43264078749E+02  0.51998444000E+02  0.00000000000E+00 0. -1.
         -2    1    1    2    0  501  0.15300500846E+02 -0.56168833294E+02  0.20650592627E+02  0.61769653841E+02  0.00000000000E+00 0.  1.
<mgrwt>
<rscale>  0 0.41446992E+02</rscale>
<asrwt>0</asrwt>
<pdfrwt beam="2">  1        1 0.46363011E-01 0.28845410E+02</pdfrwt>
<pdfrwt beam="1">  1       -2 0.10595260E-01 0.59553779E+02</pdfrwt>
<totfact> 0.41864800E+03</totfact>
</mgrwt>
</event>
<event>
 5    1  0.7114032E-003  0.6795264E+02  0.7546771E-02  0.1463089E+00
          1   -1    0    0  502    0  0.00000000000E+00  0.00000000000E+00  0.11526956228E+04  0.11526956228E+04  0.00000000000E+00 0. -1.
         -2   -1    0    0    0  501 -0.00000000000E+00 -0.00000000000E+00 -0.16523746936E+02  0.16523746936E+02  0.00000000000E+00 0.  1.
         25    1    1    2    0    0 -0.79835644087E+02 -0.34553134764E+02  0.46834379475E+03  0.49248203954E+03  0.12500000000E+03 0.  0.
          1    1    1    2  502    0  0.48856648687E+02  0.43718251623E+02  0.56896041421E+03  0.57272524877E+03  0.00000000000E+00 0. -1.
         -2    1    1    2    0  501  0.30978995401E+02 -0.91651168587E+01  0.98867666952E+02  0.10401208147E+03  0.00000000000E+00 0.  1.
<mgrwt>
<rscale>  0 0.46854015E+02</rscale>
<asrwt>0</asrwt>
<pdfrwt beam="1">  1        1 0.17733772E+00 0.67952636E+02</pdfrwt>
<pdfrwt beam="2">  1       -2 0.25421158E-02 0.32306308E+02</pdfrwt>
<totfact> 0.49784857E+03</totfact>
</mgrwt>
</event>
<event>
 5    1  0.7114032E-003  0.7264545E+02  0.7546771E-02  0.1427166E+00
          3   -1    0    0  502    0 -0.00000000000E+00  0.00000000000E+00  0.28432243753E+02  0.28432243753E+02  0.00000000000E+00 0. -1.
          1   -1    0    0  501    0  0.00000000000E+00 -0.00000000000E+00 -0.94482693317E+03  0.94482693317E+03  0.00000000000E+00 0. -1.
         25    1    1    2    0    0 -0.36580629128E+02 -0.11137624832E+02 -0.56531344132E+03  0.58022967525E+03  0.12500000000E+03 0.  0.
          1    1    1    2  501    0 -0.34377109219E+02 -0.19350312855E+02 -0.29489879996E+03  0.29752566690E+03  0.00000000000E+00 0. -1.
          3    1    1    2  502    0  0.70957738348E+02  0.30487937687E+02 -0.56182448135E+02  0.95503834762E+02  0.00000000000E+00 0. -1.
<mgrwt>
<rscale>  0 0.53533048E+02</rscale>
<asrwt>0</asrwt>
<pdfrwt beam="2">  1        1 0.14535798E+00 0.39448957E+02</pdfrwt>
<pdfrwt beam="1">  1        3 0.43741918E-02 0.72645449E+02</pdfrwt>
<totfact> 0.26269090E+03</totfact>
</mgrwt>
</event>
<event>
 5    1  0.7114032E-003  0.4500010E+02  0.7546771E-02  0.1508840E+00
          2   -1    0    0  502    0  0.00000000000E+00  0.00000000000E+00  0.68233442844E+03  0.68233442844E+03  0.00000000000E+00 0. -1.
          2   -1    0    0  501    0 -0.00000000000E+00 -0.00000000000E+00 -0.11752777499E+04  0.11752777499E+04  0.00000000000E+00 0. -1.
         25    1    1    2    0    0  0.41954473939E+02  0.67615486286E+02 -0.18279086844E+03  0.23530731705E+03  0.12500000000E+03 0.  0.
          2    1    1    2  501    0 -0.25484948010E+02 -0.36275327787E+02 -0.96524188439E+03  0.96625942550E+03  0.00000000000E+00 0. -1.
          2    1    1    2  502    0 -0.16469525929E+02 -0.31340158499E+02  0.65508943134E+03  0.65604543583E+03  0.00000000000E+00 0. -1.
<mgrwt>
<rscale>  0 0.39914762E+02</rscale>
<asrwt>0</asrwt>
<pdfrwt beam="1">  1        2 0.10497453E+00 0.35404107E+02</pdfrwt>
<pdfrwt beam="2">  1        2 0.18081196E+00 0.45000096E+02</pdfrwt>
<totfact> 0.16527461E+02</totfact>
</mgrwt>
</event>
<event>
 5    1  0.7114032E-003  0.1043446E+03  0.7546771E-02  0.1317371E+00
         -1   -1    0    0    0  501 -0.00000000000E+00  0.00000000000E+00  0.22073551683E+03  0.22073551683E+03  0.00000000000E+00 0.  1.
          2   -1    0    0  502    0  0.00000000000E+00 -0.00000000000E+00 -0.19320326675E+04  0.19320326675E+04  0.00000000000E+00 0.  1.
         25    1    1    2    0    0 -0.70091664066E+02 -0.14498106340E+03 -0.38402671218E+03  0.43478024999E+03  0.12500000000E+03 0.  0.
          2    1    1    2  502    0  0.21634872778E+01  0.68011879906E+02 -0.15083228806E+04  0.15098570160E+04  0.00000000000E+00 0.  1.
         -1    1    1    2    0  501  0.67928176788E+02  0.76969183491E+02  0.18105244209E+03  0.20813091841E+03  0.00000000000E+00 0.  1.
<mgrwt>
<rscale>  0 0.84263062E+02</rscale>
<asrwt>0</asrwt>
<pdfrwt beam="2">  1        2 0.29723580E+00 0.68046282E+02</pdfrwt>
<pdfrwt beam="1">  1       -1 0.33959310E-01 0.10434462E+03</pdfrwt>
<totfact> 0.87497418E+01</totfact>
</mgrwt>
</event>
<event>
 5    1  0.7114032E-003  0.1055162E+03  0.7546771E-02  0.1393636E+00
          2   -1    0    0  502    0  0.00000000000E+00  0.00000000000E+00  0.14299575340E+04  0.14299575340E+04  0.00000000000E+00 0.  1.
         -3   -1    0    0    0  501 -0.00000000000E+00 -0.00000000000E+00 -0.26923548673E+03  0.26923548673E+03  0.00000000000E+00 0.  1.
         25    1    1    2    0    0  0.93248621215E+02 -0.53297436516E+02  0.74672564726E+03  0.76469609282E+03  0.12500000000E+03 0.  0.
          2    1    1    2  502    0  0.10485098971E+02  0.33683683946E+02  0.66305201826E+03  0.66398983936E+03  0.00000000000E+00 0.  1.
         -3    1    1    2    0  501 -0.10373372019E+03  0.19613752570E+02 -0.24905561823E+03  0.27050708857E+03  0.00000000000E+00 0.  1.
<mgrwt>
<rscale>  0 0.61011374E+02</rscale>
<asrwt>0</asrwt>
<pdfrwt beam="1">  1        2 0.21999346E+00 0.35277866E+02</pdfrwt>
<pdfrwt beam="2">  1       -3 0.41420845E-01 0.10551624E+03</pdfrwt>
<totfact> 0.60706812E+01</totfact>
</mgrwt>
</event>
<event>
 5    1  0.8011828E-003  0.8187099E+02  0.7546771E-02  0.1441055E+00
          2   -1    0    0  502    0  0.00000000000E+00  0.00000000000E+00  0.20923079013E+04  0.20923079013E+04  0.00000000000E+00 0. -1.
         -1   -1    0    0    0  501 -0.00000000000E+00 -0.00000000000E+00 -0.98023344011E+01  0.98023344011E+01  0.00000000000E+00 0.  1.
         25    1    1    2    0    0 -0.88087906183E+02  0.42526946137E+02  0.12512853887E+04  0.12613120725E+04  0.12500000000E+03 0.  0.
          2    1    1    2  502    0  0.75332321862E+02 -0.13697605049E+02  0.74626018692E+03  0.75017787869E+03  0.00000000000E+00 0. -1.
         -1    1    1    2    0  501  0.12755584321E+02 -0.28829341087E+02  0.84959991318E+02  0.90620284504E+02  0.00000000000E+00 0.  1.
<mgrwt>
<rscale>  0 0.50803505E+02</rscale>
<asrwt>0</asrwt>
<pdfrwt beam="1">  1        2 0.32189317E+00 0.81870986E+02</pdfrwt>
<pdfrwt beam="2">  1       -1 0.15080531E-02 0.31525162E+02</pdfrwt>
<totfact> 0.64965365E+03</totfact>
</mgrwt>
</event>
<event>
 5    1  0.7114032E-003  0.1147913E+03  0.7546771E-02  0.1381125E+00
         -2   -1    0    0    0  501 -0.00000000000E+00  0.00000000000E+00  0.19193132197E+04  0.19193132197E+04  0.00000000000E+00 0.  1.
          2   -1    0    0  502    0  0.00000000000E+00 -0.00000000000E+00 -0.17922067735E+02  0.17922067735E+02  0.00000000000E+00 0. -1.
         25    1    1    2    0    0 -0.74231721400E+02 -0.94616340095E+02  0.14819901674E+04  0.14921067175E+04  0.12500000000E+03 0.  0.
          2    1    1    2  502    0 -0.15352482716E+02  0.32419316186E+02  0.63951258017E+02  0.73324444692E+02  0.00000000000E+00 0. -1.
         -2    1    1    2    0  501  0.89584204116E+02  0.62197023908E+02  0.35544972657E+03  0.37180412522E+03  0.00000000000E+00 0.  1.
<mgrwt>
<rscale>  0 0.64168931E+02</rscale>
<asrwt>0</asrwt>
<pdfrwt beam="2">  1        2 0.27572427E-02 0.35870751E+02</pdfrwt>
<pdfrwt beam="1">  1       -2 0.29527879E+00 0.11479134E+03</pdfrwt>
<totfact> 0.11897781E+02</totfact>
</mgrwt>
</event>
<event>
 5    1  0.7114032E-003  0.1277115E+03  0.7546771E-02  0.1302558E+00
          1   -1    0    0  501    0  0.00000000000E+00  0.00000000000E+00  0.71359535771E+03  0.71359535771E+03  0.00000000000E+00 0. -1.
          1   -1    0    0  502    0 -0.00000000000E+00 -0.00000000000E+00 -0.23132969337E+03  0.23132969337E+03  0.00000000000E+00 0. -1.
         25    1    1    2    0    0  0.22393112935E+01  0.17754158272E+03  0.17712830005E+03  0.28022395113E+03  0.12500000000E+03 0.  0.
          1    1    1    2  501    0  0.26909388578E+02 -0.57621878713E+02  0.46129857099E+03  0.46566164508E+03  0.00000000000E+00 0. -1.
          1    1    1    2  502    0 -0.29148699871E+02 -0.11991970400E+03 -0.15616120670E+03  0.19903945486E+03  0.00000000000E+00 0. -1.
<mgrwt>
<rscale>  0 0.90121517E+02</rscale>
<asrwt>0</asrwt>
<pdfrwt beam="1">  1        1 0.10978390E+00 0.63595567E+02</pdfrwt>
<pdfrwt beam="2">  1        1 0.35589184E-01 0.12771154E+03</pdfrwt>
<totfact> 0.42280826E+02</totfact>
</mgrwt>
</event>
<event>
 5    1  0.7114032E-003  0.1138266E+03  0.7546771E-02  0.1322216E+00
          1   -1    0    0  502    0 -0.00000000000E+00  0.00000000000E+00  0.30612643312E+03  0.30612643312E+03  0.00000000000E+00 0. -1.
          2   -1    0    0  501    0  0.00000000000E+00 -0.00000000000E+00 -0.11614532910E+04  0.11614532910E+04  0.00000000000E+00 0.  1.
         25    1    1    2    0    0  0.30662068088E+02 -0.47153119067E+02 -0.29674071849E+03  0.32686944346E+03  0.12500000000E+03 0.  0.
          2    1    1    2  501    0  0.34033581901E+02 -0.49091478021E+02 -0.83699009103E+03  0.83911898465E+03  0.00000000000E+00 0.  1.
          1    1    1    2  502    0 -0.64695649989E+02  0.96244597088E+02  0.27840395159E+03  0.30159129606E+03  0.00000000000E+00 0. -1.
<mgrwt>
<rscale>  0 0.82458613E+02</rscale>
<asrwt>0</asrwt>
<pdfrwt beam="2">  1        2 0.17868512E+00 0.59734897E+02</pdfrwt>
<pdfrwt beam="1">  1        1 0.47096374E-01 0.11382664E+03</pdfrwt>
<totfact> 0.26962051E+02</totfact>
</mgrwt>
</event>
<event>
 5    1  0.7114032E-003  0.1205230E+03  0.7546771E-02  0.1418900E+00
         -1   -1    0    0    0  501 -0.00000000000E+00  0.00000000000E+00  0.15121470082E+03  0.15121470082E+03  0.00000000000E+00 0.  1.
          2   -1    0    0  502    0  0.00000000000E+00 -0.00000000000E+00 -0.14023068851E+04  0.14023068851E+04  0.00000000000E+00 0. -1.
         25    1    1    2    0    0  0.11545349482E+03  0.39687426187E+02  0.15313690047E+02  0.17539700786E+03  0.12500000000E+03 0.  0.
          2    1    1    2  502    0 -0.11965196713E+03 -0.14706233143E+02 -0.13164903905E+04  0.13219984171E+04  0.00000000000E+00 0. -1.
         -1    1    1    2    0  501  0.41984723035E+01 -0.24981193044E+02  0.50084516212E+02  0.56126160921E+02  0.00000000000E+00 0.  1.
<mgrwt>
<rscale>  0 0.55254266E+02</rscale>
<asrwt>0</asrwt>
<pdfrwt beam="2">  1        2 0.21573953E+00 0.12052300E+03</pdfrwt>
<pdfrwt beam="1">  1       -1 0.23263799E-01 0.25331545E+02</pdfrwt>
<totfact> 0.27217748E+02</totfact>
</mgrwt>
</event>
<event>
 5    1  0.7114032E-003  0.9001826E+02  0.7546771E-02  0.1357923E+00
         -2   -1    0    0    0  501 -0.00000000000E+00  0.00000000000E+00  0.84254495595E+01  0.84254495595E+01  0.00000000000E+00 0.  1.
          1   -1    0    0  502    0  0.00000000000E+00 -0.00000000000E+00 -0.34896001587E+04  0.34896001587E+04  0.00000000000E+00 0. -1.
         25    1    1    2    0    0 -0.10875729617E+03 -0.79420516118E+02 -0.19397322952E+04  0.19484152907E+04  0.12500000000E+03 0.  0.
          1    1    1    2  502    0  0.46103239737E+02  0.30784691504E+02 -0.10783982499E+04  0.10798222036E+04  0.00000000000E+00 0. -1.
         -2    1    1    2    0  501  0.62654056433E+02  0.48635824614E+02 -0.46304416403E+03  0.46978811401E+03  0.00000000000E+00 0.  1.
<mgrwt>
<rscale>  0 0.70642040E+02</rscale>
<asrwt>0</asrwt>
<pdfrwt beam="2">  1        1 0.53686176E+00 0.55436504E+02</pdfrwt>
<pdfrwt beam="1">  1       -2 0.12962225E-02 0.90018263E+02</pdfrwt>
<totfact> 0.47896318E+02</totfact>
</mgrwt>
</event>
<event>
 5    1  0.7114032E-003  0.3561400E+02  0.7546771E-02  0.1570473E+00
          1   -1    0    0  502    0  0.00000000000E+00  0.00000000000E+00  0.70268265690E+02  0.70268265690E+02  0.00000000000E+00 0. -1.
         -2   -1    0    0    0  501 -0.00000000000E+00 -0.00000000000E+00 -0.17877972948E+03  0.17877972948E+03  0.00000000000E+00 0.  1.
         25    1    1    2    0    0 -0.74217508280E+01 -0.67869913535E+01 -0.11139432036E+03  0.16773443369E+03  0.12500000000E+03 0.  0.
          1    1    1    2  502    0 -0.15505828315E+02 -0.32061293118E+02  0.59169521475E+01  0.36102182079E+02  0.00000000000E+00 0. -1.
         -2    1    1    2    0  501  0.22927579143E+02  0.38848284471E+02 -0.30340955832E+01  0.45211379405E+02  0.00000000000E+00 0.  1.
<mgrwt>
<rscale>  0 0.32654539E+02</rscale>
<asrwt>0</asrwt>
<pdfrwt beam="1">  1        1 0.10810503E-01 0.35614003E+02</pdfrwt>
<pdfrwt beam="2">  1       -2 0.27504573E-01 0.29941002E+02</pdfrwt>
<totfact> 0.50215780E+03</totfact>
</mgrwt>
</event>
<event>
 5    1  0.7114032E-003  0.5050241E+02  0.7546771E-02  0.1464092E+00
         -2   -1    0    0    0  501 -0.00000000000E+00  0.00000000000E+00  0.25895595945E+02  0.25895595945E+02  0.00000000000E+00 0.  1.
          2   -1    0    0  502    0  0.00000000000E+00 -0.00000000000E+00 -0.20834600171E+04  0.20834600171E+04  0.00000000000E+00 0. -1.
         25    1    1    2    0    0 -0.14563792575E+02 -0.80687252772E+02 -0.42254777227E+03  0.44821217818E+03  0.12500000000E+03 0.  0.
          2    1    1    2  502    0  0.29425343421E+02  0.40171790482E+02 -0.16109728970E+04  0.16117423177E+04  0.00000000000E+00 0. -1.
         -2    1    1    2    0  501 -0.14861550847E+02  0.40515462290E+02 -0.24043751859E+02  0.49401117210E+02  0.00000000000E+00 0.  1.
<mgrwt>
<rscale>  0 0.46684470E+02</rscale>
<asrwt>0</asrwt>
<pdfrwt beam="2">  1        2 0.32053229E+00 0.50502406E+02</pdfrwt>
<pdfrwt beam="1">  1       -2 0.39839381E-02 0.43155166E+02</pdfrwt>
<totfact> 0.18520951E+03</totfact>
</mgrwt>
</event>
<event>
 5    1  0.7114032E-003  0.5238171E+02  0.7546771E-02  0.1439685E+00
          3   -1    0    0  502    0 -0.00000000000E+00  0.00000000000E+00  0.13863072105E+03  0.13863072105E+03  0.00000000000E+00 0. -1.
          1   -1    0    0  501    0  0.00000000000E+00 -0.00000000000E+00 -0.17535811541E+03  0.17535811541E+03  0.00000000000E+00 0. -1.
         25    1    1    2    0    0  0.19159400078E+02 -0.51444266647E+02 -0.87116326312E+02  0.16195014508E+03  0.12500000000E+03 0.  0.
          1    1    1    2  501    0  0.32684152186E+02  0.37546691301E+02 -0.27939846101E+02  0.57084523576E+02  0.00000000000E+00 0. -1.
          3    1    1    2  502    0 -0.51843552264E+02  0.13897575347E+02  0.78328778054E+02  0.94954167804E+02  0.00000000000E+00 0. -1.
<mgrwt>
<rscale>  0 0.51064081E+02</rscale>
<asrwt>0</asrwt>
<pdfrwt beam="2">  1        1 0.26978172E-01 0.49779593E+02</pdfrwt>
<pdfrwt beam="1">  1        3 0.21327803E-01 0.52381713E+02</pdfrwt>
<totfact> 0.16003923E+03</totfact>
</mgrwt>
</event>
<event>
 5    1  0.7114032E-003  0.1860677E+03  0.7546771E-02  0.1260734E+00
          2   -1    0    0  502    0  0.00000000000E+00  0.00000000000E+00  0.10709785913E+04  0.10709785913E+04  0.00000000000E+00 0. -1.
         -2   -1    0    0    0  501 -0.00000000000E+00 -0.00000000000E+00 -0.11118417518E+04  0.11118417518E+04  0.00000000000E+00 0. -1.
         25    1    1    2    0    0 -0.14790941393E+02 -0.21204215333E+03 -0.11908137859E+03  0.27383575636E+03  0.12500000000E+03 0.  0.
          2    1    1    2  502    0 -0.41948357739E+02  0.18048382696E+03  0.98379027674E+03  0.10010881006E+04  0.00000000000E+00 0. -1.
         -2    1    1    2    0  501  0.56739299132E+02  0.31558326364E+02 -0.90557205864E+03  0.90789648607E+03  0.00000000000E+00 0. -1.
<mgrwt>
<rscale>  0 0.10991122E+03</rscale>
<asrwt>0</asrwt>
<pdfrwt beam="1">  1        2 0.16476594E+00 0.18606772E+03</pdfrwt>
<pdfrwt beam="2">  1       -2 0.17105258E+00 0.64925157E+02</pdfrwt>
<totfact> 0.59832608E+00</totfact>
</mgrwt>
</event>
<event>
 5    1  0.7114032E-003  0.5509823E+02  0.7546771E-02  0.1557735E+00
         -2   -1    0    0    0  501 -0.00000000000E+00  0.00000000000E+00  0.27620349956E+02  0.27620349956E+02  0.00000000000E+00 0.  1.
          1   -1    0    0  502    0  0.00000000000E+00 -0.00000000000E+00 -0.53631693714E+03  0.53631693714E+03  0.00000000000E+00 0. -1.
         25    1    1    2    0    0  0.52041236104E+02  0.34109816315E+02 -0.31003603287E+03  0.34002810399E+03  0.12500000000E+03 0.  0.
          1    1    1    2  502    0 -0.18970735557E+02  0.89389549574E+01 -0.14857706669E+03  0.15004978664E+03  0.00000000000E+00 0. -1.
         -2    1    1    2    0  501 -0.33070500547E+02 -0.43048771272E+02 -0.50083487622E+02  0.73859396470E+02  0.00000000000E+00 0.  1.
<mgrwt>
<rscale>  0 0.33992342E+02</rscale>
<asrwt>0</asrwt>
<pdfrwt beam="2">  1        1 0.82510305E-01 0.20971259E+02</pdfrwt>
<pdfrwt beam="1">  1       -2 0.42492843E-02 0.55098232E+02</pdfrwt>
<totfact> 0.82525555E+03</totfact>
</mgrwt>
</event>
<event>
 5    1  0.7114032E-003  0.7104760E+02  0.7546771E-02  0.1440072E+00
          2   -1    0    0  501    0  0.00000000000E+00  0.00000000000E+00  0.51652647794E+03  0.51652647794E+03  0.00000000000E+00 0. -1.
          2   -1    0    0  502    0 -0.00000000000E+00 -0.00000000000E+00 -0.23709753411E+03  0.23709753411E+03  0.00000000000E+00 0. -1.
         25    1    1    2    0    0 -0.16739854919E+02 -0.33284957292E+02 -0.49317761017E+02  0.13944659435E+03  0.12500000000E+03 0.  0.
          2    1    1    2  501    0  0.45566027315E+02  0.55829889570E+02  0.46630185625E+03  0.47183753619E+03  0.00000000000E+00 0. -1.
          2    1    1    2  502    0 -0.28826172396E+02 -0.22544932278E+02 -0.13755515141E+03  0.14233988150E+03  0.00000000000E+00 0. -1.
<mgrwt>
<rscale>  0 0.50990336E+02</rscale>
<asrwt>0</asrwt>
<pdfrwt beam="1">  1        2 0.79465612E-01 0.71047604E+02</pdfrwt>
<pdfrwt beam="2">  1        2 0.36476544E-01 0.36595385E+02</pdfrwt>
<totfact> 0.12965931E+03</totfact>
</mgrwt>
</event>
<event>
 5    1  0.7114032E-003  0.9899633E+02  0.7546771E-02  0.1364930E+00
          1   -1    0    0  502    0 -0.00000000000E+00  0.00000000000E+00  0.17891659471E+03  0.17891659471E+03  0.00000000000E+00 0. -1.
          2   -1    0    0  501    0  0.00000000000E+00 -0.00000000000E+00 -0.45453378729E+03  0.45453378729E+03  0.00000000000E+00 0.  1.
         25    1    1    2    0    0  0.62924341424E+02  0.43841392413E+02  0.11539332296E+03  0.18660696508E+03  0.12500000000E+03 0.  0.
          2    1    1    2  501    0 -0.46965524191E+02 -0.88615027415E+02 -0.38626689887E+03  0.39907455533E+03  0.00000000000E+00 0.  1.
          1    1    1    2  502    0 -0.15958817233E+02  0.44773635003E+02 -0.47436166518E+01  0.47768861592E+02  0.00000000000E+00 0. -1.
<mgrwt>
<rscale>  0 0.68597139E+02</rscale>
<asrwt>0</asrwt>
<pdfrwt beam="2">  1        2 0.69928275E-01 0.98996325E+02</pdfrwt>
<pdfrwt beam="1">  1        1 0.27525630E-01 0.47532749E+02</pdfrwt>
<totfact> 0.15483732E+03</totfact>
</mgrwt>
</event>
<event>
 5    1  0.7114032E-003  0.4209763E+02  0.7546771E-02  0.1552006E+00
          1   -1    0    0  502    0  0.00000000000E+00  0.00000000000E+00  0.33291911847E+03  0.33291911847E+03  0.00000000000E+00 0. -1.
         -2   -1    0    0    0  501 -0.00000000000E+00 -0.00000000000E+00 -0.42230331632E+02  0.42230331632E+02  0.00000000000E+00 0.  1.
         25    1    1    2    0    0  0.10053728588E+02 -0.26125335016E+02  0.84193621908E+02  0.15328788784E+03  0.12500000000E+03 0.  0.
          1    1    1    2  502    0 -0.38127014808E+02  0.21390985632E+02  0.17024276717E+03  0.17576644531E+03  0.00000000000E+00 0. -1.
         -2    1    1    2    0  501  0.28073286220E+02  0.47343493842E+01  0.36252397761E+02  0.46095116950E+02  0.00000000000E+00 0.  1.
<mgrwt>
<rscale>  0 0.34619457E+02</rscale>
<asrwt>0</asrwt>
<pdfrwt beam="1">  1        1 0.51218324E-01 0.42097635E+02</pdfrwt>
<pdfrwt beam="2">  1       -2 0.64969743E-02 0.28469694E+02</pdfrwt>
<totfact> 0.72241001E+03</totfact>
</mgrwt>
</event>
<event>
 5    1  0.7114032E-003  0.7794252E+02  0.7546771E-02  0.1479596E+00
          1   -1    0    0  502    0  0.00000000000E+00  0.00000000000E+00  0.51607661085E+03  0.51607661085E+03  0.00000000000E+00 0. -1.
         -2   -1    0    0    0  501 -0.00000000000E+00 -0.00000000000E+00 -0.32644464469E+02  0.32644464469E+02  0.00000000000E+00 0.  1.
         25    1    1    2    0    0  0.21395730621E+02  0.69007816109E+02  0.33208836746E+03  0.36211536804E+03  0.12500000000E+03 0.  0.
          1    1    1    2  502    0  0.24843484071E+02 -0.30518728614E+01  0.58865354062E+02  0.63965948266E+02  0.00000000000E+00 0. -1.
         -2    1    1    2    0  501 -0.46239214692E+02 -0.65955943247E+02  0.92478424862E+02  0.12263975901E+03  0.00000000000E+00 0.  1.
<mgrwt>
<rscale>  0 0.44169214E+02</rscale>
<asrwt>0</asrwt>
<pdfrwt beam="1">  1        1 0.79396395E-01 0.25030234E+02</pdfrwt>
<pdfrwt beam="2">  1       -2 0.50222257E-02 0.77942519E+02</pdfrwt>
<totfact> 0.70030041E+03</totfact>
</mgrwt>
</event>
<event>
 5    1  0.7114032E-003  0.7358194E+02  0.7546771E-02  0.1375028E+00
          2   -1    0    0  501    0  0.00000000000E+00  0.00000000000E+00  0.21577945100E+04  0.21577945100E+04  0.00000000000E+00 0. -1.
          1   -1    0    0  502    0 -0.00000000000E+00 -0.00000000000E+00 -0.24337059770E+03  0.24337059770E+03  0.00000000000E+00 0. -1.
         25    1    1    2    0    0  0.24834259987E+02  0.10395954121E+03  0.53159218534E+03  0.55645267381E+03  0.12500000000E+03 0.  0.
          2    1    1    2  501    0 -0.47815866801E+02 -0.34257632830E+02  0.16073894530E+04  0.16084653543E+04  0.00000000000E+00 0. -1.
          1    1    1    2  502    0  0.22981606814E+02 -0.69701908381E+02 -0.22455772602E+03  0.23624707956E+03  0.00000000000E+00 0. -1.
<mgrwt>
<rscale>  0 0.65788933E+02</rscale>
<asrwt>0</asrwt>
<pdfrwt beam="1">  1        2 0.33196837E+00 0.58821276E+02</pdfrwt>
<pdfrwt beam="2">  1        1 0.37441632E-01 0.73581941E+02</pdfrwt>
<totfact> 0.11305179E+02</totfact>
</mgrwt>
</event>
<event>
 5    1  0.7114032E-003  0.2285159E+03  0.7546771E-02  0.1245092E+00
          2   -1    0    0  501    0  0.00000000000E+00  0.00000000000E+00  0.94620263398E+03  0.94620263398E+03  0.00000000000E+00 0.  1.
          1   -1    0    0  502    0 -0.00000000000E+00 -0.00000000000E+00 -0.25336333569E+03  0.25336333569E+03  0.00000000000E+00 0. -1.
         25    1    1    2    0    0 -0.18144842379E+03  0.21858013885E+03  0.21754617618E+02  0.31112549073E+03  0.12500000000E+03 0.  0.
          2    1    1    2  501    0  0.14072441383E+03 -0.17214929878E+03  0.75340390681E+03  0.78552924103E+03  0.00000000000E+00 0.  1.
          1    1    1    2  502    0  0.40724009956E+02 -0.46430840070E+02 -0.82319226128E+02  0.10291123790E+03  0.00000000000E+00 0. -1.
<mgrwt>
<rscale>  0 0.11879852E+03</rscale>
<asrwt>0</asrwt>
<pdfrwt beam="1">  1        2 0.14556963E+00 0.22851594E+03</pdfrwt>
<pdfrwt beam="2">  1        1 0.38978975E-01 0.61759760E+02</pdfrwt>
<totfact> 0.41981299E+02</totfact>
</mgrwt>
</event>
<event>
 5    1  0.7114032E-003  0.4668459E+02  0.7546771E-02  0.1585092E+00
          2   -1    0    0  502    0  0.00000000000E+00  0.00000000000E+00  0.33248747864E+03  0.33248747864E+03  0.00000000000E+00 0. -1.
         -1   -1    0    0    0  501 -0.00000000000E+00 -0.00000000000E+00 -0.45328434431E+02  0.45328434431E+02  0.00000000000E+00 0.  1.
         25    1    1    2    0    0  0.11221436604E+02  0.59525228279E+02  0.13238157508E+03  0.19188291967E+03  0.12500000000E+03 0.  0.
          2    1    1    2  502    0  0.39785845826E+01 -0.45233058726E+02  0.15837961769E+03  0.16476031693E+03  0.00000000000E+00 0. -1.
         -1    1    1    2    0  501 -0.15200021187E+02 -0.14292169553E+02 -0.36021485584E+01  0.21172676468E+02  0.00000000000E+00 0.  1.
<mgrwt>
<rscale>  0 0.31209416E+02</rscale>
<asrwt>0</asrwt>
<pdfrwt beam="1">  1        2 0.51151918E-01 0.46684594E+02</pdfrwt>
<pdfrwt beam="2">  1       -1 0.69736055E-02 0.20864006E+02</pdfrwt>
<totfact> 0.92789117E+03</totfact>
</mgrwt>
</event>
<event>
 5    1  0.7114032E-003  0.8024145E+02  0.7546771E-02  0.1388031E+00
         -1   -1    0    0    0  501  0.00000000000E+00  0.00000000000E+00  0.10174219286E+03  0.10174219286E+03  0.00000000000E+00 0.  1.
         -1   -1    0    0    0  502 -0.00000000000E+00 -0.00000000000E+00 -0.50613942959E+03  0.50613942959E+03  0.00000000000E+00 0.  1.
         25    1    1    2    0    0 -0.85595232924E+02 -0.54112321330E+02 -0.30384259348E+03  0.34380228160E+03  0.12500000000E+03 0.  0.
         -1    1    1    2    0  501  0.11193757162E+02  0.47215267869E+02  0.65775065272E+02  0.81737023012E+02  0.00000000000E+00 0.  1.
         -1    1    1    2    0  502  0.74401475762E+02  0.68970534610E+01 -0.16632970851E+03  0.18234231784E+03  0.00000000000E+00 0.  1.
<mgrwt>
<rscale>  0 0.62399029E+02</rscale>
<asrwt>0</asrwt>
<pdfrwt beam="1">  1       -1 0.15652645E-01 0.48524032E+02</pdfrwt>
<pdfrwt beam="2">  1       -1 0.77867604E-01 0.80241452E+02</pdfrwt>
<totfact> 0.41874844E+02</totfact>
</mgrwt>
</event>
<event>
 5    1  0.7114032E-003  0.6628446E+02  0.7546771E-02  0.1421229E+00
          3   -1    0    0  502    0  0.00000000000E+00  0.00000000000E+00  0.70241690400E+03  0.70241690400E+03  0.00000000000E+00 0. -1.
         -1   -1    0    0    0  501 -0.00000000000E+00 -0.00000000000E+00 -0.42729601506E+03  0.42729601506E+03  0.00000000000E+00 0.  1.
         25    1    1    2    0    0  0.95584499986E+02 -0.31150216389E+02  0.43456165672E+03  0.46322301984E+03  0.12500000000E+03 0.  0.
          3    1    1    2  502    0 -0.58313338745E+02  0.55041198922E+01  0.24887535482E+03  0.25567495584E+03  0.00000000000E+00 0. -1.
         -1    1    1    2    0  501 -0.37271161241E+02  0.25646096497E+02 -0.40831612260E+03  0.41081494337E+03  0.00000000000E+00 0.  1.
<mgrwt>
<rscale>  0 0.54761835E+02</rscale>
<asrwt>0</asrwt>
<pdfrwt beam="1">  1        3 0.10806414E+00 0.66284461E+02</pdfrwt>
<pdfrwt beam="2">  1       -1 0.65737848E-01 0.45242256E+02</pdfrwt>
<totfact> 0.86191737E+00</totfact>
</mgrwt>
</event>
<event>
 5    1  0.7114032E-003  0.8705958E+02  0.7546771E-02  0.1358167E+00
          1   -1    0    0  502    0 -0.00000000000E+00  0.00000000000E+00  0.86662587516E+02  0.86662587516E+02  0.00000000000E+00 0. -1.
          2   -1    0    0  501    0  0.00000000000E+00 -0.00000000000E+00 -0.51545452380E+03  0.51545452380E+03  0.00000000000E+00 0. -1.
         25    1    1    2    0    0  0.49628783555E+01 -0.45878450156E+02 -0.17114711431E+03  0.21690043128E+03  0.12500000000E+03 0.  0.
          2    1    1    2  501    0  0.32959624396E+01  0.10248207045E+03 -0.29804260357E+03  0.31518697891E+03  0.00000000000E+00 0. -1.
          1    1    1    2  502    0 -0.82588407951E+01 -0.56603620295E+02  0.40397781599E+02  0.70029701127E+02  0.00000000000E+00 0. -1.
<mgrwt>
<rscale>  0 0.70569576E+02</rscale>
<asrwt>0</asrwt>
<pdfrwt beam="2">  1        2 0.79300696E-01 0.87059575E+02</pdfrwt>
<pdfrwt beam="1">  1        1 0.13332706E-01 0.57202957E+02</pdfrwt>
<totfact> 0.33446624E+03</totfact>
</mgrwt>
</event>
<event>
 5    1  0.7114032E-003  0.1308816E+03  0.7546771E-02  0.1261162E+00
          2   -1    0    0  501    0  0.00000000000E+00  0.00000000000E+00  0.15105463918E+04  0.15105463918E+04  0.00000000000E+00 0. -1.
          3   -1    0    0  502    0 -0.00000000000E+00 -0.00000000000E+00 -0.16772256843E+03  0.16772256843E+03  0.00000000000E+00 0. -1.
         25    1    1    2    0    0  0.11670887131E+02  0.59752302293E+02  0.15292875822E+03  0.20668515265E+03  0.12500000000E+03 0.  0.
          2    1    1    2  501    0 -0.34822318676E+02  0.85062397455E+02  0.12904809966E+04  0.12937501335E+04  0.00000000000E+00 0. -1.
          3    1    1    2  502    0  0.23151431545E+02 -0.14481469975E+03 -0.10058593142E+03  0.17783367410E+03  0.00000000000E+00 0. -1.
<mgrwt>
<rscale>  0 0.10968074E+03</rscale>
<asrwt>0</asrwt>
<pdfrwt beam="1">  1        2 0.23239174E+00 0.91914119E+02</pdfrwt>
<pdfrwt beam="2">  1        3 0.25803473E-01 0.13088157E+03</pdfrwt>
<totfact> 0.12520205E+02</totfact>
</mgrwt>
</event>
<event>
 5    1  0.7114032E-003  0.3901163E+02  0.7546771E-02  0.1609392E+00
          2   -1    0    0  502    0  0.00000000000E+00  0.00000000000E+00  0.13864783360E+04  0.13864783360E+04  0.00000000000E+00 0. -1.
         -1   -1    0    0    0  501 -0.00000000000E+00 -0.00000000000E+00 -0.10926801689E+02  0.10926801689E+02  0.00000000000E+00 0.  1.
         25    1    1    2    0    0  0.57644994143E+02 -0.12544648427E+02  0.96420029742E+03  0.97405725042E+03  0.12500000000E+03 0.  0.
          2    1    1    2  502    0 -0.21487095029E+02  0.17755503389E+01  0.35426973609E+03  0.35492519457E+03  0.00000000000E+00 0. -1.
         -1    1    1    2    0  501 -0.36157899114E+02  0.10769098088E+02  0.57081500795E+02  0.68422692690E+02  0.00000000000E+00 0.  1.
<mgrwt>
<rscale>  0 0.29001785E+02</rscale>
<asrwt>0</asrwt>
<pdfrwt beam="1">  1        2 0.21330422E+00 0.21560330E+02</pdfrwt>
<pdfrwt beam="2">  1       -1 0.16810475E-02 0.39011627E+02</pdfrwt>
<totfact> 0.14674508E+04</totfact>
</mgrwt>
</event>
<event>
 5    1  0.7114032E-003  0.6862817E+02  0.7546771E-02  0.1374610E+00
          2   -1    0    0  501    0  0.00000000000E+00  0.00000000000E+00  0.33044671411E+03  0.33044671411E+03  0.00000000000E+00 0. -1.
          1   -1    0    0  502    0 -0.00000000000E+00 -0.00000000000E+00 -0.47031028778E+03  0.47031028778E+03  0.00000000000E+00 0. -1.
         25    1    1    2    0    0  0.53489561523E+02 -0.77866555237E+02 -0.32301108618E+03  0.35900626096E+03  0.12500000000E+03 0.  0.
          2    1    1    2  501    0  0.84145640735E+01  0.62722160087E+02  0.30110219171E+03  0.30768068530E+03  0.00000000000E+00 0. -1.
          1    1    1    2  502    0 -0.61904125596E+02  0.15144395150E+02 -0.11795467920E+03  0.13407005563E+03  0.00000000000E+00 0. -1.
<mgrwt>
<rscale>  0 0.65901976E+02</rscale>
<asrwt>0</asrwt>
<pdfrwt beam="1">  1        2 0.50837956E-01 0.63284076E+02</pdfrwt>
<pdfrwt beam="2">  1        1 0.72355429E-01 0.68628173E+02</pdfrwt>
<totfact> 0.67354615E+02</totfact>
</mgrwt>
</event>
<event>
 5    1  0.7114032E-003  0.7882815E+02  0.7546771E-02  0.1339300E+00
          2   -1    0    0  502    0  0.00000000000E+00  0.00000000000E+00  0.40821095828E+03  0.40821095828E+03  0.00000000000E+00 0. -1.
         -1   -1    0    0    0  501 -0.00000000000E+00 -0.00000000000E+00 -0.93905820354E+03  0.93905820354E+03  0.00000000000E+00 0.  1.
         25    1    1    2    0    0 -0.52340671176E+02  0.15080237430E+02 -0.75953312329E+01  0.13656371581E+03  0.12500000000E+03 0.  0.
          2    1    1    2  502    0  0.37667315742E+02  0.63966338769E+02  0.33782433812E+03  0.34588408839E+03  0.00000000000E+00 0. -1.
         -1    1    1    2    0  501  0.14673355435E+02 -0.79046576199E+02 -0.86107625216E+03  0.86482135762E+03  0.00000000000E+00 0.  1.
<mgrwt>
<rscale>  0 0.76496013E+02</rscale>
<asrwt>0</asrwt>
<pdfrwt beam="1">  1        2 0.62801686E-01 0.74232871E+02</pdfrwt>
<pdfrwt beam="2">  1       -1 0.14447049E+00 0.78828152E+02</pdfrwt>
<totfact> 0.40861629E+01</totfact>
</mgrwt>
</event>
<event>
 5    1  0.7114032E-003  0.6507777E+02  0.7546771E-02  0.1472972E+00
          2   -1    0    0  502    0  0.00000000000E+00  0.00000000000E+00  0.35656937703E+03  0.35656937703E+03  0.00000000000E+00 0. -1.
         -1   -1    0    0    0  501 -0.00000000000E+00 -0.00000000000E+00 -0.17902706519E+03  0.17902706519E+03  0.00000000000E+00 0.  1.
         25    1    1    2    0    0 -0.25719625644E+02  0.27231287933E+02 -0.17330864295E+02  0.13163738467E+03  0.12500000000E+03 0.  0.
          2    1    1    2  502    0  0.32847540775E+02 -0.57833970250E+02  0.29324375552E+03  0.30069191742E+03  0.00000000000E+00 0. -1.
         -1    1    1    2    0  501 -0.71279151307E+01  0.30602682318E+02 -0.98370579387E+02  0.10326714012E+03  0.00000000000E+00 0.  1.
<mgrwt>
<rscale>  0 0.45220156E+02</rscale>
<asrwt>0</asrwt>
<pdfrwt beam="1">  1        2 0.54856827E-01 0.65077768E+02</pdfrwt>
<pdfrwt beam="2">  1       -1 0.27542625E-01 0.31421829E+02</pdfrwt>
<totfact> 0.11617160E+03</totfact>
</mgrwt>
</event>
<event>
 5    1  0.7114032E-003  0.5560973E+02  0.7546771E-02  0.1492519E+00
          2   -1    0    0  502    0  0.00000000000E+00  0.00000000000E+00  0.10675326426E+04  0.10675326426E+04  0.00000000000E+00 0. -1.
         -1   -1    0    0    0  501 -0.00000000000E+00 -0.00000000000E+00 -0.12285839729E+02  0.12285839729E+02  0.00000000000E+00 0.  1.
         25    1    1    2    0    0  0.46409903812E+02 -0.28840775867E+01  0.70686988513E+03  0.71934152639E+03  0.12500000000E+03 0.  0.
          2    1    1    2  502    0  0.25022309180E+01 -0.31948223889E+02  0.13999041143E+03  0.14361150880E+03  0.00000000000E+00 0. -1.
         -1    1    1    2    0  501 -0.48912134730E+02  0.34832301476E+02  0.20838650628E+03  0.21686544710E+03  0.00000000000E+00 0.  1.
<mgrwt>
<rscale>  0 0.42214605E+02</rscale>
<asrwt>0</asrwt>
<pdfrwt beam="1">  1        2 0.16423572E+00 0.32046063E+02</pdfrwt>
<pdfrwt beam="2">  1       -1 0.18901300E-02 0.55609728E+02</pdfrwt>
<totfact> 0.18572176E+04</totfact>
</mgrwt>
</event>
<event>
 5    1  0.7114032E-003  0.1666380E+03  0.7546771E-02  0.1356001E+00
          2   -1    0    0  501    0  0.00000000000E+00  0.00000000000E+00  0.15127685860E+04  0.15127685860E+04  0.00000000000E+00 0. -1.
          2   -1    0    0  502    0 -0.00000000000E+00 -0.00000000000E+00 -0.13689657472E+04  0.13689657472E+04  0.00000000000E+00 0.  1.
         25    1    1    2    0    0  0.16838576979E+03 -0.92058494231E+02 -0.66370404560E+03  0.70210867675E+03  0.12500000000E+03 0.  0.
          2    1    1    2  501    0 -0.13796855865E+03  0.93153694338E+02  0.14885866151E+04  0.14978661638E+04  0.00000000000E+00 0. -1.
          2    1    1    2  502    0 -0.30417211137E+02 -0.10952001067E+01 -0.68107973071E+03  0.68175949262E+03  0.00000000000E+00 0.  1.
<mgrwt>
<rscale>  0 0.71217619E+02</rscale>
<asrwt>0</asrwt>
<pdfrwt beam="1">  1        2 0.23273363E+00 0.16663805E+03</pdfrwt>
<pdfrwt beam="2">  1        2 0.21061012E+00 0.30436922E+02</pdfrwt>
<totfact> 0.41413989E+01</totfact>
</mgrwt>
</event>
<event>
 5    1  0.7114032E-003  0.1020989E+03  0.7546771E-02  0.1303598E+00
          2   -1    0    0  501    0  0.00000000000E+00  0.00000000000E+00  0.17133208539E+04  0.17133208539E+04  0.00000000000E+00 0. -1.
          3   -1    0    0  502    0 -0.00000000000E+00 -0.00000000000E+00 -0.11287627439E+04  0.11287627439E+04  0.00000000000E+00 0. -1.
         25    1    1    2    0    0  0.84891343882E+02 -0.84848583933E+00  0.51396807802E+03  0.53571955855E+03  0.12500000000E+03 0.  0.
          2    1    1    2  501    0 -0.16602656106E+02  0.77024556821E+02  0.11848251416E+04  0.11874422288E+04  0.00000000000E+00 0. -1.
          3    1    1    2  502    0 -0.68288687776E+02 -0.76176070981E+02 -0.11142351096E+04  0.11189218105E+04  0.00000000000E+00 0. -1.
<mgrwt>
<rscale>  0 0.89692457E+02</rscale>
<asrwt>0</asrwt>
<pdfrwt beam="1">  1        2 0.26358782E+00 0.78793595E+02</pdfrwt>
<pdfrwt beam="2">  1        3 0.17365581E+00 0.10209887E+03</pdfrwt>
<totfact> 0.17478077E+00</totfact>
</mgrwt>
</event>
<event>
 5    1  0.7114032E-003  0.4050515E+02  0.7546771E-02  0.1505003E+00
         -3   -1    0    0    0  501 -0.00000000000E+00  0.00000000000E+00  0.14532588891E+03  0.14532588891E+03  0.00000000000E+00 0. -1.
          3   -1    0    0  502    0  0.00000000000E+00 -0.00000000000E+00 -0.92893217626E+02  0.92893217626E+02  0.00000000000E+00 0.  1.
         25    1    1    2    0    0 -0.30699515714E+02 -0.26955950780E+01  0.75181458968E+01  0.12896219995E+03  0.12500000000E+03 0.  0.
          3    1    1    2  502    0  0.39533257996E+02 -0.36834548615E+02  0.42382499468E+02  0.68672692685E+02  0.00000000000E+00 0. -1.
         -3    1    1    2    0  501 -0.88337422824E+01  0.39530143693E+02  0.25320259225E+01  0.40584213906E+02  0.00000000000E+00 0.  1.
<mgrwt>
<rscale>  0 0.40439300E+02</rscale>
<asrwt>0</asrwt>
<pdfrwt beam="2">  1        3 0.14291264E-01 0.40373557E+02</pdfrwt>
<pdfrwt beam="1">  1       -3 0.22357829E-01 0.40505151E+02</pdfrwt>
<totfact> 0.13127750E+03</totfact>
</mgrwt>
</event>
<event>
 5    1  0.7114032E-003  0.4674020E+02  0.7546771E-02  0.1503816E+00
          2   -1    0    0  501    0  0.00000000000E+00  0.00000000000E+00  0.67488469883E+03  0.67488469883E+03  0.00000000000E+00 0.  1.
          3   -1    0    0  502    0 -0.00000000000E+00 -0.00000000000E+00 -0.43481200750E+02  0.43481200750E+02  0.00000000000E+00 0. -1.
         25    1    1    2    0    0 -0.71611141563E+00  0.34073695244E+02  0.51266075965E+03  0.52877933395E+03  0.12500000000E+03 0.  0.
          2    1    1    2  501    0 -0.35152126152E+02 -0.29136619761E+01  0.13487391262E+03  0.13940994837E+03  0.00000000000E+00 0.  1.
          3    1    1    2  502    0  0.35868237567E+02 -0.31160033268E+02 -0.16131174189E+02  0.50176617265E+02  0.00000000000E+00 0. -1.
<mgrwt>
<rscale>  0 0.40603595E+02</rscale>
<asrwt>0</asrwt>
<pdfrwt beam="1">  1        2 0.10382841E+00 0.35272672E+02</pdfrwt>
<pdfrwt beam="2">  1        3 0.66894160E-02 0.46740204E+02</pdfrwt>
<totfact> 0.33495534E+03</totfact>
</mgrwt>
</event>
<event>
 5    1  0.7114032E-003  0.1348867E+03  0.7546771E-02  0.1394127E+00
          1   -1    0    0  502    0  0.00000000000E+00  0.00000000000E+00  0.90802509279E+03  0.90802509279E+03  0.00000000000E+00 0. -1.
         -2   -1    0    0    0  501 -0.00000000000E+00 -0.00000000000E+00 -0.68482010578E+03  0.68482010578E+03  0.00000000000E+00 0.  1.
         25    1    1    2    0    0  0.14731523227E+03 -0.23476514097E+02 -0.74102088251E+02  0.20825235618E+03  0.12500000000E+03 0.  0.
          1    1    1    2  502    0 -0.12750804889E+03  0.42536503638E+02  0.83522556886E+03  0.84597246265E+03  0.00000000000E+00 0. -1.
         -2    1    1    2    0  501 -0.19807183383E+02 -0.19059989540E+02 -0.53791849360E+03  0.53862037974E+03  0.00000000000E+00 0.  1.
<mgrwt>
<rscale>  0 0.60891781E+02</rscale>
<asrwt>0</asrwt>
<pdfrwt beam="1">  1        1 0.13969617E+00 0.13488671E+03</pdfrwt>
<pdfrwt beam="2">  1       -2 0.10535694E+00 0.27488320E+02</pdfrwt>
<totfact> 0.14145036E+01</totfact>
</mgrwt>
</event>
<event>
 5    1  0.7114032E-003  0.6681352E+02  0.7546771E-02  0.1527950E+00
         -3   -1    0    0    0  501 -0.00000000000E+00  0.00000000000E+00  0.11897200266E+03  0.11897200266E+03  0.00000000000E+00 0.  1.
          2   -1    0    0  502    0  0.00000000000E+00 -0.00000000000E+00 -0.21615369629E+03  0.21615369629E+03  0.00000000000E+00 0. -1.
         25    1    1    2    0    0 -0.84879379705E+02  0.94066280935E+01 -0.83328446252E+02  0.17280516111E+03  0.12500000000E+03 0.  0.
          2    1    1    2  502    0  0.20269551882E+02 -0.54098424805E+01 -0.72191723848E+02  0.75178229038E+02  0.00000000000E+00 0. -1.
         -3    1    1    2    0  501  0.64609827823E+02 -0.39967856131E+01  0.58338476470E+02  0.87142308802E+02  0.00000000000E+00 0.  1.
<mgrwt>
<rscale>  0 0.37439084E+02</rscale>
<asrwt>0</asrwt>
<pdfrwt beam="2">  1        2 0.33254415E-01 0.20979064E+02</pdfrwt>
<pdfrwt beam="1">  1       -3 0.18303385E-01 0.66813517E+02</pdfrwt>
<totfact> 0.21526589E+03</totfact>
</mgrwt>
</event>
<event>
 5    1  0.7114032E-003  0.4897875E+02  0.7546771E-02  0.1489406E+00
          1   -1    0    0  502    0  0.00000000000E+00  0.00000000000E+00  0.51462554558E+03  0.51462554558E+03  0.00000000000E+00 0. -1.
         -2   -1    0    0    0  501 -0.00000000000E+00 -0.00000000000E+00 -0.28020732648E+02  0.28020732648E+02  0.00000000000E+00 0.  1.
         25    1    1    2    0    0 -0.11727074315E+02  0.48438887617E+02  0.20113596264E+03  0.24200108589E+03  0.12500000000E+03 0.  0.
          1    1    1    2  502    0 -0.32419293840E+02 -0.18205475372E+02  0.15963377179E+03  0.16390665344E+03  0.00000000000E+00 0. -1.
         -2    1    1    2    0  501  0.44146368155E+02 -0.30233412246E+02  0.12583507850E+03  0.13673853889E+03  0.00000000000E+00 0.  1.
<mgrwt>
<rscale>  0 0.42674281E+02</rscale>
<asrwt>0</asrwt>
<pdfrwt beam="1">  1        1 0.79173154E-01 0.37181312E+02</pdfrwt>
<pdfrwt beam="2">  1       -2 0.43108823E-02 0.48978752E+02</pdfrwt>
<totfact> 0.82728451E+03</totfact>
</mgrwt>
</event>
<event>
 5    1  0.7114032E-003  0.6754300E+02  0.7546771E-02  0.1467209E+00
         -1   -1    0    0    0  501 -0.00000000000E+00  0.00000000000E+00  0.45053434746E+03  0.45053434746E+03  0.00000000000E+00 0.  1.
          2   -1    0    0  502    0  0.00000000000E+00 -0.00000000000E+00 -0.35798720082E+03  0.35798720082E+03  0.00000000000E+00 0. -1.
         25    1    1    2    0    0  0.74374305594E+02  0.63888656580E+02 -0.86993423631E+02  0.18112469055E+03  0.12500000000E+03 0.  0.
          2    1    1    2  502    0 -0.26468568416E+02 -0.17171346767E+02 -0.22002070595E+03  0.22227134613E+03  0.00000000000E+00 0. -1.
         -1    1    1    2    0  501 -0.47905737178E+02 -0.46717309813E+02  0.39956127623E+03  0.40512551160E+03  0.00000000000E+00 0.  1.
<mgrwt>
<rscale>  0 0.46162994E+02</rscale>
<asrwt>0</asrwt>
<pdfrwt beam="2">  1        2 0.55074954E-01 0.31550598E+02</pdfrwt>
<pdfrwt beam="1">  1       -1 0.69312976E-01 0.67542997E+02</pdfrwt>
<totfact> 0.23333806E+02</totfact>
</mgrwt>
</event>
<event>
 5    1  0.7114032E-003  0.1224451E+03  0.7546771E-02  0.1372782E+00
          2   -1    0    0  502    0  0.00000000000E+00  0.00000000000E+00  0.23439144316E+03  0.23439144316E+03  0.00000000000E+00 0. -1.
          2   -1    0    0  501    0 -0.00000000000E+00 -0.00000000000E+00 -0.12924550638E+04  0.12924550638E+04  0.00000000000E+00 0. -1.
         25    1    1    2    0    0  0.84782543400E+02 -0.66805505171E+02  0.19418778834E+02  0.16629234546E+03  0.12500000000E+03 0.  0.
          2    1    1    2  501    0 -0.58079560147E+01 -0.35536087404E+02 -0.11891719548E+04  0.11897169764E+04  0.00000000000E+00 0. -1.
          2    1    1    2  502    0 -0.78974587385E+02  0.10234159257E+03  0.11168955536E+03  0.17083718506E+03  0.00000000000E+00 0. -1.
<mgrwt>
<rscale>  0 0.66399933E+02</rscale>
<asrwt>0</asrwt>
<pdfrwt beam="1">  1        2 0.36060222E-01 0.12244508E+03</pdfrwt>
<pdfrwt beam="2">  1        2 0.19883924E+00 0.36007581E+02</pdfrwt>
<totfact> 0.44871954E+02</totfact>
</mgrwt>
</event>
<event>
 5    1  0.7114032E-003  0.1196150E+03  0.7546771E-02  0.1340196E+00
          3   -1    0    0  502    0 -0.00000000000E+00  0.00000000000E+00  0.72638669574E+03  0.72638669574E+03  0.00000000000E+00 0. -1.
          2   -1    0    0  501    0  0.00000000000E+00 -0.00000000000E+00 -0.17446103850E+04  0.17446103850E+04  0.00000000000E+00 0. -1.
         25    1    1    2    0    0  0.96548240003E+01  0.16060473094E+03  0.22657874254E+03  0.30471301547E+03  0.12500000000E+03 0.  0.
          2    1    1    2  501    0 -0.28480881288E+02 -0.11586171906E+03 -0.17021706918E+04  0.17063470229E+04  0.00000000000E+00 0. -1.
          3    1    1    2  502    0  0.18826057288E+02 -0.44743011882E+02  0.45736826008E+03  0.45993704230E+03  0.00000000000E+00 0. -1.
<mgrwt>
<rscale>  0 0.76199667E+02</rscale>
<asrwt>0</asrwt>
<pdfrwt beam="2">  1        2 0.26840159E+00 0.11961498E+03</pdfrwt>
<pdfrwt beam="1">  1        3 0.11175180E+00 0.48542327E+02</pdfrwt>
<totfact> 0.46573574E+00</totfact>
</mgrwt>
</event>
<event>
 5    1  0.7114032E-003  0.9112512E+02  0.7546771E-02  0.1450162E+00
          2   -1    0    0  501    0  0.00000000000E+00  0.00000000000E+00  0.47737386558E+03  0.47737386558E+03  0.00000000000E+00 0. -1.
          2   -1    0    0  502    0 -0.00000000000E+00 -0.00000000000E+00 -0.53970818311E+03  0.53970818311E+03  0.00000000000E+00 0. -1.
         25    1    1    2    0    0  0.60506374599E+02  0.24992618891E+02  0.15254959247E+03  0.20780286458E+03  0.12500000000E+03 0.  0.
          2    1    1    2  501    0  0.25738847104E+02  0.61982096803E+01  0.29248863967E+03  0.29368437205E+03  0.00000000000E+00 0. -1.
          2    1    1    2  502    0 -0.86245221703E+02 -0.31190828572E+02 -0.50737254967E+03  0.51559481205E+03  0.00000000000E+00 0. -1.
<mgrwt>
<rscale>  0 0.49117246E+02</rscale>
<asrwt>0</asrwt>
<pdfrwt beam="1">  1        2 0.73442133E-01 0.26474630E+02</pdfrwt>
<pdfrwt beam="2">  1        2 0.83032028E-01 0.91125118E+02</pdfrwt>
<totfact> 0.60771836E+02</totfact>
</mgrwt>
</event>
<event>
 5    1  0.7114032E-003  0.1012347E+03  0.7546771E-02  0.1312550E+00
          1   -1    0    0  501    0  0.00000000000E+00  0.00000000000E+00  0.79817354331E+03  0.79817354331E+03  0.00000000000E+00 0. -1.
          1   -1    0    0  502    0 -0.00000000000E+00 -0.00000000000E+00 -0.60990824323E+03  0.60990824323E+03  0.00000000000E+00 0. -1.
         25    1    1    2    0    0 -0.60547361165E+02 -0.12999565566E+03 -0.14669041735E+03  0.24022475305E+03  0.12500000000E+03 0.  0.
          1    1    1    2  501    0  0.81200767375E+02  0.59719306473E+02  0.74476404889E+03  0.75155402248E+03  0.00000000000E+00 0. -1.
          1    1    1    2  502    0 -0.20653406210E+02  0.70276349182E+02 -0.40980833146E+03  0.41630301101E+03  0.00000000000E+00 0. -1.
<mgrwt>
<rscale>  0 0.86112032E+02</rscale>
<asrwt>0</asrwt>
<pdfrwt beam="1">  1        1 0.12279593E+00 0.10123473E+03</pdfrwt>
<pdfrwt beam="2">  1        1 0.93832037E-01 0.73248402E+02</pdfrwt>
<totfact> 0.10506312E+02</totfact>
</mgrwt>
</event>
<event>
 5    1  0.7114032E-003  0.8700042E+02  0.7546771E-02  0.1437529E+00
          2   -1    0    0  502    0  0.00000000000E+00  0.00000000000E+00  0.22449431977E+04  0.22449431977E+04  0.00000000000E+00 0. -1.
         -1   -1    0    0    0  501 -0.00000000000E+00 -0.00000000000E+00 -0.10245259300E+02  0.10245259300E+02  0.00000000000E+00 0.  1.
         25    1    1    2    0    0 -0.57338675722E+01  0.97284636871E+02  0.83714284060E+03  0.85201544198E+03  0.12500000000E+03 0.  0.
          2    1    1    2  502    0 -0.21165276081E+02 -0.82994205235E+02  0.12217656640E+04  0.12247641997E+04  0.00000000000E+00 0. -1.
         -1    1    1    2    0  501  0.26899143654E+02 -0.14290431635E+02  0.17578943381E+03  0.17840881538E+03  0.00000000000E+00 0.  1.
<mgrwt>
<rscale>  0 0.51478035E+02</rscale>
<asrwt>0</asrwt>
<pdfrwt beam="1">  1        2 0.34537549E+00 0.87000416E+02</pdfrwt>
<pdfrwt beam="2">  1       -1 0.15761955E-02 0.30459487E+02</pdfrwt>
<totfact> 0.50482510E+03</totfact>
</mgrwt>
</event>
<event>
 5    1  0.7114032E-003  0.1458264E+03  0.7546771E-02  0.1363194E+00
          3   -1    0    0  502    0 -0.00000000000E+00  0.00000000000E+00  0.14701086857E+02  0.14701086857E+02  0.00000000000E+00 0. -1.
          2   -1    0    0  501    0  0.00000000000E+00 -0.00000000000E+00 -0.26683393217E+04  0.26683393217E+04  0.00000000000E+00 0. -1.
         25    1    1    2    0    0 -0.11545933978E+03  0.81050282209E+02 -0.12144631440E+04  0.12290019265E+04  0.12500000000E+03 0.  0.
          2    1    1    2  501    0  0.10109134549E+03 -0.11046864739E+03 -0.13619894559E+04  0.13701963582E+04  0.00000000000E+00 0. -1.
          3    1    1    2  502    0  0.14367994296E+02  0.29418365181E+02 -0.77185634959E+02  0.83842123744E+02  0.00000000000E+00 0. -1.
<mgrwt>
<rscale>  0 0.69096259E+02</rscale>
<asrwt>0</asrwt>
<pdfrwt beam="2">  1        2 0.41051374E+00 0.14582638E+03</pdfrwt>
<pdfrwt beam="1">  1        3 0.22617057E-02 0.32739570E+02</pdfrwt>
<totfact> 0.12223792E+03</totfact>
</mgrwt>
</event>
<event>
 5    1  0.7114032E-003  0.4284561E+02  0.7546771E-02  0.1535081E+00
         -1   -1    0    0    0  501  0.00000000000E+00  0.00000000000E+00  0.12243931331E+04  0.12243931331E+04  0.00000000000E+00 0.  1.
         -3   -1    0    0    0  502 -0.00000000000E+00 -0.00000000000E+00 -0.19182825760E+03  0.19182825760E+03  0.00000000000E+00 0.  1.
         25    1    1    2    0    0  0.39810693085E+02 -0.45070294401E+01  0.33906710120E+03  0.36358864629E+03  0.12500000000E+03 0.  0.
         -1    1    1    2    0  501 -0.27850025412E+02  0.33339021975E+02  0.87116343325E+03  0.87224586083E+03  0.00000000000E+00 0.  1.
         -3    1    1    2    0  502 -0.11960667673E+02 -0.28831992535E+02 -0.17766565899E+03  0.18038688353E+03  0.00000000000E+00 0.  1.
<mgrwt>
<rscale>  0 0.36570506E+02</rscale>
<asrwt>0</asrwt>
<pdfrwt beam="1">  1       -1 0.18836817E+00 0.42845615E+02</pdfrwt>
<pdfrwt beam="2">  1       -3 0.29512040E-01 0.31214442E+02</pdfrwt>
<totfact> 0.10086827E+01</totfact>
</mgrwt>
</event>
<event>
 5    1  0.7114032E-003  0.4403176E+02  0.7546771E-02  0.1531347E+00
          1   -1    0    0  502    0  0.00000000000E+00  0.00000000000E+00  0.22983935285E+03  0.22983935285E+03  0.00000000000E+00 0. -1.
         -2   -1    0    0    0  501 -0.00000000000E+00 -0.00000000000E+00 -0.49885081569E+02  0.49885081569E+02  0.00000000000E+00 0.  1.
         25    1    1    2    0    0 -0.15139993720E+01 -0.23714389964E+02  0.11966138165E+03  0.17466685645E+03  0.12500000000E+03 0.  0.
          1    1    1    2  502    0  0.58949632545E+01  0.54532120496E+02  0.36620594467E+02  0.65951275171E+02  0.00000000000E+00 0. -1.
         -2    1    1    2    0  501 -0.43809638825E+01 -0.30817730532E+02  0.23672295163E+02  0.39106302790E+02  0.00000000000E+00 0.  1.
<mgrwt>
<rscale>  0 0.37021636E+02</rscale>
<asrwt>0</asrwt>
<pdfrwt beam="1">  1        1 0.35359900E-01 0.44031762E+02</pdfrwt>
<pdfrwt beam="2">  1       -2 0.76746281E-02 0.31127566E+02</pdfrwt>
<totfact> 0.88815766E+03</totfact>
</mgrwt>
</event>
<event>
 5    1  0.7114032E-003  0.4659551E+03  0.7546771E-02  0.1023068E+00
          2   -1    0    0  502    0  0.00000000000E+00  0.00000000000E+00  0.10915818738E+04  0.10915818738E+04  0.00000000000E+00 0. -1.
         -1   -1    0    0    0  501 -0.00000000000E+00 -0.00000000000E+00 -0.49724652910E+02  0.49724652910E+02  0.00000000000E+00 0.  1.
         25    1    1    2    0    0 -0.77045210583E+02 -0.18701136261E+03  0.67112275612E+03  0.71199716853E+03  0.12500000000E+03 0.  0.
          2    1    1    2  502    0  0.31899583609E+02  0.72357835698E+02  0.22484428821E+03  0.23834469527E+03  0.00000000000E+00 0. -1.
         -1    1    1    2    0  501  0.45145626975E+02  0.11465352691E+03  0.14589017660E+03  0.19096466295E+03  0.00000000000E+00 0.  1.
<mgrwt>
<rscale>  0 0.46595506E+03</rscale>
<asrwt>0</asrwt>
<pdfrwt beam="1">  1        2 0.16793566E+00 0.46595506E+03</pdfrwt>
<pdfrwt beam="2">  1       -1 0.76499474E-02 0.46595506E+03</pdfrwt>
<totfact> 0.24259946E+03</totfact>
</mgrwt>
</event>
<event>
 5    1  0.7114032E-003  0.9358154E+02  0.7546771E-02  0.1427970E+00
          1   -1    0    0  502    0 -0.00000000000E+00  0.00000000000E+00  0.73152082475E+03  0.73152082475E+03  0.00000000000E+00 0. -1.
          2   -1    0    0  501    0  0.00000000000E+00 -0.00000000000E+00 -0.16355754087E+03  0.16355754087E+03  0.00000000000E+00 0. -1.
         25    1    1    2    0    0  0.25463403613E+02 -0.97364859625E+02  0.38550705909E+03  0.41757513506E+03  0.12500000000E+03 0.  0.
          2    1    1    2  501    0 -0.29948235641E+02  0.54317866513E+01 -0.13943127769E+03  0.14271468853E+03  0.00000000000E+00 0. -1.
          1    1    1    2  502    0  0.44848320281E+01  0.91933072974E+02  0.32188750248E+03  0.33478854203E+03  0.00000000000E+00 0. -1.
<mgrwt>
<rscale>  0 0.53369713E+02</rscale>
<asrwt>0</asrwt>
<pdfrwt beam="2">  1        2 0.25162699E-01 0.30436838E+02</pdfrwt>
<pdfrwt beam="1">  1        1 0.11254166E+00 0.93581542E+02</pdfrwt>
<totfact> 0.75108398E+02</totfact>
</mgrwt>
</event>
<event>
 5    1  0.7114032E-003  0.8181367E+02  0.7546771E-02  0.1372870E+00
          1   -1    0    0  502    0 -0.00000000000E+00  0.00000000000E+00  0.70318982100E+02  0.70318982100E+02  0.00000000000E+00 0. -1.
          2   -1    0    0  501    0  0.00000000000E+00 -0.00000000000E+00 -0.14979450085E+04  0.14979450085E+04  0.00000000000E+00 0. -1.
         25    1    1    2    0    0  0.10887589933E+03  0.41695393663E+02 -0.35529114839E+03  0.39427055106E+03  0.12500000000E+03 0.  0.
          2    1    1    2  501    0 -0.79812873153E+02  0.36397885952E+01 -0.11070456211E+04  0.11099249299E+04  0.00000000000E+00 0. -1.
          1    1    1    2  502    0 -0.29063026180E+02 -0.45335182258E+02  0.34710743103E+02  0.64068509643E+02  0.00000000000E+00 0. -1.
<mgrwt>
<rscale>  0 0.66375856E+02</rscale>
<asrwt>0</asrwt>
<pdfrwt beam="2">  1        2 0.23045307E+00 0.81813674E+02</pdfrwt>
<pdfrwt beam="1">  1        1 0.10818305E-01 0.53851075E+02</pdfrwt>
<totfact> 0.10729287E+03</totfact>
</mgrwt>
</event>
<event>
 5    1  0.7114032E-003  0.5209049E+02  0.7546771E-02  0.1535312E+00
          1   -1    0    0  502    0  0.00000000000E+00  0.00000000000E+00  0.19337076155E+02  0.19337076155E+02  0.00000000000E+00 0. -1.
         -2   -1    0    0    0  501 -0.00000000000E+00 -0.00000000000E+00 -0.66312788296E+03  0.66312788296E+03  0.00000000000E+00 0.  1.
         25    1    1    2    0    0 -0.16387808522E+02 -0.27541762042E+02 -0.47338324400E+03  0.49065650370E+03  0.12500000000E+03 0.  0.
          1    1    1    2  502    0  0.38578893113E+02  0.40376994363E+02 -0.78129618176E+02  0.96035774084E+02  0.00000000000E+00 0. -1.
         -2    1    1    2    0  501 -0.22191084591E+02 -0.12835232321E+02 -0.92277944631E+02  0.95772681331E+02  0.00000000000E+00 0.  1.
<mgrwt>
<rscale>  0 0.36542776E+02</rscale>
<asrwt>0</asrwt>
<pdfrwt beam="1">  1        1 0.29749352E-02 0.52090490E+02</pdfrwt>
<pdfrwt beam="2">  1       -2 0.10201966E+00 0.25635667E+02</pdfrwt>
<totfact> 0.22024870E+03</totfact>
</mgrwt>
</event>
<event>
 5    1  0.7114032E-003  0.5738194E+02  0.7546771E-02  0.1446510E+00
          2   -1    0    0  502    0  0.00000000000E+00  0.00000000000E+00  0.19446273082E+04  0.19446273082E+04  0.00000000000E+00 0. -1.
         -1   -1    0    0    0  501 -0.00000000000E+00 -0.00000000000E+00 -0.79682306880E+01  0.79682306880E+01  0.00000000000E+00 0.  1.
         25    1    1    2    0    0 -0.16369770972E+02  0.29026627719E+02  0.10075526807E+04  0.10158237637E+04  0.12500000000E+03 0.  0.
          2    1    1    2  502    0 -0.17273827863E+00  0.43191711298E+02  0.25829857862E+03  0.26188491648E+03  0.00000000000E+00 0. -1.
         -1    1    1    2    0  501  0.16542509251E+02 -0.72218339017E+02  0.67080781822E+03  0.67488685873E+03  0.00000000000E+00 0.  1.
<mgrwt>
<rscale>  0 0.49783972E+02</rscale>
<asrwt>0</asrwt>
<pdfrwt beam="1">  1        2 0.29917305E+00 0.43192057E+02</pdfrwt>
<pdfrwt beam="2">  1       -1 0.12258832E-02 0.57381938E+02</pdfrwt>
<totfact> 0.12285789E+04</totfact>
</mgrwt>
</event>
<event>
 5    1  0.7114032E-003  0.5730323E+02  0.7546771E-02  0.1460281E+00
         -1   -1    0    0    0  501 -0.00000000000E+00  0.00000000000E+00  0.64181191275E+01  0.64181191275E+01  0.00000000000E+00 0.  1.
          2   -1    0    0  502    0  0.00000000000E+00 -0.00000000000E+00 -0.22592122596E+04  0.22592122596E+04  0.00000000000E+00 0. -1.
         25    1    1    2    0    0 -0.49362791920E+02  0.28360020513E+02 -0.10992977295E+04  0.11078454198E+04  0.12500000000E+03 0.  0.
          2    1    1    2  502    0  0.21937021474E+02 -0.56224967823E+02 -0.72615405875E+03  0.72865780511E+03  0.00000000000E+00 0. -1.
         -1    1    1    2    0  501  0.27425770446E+02  0.27864947310E+02 -0.42734235222E+03  0.42912715385E+03  0.00000000000E+00 0.  1.
<mgrwt>
<rscale>  0 0.47333108E+02</rscale>
<asrwt>0</asrwt>
<pdfrwt beam="2">  1        2 0.34757125E+00 0.57303231E+02</pdfrwt>
<pdfrwt beam="1">  1       -1 0.98740257E-03 0.39097675E+02</pdfrwt>
<totfact> 0.10445929E+04</totfact>
</mgrwt>
</event>
<event>
 5    1  0.7114032E-003  0.1545847E+03  0.7546771E-02  0.1268679E+00
          1   -1    0    0  502    0 -0.00000000000E+00  0.00000000000E+00  0.23200104343E+03  0.23200104343E+03  0.00000000000E+00 0. -1.
          2   -1    0    0  501    0  0.00000000000E+00 -0.00000000000E+00 -0.89397293542E+03  0.89397293542E+03  0.00000000000E+00 0. -1.
         25    1    1    2    0    0  0.96766763381E+02 -0.63501526494E+02 -0.10503999149E+03  0.20013657880E+03  0.12500000000E+03 0.  0.
          2    1    1    2  501    0 -0.91409845793E+02  0.13562443478E+03 -0.72481530881E+03  0.74303901587E+03  0.00000000000E+00 0. -1.
          1    1    1    2  502    0 -0.53569175878E+01 -0.72122908288E+02  0.16788340832E+03  0.18279838417E+03  0.00000000000E+00 0. -1.
<mgrwt>
<rscale>  0 0.10573461E+03</rscale>
<asrwt>0</asrwt>
<pdfrwt beam="2">  1        2 0.13753430E+00 0.15458469E+03</pdfrwt>
<pdfrwt beam="1">  1        1 0.35692467E-01 0.72321577E+02</pdfrwt>
<totfact> 0.51351282E+02</totfact>
</mgrwt>
</event>
<event>
 5    1  0.7114032E-003  0.1284356E+03  0.7546771E-02  0.1288751E+00
          2   -1    0    0  502    0  0.00000000000E+00  0.00000000000E+00  0.22404244724E+03  0.22404244724E+03  0.00000000000E+00 0.  1.
         -1   -1    0    0    0  501 -0.00000000000E+00 -0.00000000000E+00 -0.65356966365E+03  0.65356966365E+03  0.00000000000E+00 0.  1.
         25    1    1    2    0    0 -0.10569172005E+03 -0.97010355623E+02 -0.17197105344E+03  0.25647766376E+03  0.12500000000E+03 0.  0.
          2    1    1    2  502    0  0.67159830964E+02 -0.25626496473E+02  0.16472222315E+03  0.17972359616E+03  0.00000000000E+00 0.  1.
         -1    1    1    2    0  501  0.38531889090E+02  0.12263685210E+03 -0.42227838612E+03  0.44141085096E+03  0.00000000000E+00 0.  1.
<mgrwt>
<rscale>  0 0.96085018E+02</rscale>
<asrwt>0</asrwt>
<pdfrwt beam="1">  1        2 0.34468069E-01 0.71882962E+02</pdfrwt>
<pdfrwt beam="2">  1       -1 0.10054918E+00 0.12843559E+03</pdfrwt>
<totfact> 0.17374086E+02</totfact>
</mgrwt>
</event>
<event>
 5    1  0.7114032E-003  0.1367607E+03  0.7546771E-02  0.1325429E+00
         -2   -1    0    0    0  501 -0.00000000000E+00  0.00000000000E+00  0.15871762040E+03  0.15871762040E+03  0.00000000000E+00 0.  1.
          1   -1    0    0  502    0  0.00000000000E+00 -0.00000000000E+00 -0.27307071832E+03  0.27307071832E+03  0.00000000000E+00 0. -1.
         25    1    1    2    0    0  0.67648937314E+02 -0.15059541194E+03 -0.51054683444E+00  0.20707635663E+03  0.12500000000E+03 0.  0.
          1    1    1    2  502    0 -0.11882521365E+02  0.46835029209E+02 -0.93394563740E+02  0.10515350118E+03  0.00000000000E+00 0. -1.
         -2    1    1    2    0  501 -0.55766415949E+02  0.10376038273E+03 -0.20447987340E+02  0.11955848091E+03  0.00000000000E+00 0.  1.
<mgrwt>
<rscale>  0 0.81290376E+02</rscale>
<asrwt>0</asrwt>
<pdfrwt beam="2">  1        1 0.42010879E-01 0.48318881E+02</pdfrwt>
<pdfrwt beam="1">  1       -2 0.24418096E-01 0.13676073E+03</pdfrwt>
<totfact> 0.12575864E+03</totfact>
</mgrwt>
</event>
<event>
 5    1  0.7199431E-003  0.6951931E+02  0.7546771E-02  0.1426577E+00
          2   -1    0    0  502    0  0.00000000000E+00  0.00000000000E+00  0.60092058346E+03  0.60092058346E+03  0.00000000000E+00 0. -1.
         -1   -1    0    0    0  501 -0.00000000000E+00 -0.00000000000E+00 -0.34020046895E+02  0.34020046895E+02  0.00000000000E+00 0.  1.
         25    1    1    2    0    0 -0.36012623400E+02 -0.66789597457E+02  0.17673726455E+03  0.22938792482E+03  0.12500000000E+03 0.  0.
          2    1    1    2  502    0 -0.24070681727E+02  0.33693646049E+02  0.16880807785E+03  0.17381261936E+03  0.00000000000E+00 0. -1.
         -1    1    1    2    0  501  0.60083305127E+02  0.33095951408E+02  0.22135519417E+03  0.23174008618E+03  0.00000000000E+00 0.  1.
<mgrwt>
<rscale>  0 0.53653393E+02</rscale>
<asrwt>0</asrwt>
<pdfrwt beam="1">  1        2 0.92449312E-01 0.41408447E+02</pdfrwt>
<pdfrwt beam="2">  1       -1 0.52338538E-02 0.69519308E+02</pdfrwt>
<totfact> 0.86957251E+03</totfact>
</mgrwt>
</event>
<event>
 5    1  0.7114032E-003  0.8275530E+02  0.7546771E-02  0.1396551E+00
          1   -1    0    0  502    0 -0.00000000000E+00  0.00000000000E+00  0.72831903652E+03  0.72831903652E+03  0.00000000000E+00 0. -1.
          2   -1    0    0  501    0  0.00000000000E+00 -0.00000000000E+00 -0.15513369251E+03  0.15513369251E+03  0.00000000000E+00 0. -1.
         25    1    1    2    0    0  0.47943260155E+02  0.38332580778E+02  0.43099045389E+02  0.14577541170E+03  0.12500000000E+03 0.  0.
          2    1    1    2  501    0 -0.86530944138E+02 -0.17301346744E+02 -0.84111963636E+02  0.12190883200E+03  0.00000000000E+00 0. -1.
          1    1    1    2  502    0  0.38587683983E+02 -0.21031234034E+02  0.61419826226E+03  0.61576848533E+03  0.00000000000E+00 0. -1.
<mgrwt>
<rscale>  0 0.60306149E+02</rscale>
<asrwt>0</asrwt>
<pdfrwt beam="2">  1        2 0.23866722E-01 0.82755302E+02</pdfrwt>
<pdfrwt beam="1">  1        1 0.11204908E+00 0.43946811E+02</pdfrwt>
<totfact> 0.85899482E+02</totfact>
</mgrwt>
</event>
<event>
 5    1  0.7114032E-003  0.1869344E+03  0.7546771E-02  0.1183764E+00
          1   -1    0    0  502    0 -0.00000000000E+00  0.00000000000E+00  0.18416076596E+03  0.18416076596E+03  0.00000000000E+00 0. -1.
          2   -1    0    0  501    0  0.00000000000E+00 -0.00000000000E+00 -0.85452101537E+03  0.85452101537E+03  0.00000000000E+00 0. -1.
         25    1    1    2    0    0  0.85470642499E+02  0.97183840340E+02 -0.24378421839E+02  0.18157432914E+03  0.12500000000E+03 0.  0.
          2    1    1    2  501    0 -0.15638275878E+03  0.10241536881E+03 -0.61530699811E+03  0.64307633834E+03  0.00000000000E+00 0. -1.
          1    1    1    2  502    0  0.70912116285E+02 -0.19959920915E+03 -0.30674829468E+02  0.21403111384E+03  0.00000000000E+00 0. -1.
<mgrwt>
<rscale>  0 0.16444850E+03</rscale>
<asrwt>0</asrwt>
<pdfrwt beam="2">  1        2 0.13146477E+00 0.18693441E+03</pdfrwt>
<pdfrwt beam="1">  1        1 0.28332425E-01 0.14466737E+03</pdfrwt>
<totfact> 0.72542155E+02</totfact>
</mgrwt>
</event>
<event>
 5    1  0.7114032E-003  0.6081842E+02  0.7546771E-02  0.1533731E+00
          2   -1    0    0  501    0  0.00000000000E+00  0.00000000000E+00  0.15178092947E+04  0.15178092947E+04  0.00000000000E+00 0.  1.
          3   -1    0    0  502    0 -0.00000000000E+00 -0.00000000000E+00 -0.65446233493E+02  0.65446233493E+02  0.00000000000E+00 0. -1.
         25    1    1    2    0    0  0.36283534217E+02  0.29844316384E+02  0.78464117456E+03  0.79592333229E+03  0.12500000000E+03 0.  0.
          2    1    1    2  501    0 -0.58374036943E+02 -0.27792075209E+02  0.72397821294E+03  0.72685925766E+03  0.00000000000E+00 0.  1.
          3    1    1    2  502    0  0.22090502726E+02 -0.20522411751E+01 -0.56256326322E+02  0.60472938210E+02  0.00000000000E+00 0. -1.
<mgrwt>
<rscale>  0 0.36732746E+02</rscale>
<asrwt>0</asrwt>
<pdfrwt beam="1">  1        2 0.23350910E+00 0.60818416E+02</pdfrwt>
<pdfrwt beam="2">  1        3 0.10068652E-01 0.22185626E+02</pdfrwt>
<totfact> 0.49820088E+02</totfact>
</mgrwt>
</event>
<event>
 5    1  0.7114032E-003  0.9405419E+02  0.7546771E-02  0.1334104E+00
          1   -1    0    0  502    0  0.00000000000E+00  0.00000000000E+00  0.57464810812E+03  0.57464810812E+03  0.00000000000E+00 0. -1.
         -2   -1    0    0    0  501 -0.00000000000E+00 -0.00000000000E+00 -0.12975807448E+04  0.12975807448E+04  0.00000000000E+00 0.  1.
         25    1    1    2    0    0 -0.89021836818E+02  0.51717375381E+02 -0.50391589132E+02  0.16959919399E+03  0.12500000000E+03 0.  0.
          1    1    1    2  502    0  0.34888241588E+02 -0.87867969574E+02  0.50980302656E+03  0.51849502926E+03  0.00000000000E+00 0. -1.
         -2    1    1    2    0  501  0.54133595230E+02  0.36150594193E+02 -0.11823440741E+04  0.11841346296E+04  0.00000000000E+00 0.  1.
<mgrwt>
<rscale>  0 0.78245916E+02</rscale>
<asrwt>0</asrwt>
<pdfrwt beam="1">  1        1 0.88407401E-01 0.94054192E+02</pdfrwt>
<pdfrwt beam="2">  1       -2 0.19962781E+00 0.65094636E+02</pdfrwt>
<totfact> 0.54941055E+00</totfact>
</mgrwt>
</event>
<event>
 5    1  0.7114032E-003  0.8627996E+02  0.7546771E-02  0.1431403E+00
          2   -1    0    0  502    0  0.00000000000E+00  0.00000000000E+00  0.31521502926E+03  0.31521502926E+03  0.00000000000E+00 0. -1.
         -3   -1    0    0    0  501 -0.00000000000E+00 -0.00000000000E+00 -0.13451727707E+03  0.13451727707E+03  0.00000000000E+00 0.  1.
         25    1    1    2    0    0 -0.10870044647E+03 -0.38779856578E+02 -0.34009668680E+02  0.17349732535E+03  0.12500000000E+03 0.  0.
          2    1    1    2  502    0  0.81250671154E+02  0.22015639824E+02  0.22676448067E+03  0.24188528201E+03  0.00000000000E+00 0. -1.
         -3    1    1    2    0  501  0.27449775317E+02  0.16764216753E+02 -0.12057059805E+02  0.34349698972E+02  0.00000000000E+00 0.  1.
<mgrwt>
<rscale>  0 0.52679379E+02</rscale>
<asrwt>0</asrwt>
<pdfrwt beam="1">  1        2 0.48494620E-01 0.86279959E+02</pdfrwt>
<pdfrwt beam="2">  1       -3 0.20694966E-01 0.32164097E+02</pdfrwt>
<totfact> 0.11160174E+03</totfact>
</mgrwt>
</event>
<event>
 5    1  0.7114032E-003  0.1037841E+03  0.7546771E-02  0.1319842E+00
          2   -1    0    0  502    0  0.00000000000E+00  0.00000000000E+00  0.15417840316E+04  0.15417840316E+04  0.00000000000E+00 0. -1.
         -1   -1    0    0    0  501 -0.00000000000E+00 -0.00000000000E+00 -0.19388858565E+02  0.19388858565E+02  0.00000000000E+00 0.  1.
         25    1    1    2    0    0 -0.18620877729E+02  0.12955505391E+03  0.61942792145E+03  0.64532720301E+03  0.12500000000E+03 0.  0.
          2    1    1    2  502    0  0.45302709357E+02 -0.49249860548E+02  0.33606572022E+03  0.34266317652E+03  0.00000000000E+00 0. -1.
         -1    1    1    2    0  501 -0.26681831628E+02 -0.80305193363E+02  0.56690153139E+03  0.57318251065E+03  0.00000000000E+00 0.  1.
<mgrwt>
<rscale>  0 0.83336193E+02</rscale>
<asrwt>0</asrwt>
<pdfrwt beam="1">  1        2 0.23719745E+00 0.66916995E+02</pdfrwt>
<pdfrwt beam="2">  1       -1 0.29829025E-02 0.10378412E+03</pdfrwt>
<totfact> 0.56974077E+03</totfact>
</mgrwt>
</event>
<event>
 5    1  0.7114032E-003  0.7212521E+02  0.7546771E-02  0.1517524E+00
         -1   -1    0    0    0  501 -0.00000000000E+00  0.00000000000E+00  0.20064435871E+02  0.20064435871E+02  0.00000000000E+00 0.  1.
          2   -1    0    0  502    0  0.00000000000E+00 -0.00000000000E+00 -0.82455768137E+03  0.82455768137E+03  0.00000000000E+00 0. -1.
         25    1    1    2    0    0 -0.63823462679E+02  0.38260349496E+02 -0.51829009896E+03  0.53831860029E+03  0.12500000000E+03 0.  0.
          2    1    1    2  502    0  0.69642252493E+02 -0.18257694067E+02 -0.27129825576E+03  0.28068867149E+03  0.00000000000E+00 0. -1.
         -1    1    1    2    0  501 -0.58187898145E+01 -0.20002655429E+02 -0.14904890777E+02  0.25614845465E+02  0.00000000000E+00 0.  1.
<mgrwt>
<rscale>  0 0.38762083E+02</rscale>
<asrwt>0</asrwt>
<pdfrwt beam="2">  1        2 0.12685502E+00 0.72125212E+02</pdfrwt>
<pdfrwt beam="1">  1       -1 0.30868365E-02 0.20831816E+02</pdfrwt>
<totfact> 0.10675722E+04</totfact>
</mgrwt>
</event>
<event>
 5    1  0.7114032E-003  0.3746767E+02  0.7546771E-02  0.1553931E+00
         -2   -1    0    0    0  501 -0.00000000000E+00  0.00000000000E+00  0.67411832806E+03  0.67411832806E+03  0.00000000000E+00 0.  1.
          1   -1    0    0  502    0  0.00000000000E+00 -0.00000000000E+00 -0.29175343705E+03  0.29175343705E+03  0.00000000000E+00 0. -1.
         25    1    1    2    0    0  0.50714234299E+02 -0.46417169602E+02 -0.17795040001E+03  0.22807418105E+03  0.12500000000E+03 0.  0.
          1    1    1    2  502    0 -0.21314479465E+02  0.23324237860E+02 -0.85370747501E+02  0.91030168821E+02  0.00000000000E+00 0. -1.
         -2    1    1    2    0  501 -0.29399754834E+02  0.23092931742E+02  0.64568603852E+03  0.64676741525E+03  0.00000000000E+00 0.  1.
<mgrwt>
<rscale>  0 0.34406982E+02</rscale>
<asrwt>0</asrwt>
<pdfrwt beam="2">  1        1 0.44885144E-01 0.31596315E+02</pdfrwt>
<pdfrwt beam="1">  1       -2 0.10371051E+00 0.37467674E+02</pdfrwt>
<totfact> 0.66736038E+01</totfact>
</mgrwt>
</event>
<event>
 5    1  0.7114032E-003  0.1791055E+03  0.7546771E-02  0.1259984E+00
          1   -1    0    0  501    0  0.00000000000E+00  0.00000000000E+00  0.47125025997E+02  0.47125025997E+02  0.00000000000E+00 0. -1.
          1   -1    0    0  502    0 -0.00000000000E+00 -0.00000000000E+00 -0.27533444191E+04  0.27533444191E+04  0.00000000000E+00 0. -1.
         25    1    1    2    0    0 -0.82667294919E+01  0.14806424837E+03 -0.56583878594E+03  0.59815540801E+03  0.12500000000E+03 0.  0.
          1    1    1    2  501    0 -0.62341382523E+02  0.27027713923E+02 -0.16321069400E+02  0.69880774188E+02  0.00000000000E+00 0. -1.
          1    1    1    2  502    0  0.70608112015E+02 -0.17509196229E+03 -0.21240595378E+04  0.21324332629E+04  0.00000000000E+00 0. -1.
<mgrwt>
<rscale>  0 0.11031717E+03</rscale>
<asrwt>0</asrwt>
<pdfrwt beam="1">  1        1 0.72500028E-02 0.67948107E+02</pdfrwt>
<pdfrwt beam="2">  1        1 0.42359152E+00 0.17910548E+03</pdfrwt>
<totfact> 0.12236242E+02</totfact>
</mgrwt>
</event>
<event>
 5    1  0.7114032E-003  0.1813502E+03  0.7546771E-02  0.1231467E+00
         -3   -1    0    0    0  501 -0.00000000000E+00  0.00000000000E+00  0.15273342141E+03  0.15273342141E+03  0.00000000000E+00 0.  1.
          2   -1    0    0  502    0  0.00000000000E+00 -0.00000000000E+00 -0.10216914239E+04  0.10216914239E+04  0.00000000000E+00 0. -1.
         25    1    1    2    0    0  0.81130726479E+02 -0.13918071868E+03 -0.45967546390E+03  0.50287175238E+03  0.12500000000E+03 0.  0.
          2    1    1    2  502    0  0.78653503706E+02  0.42508667450E+02 -0.46747222759E+03  0.47594500104E+03  0.00000000000E+00 0. -1.
         -3    1    1    2    0  501 -0.15978423018E+03  0.96672051230E+02  0.58189689005E+02  0.19560809189E+03  0.00000000000E+00 0.  1.
<mgrwt>
<rscale>  0 0.12733310E+03</rscale>
<asrwt>0</asrwt>
<pdfrwt beam="2">  1        2 0.15718330E+00 0.89405595E+02</pdfrwt>
<pdfrwt beam="1">  1       -3 0.23497449E-01 0.18135017E+03</pdfrwt>
<totfact> 0.27815064E+02</totfact>
</mgrwt>
</event>
<event>
 5    1  0.7114032E-003  0.2224910E+02  0.7546771E-02  0.1720315E+00
          1   -1    0    0  502    0  0.00000000000E+00  0.00000000000E+00  0.22020668132E+03  0.22020668132E+03  0.00000000000E+00 0. -1.
         -2   -1    0    0    0  501 -0.00000000000E+00 -0.00000000000E+00 -0.77123553917E+02  0.77123553917E+02  0.00000000000E+00 0.  1.
         25    1    1    2    0    0 -0.32807055421E+02  0.11488660195E+02  0.16611517244E+03  0.21077842089E+03  0.12500000000E+03 0.  0.
          1    1    1    2  502    0  0.12974748225E+02 -0.16379740172E+02  0.26046302956E+02  0.33392362559E+02  0.00000000000E+00 0. -1.
         -2    1    1    2    0  501  0.19832307196E+02  0.48910799771E+01 -0.49078347995E+02  0.53159451785E+02  0.00000000000E+00 0.  1.
<mgrwt>
<rscale>  0 0.21318348E+02</rscale>
<asrwt>0</asrwt>
<pdfrwt beam="1">  1        1 0.33877951E-01 0.22249103E+02</pdfrwt>
<pdfrwt beam="2">  1       -2 0.11865162E-01 0.20426529E+02</pdfrwt>
<totfact> 0.45939711E+03</totfact>
</mgrwt>
</event>
<event>
 5    1  0.7114032E-003  0.1124524E+03  0.7546771E-02  0.1327616E+00
          2   -1    0    0  502    0  0.00000000000E+00  0.00000000000E+00  0.71762904357E+03  0.71762904357E+03  0.00000000000E+00 0. -1.
         -3   -1    0    0    0  501 -0.00000000000E+00 -0.00000000000E+00 -0.27256902668E+03  0.27256902668E+03  0.00000000000E+00 0.  1.
         25    1    1    2    0    0  0.90624728894E+02 -0.38880467965E+02  0.24164211118E+03  0.28937940869E+03  0.12500000000E+03 0.  0.
          2    1    1    2  502    0 -0.11980857057E+03 -0.10822969440E+02  0.44060343266E+03  0.45673035274E+03  0.00000000000E+00 0. -1.
         -3    1    1    2    0  501  0.29183841678E+02  0.49703437404E+02 -0.23718552695E+03  0.24408830881E+03  0.00000000000E+00 0.  1.
<mgrwt>
<rscale>  0 0.80507886E+02</rscale>
<asrwt>0</asrwt>
<pdfrwt beam="1">  1        2 0.11040447E+00 0.11245238E+03</pdfrwt>
<pdfrwt beam="2">  1       -3 0.41933697E-01 0.57637907E+02</pdfrwt>
<totfact> 0.13611051E+02</totfact>
</mgrwt>
</event>
<event>
 5    1  0.7114032E-003  0.3340376E+02  0.7546771E-02  0.1621391E+00
          2   -1    0    0  502    0  0.00000000000E+00  0.00000000000E+00  0.48395839210E+02  0.48395839210E+02  0.00000000000E+00 0. -1.
          2   -1    0    0  501    0 -0.00000000000E+00 -0.00000000000E+00 -0.56036030831E+03  0.56036030831E+03  0.00000000000E+00 0. -1.
         25    1    1    2    0    0 -0.37830053653E+01 -0.23191217597E+02 -0.66809174626E+02  0.14366840125E+03  0.12500000000E+03 0.  0.
          2    1    1    2  501    0  0.20618303829E+02 -0.11190164977E+02 -0.41677146477E+03  0.41743117767E+03  0.00000000000E+00 0. -1.
          2    1    1    2  502    0 -0.16835298464E+02  0.34381382574E+02 -0.28383829702E+02  0.47656568599E+02  0.00000000000E+00 0. -1.
<mgrwt>
<rscale>  0 0.27993316E+02</rscale>
<asrwt>0</asrwt>
<pdfrwt beam="1">  1        2 0.74455138E-02 0.33403765E+02</pdfrwt>
<pdfrwt beam="2">  1        2 0.86209278E-01 0.23459204E+02</pdfrwt>
<totfact> 0.69748269E+03</totfact>
</mgrwt>
</event>
<event>
 5    1  0.7114032E-003  0.7385138E+02  0.7546771E-02  0.1378059E+00
          2   -1    0    0  502    0  0.00000000000E+00  0.00000000000E+00  0.62341713126E+03  0.62341713126E+03  0.00000000000E+00 0. -1.
          2   -1    0    0  501    0 -0.00000000000E+00 -0.00000000000E+00 -0.17184903406E+04  0.17184903406E+04  0.00000000000E+00 0. -1.
         25    1    1    2    0    0  0.96215347777E+00 -0.10672457013E+03  0.28181877669E+03  0.32624819157E+03  0.12500000000E+03 0.  0.
          2    1    1    2  501    0  0.33958715140E+02  0.45989639284E+02 -0.16919451125E+04  0.16929106607E+04  0.00000000000E+00 0. -1.
          2    1    1    2  502    0 -0.34920868617E+02  0.60734930849E+02  0.31505312654E+03  0.32274861957E+03  0.00000000000E+00 0. -1.
<mgrwt>
<rscale>  0 0.64976729E+02</rscale>
<asrwt>0</asrwt>
<pdfrwt beam="1">  1        2 0.95910332E-01 0.73851383E+02</pdfrwt>
<pdfrwt beam="2">  1        2 0.26438312E+00 0.57168534E+02</pdfrwt>
<totfact> 0.93777604E+01</totfact>
</mgrwt>
</event>
<event>
 5    1  0.7114032E-003  0.1559302E+03  0.7546771E-02  0.1371386E+00
         -1   -1    0    0    0  501 -0.00000000000E+00  0.00000000000E+00  0.26994582106E+03  0.26994582106E+03  0.00000000000E+00 0.  1.
          1   -1    0    0  502    0  0.00000000000E+00 -0.00000000000E+00 -0.21848412025E+04  0.21848412025E+04  0.00000000000E+00 0. -1.
         25    1    1    2    0    0  0.76638401343E+02 -0.16393553079E+03 -0.10374574337E+03  0.24317993766E+03  0.12500000000E+03 0.  0.
          1    1    1    2  502    0 -0.75251706741E+02  0.13536653059E+03 -0.20073585034E+04  0.20133243848E+04  0.00000000000E+00 0. -1.
         -1    1    1    2    0  501 -0.13866946025E+01  0.28569000192E+02  0.19620886540E+03  0.19828270110E+03  0.00000000000E+00 0.  1.
<mgrwt>
<rscale>  0 0.66783330E+02</rscale>
<asrwt>0</asrwt>
<pdfrwt beam="2">  1        1 0.33612941E+00 0.15593015E+03</pdfrwt>
<pdfrwt beam="1">  1       -1 0.41530127E-01 0.28602634E+02</pdfrwt>
<totfact> 0.15837601E+01</totfact>
</mgrwt>
</event>
<event>
 5    1  0.7114032E-003  0.6137638E+02  0.7546771E-02  0.1527586E+00
          1   -1    0    0  502    0  0.00000000000E+00  0.00000000000E+00  0.30381826962E+03  0.30381826962E+03  0.00000000000E+00 0. -1.
         -2   -1    0    0    0  501 -0.00000000000E+00 -0.00000000000E+00 -0.53290061652E+02  0.53290061652E+02  0.00000000000E+00 0.  1.
         25    1    1    2    0    0 -0.44533838220E+02  0.58829369895E+02  0.13374386741E+03  0.19737421204E+03  0.12500000000E+03 0.  0.
          1    1    1    2  502    0  0.21972614826E+02 -0.54948993806E+02  0.12258141734E+03  0.13611903467E+03  0.00000000000E+00 0. -1.
         -2    1    1    2    0  501  0.22561223394E+02 -0.38803760883E+01 -0.57970767822E+01  0.23615084562E+02  0.00000000000E+00 0.  1.
<mgrwt>
<rscale>  0 0.37484106E+02</rscale>
<asrwt>0</asrwt>
<pdfrwt beam="1">  1        1 0.46741271E-01 0.61376379E+02</pdfrwt>
<pdfrwt beam="2">  1       -2 0.81984712E-02 0.22892490E+02</pdfrwt>
<totfact> 0.55964269E+03</totfact>
</mgrwt>
</event>
<event>
 5    1  0.7114032E-003  0.7170474E+02  0.7546771E-02  0.1400908E+00
          3   -1    0    0  502    0  0.00000000000E+00  0.00000000000E+00  0.26316846401E+03  0.26316846401E+03  0.00000000000E+00 0. -1.
          3   -1    0    0  501    0 -0.00000000000E+00 -0.00000000000E+00 -0.42541153840E+03  0.42541153840E+03  0.00000000000E+00 0. -1.
         25    1    1    2    0    0 -0.12632015832E+02  0.82050017142E+02  0.10700907243E+03  0.18430332260E+03  0.12500000000E+03 0.  0.
          3    1    1    2  501    0 -0.32856178750E+02 -0.63842516378E+02 -0.37812760385E+03  0.38488424256E+03  0.00000000000E+00 0. -1.
          3    1    1    2  502    0  0.45488194583E+02 -0.18207500764E+02  0.10887545702E+03  0.11939243725E+03  0.00000000000E+00 0. -1.
<mgrwt>
<rscale>  0 0.59273138E+02</rscale>
<asrwt>0</asrwt>
<pdfrwt beam="1">  1        3 0.40487456E-01 0.48996826E+02</pdfrwt>
<pdfrwt beam="2">  1        3 0.65447928E-01 0.71704744E+02</pdfrwt>
<totfact> 0.30160318E+01</totfact>
</mgrwt>
</event>
<event>
 5    1  0.7114032E-003  0.5656860E+02  0.7546771E-02  0.1446157E+00
         -1   -1    0    0    0  501 -0.00000000000E+00  0.00000000000E+00  0.53445389730E+02  0.53445389730E+02  0.00000000000E+00 0.  1.
          2   -1    0    0  502    0  0.00000000000E+00 -0.00000000000E+00 -0.27601841058E+03  0.27601841058E+03  0.00000000000E+00 0. -1.
         25    1    1    2    0    0  0.40244626889E+02  0.45178521339E+02 -0.13432431375E+03  0.19320649588E+03  0.12500000000E+03 0.  0.
          2    1    1    2  502    0 -0.41505338133E+02  0.14386059602E+02 -0.42714368170E+02  0.61271274286E+02  0.00000000000E+00 0. -1.
         -1    1    1    2    0  501  0.12607112442E+01 -0.59564580941E+02 -0.45534338926E+02  0.74986030145E+02  0.00000000000E+00 0.  1.
<mgrwt>
<rscale>  0 0.49849114E+02</rscale>
<asrwt>0</asrwt>
<pdfrwt beam="2">  1        2 0.42464372E-01 0.43927802E+02</pdfrwt>
<pdfrwt beam="1">  1       -1 0.82223675E-02 0.56568597E+02</pdfrwt>
<totfact> 0.98154324E+03</totfact>
</mgrwt>
</event>
<event>
 5    1  0.7114032E-003  0.2734732E+02  0.7546771E-02  0.1676992E+00
         -1   -1    0    0    0  501 -0.00000000000E+00  0.00000000000E+00  0.10712016495E+03  0.10712016495E+03  0.00000000000E+00 0.  1.
          1   -1    0    0  502    0  0.00000000000E+00 -0.00000000000E+00 -0.74911349337E+03  0.74911349337E+03  0.00000000000E+00 0. -1.
         25    1    1    2    0    0  0.66873100962E+01  0.45980687679E+01  0.51241138193E+01  0.12536793408E+03  0.12500000000E+03 0.  0.
          1    1    1    2  502    0  0.18966297652E+02  0.88394948906E+01 -0.68380520702E+03  0.68412529428E+03  0.00000000000E+00 0. -1.
         -1    1    1    2    0  501 -0.25653607748E+02 -0.13437563658E+02  0.36687764791E+02  0.46740429961E+02  0.00000000000E+00 0.  1.
<mgrwt>
<rscale>  0 0.23921616E+02</rscale>
<asrwt>0</asrwt>
<pdfrwt beam="2">  1        1 0.11524823E+00 0.20925036E+02</pdfrwt>
<pdfrwt beam="1">  1       -1 0.16480025E-01 0.27347324E+02</pdfrwt>
<totfact> 0.71185808E+02</totfact>
</mgrwt>
</event>
<event>
 5    1  0.7114032E-003  0.1237160E+03  0.7546771E-02  0.1367936E+00
          2   -1    0    0  502    0  0.00000000000E+00  0.00000000000E+00  0.36038625430E+03  0.36038625430E+03  0.00000000000E+00 0. -1.
         -3   -1    0    0    0  501 -0.00000000000E+00 -0.00000000000E+00 -0.20078355768E+03  0.20078355768E+03  0.00000000000E+00 0.  1.
         25    1    1    2    0    0 -0.11839706263E+01  0.15017380497E+03  0.20184941548E+02  0.19643320837E+03  0.12500000000E+03 0.  0.
          2    1    1    2  502    0  0.19674973810E+02 -0.11801562108E+03  0.23417940498E+03  0.26297297415E+03  0.00000000000E+00 0. -1.
         -3    1    1    2    0  501 -0.18491003184E+02 -0.32158183884E+02 -0.94761649906E+02  0.10176362947E+03  0.00000000000E+00 0.  1.
<mgrwt>
<rscale>  0 0.67744293E+02</rscale>
<asrwt>0</asrwt>
<pdfrwt beam="1">  1        2 0.55444039E-01 0.12371598E+03</pdfrwt>
<pdfrwt beam="2">  1       -3 0.30889778E-01 0.37095363E+02</pdfrwt>
<totfact> 0.49078912E+02</totfact>
</mgrwt>
</event>
<event>
 5    1  0.7114032E-003  0.5875458E+02  0.7546771E-02  0.1445099E+00
          2   -1    0    0  501    0  0.00000000000E+00  0.00000000000E+00  0.55167818468E+02  0.55167818468E+02  0.00000000000E+00 0. -1.
          2   -1    0    0  502    0 -0.00000000000E+00 -0.00000000000E+00 -0.20995210519E+04  0.20995210519E+04  0.00000000000E+00 0. -1.
         25    1    1    2    0    0 -0.52390251127E+01  0.77318092755E+00 -0.14201111510E+04  0.14256117025E+04  0.12500000000E+03 0.  0.
          2    1    1    2  501    0 -0.50184171865E+02  0.30555673845E+02  0.33920064700E+02  0.67842988577E+02  0.00000000000E+00 0. -1.
          2    1    1    2  502    0  0.55423196977E+02 -0.31328854772E+02 -0.65816214715E+03  0.66123417927E+03  0.00000000000E+00 0. -1.
<mgrwt>
<rscale>  0 0.50044987E+02</rscale>
<asrwt>0</asrwt>
<pdfrwt beam="1">  1        2 0.84873578E-02 0.58754577E+02</pdfrwt>
<pdfrwt beam="2">  1        2 0.32300320E+00 0.42626479E+02</pdfrwt>
<totfact> 0.89459575E+02</totfact>
</mgrwt>
</event>
<event>
 5    1  0.7114032E-003  0.6476260E+02  0.7546771E-02  0.1520938E+00
          2   -1    0    0  501    0  0.00000000000E+00  0.00000000000E+00  0.23468713973E+04  0.23468713973E+04  0.00000000000E+00 0. -1.
          1   -1    0    0  502    0 -0.00000000000E+00 -0.00000000000E+00 -0.17908582723E+03  0.17908582723E+03  0.00000000000E+00 0. -1.
         25    1    1    2    0    0 -0.28060460671E+02  0.43279506046E+02  0.29244785509E+03  0.32219753730E+03  0.12500000000E+03 0.  0.
          2    1    1    2  501    0  0.16982126893E+02 -0.63065038152E+02  0.20382403090E+04  0.20392864313E+04  0.00000000000E+00 0. -1.
          1    1    1    2  502    0  0.11078333778E+02  0.19785532106E+02 -0.16290259404E+03  0.16447325590E+03  0.00000000000E+00 0. -1.
<mgrwt>
<rscale>  0 0.38321673E+02</rscale>
<asrwt>0</asrwt>
<pdfrwt beam="1">  1        2 0.36105712E+00 0.64762595E+02</pdfrwt>
<pdfrwt beam="2">  1        1 0.27551667E-01 0.22675907E+02</pdfrwt>
<totfact> 0.12551935E+02</totfact>
</mgrwt>
</event>
<event>
 5    1  0.7114032E-003  0.1703777E+03  0.7546771E-02  0.1353286E+00
          2   -1    0    0  502    0  0.00000000000E+00  0.00000000000E+00  0.18079094847E+03  0.18079094847E+03  0.00000000000E+00 0. -1.
         -1   -1    0    0    0  501 -0.00000000000E+00 -0.00000000000E+00 -0.27346970231E+03  0.27346970231E+03  0.00000000000E+00 0.  1.
         25    1    1    2    0    0  0.83101306990E+02 -0.17310267710E+03 -0.87868223690E+01  0.22928709578E+03  0.12500000000E+03 0.  0.
          2    1    1    2  502    0 -0.13923663979E+02  0.27093098624E+02  0.16611705723E+02  0.34696587421E+02  0.00000000000E+00 0. -1.
         -1    1    1    2    0  501 -0.69177643011E+02  0.14600957848E+03 -0.10050363720E+03  0.19027696758E+03  0.00000000000E+00 0.  1.
<mgrwt>
<rscale>  0 0.72041397E+02</rscale>
<asrwt>0</asrwt>
<pdfrwt beam="1">  1        2 0.27813992E-01 0.30461523E+02</pdfrwt>
<pdfrwt beam="2">  1       -1 0.42072262E-01 0.17037765E+03</pdfrwt>
<totfact> 0.11574720E+03</totfact>
</mgrwt>
</event>
<event>
 5    1  0.7114032E-003  0.2610272E+03  0.7546771E-02  0.1241791E+00
          3   -1    0    0  502    0 -0.00000000000E+00  0.00000000000E+00  0.41392851903E+03  0.41392851903E+03  0.00000000000E+00 0. -1.
          2   -1    0    0  501    0  0.00000000000E+00 -0.00000000000E+00 -0.11469590161E+04  0.11469590161E+04  0.00000000000E+00 0. -1.
         25    1    1    2    0    0  0.26502190722E+03 -0.12743097126E+03 -0.48849802985E+03  0.58372132813E+03  0.12500000000E+03 0.  0.
          2    1    1    2  501    0 -0.20912908108E+03  0.12652700686E+03 -0.58402053451E+03  0.63310665828E+03  0.00000000000E+00 0. -1.
          3    1    1    2  502    0 -0.55892826137E+02  0.90396440196E+00  0.33948806735E+03  0.34405954868E+03  0.00000000000E+00 0. -1.
<mgrwt>
<rscale>  0 0.12079509E+03</rscale>
<asrwt>0</asrwt>
<pdfrwt beam="2">  1        2 0.17645523E+00 0.26102718E+03</pdfrwt>
<pdfrwt beam="1">  1        3 0.63681311E-01 0.55900136E+02</pdfrwt>
<totfact> 0.30801895E+01</totfact>
</mgrwt>
</event>
<event>
 5    1  0.7114032E-003  0.7387952E+02  0.7546771E-02  0.1366906E+00
          2   -1    0    0  502    0  0.00000000000E+00  0.00000000000E+00  0.15803998494E+03  0.15803998494E+03  0.00000000000E+00 0. -1.
         -1   -1    0    0    0  501 -0.00000000000E+00 -0.00000000000E+00 -0.91128073253E+03  0.91128073253E+03  0.00000000000E+00 0.  1.
         25    1    1    2    0    0 -0.26810367584E+02 -0.97522493956E+01 -0.52821648235E+01  0.12832304331E+03  0.12500000000E+03 0.  0.
          2    1    1    2  502    0  0.66174648096E+02  0.58494585693E+02  0.74871236163E+02  0.11578602079E+03  0.00000000000E+00 0. -1.
         -1    1    1    2    0  501 -0.39364280512E+02 -0.48742336297E+02 -0.82282981893E+03  0.82521165336E+03  0.00000000000E+00 0.  1.
<mgrwt>
<rscale>  0 0.68034932E+02</rscale>
<asrwt>0</asrwt>
<pdfrwt beam="1">  1        2 0.24313843E-01 0.73879520E+02</pdfrwt>
<pdfrwt beam="2">  1       -1 0.14019704E+00 0.62652709E+02</pdfrwt>
<totfact> 0.12100166E+02</totfact>
</mgrwt>
</event>
<event>
 5    1  0.7114032E-003  0.6947314E+02  0.7546771E-02  0.1492406E+00
         -1   -1    0    0    0  501 -0.00000000000E+00  0.00000000000E+00  0.97875338793E+01  0.97875338793E+01  0.00000000000E+00 0.  1.
          2   -1    0    0  502    0  0.00000000000E+00 -0.00000000000E+00 -0.16073204429E+04  0.16073204429E+04  0.00000000000E+00 0. -1.
         25    1    1    2    0    0 -0.48094265688E+01  0.64937712779E+02 -0.10599420015E+04  0.10692717539E+04  0.12500000000E+03 0.  0.
          2    1    1    2  502    0 -0.25670795225E+02 -0.17342215222E+00 -0.25624882537E+03  0.25753151323E+03  0.00000000000E+00 0. -1.
         -1    1    1    2    0  501  0.30480221794E+02 -0.64764290627E+02 -0.28134208212E+03  0.29030470963E+03  0.00000000000E+00 0.  1.
<mgrwt>
<rscale>  0 0.42231165E+02</rscale>
<asrwt>0</asrwt>
<pdfrwt beam="2">  1        2 0.24727965E+00 0.25671381E+02</pdfrwt>
<pdfrwt beam="1">  1       -1 0.15057770E-02 0.69473136E+02</pdfrwt>
<totfact> 0.14554396E+04</totfact>
</mgrwt>
</event>
<event>
 5    1  0.7114032E-003  0.5307345E+02  0.7546771E-02  0.1484339E+00
         -2   -1    0    0    0  501 -0.00000000000E+00  0.00000000000E+00  0.65315937442E+02  0.65315937442E+02  0.00000000000E+00 0.  1.
          1   -1    0    0  502    0  0.00000000000E+00 -0.00000000000E+00 -0.28747136824E+03  0.28747136824E+03  0.00000000000E+00 0. -1.
         25    1    1    2    0    0  0.38454953000E+02  0.53673785320E+02 -0.20546693675E+03  0.24940192609E+03  0.12500000000E+03 0.  0.
          1    1    1    2  502    0 -0.35509110950E+02 -0.17257713153E+01  0.18981601068E+02  0.40301072271E+02  0.00000000000E+00 0. -1.
         -2    1    1    2    0  501 -0.29458420505E+01 -0.51948014005E+02 -0.35670095121E+02  0.63084307323E+02  0.00000000000E+00 0.  1.
<mgrwt>
<rscale>  0 0.43437488E+02</rscale>
<asrwt>0</asrwt>
<pdfrwt beam="2">  1        1 0.44226365E-01 0.35551023E+02</pdfrwt>
<pdfrwt beam="1">  1       -2 0.10048606E-01 0.53073447E+02</pdfrwt>
<totfact> 0.47668497E+03</totfact>
</mgrwt>
</event>
<event>
 5    1  0.7114032E-003  0.6787648E+02  0.7546771E-02  0.1440222E+00
         -1   -1    0    0    0  501 -0.00000000000E+00  0.00000000000E+00  0.17033649442E+02  0.17033649442E+02  0.00000000000E+00 0.  1.
          2   -1    0    0  502    0  0.00000000000E+00 -0.00000000000E+00 -0.10108713770E+04  0.10108713770E+04  0.00000000000E+00 0. -1.
         25    1    1    2    0    0  0.40702360396E+02  0.62251957653E+02 -0.68959421224E+03  0.70476745521E+03  0.12500000000E+03 0.  0.
          2    1    1    2  502    0 -0.60831679272E+02 -0.29712605885E+02 -0.22789081250E+03  0.23773420993E+03  0.00000000000E+00 0. -1.
         -1    1    1    2    0  501  0.20129318876E+02 -0.32539351768E+02 -0.76352702774E+02  0.85403361250E+02  0.00000000000E+00 0.  1.
<mgrwt>
<rscale>  0 0.50961812E+02</rscale>
<asrwt>0</asrwt>
<pdfrwt beam="2">  1        2 0.15551870E+00 0.67876484E+02</pdfrwt>
<pdfrwt beam="1">  1       -1 0.26205611E-02 0.38262238E+02</pdfrwt>
<totfact> 0.11436401E+04</totfact>
</mgrwt>
</event>
<event>
 5    1  0.7114032E-003  0.7972890E+02  0.7546771E-02  0.1457896E+00
          1   -1    0    0  502    0  0.00000000000E+00  0.00000000000E+00  0.76524710092E+02  0.76524710092E+02  0.00000000000E+00 0. -1.
         -1   -1    0    0    0  501 -0.00000000000E+00 -0.00000000000E+00 -0.22220832989E+03  0.22220832989E+03  0.00000000000E+00 0.  1.
         25    1    1    2    0    0  0.63936233703E+02 -0.66667830823E+00 -0.86098231603E+02  0.16470030943E+03  0.12500000000E+03 0.  0.
          1    1    1    2  502    0 -0.85908785256E+02  0.18961916107E+02 -0.30156821208E+02  0.93001653276E+02  0.00000000000E+00 0. -1.
         -1    1    1    2    0  501  0.21972551553E+02 -0.18295237799E+02 -0.29428566993E+02  0.41031077284E+02  0.00000000000E+00 0.  1.
<mgrwt>
<rscale>  0 0.47745341E+02</rscale>
<asrwt>0</asrwt>
<pdfrwt beam="1">  1        1 0.11773033E-01 0.79728904E+02</pdfrwt>
<pdfrwt beam="2">  1       -1 0.34185896E-01 0.28592110E+02</pdfrwt>
<totfact> 0.38022964E+03</totfact>
</mgrwt>
</event>
<event>
 5    1  0.7114032E-003  0.3122730E+03  0.7546771E-02  0.1170365E+00
          2   -1    0    0  501    0  0.00000000000E+00  0.00000000000E+00  0.27196907577E+04  0.27196907577E+04  0.00000000000E+00 0. -1.
          1   -1    0    0  502    0 -0.00000000000E+00 -0.00000000000E+00 -0.24650134421E+04  0.24650134421E+04  0.00000000000E+00 0. -1.
         25    1    1    2    0    0  0.21240966069E+03  0.16456307024E+03 -0.31150983417E+03  0.42995609640E+03  0.12500000000E+03 0.  0.
          2    1    1    2  501    0  0.89008322154E+02 -0.47211750230E+02  0.26470142236E+04  0.26489310544E+04  0.00000000000E+00 0. -1.
          1    1    1    2  502    0 -0.30141798285E+03 -0.11735132001E+03 -0.20808270739E+04  0.21058170490E+04  0.00000000000E+00 0. -1.
<mgrwt>
<rscale>  0 0.17737769E+03</rscale>
<asrwt>0</asrwt>
<pdfrwt beam="1">  1        2 0.41841396E+00 0.10075431E+03</pdfrwt>
<pdfrwt beam="2">  1        1 0.37923284E+00 0.31227296E+03</pdfrwt>
<totfact> 0.78779377E-01</totfact>
</mgrwt>
</event>
<event>
 5    1  0.7114032E-003  0.1055383E+03  0.7546771E-02  0.1272266E+00
          1   -1    0    0  502    0 -0.00000000000E+00  0.00000000000E+00  0.66115366257E+03  0.66115366257E+03  0.00000000000E+00 0. -1.
          2   -1    0    0  501    0  0.00000000000E+00 -0.00000000000E+00 -0.14871875511E+04  0.14871875511E+04  0.00000000000E+00 0. -1.
         25    1    1    2    0    0  0.10335240364E+03  0.17476135417E+03 -0.41542825250E+03  0.47898735184E+03  0.12500000000E+03 0.  0.
          2    1    1    2  501    0 -0.33849643179E+02 -0.96561320983E+02 -0.10330868376E+04  0.10381417539E+04  0.00000000000E+00 0. -1.
          1    1    1    2  502    0 -0.69502760458E+02 -0.78200033186E+02  0.62248120159E+03  0.63121210796E+03  0.00000000000E+00 0. -1.
<mgrwt>
<rscale>  0 0.10391796E+03</rscale>
<asrwt>0</asrwt>
<pdfrwt beam="2">  1        2 0.22879808E+00 0.10232247E+03</pdfrwt>
<pdfrwt beam="1">  1        1 0.10171595E+00 0.10553834E+03</pdfrwt>
<totfact> 0.65273657E+01</totfact>
</mgrwt>
</event>
<event>
 5    1  0.7114032E-003  0.4562006E+02  0.7546771E-02  0.1480686E+00
          2   -1    0    0  501    0  0.00000000000E+00  0.00000000000E+00  0.70551233939E+03  0.70551233939E+03  0.00000000000E+00 0. -1.
          2   -1    0    0  502    0 -0.00000000000E+00 -0.00000000000E+00 -0.59351280990E+02  0.59351280990E+02  0.00000000000E+00 0. -1.
         25    1    1    2    0    0 -0.49246636311E+02  0.52918068322E+02  0.11575575608E+03  0.18506741531E+03  0.12500000000E+03 0.  0.
          2    1    1    2  501    0  0.41156820762E+02 -0.10342685717E+02  0.53457700503E+03  0.53625873359E+03  0.00000000000E+00 0. -1.
          2    1    1    2  502    0  0.80898155494E+01 -0.42575382605E+02 -0.41717027131E+01  0.43537471482E+02  0.00000000000E+00 0. -1.
<mgrwt>
<rscale>  0 0.43999488E+02</rscale>
<asrwt>0</asrwt>
<pdfrwt beam="1">  1        2 0.10854035E+00 0.42436482E+02</pdfrwt>
<pdfrwt beam="2">  1        2 0.91309668E-02 0.45620061E+02</pdfrwt>
<totfact> 0.43261409E+03</totfact>
</mgrwt>
</event>
<event>
 5    1  0.7114032E-003  0.5783693E+02  0.7546771E-02  0.1477638E+00
          1   -1    0    0  502    0  0.00000000000E+00  0.00000000000E+00  0.38193081703E+03  0.38193081703E+03  0.00000000000E+00 0. -1.
         -1   -1    0    0    0  501 -0.00000000000E+00 -0.00000000000E+00 -0.11963221784E+03  0.11963221784E+03  0.00000000000E+00 0.  1.
         25    1    1    2    0    0 -0.27432727561E+02 -0.21609496310E+02  0.29095392810E+03  0.31858862684E+03  0.12500000000E+03 0.  0.
          1    1    1    2  502    0  0.72566875297E+01 -0.33423297475E+02  0.64445421516E+02  0.72958814974E+02  0.00000000000E+00 0. -1.
         -1    1    1    2    0  501  0.20176040031E+02  0.55032793785E+02 -0.93100750430E+02  0.11001559305E+03  0.00000000000E+00 0.  1.
<mgrwt>
<rscale>  0 0.44476268E+02</rscale>
<asrwt>0</asrwt>
<pdfrwt beam="1">  1        1 0.58758587E-01 0.34201993E+02</pdfrwt>
<pdfrwt beam="2">  1       -1 0.18404957E-01 0.57836934E+02</pdfrwt>
<totfact> 0.14323377E+03</totfact>
</mgrwt>
</event>
<event>
 5    1  0.7114032E-003  0.7452519E+02  0.7546771E-02  0.1477946E+00
          2   -1    0    0  502    0  0.00000000000E+00  0.00000000000E+00  0.12754193048E+04  0.12754193048E+04  0.00000000000E+00 0. -1.
         -2   -1    0    0    0  501 -0.00000000000E+00 -0.00000000000E+00 -0.16002503354E+02  0.16002503354E+02  0.00000000000E+00 0.  1.
         25    1    1    2    0    0  0.67368424185E+02 -0.77190796832E+01  0.40047776117E+03  0.42497708875E+03  0.12500000000E+03 0.  0.
          2    1    1    2  502    0  0.14363436468E+02 -0.22252407731E+02  0.17665552971E+03  0.17862993627E+03  0.00000000000E+00 0. -1.
         -2    1    1    2    0  501 -0.81731860653E+02  0.29971487414E+02  0.68228351059E+03  0.68781478316E+03  0.00000000000E+00 0.  1.
<mgrwt>
<rscale>  0 0.44427825E+02</rscale>
<asrwt>0</asrwt>
<pdfrwt beam="1">  1        2 0.19621827E+00 0.26485429E+02</pdfrwt>
<pdfrwt beam="2">  1       -2 0.24619246E-02 0.74525190E+02</pdfrwt>
<totfact> 0.10428925E+04</totfact>
</mgrwt>
</event>
<event>
 5    1  0.7114032E-003  0.1154259E+03  0.7546771E-02  0.1326350E+00
          2   -1    0    0  502    0  0.00000000000E+00  0.00000000000E+00  0.59996404540E+03  0.59996404540E+03  0.00000000000E+00 0. -1.
          2   -1    0    0  501    0 -0.00000000000E+00 -0.00000000000E+00 -0.16176480367E+03  0.16176480367E+03  0.00000000000E+00 0. -1.
         25    1    1    2    0    0 -0.22448919609E+02 -0.12490987558E+03  0.24445836684E+03  0.30247532813E+03  0.12500000000E+03 0.  0.
          2    1    1    2  501    0  0.69103022750E+02  0.92538442512E+02 -0.10444095082E+03  0.15571288741E+03  0.00000000000E+00 0. -1.
          2    1    1    2  502    0 -0.46654103142E+02  0.32371433065E+02  0.29818182572E+03  0.30354063354E+03  0.00000000000E+00 0. -1.
<mgrwt>
<rscale>  0 0.80959483E+02</rscale>
<asrwt>0</asrwt>
<pdfrwt beam="1">  1        2 0.92302160E-01 0.56784813E+02</pdfrwt>
<pdfrwt beam="2">  1        2 0.24886893E-01 0.11542590E+03</pdfrwt>
<totfact> 0.17084683E+03</totfact>
</mgrwt>
</event>
<event>
 5    1  0.7114032E-003  0.6390665E+02  0.7546771E-02  0.1499878E+00
         -1   -1    0    0    0  501 -0.00000000000E+00  0.00000000000E+00  0.57042793026E+02  0.57042793026E+02  0.00000000000E+00 0.  1.
          2   -1    0    0  502    0  0.00000000000E+00 -0.00000000000E+00 -0.29297531952E+03  0.29297531952E+03  0.00000000000E+00 0. -1.
         25    1    1    2    0    0 -0.52687866918E+02 -0.82364660962E+01 -0.19613740892E+03  0.23861838545E+03  0.12500000000E+03 0.  0.
          2    1    1    2  502    0  0.77509722332E+02 -0.10543817047E+01 -0.30790307663E+02  0.83408104059E+02  0.00000000000E+00 0. -1.
         -1    1    1    2    0  501 -0.24821855414E+02  0.92908478009E+01 -0.90048099106E+01  0.27991623043E+02  0.00000000000E+00 0.  1.
<mgrwt>
<rscale>  0 0.41155323E+02</rscale>
<asrwt>0</asrwt>
<pdfrwt beam="2">  1        2 0.45073126E-01 0.63906653E+02</pdfrwt>
<pdfrwt beam="1">  1       -1 0.87758143E-02 0.26503667E+02</pdfrwt>
<totfact> 0.78493730E+03</totfact>
</mgrwt>
</event>
<event>
 5    1  0.7114032E-003  0.1196797E+03  0.7546771E-02  0.1431413E+00
         -3   -1    0    0    0  501 -0.00000000000E+00  0.00000000000E+00  0.54414820464E+03  0.54414820464E+03  0.00000000000E+00 0.  1.
          1   -1    0    0  502    0  0.00000000000E+00 -0.00000000000E+00 -0.85915580282E+03  0.85915580282E+03  0.00000000000E+00 0. -1.
         25    1    1    2    0    0 -0.11173007200E+03 -0.85146040454E+02 -0.21692311093E+03  0.28707854892E+03  0.12500000000E+03 0.  0.
          1    1    1    2  502    0  0.22248931595E+02  0.65256317338E+01 -0.59996035374E+03  0.60040821520E+03  0.00000000000E+00 0. -1.
         -3    1    1    2    0  501  0.89481140401E+02  0.78620408720E+02  0.50187586649E+03  0.51581724334E+03  0.00000000000E+00 0.  1.
<mgrwt>
<rscale>  0 0.52677457E+02</rscale>
<asrwt>0</asrwt>
<pdfrwt beam="2">  1        1 0.13217781E+00 0.23186177E+02</pdfrwt>
<pdfrwt beam="1">  1       -3 0.83715109E-01 0.11967969E+03</pdfrwt>
<totfact> 0.17138497E+01</totfact>
</mgrwt>
</event>
<event>
 5    1  0.7114032E-003  0.1775200E+03  0.7546771E-02  0.1233211E+00
          1   -1    0    0  502    0 -0.00000000000E+00  0.00000000000E+00  0.42132506683E+03  0.42132506683E+03  0.00000000000E+00 0. -1.
          2   -1    0    0  501    0  0.00000000000E+00 -0.00000000000E+00 -0.66582266190E+03  0.66582266190E+03  0.00000000000E+00 0.  1.
         25    1    1    2    0    0  0.78638171835E+02  0.24002146960E+03 -0.16434919907E+03  0.32623599920E+03  0.12500000000E+03 0.  0.
          2    1    1    2  501    0  0.31383590590E+01 -0.89656563448E+02 -0.39364182881E+03  0.40373510877E+03  0.00000000000E+00 0.  1.
          1    1    1    2  502    0 -0.81776530894E+02 -0.15036490615E+03  0.31349343280E+03  0.35717662076E+03  0.00000000000E+00 0. -1.
<mgrwt>
<rscale>  0 0.12619660E+03</rscale>
<asrwt>0</asrwt>
<pdfrwt beam="2">  1        2 0.10243426E+00 0.89711475E+02</pdfrwt>
<pdfrwt beam="1">  1        1 0.64819241E-01 0.17752002E+03</pdfrwt>
<totfact> 0.35809645E+02</totfact>
</mgrwt>
</event>
<event>
 5    1  0.7114032E-003  0.4570499E+02  0.7546771E-02  0.1561676E+00
         -1   -1    0    0    0  501 -0.00000000000E+00  0.00000000000E+00  0.10649126982E+02  0.10649126982E+02  0.00000000000E+00 0.  1.
          2   -1    0    0  502    0  0.00000000000E+00 -0.00000000000E+00 -0.24135004729E+04  0.24135004729E+04  0.00000000000E+00 0. -1.
         25    1    1    2    0    0  0.89151521462E+01  0.32300274707E+02 -0.21970414258E+04  0.22008495665E+04  0.12500000000E+03 0.  0.
          2    1    1    2  502    0 -0.21418272236E+02  0.12216455834E+02 -0.14406856584E+03  0.14616338749E+03  0.00000000000E+00 0. -1.
         -1    1    1    2    0  501  0.12503120090E+02 -0.44516730542E+02 -0.61741354226E+02  0.77136645842E+02  0.00000000000E+00 0.  1.
<mgrwt>
<rscale>  0 0.33570274E+02</rscale>
<asrwt>0</asrwt>
<pdfrwt beam="2">  1        2 0.37130796E+00 0.24657335E+02</pdfrwt>
<pdfrwt beam="1">  1       -1 0.16383264E-02 0.45704991E+02</pdfrwt>
<totfact> 0.50607559E+03</totfact>
</mgrwt>
</event>
<event>
 5    1  0.7114032E-003  0.1045401E+03  0.7546771E-02  0.1299410E+00
          2   -1    0    0  501    0  0.00000000000E+00  0.00000000000E+00  0.26984856294E+03  0.26984856294E+03  0.00000000000E+00 0. -1.
          1   -1    0    0  502    0 -0.00000000000E+00 -0.00000000000E+00 -0.26380462220E+03  0.26380462220E+03  0.00000000000E+00 0. -1.
         25    1    1    2    0    0 -0.15083541883E+03  0.89159331475E+02 -0.31048709366E+02  0.21746202500E+03  0.12500000000E+03 0.  0.
          2    1    1    2  501    0  0.77165660485E+02 -0.58034359391E+02  0.14966210671E+03  0.17810466645E+03  0.00000000000E+00 0. -1.
          1    1    1    2  502    0  0.73669758341E+02 -0.31124972085E+02 -0.11256945660E+03  0.13808649370E+03  0.00000000000E+00 0. -1.
<mgrwt>
<rscale>  0 0.91436259E+02</rscale>
<asrwt>0</asrwt>
<pdfrwt beam="1">  1        2 0.41515164E-01 0.10454006E+03</pdfrwt>
<pdfrwt beam="2">  1        1 0.40585326E-01 0.79974978E+02</pdfrwt>
<totfact> 0.16941389E+03</totfact>
</mgrwt>
</event>
<event>
 5    1  0.7114032E-003  0.5096795E+02  0.7546771E-02  0.1467114E+00
          2   -1    0    0  501    0  0.00000000000E+00  0.00000000000E+00  0.79343080028E+03  0.79343080028E+03  0.00000000000E+00 0. -1.
          2   -1    0    0  502    0 -0.00000000000E+00 -0.00000000000E+00 -0.19295757649E+03  0.19295757649E+03  0.00000000000E+00 0. -1.
         25    1    1    2    0    0  0.36835885052E+02  0.76166452762E+02  0.24004198433E+03  0.28355487158E+03  0.12500000000E+03 0.  0.
          2    1    1    2  501    0 -0.48478182786E+01 -0.49197525081E+02  0.52790388813E+03  0.53021355406E+03  0.00000000000E+00 0. -1.
          2    1    1    2  502    0 -0.31988066774E+02 -0.26968927682E+02 -0.16747264867E+03  0.17261995113E+03  0.00000000000E+00 0. -1.
<mgrwt>
<rscale>  0 0.46178817E+02</rscale>
<asrwt>0</asrwt>
<pdfrwt beam="1">  1        2 0.12206628E+00 0.50967951E+02</pdfrwt>
<pdfrwt beam="2">  1        2 0.29685781E-01 0.41839688E+02</pdfrwt>
<totfact> 0.10031328E+03</totfact>
</mgrwt>
</event>
<event>
 5    1  0.7114032E-003  0.5739595E+02  0.7546771E-02  0.1427631E+00
          1   -1    0    0  502    0  0.00000000000E+00  0.00000000000E+00  0.12941177611E+03  0.12941177611E+03  0.00000000000E+00 0. -1.
          1   -1    0    0  501    0 -0.00000000000E+00 -0.00000000000E+00 -0.23697330457E+03  0.23697330457E+03  0.00000000000E+00 0. -1.
         25    1    1    2    0    0  0.30683339917E+01 -0.25079289414E+02 -0.73337516744E+02  0.14711144345E+03  0.12500000000E+03 0.  0.
          1    1    1    2  501    0  0.35257658945E+02  0.56805722099E+02 -0.10994025279E+03  0.12867343067E+03  0.00000000000E+00 0. -1.
          1    1    1    2  502    0 -0.38325992936E+02 -0.31726432684E+02  0.75716241078E+02  0.90600206558E+02  0.00000000000E+00 0. -1.
<mgrwt>
<rscale>  0 0.53438477E+02</rscale>
<asrwt>0</asrwt>
<pdfrwt beam="1">  1        1 0.19909504E-01 0.49753877E+02</pdfrwt>
<pdfrwt beam="2">  1        1 0.36457431E-01 0.57395946E+02</pdfrwt>
<totfact> 0.33525452E+03</totfact>
</mgrwt>
</event>
<event>
 5    1  0.7114032E-003  0.1134783E+03  0.7546771E-02  0.1352879E+00
         -1   -1    0    0    0  501 -0.00000000000E+00  0.00000000000E+00  0.43413297161E+03  0.43413297161E+03  0.00000000000E+00 0.  1.
          3   -1    0    0  502    0  0.00000000000E+00 -0.00000000000E+00 -0.10661644616E+04  0.10661644616E+04  0.00000000000E+00 0. -1.
         25    1    1    2    0    0 -0.12460490670E+03  0.51436288381E+02  0.16468839569E+03  0.24681843977E+03  0.12500000000E+03 0.  0.
          3    1    1    2  502    0  0.16688047323E+02 -0.42751971091E+02 -0.10117188335E+04  0.10127592113E+04  0.00000000000E+00 0. -1.
         -1    1    1    2    0  501  0.10791685938E+03 -0.86843172901E+01  0.21499894788E+03  0.24071978210E+03  0.00000000000E+00 0.  1.
<mgrwt>
<rscale>  0 0.72165975E+02</rscale>
<asrwt>0</asrwt>
<pdfrwt beam="2">  1        3 0.16402530E+00 0.45893594E+02</pdfrwt>
<pdfrwt beam="1">  1       -1 0.66789688E-01 0.11347832E+03</pdfrwt>
<totfact> 0.30673318E+00</totfact>
</mgrwt>
</event>
<event>
 5    1  0.7114032E-003  0.5441619E+02  0.7546771E-02  0.1558358E+00
         -2   -1    0    0    0  501  0.00000000000E+00  0.00000000000E+00  0.38447085636E+03  0.38447085636E+03  0.00000000000E+00 0.  1.
         -1   -1    0    0    0  502 -0.00000000000E+00 -0.00000000000E+00 -0.29241189139E+03  0.29241189139E+03  0.00000000000E+00 0.  1.
         25    1    1    2    0    0  0.31582776641E+02  0.63833037055E+02 -0.79755968968E+01  0.14408587212E+03  0.12500000000E+03 0.  0.
         -2    1    1    2    0  501 -0.13982823557E+02 -0.52103791988E+02  0.31359007356E+03  0.31819657247E+03  0.00000000000E+00 0.  1.
         -1    1    1    2    0  502 -0.17599953084E+02 -0.11729245068E+02 -0.21355551169E+03  0.21460030315E+03  0.00000000000E+00 0.  1.
<mgrwt>
<rscale>  0 0.33925162E+02</rscale>
<asrwt>0</asrwt>
<pdfrwt beam="1">  1       -2 0.59149363E-01 0.54416190E+02</pdfrwt>
<pdfrwt beam="2">  1       -1 0.44986445E-01 0.21150261E+02</pdfrwt>
<totfact> 0.10201359E+02</totfact>
</mgrwt>
</event>
<event>
 5    1  0.7114032E-003  0.5990373E+02  0.7546771E-02  0.1417799E+00
          3   -1    0    0  502    0 -0.00000000000E+00  0.00000000000E+00  0.13946303392E+03  0.13946303392E+03  0.00000000000E+00 0. -1.
          2   -1    0    0  501    0  0.00000000000E+00 -0.00000000000E+00 -0.21674573956E+04  0.21674573956E+04  0.00000000000E+00 0. -1.
         25    1    1    2    0    0 -0.43895983543E+02  0.54283709729E+02 -0.93741227139E+02  0.17113151720E+03  0.12500000000E+03 0.  0.
          2    1    1    2  501    0 -0.16429413263E+02 -0.48703585906E+02 -0.20255596351E+04  0.20262116870E+04  0.00000000000E+00 0. -1.
          3    1    1    2  502    0  0.60325396806E+02 -0.55801238235E+01  0.91306500551E+02  0.10957722539E+03  0.00000000000E+00 0. -1.
<mgrwt>
<rscale>  0 0.55489230E+02</rscale>
<asrwt>0</asrwt>
<pdfrwt beam="2">  1        2 0.33345495E+00 0.51400048E+02</pdfrwt>
<pdfrwt beam="1">  1        3 0.21455854E-01 0.59903730E+02</pdfrwt>
<totfact> 0.81281140E+01</totfact>
</mgrwt>
</event>
<event>
 5    1  0.7114032E-003  0.5544770E+02  0.7546771E-02  0.1419050E+00
          1   -1    0    0  502    0  0.00000000000E+00  0.00000000000E+00  0.52501792835E+02  0.52501792835E+02  0.00000000000E+00 0. -1.
          1   -1    0    0  501    0 -0.00000000000E+00 -0.00000000000E+00 -0.16275566670E+04  0.16275566670E+04  0.00000000000E+00 0. -1.
         25    1    1    2    0    0  0.11841139131E+02  0.47359947313E+02 -0.21489907652E+03  0.25335704110E+03  0.12500000000E+03 0.  0.
          1    1    1    2  501    0 -0.54880698987E+02 -0.13120092758E+02 -0.13697168215E+04  0.13708786230E+04  0.00000000000E+00 0. -1.
          1    1    1    2  502    0  0.43039559856E+02 -0.34239854555E+02  0.95610237920E+01  0.55822795778E+02  0.00000000000E+00 0. -1.
<mgrwt>
<rscale>  0 0.55222352E+02</rscale>
<asrwt>0</asrwt>
<pdfrwt beam="1">  1        1 0.80771998E-02 0.54997921E+02</pdfrwt>
<pdfrwt beam="2">  1        1 0.25039331E+00 0.55447698E+02</pdfrwt>
<totfact> 0.63493076E+02</totfact>
</mgrwt>
</event>
<event>
 5    1  0.7114032E-003  0.1065167E+03  0.7546771E-02  0.1357665E+00
         -1   -1    0    0    0  501  0.00000000000E+00  0.00000000000E+00  0.44386673429E+03  0.44386673429E+03  0.00000000000E+00 0.  1.
         -3   -1    0    0    0  502 -0.00000000000E+00 -0.00000000000E+00 -0.43741213011E+03  0.43741213011E+03  0.00000000000E+00 0.  1.
         25    1    1    2    0    0 -0.40574956022E+02 -0.92970859675E+02 -0.81981146803E+02  0.18065385752E+03  0.12500000000E+03 0.  0.
         -1    1    1    2    0  501  0.44086717814E+02 -0.16150877396E+02  0.38331672771E+03  0.38618156775E+03  0.00000000000E+00 0.  1.
         -3    1    1    2    0  502 -0.35117617925E+01  0.10912173707E+03 -0.29488097673E+03  0.31444343913E+03  0.00000000000E+00 0.  1.
<mgrwt>
<rscale>  0 0.70718958E+02</rscale>
<asrwt>0</asrwt>
<pdfrwt beam="1">  1       -1 0.68287190E-01 0.46951992E+02</pdfrwt>
<pdfrwt beam="2">  1       -3 0.67294174E-01 0.10651670E+03</pdfrwt>
<totfact> 0.22708147E+01</totfact>
</mgrwt>
</event>
<event>
 5    1  0.7114032E-003  0.3540088E+02  0.7546771E-02  0.1563112E+00
          1   -1    0    0  502    0  0.00000000000E+00  0.00000000000E+00  0.12858661677E+04  0.12858661677E+04  0.00000000000E+00 0. -1.
         -2   -1    0    0    0  501 -0.00000000000E+00 -0.00000000000E+00 -0.10644211861E+04  0.10644211861E+04  0.00000000000E+00 0.  1.
         25    1    1    2    0    0  0.23775557532E+02 -0.10408685830E+02  0.45848841726E+03  0.47593092633E+03  0.12500000000E+03 0.  0.
          1    1    1    2  502    0 -0.19556033861E+02 -0.24754068018E+02  0.81805537437E+03  0.81866342160E+03  0.00000000000E+00 0. -1.
         -2    1    1    2    0  501 -0.42195236716E+01  0.35162753848E+02 -0.10550988101E+04  0.10556930059E+04  0.00000000000E+00 0.  1.
<mgrwt>
<rscale>  0 0.33418342E+02</rscale>
<asrwt>0</asrwt>
<pdfrwt beam="1">  1        1 0.19782556E+00 0.31546828E+02</pdfrwt>
<pdfrwt beam="2">  1       -2 0.16375711E+00 0.35400884E+02</pdfrwt>
<totfact> 0.29993377E+00</totfact>
</mgrwt>
</event>
<event>
 5    1  0.7114032E-003  0.7559992E+02  0.7546771E-02  0.1430450E+00
          2   -1    0    0  502    0  0.00000000000E+00  0.00000000000E+00  0.21746990286E+04  0.21746990286E+04  0.00000000000E+00 0. -1.
         -3   -1    0    0    0  501 -0.00000000000E+00 -0.00000000000E+00 -0.55017867233E+02  0.55017867233E+02  0.00000000000E+00 0.  1.
         25    1    1    2    0    0 -0.10733629874E+02 -0.87446639748E+02  0.16229173669E+03  0.22299267569E+03  0.12500000000E+03 0.  0.
          2    1    1    2  502    0  0.32772101245E+02  0.17118393714E+02  0.19264307294E+04  0.19267855110E+04  0.00000000000E+00 0. -1.
         -3    1    1    2    0  501 -0.22038471371E+02  0.70328246034E+02  0.30958695238E+02  0.79938709155E+02  0.00000000000E+00 0.  1.
<mgrwt>
<rscale>  0 0.52869691E+02</rscale>
<asrwt>0</asrwt>
<pdfrwt beam="1">  1        2 0.33456902E+00 0.36973640E+02</pdfrwt>
<pdfrwt beam="2">  1       -3 0.84642889E-02 0.75599920E+02</pdfrwt>
<totfact> 0.40879915E+02</totfact>
</mgrwt>
</event>
<event>
 5    1  0.7114032E-003  0.1117109E+03  0.7546771E-02  0.1366895E+00
          2   -1    0    0  501    0  0.00000000000E+00  0.00000000000E+00  0.10122446722E+04  0.10122446722E+04  0.00000000000E+00 0. -1.
          2   -1    0    0  502    0 -0.00000000000E+00 -0.00000000000E+00 -0.10793576642E+04  0.10793576642E+04  0.00000000000E+00 0. -1.
         25    1    1    2    0    0 -0.80053199378E+02  0.84652482428E+00  0.23729711230E+03  0.27990025159E+03  0.12500000000E+03 0.  0.
          2    1    1    2  501    0  0.11732815567E+03 -0.18950040022E+02  0.74855035941E+03  0.75792654044E+03  0.00000000000E+00 0. -1.
          2    1    1    2  502    0 -0.37274956294E+02  0.18103515198E+02 -0.10529604637E+04  0.10537755443E+04  0.00000000000E+00 0. -1.
<mgrwt>
<rscale>  0 0.68037840E+02</rscale>
<asrwt>0</asrwt>
<pdfrwt beam="1">  1        2 0.15572995E+00 0.11171094E+03</pdfrwt>
<pdfrwt beam="2">  1        2 0.16605503E+00 0.41438625E+02</pdfrwt>
<totfact> 0.11016346E+02</totfact>
</mgrwt>
</event>
<event>
 5    1  0.7114032E-003  0.1647397E+03  0.7546771E-02  0.1271817E+00
          1   -1    0    0  502    0  0.00000000000E+00  0.00000000000E+00  0.20829907618E+04  0.20829907618E+04  0.00000000000E+00 0. -1.
         -1   -1    0    0    0  501 -0.00000000000E+00 -0.00000000000E+00 -0.20482045934E+03  0.20482045934E+03  0.00000000000E+00 0.  1.
         25    1    1    2    0    0  0.21627296539E+03 -0.46943996545E+02  0.20262482974E+03  0.32505315872E+03  0.12500000000E+03 0.  0.
          1    1    1    2  502    0 -0.65102509388E+02  0.97997989462E+01  0.17761768670E+04  0.17773965893E+04  0.00000000000E+00 0. -1.
         -1    1    1    2    0  501 -0.15117045600E+03  0.37144197599E+02 -0.10063139432E+03  0.18536147308E+03  0.00000000000E+00 0.  1.
<mgrwt>
<rscale>  0 0.10414315E+03</rscale>
<asrwt>0</asrwt>
<pdfrwt beam="1">  1        1 0.32046010E+00 0.65835954E+02</pdfrwt>
<pdfrwt beam="2">  1       -1 0.31510841E-01 0.16473969E+03</pdfrwt>
<totfact> 0.33536858E+01</totfact>
</mgrwt>
</event>
<event>
 5    1  0.7114032E-003  0.8914107E+02  0.7546771E-02  0.1388584E+00
          3   -1    0    0  502    0 -0.00000000000E+00  0.00000000000E+00  0.23279231983E+02  0.23279231983E+02  0.00000000000E+00 0. -1.
          2   -1    0    0  501    0  0.00000000000E+00 -0.00000000000E+00 -0.26811358746E+04  0.26811358746E+04  0.00000000000E+00 0. -1.
         25    1    1    2    0    0  0.33222343026E+02 -0.51599676392E+02 -0.42634752569E+03  0.44851250076E+03  0.12500000000E+03 0.  0.
          2    1    1    2  501    0  0.10994836430E+02 -0.42072425850E+02 -0.20192400979E+04  0.20197082830E+04  0.00000000000E+00 0. -1.
          3    1    1    2  502    0 -0.44217179456E+02  0.93672102242E+02 -0.21226901909E+03  0.23619432289E+03  0.00000000000E+00 0. -1.
<mgrwt>
<rscale>  0 0.62260184E+02</rscale>
<asrwt>0</asrwt>
<pdfrwt beam="2">  1        2 0.41248215E+00 0.43485347E+02</pdfrwt>
<pdfrwt beam="1">  1        3 0.35814229E-02 0.89141073E+02</pdfrwt>
<totfact> 0.88223799E+02</totfact>
</mgrwt>
</event>
<event>
 5    1  0.7114032E-003  0.4071095E+02  0.7546771E-02  0.1521892E+00
          1   -1    0    0  501    0  0.00000000000E+00  0.00000000000E+00  0.70302249784E+03  0.70302249784E+03  0.00000000000E+00 0. -1.
          3   -1    0    0  502    0 -0.00000000000E+00 -0.00000000000E+00 -0.97582907521E+03  0.97582907521E+03  0.00000000000E+00 0. -1.
         25    1    1    2    0    0  0.63508877897E+02  0.28590695646E+01  0.46128503034E+02  0.14762923370E+03  0.12500000000E+03 0.  0.
          1    1    1    2  501    0 -0.33615774929E+02 -0.22637393782E+02  0.60511835125E+03  0.60647398208E+03  0.00000000000E+00 0. -1.
          3    1    1    2  502    0 -0.29893102968E+02  0.19778324218E+02 -0.92405343165E+03  0.92474835727E+03  0.00000000000E+00 0. -1.
<mgrwt>
<rscale>  0 0.38199949E+02</rscale>
<asrwt>0</asrwt>
<pdfrwt beam="1">  1        1 0.10815731E+00 0.40710949E+02</pdfrwt>
<pdfrwt beam="2">  1        3 0.15012755E+00 0.35843824E+02</pdfrwt>
<totfact> 0.56986736E+00</totfact>
</mgrwt>
</event>
<event>
 5    1  0.7114032E-003  0.1000190E+03  0.7546771E-02  0.1362875E+00
          2   -1    0    0  502    0  0.00000000000E+00  0.00000000000E+00  0.92053557658E+03  0.92053557658E+03  0.00000000000E+00 0. -1.
         -1   -1    0    0    0  501 -0.00000000000E+00 -0.00000000000E+00 -0.32134740796E+02  0.32134740796E+02  0.00000000000E+00 0.  1.
         25    1    1    2    0    0 -0.11604925379E+03 -0.57703029853E+02  0.57638814695E+03  0.60385872926E+03  0.12500000000E+03 0.  0.
          2    1    1    2  502    0  0.83398239294E+02  0.22708532458E+02  0.27513026344E+03  0.28838794292E+03  0.00000000000E+00 0. -1.
         -1    1    1    2    0  501  0.32651014492E+02  0.34994497395E+02  0.36882425393E+02  0.60423645191E+02  0.00000000000E+00 0.  1.
<mgrwt>
<rscale>  0 0.69188440E+02</rscale>
<asrwt>0</asrwt>
<pdfrwt beam="1">  1        2 0.14162084E+00 0.10001903E+03</pdfrwt>
<pdfrwt beam="2">  1       -1 0.49438070E-02 0.47861295E+02</pdfrwt>
<totfact> 0.53305893E+03</totfact>
</mgrwt>
</event>
<event>
 5    1  0.7114032E-003  0.1106939E+03  0.7546771E-02  0.1356487E+00
         -2   -1    0    0    0  501  0.00000000000E+00  0.00000000000E+00  0.20227489595E+03  0.20227489595E+03  0.00000000000E+00 0.  1.
         -1   -1    0    0    0  502 -0.00000000000E+00 -0.00000000000E+00 -0.18853379027E+03  0.18853379027E+03  0.00000000000E+00 0. -1.
         25    1    1    2    0    0 -0.80434757530E+00 -0.10625503749E+03 -0.32244731593E+02  0.16719899127E+03  0.12500000000E+03 0.  0.
         -2    1    1    2    0  501 -0.44792970882E+02  0.10448655064E+03  0.10104549885E+03  0.15209879139E+03  0.00000000000E+00 0.  1.
         -1    1    1    2    0  502  0.45597318457E+02  0.17684868442E+01 -0.55059661573E+02  0.71510903565E+02  0.00000000000E+00 0. -1.
<mgrwt>
<rscale>  0 0.71071359E+02</rscale>
<asrwt>0</asrwt>
<pdfrwt beam="1">  1       -2 0.31119215E-01 0.11069386E+03</pdfrwt>
<pdfrwt beam="2">  1       -1 0.29005199E-01 0.45631601E+02</pdfrwt>
<totfact> 0.73078254E+02</totfact>
</mgrwt>
</event>
<event>
 5    1  0.7114032E-003  0.1133704E+03  0.7546771E-02  0.1393558E+00
          2   -1    0    0  501    0  0.00000000000E+00  0.00000000000E+00  0.11192763243E+04  0.11192763243E+04  0.00000000000E+00 0. -1.
          1   -1    0    0  502    0 -0.00000000000E+00 -0.00000000000E+00 -0.70776751972E+02  0.70776751972E+02  0.00000000000E+00 0. -1.
         25    1    1    2    0    0 -0.93537956294E+02  0.96040959729E+01  0.19393224189E+03  0.24915116370E+03  0.12500000000E+03 0.  0.
          2    1    1    2  501    0  0.10993438664E+03 -0.38074392374E+02  0.88708196829E+03  0.89467851611E+03  0.00000000000E+00 0. -1.
          1    1    1    2  502    0 -0.16396430341E+02  0.28470296401E+02 -0.32514637861E+02  0.46223396460E+02  0.00000000000E+00 0. -1.
<mgrwt>
<rscale>  0 0.61030311E+02</rscale>
<asrwt>0</asrwt>
<pdfrwt beam="1">  1        2 0.17219635E+00 0.11337044E+03</pdfrwt>
<pdfrwt beam="2">  1        1 0.10888732E-01 0.32854234E+02</pdfrwt>
<totfact> 0.15924464E+03</totfact>
</mgrwt>
</event>
<event>
 5    1  0.7114032E-003  0.1102468E+03  0.7546771E-02  0.1304385E+00
         -2   -1    0    0    0  501 -0.00000000000E+00  0.00000000000E+00  0.42983135920E+03  0.42983135920E+03  0.00000000000E+00 0.  1.
          2   -1    0    0  502    0  0.00000000000E+00 -0.00000000000E+00 -0.92287346799E+02  0.92287346799E+02  0.00000000000E+00 0. -1.
         25    1    1    2    0    0  0.25852867963E+02  0.16608202337E+01  0.16040457497E+03  0.20500184579E+03  0.12500000000E+03 0.  0.
          2    1    1    2  502    0  0.54739814078E+02 -0.95696955467E+02  0.12290590299E+02  0.11092976670E+03  0.00000000000E+00 0. -1.
         -2    1    1    2    0  501 -0.80592682041E+02  0.94036135234E+02  0.16484884714E+03  0.20618709351E+03  0.00000000000E+00 0.  1.
<mgrwt>
<rscale>  0 0.89369778E+02</rscale>
<asrwt>0</asrwt>
<pdfrwt beam="2">  1        2 0.14198054E-01 0.11024679E+03</pdfrwt>
<pdfrwt beam="1">  1       -2 0.66127900E-01 0.72446166E+02</pdfrwt>
<totfact> 0.87761349E+02</totfact>
</mgrwt>
</event>
<event>
 5    1  0.7114032E-003  0.2829798E+02  0.7546771E-02  0.1623846E+00
          1   -1    0    0  501    0  0.00000000000E+00  0.00000000000E+00  0.13611988166E+04  0.13611988166E+04  0.00000000000E+00 0. -1.
          1   -1    0    0  502    0 -0.00000000000E+00 -0.00000000000E+00 -0.70057541558E+02  0.70057541558E+02  0.00000000000E+00 0. -1.
         25    1    1    2    0    0 -0.10213082155E+02 -0.52617926204E+02  0.42081257509E+03  0.44224560661E+03  0.12500000000E+03 0.  0.
          1    1    1    2  501    0  0.11924818549E+02  0.24555041108E+02  0.92612715882E+03  0.92652936578E+03  0.00000000000E+00 0. -1.
          1    1    1    2  502    0 -0.17117363935E+01  0.28062885096E+02 -0.55798458850E+02  0.62481385799E+02  0.00000000000E+00 0. -1.
<mgrwt>
<rscale>  0 0.27793217E+02</rscale>
<asrwt>0</asrwt>
<pdfrwt beam="1">  1        1 0.20941518E+00 0.27297460E+02</pdfrwt>
<pdfrwt beam="2">  1        1 0.10778084E-01 0.28297976E+02</pdfrwt>
<totfact> 0.65322118E+02</totfact>
</mgrwt>
</event>
<event>
 5    1  0.7114032E-003  0.7026469E+02  0.7546771E-02  0.1526562E+00
          2   -1    0    0  502    0  0.00000000000E+00  0.00000000000E+00  0.14678406911E+03  0.14678406911E+03  0.00000000000E+00 0. -1.
         -1   -1    0    0    0  501 -0.00000000000E+00 -0.00000000000E+00 -0.95619458616E+02  0.95619458616E+02  0.00000000000E+00 0.  1.
         25    1    1    2    0    0  0.36101593286E+02  0.46547770059E+02  0.31110002801E+02  0.14164339804E+03  0.12500000000E+03 0.  0.
          2    1    1    2  502    0 -0.54214816202E+02 -0.55336352804E+02  0.95594174185E+01  0.78056010011E+02  0.00000000000E+00 0. -1.
         -1    1    1    2    0  501  0.18113222916E+02  0.87885827447E+01  0.10495190271E+02  0.22704119668E+02  0.00000000000E+00 0.  1.
<mgrwt>
<rscale>  0 0.37611463E+02</rscale>
<asrwt>0</asrwt>
<pdfrwt beam="1">  1        2 0.22582165E-01 0.70264691E+02</pdfrwt>
<pdfrwt beam="2">  1       -1 0.14710686E-01 0.20132760E+02</pdfrwt>
<totfact> 0.74964175E+03</totfact>
</mgrwt>
</event>
<event>
 5    1  0.7114032E-003  0.1155344E+03  0.7546771E-02  0.1413389E+00
          2   -1    0    0  502    0  0.00000000000E+00  0.00000000000E+00  0.18299769918E+03  0.18299769918E+03  0.00000000000E+00 0. -1.
         -1   -1    0    0    0  501 -0.00000000000E+00 -0.00000000000E+00 -0.16148028406E+03  0.16148028406E+03  0.00000000000E+00 0.  1.
         25    1    1    2    0    0 -0.86238224530E+02  0.87579579686E+02  0.69912423130E+02  0.18873251192E+03  0.12500000000E+03 0.  0.
          2    1    1    2  502    0 -0.97388168439E+01 -0.25799087448E+02  0.76058617713E+01  0.28605709220E+02  0.00000000000E+00 0. -1.
         -1    1    1    2    0  501  0.95977041374E+02 -0.61780492238E+02 -0.56000869781E+02  0.12713976211E+03  0.00000000000E+00 0.  1.
<mgrwt>
<rscale>  0 0.56444484E+02</rscale>
<asrwt>0</asrwt>
<pdfrwt beam="1">  1        2 0.28153492E-01 0.27576031E+02</pdfrwt>
<pdfrwt beam="2">  1       -1 0.24843121E-01 0.11553438E+03</pdfrwt>
<totfact> 0.27766084E+03</totfact>
</mgrwt>
</event>
<event>
 5    1  0.7114032E-003  0.2518428E+03  0.7546771E-02  0.1278051E+00
          2   -1    0    0  502    0  0.00000000000E+00  0.00000000000E+00  0.27671640373E+03  0.27671640373E+03  0.00000000000E+00 0. -1.
         -2   -1    0    0    0  501 -0.00000000000E+00 -0.00000000000E+00 -0.50897272951E+03  0.50897272951E+03  0.00000000000E+00 0.  1.
         25    1    1    2    0    0 -0.16896606010E+03  0.17496919049E+03  0.59068279076E+02  0.27978171613E+03  0.12500000000E+03 0.  0.
          2    1    1    2  502    0 -0.34259615981E+02 -0.21722256688E+02  0.59782841065E+02  0.72246562607E+02  0.00000000000E+00 0. -1.
         -2    1    1    2    0  501  0.20322567608E+03 -0.15324693381E+03 -0.35110744593E+03  0.43366085450E+03  0.00000000000E+00 0.  1.
<mgrwt>
<rscale>  0 0.10107515E+03</rscale>
<asrwt>0</asrwt>
<pdfrwt beam="1">  1        2 0.42571755E-01 0.40565721E+02</pdfrwt>
<pdfrwt beam="2">  1       -2 0.78303496E-01 0.25184283E+03</pdfrwt>
<totfact> 0.17665539E+02</totfact>
</mgrwt>
</event>
<event>
 5    1  0.7114032E-003  0.6125221E+02  0.7546771E-02  0.1463138E+00
         -1   -1    0    0    0  501 -0.00000000000E+00  0.00000000000E+00  0.16770945860E+02  0.16770945860E+02  0.00000000000E+00 0.  1.
          2   -1    0    0  502    0  0.00000000000E+00 -0.00000000000E+00 -0.98209659399E+03  0.98209659399E+03  0.00000000000E+00 0. -1.
         25    1    1    2    0    0  0.59604548917E+02  0.15653079109E+02 -0.37686873523E+03  0.40181185240E+03  0.12500000000E+03 0.  0.
          2    1    1    2  502    0 -0.41862547453E+02 -0.46779070371E+02 -0.43279091162E+03  0.43731993722E+03  0.00000000000E+00 0. -1.
         -1    1    1    2    0  501 -0.17742001465E+02  0.31125991262E+02 -0.15566600128E+03  0.15973575023E+03  0.00000000000E+00 0.  1.
<mgrwt>
<rscale>  0 0.46845600E+02</rscale>
<asrwt>0</asrwt>
<pdfrwt beam="2">  1        2 0.15109179E+00 0.61252207E+02</pdfrwt>
<pdfrwt beam="1">  1       -1 0.25801454E-02 0.35827447E+02</pdfrwt>
<totfact> 0.12083785E+04</totfact>
</mgrwt>
</event>
<event>
 5    1  0.7114032E-003  0.8205113E+02  0.7546771E-02  0.1324811E+00
         -1   -1    0    0    0  501 -0.00000000000E+00  0.00000000000E+00  0.34144503659E+03  0.34144503659E+03  0.00000000000E+00 0.  1.
          1   -1    0    0  502    0  0.00000000000E+00 -0.00000000000E+00 -0.28860421307E+04  0.28860421307E+04  0.00000000000E+00 0. -1.
         25    1    1    2    0    0 -0.11883130309E+02 -0.10935673498E+03 -0.98508007332E+03  0.99905347961E+03  0.12500000000E+03 0.  0.
          1    1    1    2  502    0 -0.53984063656E+02  0.62249747349E+02 -0.18881620236E+04  0.18899590307E+04  0.00000000000E+00 0. -1.
         -1    1    1    2    0  501  0.65867193965E+02  0.47106987633E+02  0.32864500285E+03  0.33847465698E+03  0.00000000000E+00 0.  1.
<mgrwt>
<rscale>  0 0.81513171E+02</rscale>
<asrwt>0</asrwt>
<pdfrwt beam="2">  1        1 0.44400646E+00 0.82051133E+02</pdfrwt>
<pdfrwt beam="1">  1       -1 0.52530008E-01 0.80978735E+02</pdfrwt>
<totfact> 0.40443813E+00</totfact>
</mgrwt>
</event>
<event>
 5    1  0.7114032E-003  0.6751699E+02  0.7546771E-02  0.1447749E+00
          2   -1    0    0  501    0  0.00000000000E+00  0.00000000000E+00  0.63267806457E+03  0.63267806457E+03  0.00000000000E+00 0. -1.
          1   -1    0    0  502    0 -0.00000000000E+00 -0.00000000000E+00 -0.93992954078E+03  0.93992954078E+03  0.00000000000E+00 0. -1.
         25    1    1    2    0    0  0.58754504431E+02 -0.81225262206E+02  0.12163214340E+03  0.20116911622E+03  0.12500000000E+03 0.  0.
          2    1    1    2  501    0 -0.30709531073E+02  0.58062575624E+02  0.46861862411E+03  0.47319948526E+03  0.00000000000E+00 0. -1.
          1    1    1    2  502    0 -0.28044973357E+02  0.23162686582E+02 -0.89750224373E+03  0.89823900387E+03  0.00000000000E+00 0. -1.
<mgrwt>
<rscale>  0 0.49556314E+02</rscale>
<asrwt>0</asrwt>
<pdfrwt beam="1">  1        2 0.97335087E-01 0.67516986E+02</pdfrwt>
<pdfrwt beam="2">  1        1 0.14460454E+00 0.36373487E+02</pdfrwt>
<totfact> 0.13508296E+02</totfact>
</mgrwt>
</event>
<event>
 5    1  0.7114032E-003  0.4187038E+02  0.7546771E-02  0.1510623E+00
          2   -1    0    0  501    0  0.00000000000E+00  0.00000000000E+00  0.11152736050E+04  0.11152736050E+04  0.00000000000E+00 0. -1.
          2   -1    0    0  502    0 -0.00000000000E+00 -0.00000000000E+00 -0.28222507219E+03  0.28222507219E+03  0.00000000000E+00 0. -1.
         25    1    1    2    0    0  0.33679531248E+02 -0.47850853112E+02 -0.52994598226E+02  0.14784262717E+03  0.12500000000E+03 0.  0.
          2    1    1    2  501    0 -0.40422144013E+02  0.10867426971E+02  0.10654909310E+04  0.10663127940E+04  0.00000000000E+00 0. -1.
          2    1    1    2  502    0  0.67426127644E+01  0.36983426140E+02 -0.17944779991E+03  0.18334325603E+03  0.00000000000E+00 0. -1.
<mgrwt>
<rscale>  0 0.39674108E+02</rscale>
<asrwt>0</asrwt>
<pdfrwt beam="1">  1        2 0.17158055E+00 0.41870379E+02</pdfrwt>
<pdfrwt beam="2">  1        2 0.43419242E-01 0.37593040E+02</pdfrwt>
<totfact> 0.44437557E+02</totfact>
</mgrwt>
</event>
<event>
 5    1  0.7114032E-003  0.3123750E+02  0.7546771E-02  0.1614127E+00
          1   -1    0    0  502    0 -0.00000000000E+00  0.00000000000E+00  0.87046744991E+03  0.87046744991E+03  0.00000000000E+00 0. -1.
          2   -1    0    0  501    0  0.00000000000E+00 -0.00000000000E+00 -0.11378959805E+04  0.11378959805E+04  0.00000000000E+00 0. -1.
         25    1    1    2    0    0 -0.36280469353E+02 -0.92491977765E+01 -0.15723155173E+03  0.20432469497E+03  0.12500000000E+03 0.  0.
          2    1    1    2  501    0  0.27266641093E+02 -0.15331289292E+02 -0.95665981653E+03  0.95717110420E+03  0.00000000000E+00 0. -1.
          1    1    1    2  502    0  0.90138282606E+01  0.24580487068E+02  0.84646283763E+03  0.84686763129E+03  0.00000000000E+00 0. -1.
<mgrwt>
<rscale>  0 0.28597760E+02</rscale>
<asrwt>0</asrwt>
<pdfrwt beam="2">  1        2 0.17506092E+00 0.31237504E+02</pdfrwt>
<pdfrwt beam="1">  1        1 0.13391807E+00 0.26181089E+02</pdfrwt>
<totfact> 0.78124296E+01</totfact>
</mgrwt>
</event>
<event>
 5    1  0.7114032E-003  0.5098417E+02  0.7546771E-02  0.1502676E+00
          1   -1    0    0  502    0  0.00000000000E+00  0.00000000000E+00  0.33762107721E+04  0.33762107721E+04  0.00000000000E+00 0. -1.
         -1   -1    0    0    0  501 -0.00000000000E+00 -0.00000000000E+00 -0.34042647539E+02  0.34042647539E+02  0.00000000000E+00 0.  1.
         25    1    1    2    0    0 -0.10142817639E+02 -0.15846700381E+02  0.19964674077E+04  0.20004652220E+04  0.12500000000E+03 0.  0.
          1    1    1    2  502    0 -0.20746078918E+02 -0.25133313436E+02  0.13568765556E+04  0.13572678698E+04  0.00000000000E+00 0. -1.
         -1    1    1    2    0  501  0.30888896558E+02  0.40980013817E+02 -0.11175838709E+02  0.52520327815E+02  0.00000000000E+00 0.  1.
<mgrwt>
<rscale>  0 0.40762170E+02</rscale>
<asrwt>0</asrwt>
<pdfrwt beam="1">  1        1 0.51941678E+00 0.32589619E+02</pdfrwt>
<pdfrwt beam="2">  1       -1 0.52373331E-02 0.50984167E+02</pdfrwt>
<totfact> 0.82679339E+01</totfact>
</mgrwt>
</event>
<event>
 5    1  0.7114032E-003  0.8769409E+02  0.7546771E-02  0.1362468E+00
         -2   -1    0    0    0  501 -0.00000000000E+00  0.00000000000E+00  0.26435463894E+03  0.26435463894E+03  0.00000000000E+00 0.  1.
          3   -1    0    0  502    0  0.00000000000E+00 -0.00000000000E+00 -0.22554430145E+03  0.22554430145E+03  0.00000000000E+00 0. -1.
         25    1    1    2    0    0 -0.22884724829E+02 -0.34440964837E+02  0.36736291050E+02  0.13669105958E+03  0.12500000000E+03 0.  0.
          3    1    1    2  502    0  0.66432097768E+02  0.67665102896E+02 -0.15786185724E+03  0.18415253388E+03  0.00000000000E+00 0. -1.
         -2    1    1    2    0  501 -0.43547372939E+02 -0.33224138060E+02  0.15993590367E+03  0.16905534692E+03  0.00000000000E+00 0.  1.
<mgrwt>
<rscale>  0 0.69306397E+02</rscale>
<asrwt>0</asrwt>
<pdfrwt beam="2">  1        3 0.34699123E-01 0.87694086E+02</pdfrwt>
<pdfrwt beam="1">  1       -2 0.40669944E-01 0.54774237E+02</pdfrwt>
<totfact> 0.17694093E+02</totfact>
</mgrwt>
</event>
<event>
 5    1  0.7114032E-003  0.9763373E+02  0.7546771E-02  0.1460587E+00
         -3   -1    0    0    0  501 -0.00000000000E+00  0.00000000000E+00  0.98865317484E+02  0.98865317484E+02  0.00000000000E+00 0. -1.
          2   -1    0    0  502    0  0.00000000000E+00 -0.00000000000E+00 -0.21823737149E+03  0.21823737149E+03  0.00000000000E+00 0. -1.
         25    1    1    2    0    0  0.74956527989E+02  0.36926587772E+02 -0.68903272918E+02  0.16539260864E+03  0.12500000000E+03 0.  0.
          2    1    1    2  502    0 -0.94258129766E+02 -0.49242717529E+02 -0.64957105477E+02  0.12461486993E+03  0.00000000000E+00 0. -1.
         -3    1    1    2    0  501  0.19301601777E+02  0.12316129757E+02  0.14488324388E+02  0.27095210406E+02  0.00000000000E+00 0. -1.
<mgrwt>
<rscale>  0 0.47280521E+02</rscale>
<asrwt>0</asrwt>
<pdfrwt beam="2">  1        2 0.33574980E-01 0.97633732E+02</pdfrwt>
<pdfrwt beam="1">  1       -3 0.15210049E-01 0.22896264E+02</pdfrwt>
<totfact> 0.25977847E+03</totfact>
</mgrwt>
</event>
<event>
 5    1  0.7114032E-003  0.1158246E+03  0.7546771E-02  0.1254341E+00
          2   -1    0    0  501    0  0.00000000000E+00  0.00000000000E+00  0.31002946813E+04  0.31002946813E+04  0.00000000000E+00 0. -1.
          3   -1    0    0  502    0 -0.00000000000E+00 -0.00000000000E+00 -0.25761442287E+02  0.25761442287E+02  0.00000000000E+00 0. -1.
         25    1    1    2    0    0  0.46296253713E+02  0.11736070845E+02  0.10218100991E+04  0.10305347918E+04  0.12500000000E+03 0.  0.
          2    1    1    2  501    0  0.61799948918E+02 -0.92314773829E+02  0.18420676805E+04  0.18454144767E+04  0.00000000000E+00 0. -1.
          3    1    1    2  502    0 -0.10809620263E+03  0.80578702984E+02  0.21065545936E+03  0.25010685507E+03  0.00000000000E+00 0. -1.
<mgrwt>
<rscale>  0 0.11343318E+03</rscale>
<asrwt>0</asrwt>
<pdfrwt beam="1">  1        2 0.47696812E+00 0.11109118E+03</pdfrwt>
<pdfrwt beam="2">  1        3 0.39633013E-02 0.11582456E+03</pdfrwt>
<totfact> 0.39545854E+02</totfact>
</mgrwt>
</event>
<event>
 5    1  0.7114032E-003  0.6064951E+02  0.7546771E-02  0.1493002E+00
          2   -1    0    0  502    0  0.00000000000E+00  0.00000000000E+00  0.37936226295E+04  0.37936226295E+04  0.00000000000E+00 0. -1.
         -2   -1    0    0    0  501 -0.00000000000E+00 -0.00000000000E+00 -0.45614554270E+01  0.45614554270E+01  0.00000000000E+00 0.  1.
         25    1    1    2    0    0  0.57390043791E+02  0.10223840333E+02  0.13782931377E+04  0.13851769264E+04  0.12500000000E+03 0.  0.
          2    1    1    2  502    0 -0.48311999836E+01  0.28883661860E+02  0.12856287773E+04  0.12859622699E+04  0.00000000000E+00 0. -1.
         -2    1    1    2    0  501 -0.52558843807E+02 -0.39107502193E+02  0.11251392591E+04  0.11270448887E+04  0.00000000000E+00 0.  1.
<mgrwt>
<rscale>  0 0.42143990E+02</rscale>
<asrwt>0</asrwt>
<pdfrwt beam="1">  1        2 0.58363173E+00 0.29284918E+02</pdfrwt>
<pdfrwt beam="2">  1       -2 0.70176541E-03 0.60649509E+02</pdfrwt>
<totfact> 0.28341318E+03</totfact>
</mgrwt>
</event>
<event>
 5    1  0.7114032E-003  0.6875751E+02  0.7546771E-02  0.1382201E+00
          1   -1    0    0  502    0  0.00000000000E+00  0.00000000000E+00  0.62562783202E+02  0.62562783202E+02  0.00000000000E+00 0. -1.
          1   -1    0    0  501    0 -0.00000000000E+00 -0.00000000000E+00 -0.26504147490E+04  0.26504147490E+04  0.00000000000E+00 0. -1.
         25    1    1    2    0    0 -0.66093395719E+02  0.91823114357E+02 -0.12218220503E+03  0.20821458286E+03  0.12500000000E+03 0.  0.
          1    1    1    2  501    0  0.12021431908E+02 -0.67319891411E+02 -0.24385297086E+04  0.24394883935E+04  0.00000000000E+00 0. -1.
          1    1    1    2  502    0  0.54071963811E+02 -0.24503222945E+02 -0.27140052221E+02  0.65274555837E+02  0.00000000000E+00 0. -1.
<mgrwt>
<rscale>  0 0.63888804E+02</rscale>
<asrwt>0</asrwt>
<pdfrwt beam="1">  1        1 0.96250459E-02 0.59364848E+02</pdfrwt>
<pdfrwt beam="2">  1        1 0.40775602E+00 0.68757513E+02</pdfrwt>
<totfact> 0.11350348E+02</totfact>
</mgrwt>
</event>
<event>
 5    1  0.7114032E-003  0.3108984E+02  0.7546771E-02  0.1646530E+00
          2   -1    0    0  501    0  0.00000000000E+00  0.00000000000E+00  0.87423840021E+03  0.87423840021E+03  0.00000000000E+00 0. -1.
          3   -1    0    0  502    0 -0.00000000000E+00 -0.00000000000E+00 -0.32197604817E+02  0.32197604817E+02  0.00000000000E+00 0. -1.
         25    1    1    2    0    0 -0.13518371468E+01  0.17006418251E+02  0.15020326015E+03  0.19615571642E+03  0.12500000000E+03 0.  0.
          2    1    1    2  501    0  0.17389083467E+02  0.13158351842E+02  0.66861791167E+03  0.66897341820E+03  0.00000000000E+00 0. -1.
          3    1    1    2  502    0 -0.16037246320E+02 -0.30164770093E+02  0.23219623578E+02  0.41306870413E+02  0.00000000000E+00 0. -1.
<mgrwt>
<rscale>  0 0.26037662E+02</rscale>
<asrwt>0</asrwt>
<pdfrwt beam="1">  1        2 0.13449820E+00 0.21806477E+02</pdfrwt>
<pdfrwt beam="2">  1        3 0.49534783E-02 0.31089839E+02</pdfrwt>
<totfact> 0.37321974E+03</totfact>
</mgrwt>
</event>
<event>
 5    1  0.8355844E-003  0.4151709E+03  0.7546771E-02  0.1038650E+00
         -1   -1    0    0    0  501 -0.00000000000E+00  0.00000000000E+00  0.40515327716E+02  0.40515327716E+02  0.00000000000E+00 0.  1.
          2   -1    0    0  502    0  0.00000000000E+00 -0.00000000000E+00 -0.10635904417E+04  0.10635904417E+04  0.00000000000E+00 0. -1.
         25    1    1    2    0    0 -0.18433070487E+02  0.17813187563E+03 -0.51024262460E+03  0.55501646746E+03  0.12500000000E+03 0.  0.
          2    1    1    2  502    0 -0.18139274717E+02 -0.14311126797E+03 -0.34991747033E+03  0.37848659732E+03  0.00000000000E+00 0. -1.
         -1    1    1    2    0  501  0.36572345203E+02 -0.35020607655E+02 -0.16291501908E+03  0.17060270466E+03  0.00000000000E+00 0.  1.
<mgrwt>
<rscale>  0 0.41517088E+03</rscale>
<asrwt>0</asrwt>
<pdfrwt beam="2">  1        2 0.16362926E+00 0.41517088E+03</pdfrwt>
<pdfrwt beam="1">  1       -1 0.62331289E-02 0.41517088E+03</pdfrwt>
<totfact> 0.34562046E+03</totfact>
</mgrwt>
</event>
<event>
 5    1  0.7114032E-003  0.5214035E+02  0.7546771E-02  0.1445813E+00
         -2   -1    0    0    0  501 -0.00000000000E+00  0.00000000000E+00  0.34291998982E+03  0.34291998982E+03  0.00000000000E+00 0.  1.
          1   -1    0    0  502    0  0.00000000000E+00 -0.00000000000E+00 -0.80597917808E+03  0.80597917808E+03  0.00000000000E+00 0. -1.
         25    1    1    2    0    0 -0.59027871968E+02 -0.79355237505E+02 -0.83238479960E+02  0.17981987636E+03  0.12500000000E+03 0.  0.
          1    1    1    2  502    0  0.28973699768E+02  0.42211096086E+02 -0.67153200858E+03  0.67348087609E+03  0.00000000000E+00 0. -1.
         -2    1    1    2    0  501  0.30054172200E+02  0.37144141419E+02  0.29171130028E+03  0.29559841545E+03  0.00000000000E+00 0.  1.
<mgrwt>
<rscale>  0 0.49912649E+02</rscale>
<asrwt>0</asrwt>
<pdfrwt beam="2">  1        1 0.12399680E+00 0.52140349E+02</pdfrwt>
<pdfrwt beam="1">  1       -2 0.52756922E-01 0.47780127E+02</pdfrwt>
<totfact> 0.76060441E+01</totfact>
</mgrwt>
</event>
<event>
 5    1  0.7114032E-003  0.6223454E+02  0.7546771E-02  0.1428463E+00
         -2   -1    0    0    0  501 -0.00000000000E+00  0.00000000000E+00  0.13641084224E+03  0.13641084224E+03  0.00000000000E+00 0. -1.
          1   -1    0    0  502    0  0.00000000000E+00 -0.00000000000E+00 -0.10866817075E+04  0.10866817075E+04  0.00000000000E+00 0. -1.
         25    1    1    2    0    0 -0.16225715115E+02 -0.10031762916E+02 -0.13376301300E+03  0.18406915479E+03  0.12500000000E+03 0.  0.
          1    1    1    2  502    0  0.47023043180E+02  0.43655336845E+02 -0.92193165548E+03  0.92416174580E+03  0.00000000000E+00 0. -1.
         -2    1    1    2    0  501 -0.30797328064E+02 -0.33623573929E+02  0.10542380327E+03  0.11486164910E+03  0.00000000000E+00 0. -1.
<mgrwt>
<rscale>  0 0.53269721E+02</rscale>
<asrwt>0</asrwt>
<pdfrwt beam="2">  1        1 0.16718181E+00 0.62234541E+02</pdfrwt>
<pdfrwt beam="1">  1       -2 0.20986282E-01 0.45596273E+02</pdfrwt>
<totfact> 0.24514755E+02</totfact>
</mgrwt>
</event>
<event>
 5    1  0.7114032E-003  0.1627960E+03  0.7546771E-02  0.1364974E+00
          1   -1    0    0  502    0  0.00000000000E+00  0.00000000000E+00  0.24690081687E+03  0.24690081687E+03  0.00000000000E+00 0. -1.
         -1   -1    0    0    0  501 -0.00000000000E+00 -0.00000000000E+00 -0.11982677403E+04  0.11982677403E+04  0.00000000000E+00 0.  1.
         25    1    1    2    0    0  0.64732169996E+02 -0.16012395679E+03 -0.42889135704E+03  0.47896005210E+03  0.12500000000E+03 0.  0.
          1    1    1    2  502    0 -0.28564405042E+02  0.43523718998E+01  0.21228739779E+03  0.21424473771E+03  0.00000000000E+00 0. -1.
         -1    1    1    2    0  501 -0.36167764954E+02  0.15577158489E+03 -0.73476296413E+03  0.75196376731E+03  0.00000000000E+00 0.  1.
<mgrwt>
<rscale>  0 0.68584556E+02</rscale>
<asrwt>0</asrwt>
<pdfrwt beam="1">  1        1 0.37984742E-01 0.28894089E+02</pdfrwt>
<pdfrwt beam="2">  1       -1 0.18434888E+00 0.16279597E+03</pdfrwt>
<totfact> 0.24602677E+01</totfact>
</mgrwt>
</event>
<event>
 5    1  0.7114032E-003  0.1275418E+03  0.7546771E-02  0.1396237E+00
          1   -1    0    0  502    0  0.00000000000E+00  0.00000000000E+00  0.28732384181E+03  0.28732384181E+03  0.00000000000E+00 0. -1.
         -2   -1    0    0    0  501 -0.00000000000E+00 -0.00000000000E+00 -0.10156657511E+03  0.10156657511E+03  0.00000000000E+00 0.  1.
         25    1    1    2    0    0 -0.94352659739E+02 -0.95707293981E+02  0.11494607482E+03  0.21656387196E+03  0.12500000000E+03 0.  0.
          1    1    1    2  502    0 -0.98670842066E+01  0.26829408262E+02  0.28670351212E+02  0.40486609355E+02  0.00000000000E+00 0. -1.
         -2    1    1    2    0  501  0.10421974395E+03  0.68877885719E+02  0.42140840660E+02  0.13183993561E+03  0.00000000000E+00 0.  1.
<mgrwt>
<rscale>  0 0.60381686E+02</rscale>
<asrwt>0</asrwt>
<pdfrwt beam="1">  1        1 0.44203668E-01 0.28586299E+02</pdfrwt>
<pdfrwt beam="2">  1       -2 0.15625627E-01 0.12754180E+03</pdfrwt>
<totfact> 0.24950728E+03</totfact>
</mgrwt>
</event>
<event>
 5    1  0.7114032E-003  0.4660298E+02  0.7546771E-02  0.1475495E+00
         -1   -1    0    0    0  501 -0.00000000000E+00  0.00000000000E+00  0.22403375165E+02  0.22403375165E+02  0.00000000000E+00 0.  1.
          2   -1    0    0  502    0  0.00000000000E+00 -0.00000000000E+00 -0.62069602161E+03  0.62069602161E+03  0.00000000000E+00 0. -1.
         25    1    1    2    0    0  0.60719222499E+02 -0.12699143571E+02 -0.37896835818E+03  0.40384416392E+03  0.12500000000E+03 0.  0.
          2    1    1    2  502    0 -0.25859861662E+02  0.38040723398E+02 -0.15612436953E+03  0.16275947850E+03  0.00000000000E+00 0. -1.
         -1    1    1    2    0  501 -0.34859360837E+02 -0.25341579827E+02 -0.63199918734E+02  0.76495754353E+02  0.00000000000E+00 0.  1.
<mgrwt>
<rscale>  0 0.44815834E+02</rscale>
<asrwt>0</asrwt>
<pdfrwt beam="2">  1        2 0.95491696E-01 0.46602977E+02</pdfrwt>
<pdfrwt beam="1">  1       -1 0.34466731E-02 0.43097224E+02</pdfrwt>
<totfact> 0.14402763E+04</totfact>
</mgrwt>
</event>
<event>
 5    1  0.7114032E-003  0.1035606E+03  0.7546771E-02  0.1466019E+00
          2   -1    0    0  502    0  0.00000000000E+00  0.00000000000E+00  0.19183855719E+03  0.19183855719E+03  0.00000000000E+00 0. -1.
          2   -1    0    0  501    0 -0.00000000000E+00 -0.00000000000E+00 -0.11439240117E+04  0.11439240117E+04  0.00000000000E+00 0. -1.
         25    1    1    2    0    0 -0.51821912557E+02  0.75272126128E+02 -0.70538489322E+02  0.17015311360E+03  0.12500000000E+03 0.  0.
          2    1    1    2  501    0 -0.20689520738E+02  0.16407923907E+01 -0.10037887398E+04  0.10040032782E+04  0.00000000000E+00 0. -1.
          2    1    1    2  502    0  0.72511433295E+02 -0.76912918518E+02  0.12224177465E+03  0.16160617706E+03  0.00000000000E+00 0. -1.
<mgrwt>
<rscale>  0 0.46361045E+02</rscale>
<asrwt>0</asrwt>
<pdfrwt beam="1">  1        2 0.29513624E-01 0.10356060E+03</pdfrwt>
<pdfrwt beam="2">  1        2 0.17598831E+00 0.20754481E+02</pdfrwt>
<totfact> 0.68546815E+02</totfact>
</mgrwt>
</event>
<event>
 5    1  0.7114032E-003  0.1075676E+03  0.7546771E-02  0.1274880E+00
         -3   -1    0    0    0  501 -0.00000000000E+00  0.00000000000E+00  0.17100860110E+03  0.17100860110E+03  0.00000000000E+00 0.  1.
          2   -1    0    0  502    0  0.00000000000E+00 -0.00000000000E+00 -0.47487436511E+03  0.47487436511E+03  0.00000000000E+00 0. -1.
         25    1    1    2    0    0 -0.57009708386E+02 -0.19873002018E+01 -0.98337202811E+02  0.16896526764E+03  0.12500000000E+03 0.  0.
          2    1    1    2  502    0  0.93985794603E+02  0.92637327171E+02 -0.30807023808E+03  0.33514515596E+03  0.00000000000E+00 0. -1.
         -3    1    1    2    0  501 -0.36976086217E+02 -0.90650026970E+02  0.10254167687E+03  0.14177254261E+03  0.00000000000E+00 0.  1.
<mgrwt>
<rscale>  0 0.10262066E+03</rscale>
<asrwt>0</asrwt>
<pdfrwt beam="2">  1        2 0.73057594E-01 0.10756756E+03</pdfrwt>
<pdfrwt beam="1">  1       -3 0.26309016E-01 0.97901268E+02</pdfrwt>
<totfact> 0.53525893E+02</totfact>
</mgrwt>
</event>
<event>
 5    1  0.7114032E-003  0.1532122E+03  0.7546771E-02  0.1268725E+00
          1   -1    0    0  501    0  0.00000000000E+00  0.00000000000E+00  0.17004282196E+04  0.17004282196E+04  0.00000000000E+00 0. -1.
          3   -1    0    0  502    0 -0.00000000000E+00 -0.00000000000E+00 -0.27630581184E+03  0.27630581184E+03  0.00000000000E+00 0. -1.
         25    1    1    2    0    0  0.16462523495E+03 -0.93041716993E+02  0.18756826662E+03  0.29421944825E+03  0.12500000000E+03 0.  0.
          1    1    1    2  501    0 -0.15606149609E+02  0.71247908300E+02  0.14330705806E+04  0.14349254703E+04  0.00000000000E+00 0. -1.
          3    1    1    2  502    0 -0.14901908534E+03  0.21793808692E+02 -0.19651643941E+03  0.24758911295E+03  0.00000000000E+00 0. -1.
<mgrwt>
<rscale>  0 0.10571117E+03</rscale>
<asrwt>0</asrwt>
<pdfrwt beam="1">  1        1 0.26160434E+00 0.72937071E+02</pdfrwt>
<pdfrwt beam="2">  1        3 0.42508587E-01 0.15321222E+03</pdfrwt>
<totfact> 0.17962571E+01</totfact>
</mgrwt>
</event>
<event>
 5    1  0.7114032E-003  0.6660729E+02  0.7546771E-02  0.1377217E+00
         -3   -1    0    0    0  502 -0.00000000000E+00  0.00000000000E+00  0.50092750506E+02  0.50092750506E+02  0.00000000000E+00 0.  1.
         -1   -1    0    0    0  501  0.00000000000E+00 -0.00000000000E+00 -0.16663601043E+04  0.16663601043E+04  0.00000000000E+00 0.  1.
         25    1    1    2    0    0 -0.14168627172E+02 -0.55642348913E+02 -0.40587224478E+03  0.42854883044E+03  0.12500000000E+03 0.  0.
         -1    1    1    2    0  501 -0.49340185552E+02  0.49303284725E+02 -0.12211838023E+04  0.12231742095E+04  0.00000000000E+00 0.  1.
         -3    1    1    2    0  502  0.63508812723E+02  0.63390641877E+01  0.10788693293E+02  0.64729814856E+02  0.00000000000E+00 0.  1.
<mgrwt>
<rscale>  0 0.65200997E+02</rscale>
<asrwt>0</asrwt>
<pdfrwt beam="2">  1       -1 0.25636309E+00 0.66607294E+02</pdfrwt>
<pdfrwt beam="1">  1       -3 0.77065772E-02 0.63824392E+02</pdfrwt>
<totfact> 0.37858886E+01</totfact>
</mgrwt>
</event>
<event>
 5    1  0.7114032E-003  0.7086143E+02  0.7546771E-02  0.1444314E+00
          1   -1    0    0  502    0  0.00000000000E+00  0.00000000000E+00  0.82123310245E+02  0.82123310245E+02  0.00000000000E+00 0. -1.
          1   -1    0    0  501    0 -0.00000000000E+00 -0.00000000000E+00 -0.74807400569E+03  0.74807400569E+03  0.00000000000E+00 0. -1.
         25    1    1    2    0    0  0.10772489086E+02 -0.23025450436E+02 -0.59483628751E+03  0.60835961966E+03  0.12500000000E+03 0.  0.
          1    1    1    2  501    0  0.56564672287E+02  0.45094640854E+02 -0.11689922133E+03  0.13747187615E+03  0.00000000000E+00 0. -1.
          1    1    1    2  502    0 -0.67337161373E+02 -0.22069190417E+02  0.45784813399E+02  0.84365820125E+02  0.00000000000E+00 0. -1.
<mgrwt>
<rscale>  0 0.50190960E+02</rscale>
<asrwt>0</asrwt>
<pdfrwt beam="1">  1        1 0.12634355E-01 0.70861431E+02</pdfrwt>
<pdfrwt beam="2">  1        1 0.11508831E+00 0.35550122E+02</pdfrwt>
<totfact> 0.14627549E+03</totfact>
</mgrwt>
</event>
<event>
 5    1  0.1996690E-002  0.1078586E+03  0.7546771E-02  0.1337629E+00
         -1   -1    0    0    0  501 -0.00000000000E+00  0.00000000000E+00  0.85851033136E+02  0.85851033136E+02  0.00000000000E+00 0.  1.
          2   -1    0    0  502    0  0.00000000000E+00 -0.00000000000E+00 -0.33114989868E+03  0.33114989868E+03  0.00000000000E+00 0. -1.
         25    1    1    2    0    0 -0.87300114677E+02 -0.95725174307E+02 -0.98467868481E+02  0.20519634534E+03  0.12500000000E+03 0.  0.
          2    1    1    2  502    0 -0.33098659707E+00  0.55044930902E+02 -0.65142571629E+02  0.85285453675E+02  0.00000000000E+00 0. -1.
         -1    1    1    2    0  501  0.87631101274E+02  0.40680243405E+02 -0.81688425431E+02  0.12651913280E+03  0.00000000000E+00 0.  1.
<mgrwt>
<rscale>  0 0.77053077E+02</rscale>
<asrwt>0</asrwt>
<pdfrwt beam="2">  1        2 0.50946138E-01 0.55045926E+02</pdfrwt>
<pdfrwt beam="1">  1       -1 0.13207851E-01 0.10785860E+03</pdfrwt>
<totfact> 0.41816200E+03</totfact>
</mgrwt>
</event>
<event>
 5    1  0.7114032E-003  0.6953314E+02  0.7546771E-02  0.1442146E+00
          2   -1    0    0  502    0  0.00000000000E+00  0.00000000000E+00  0.18952754271E+04  0.18952754271E+04  0.00000000000E+00 0. -1.
         -2   -1    0    0    0  501 -0.00000000000E+00 -0.00000000000E+00 -0.59710387692E+02  0.59710387692E+02  0.00000000000E+00 0.  1.
         25    1    1    2    0    0 -0.33092465266E+02 -0.10786801991E+02  0.45553716681E+03  0.47365660209E+03  0.12500000000E+03 0.  0.
          2    1    1    2  502    0 -0.36302455900E+02 -0.61414041242E+01  0.14051335556E+04  0.14056158416E+04  0.00000000000E+00 0. -1.
         -2    1    1    2    0  501  0.69394921166E+02  0.16928206116E+02 -0.25105682981E+02  0.75713371103E+02  0.00000000000E+00 0.  1.
<mgrwt>
<rscale>  0 0.50597332E+02</rscale>
<asrwt>0</asrwt>
<pdfrwt beam="1">  1        2 0.29158079E+00 0.36818272E+02</pdfrwt>
<pdfrwt beam="2">  1       -2 0.91862149E-02 0.69533138E+02</pdfrwt>
<totfact> 0.72294438E+02</totfact>
</mgrwt>
</event>
<event>
 5    1  0.7114032E-003  0.7878890E+02  0.7546771E-02  0.1432594E+00
         -1   -1    0    0    0  501 -0.00000000000E+00  0.00000000000E+00  0.15526176626E+02  0.15526176626E+02  0.00000000000E+00 0.  1.
          2   -1    0    0  502    0  0.00000000000E+00 -0.00000000000E+00 -0.12436034780E+04  0.12436034780E+04  0.00000000000E+00 0. -1.
         25    1    1    2    0    0 -0.46652457144E+02 -0.69216912731E+02 -0.49793833855E+03  0.52012981242E+03  0.12500000000E+03 0.  0.
          2    1    1    2  502    0  0.67531989095E+02  0.41243537121E+02 -0.51745652907E+03  0.52347192703E+03  0.00000000000E+00 0. -1.
         -1    1    1    2    0  501 -0.20879531951E+02  0.27973375610E+02 -0.21268243379E+03  0.21552791522E+03  0.00000000000E+00 0.  1.
<mgrwt>
<rscale>  0 0.52442785E+02</rscale>
<asrwt>0</asrwt>
<pdfrwt beam="2">  1        2 0.19132368E+00 0.78788900E+02</pdfrwt>
<pdfrwt beam="1">  1       -1 0.23886416E-02 0.34906512E+02</pdfrwt>
<totfact> 0.94594824E+03</totfact>
</mgrwt>
</event>
<event>
 5    1  0.7114032E-003  0.6665558E+02  0.7546771E-02  0.1513794E+00
          1   -1    0    0  502    0  0.00000000000E+00  0.00000000000E+00  0.12244837374E+02  0.12244837374E+02  0.00000000000E+00 0. -1.
         -2   -1    0    0    0  501 -0.00000000000E+00 -0.00000000000E+00 -0.12278672910E+04  0.12278672910E+04  0.00000000000E+00 0.  1.
         25    1    1    2    0    0  0.37273825188E+02  0.50877315990E+02 -0.60042529547E+03  0.61653335252E+03  0.12500000000E+03 0.  0.
          1    1    1    2  502    0 -0.57491120480E+02 -0.39673978791E+02 -0.32289113016E+03  0.33036031157E+03  0.00000000000E+00 0. -1.
         -2    1    1    2    0  501  0.20217295291E+02 -0.11203337199E+02 -0.29230602801E+03  0.29321846429E+03  0.00000000000E+00 0.  1.
<mgrwt>
<rscale>  0 0.39251401E+02</rscale>
<asrwt>0</asrwt>
<pdfrwt beam="1">  1        1 0.18838212E-02 0.66655582E+02</pdfrwt>
<pdfrwt beam="2">  1       -2 0.18890265E+00 0.23113931E+02</pdfrwt>
<totfact> 0.96324295E+02</totfact>
</mgrwt>
</event>
<event>
 5    1  0.7114032E-003  0.7146126E+02  0.7546771E-02  0.1360946E+00
          1   -1    0    0  501    0  0.00000000000E+00  0.00000000000E+00  0.95965942504E+03  0.95965942504E+03  0.00000000000E+00 0. -1.
          1   -1    0    0  502    0 -0.00000000000E+00 -0.00000000000E+00 -0.11202833170E+03  0.11202833170E+03  0.00000000000E+00 0. -1.
         25    1    1    2    0    0 -0.44008114273E+02 -0.23921196301E+02  0.22116658705E+02  0.13646642205E+03  0.12500000000E+03 0.  0.
          1    1    1    2  501    0 -0.34744493992E+01  0.72708381336E+02  0.85709038260E+03  0.86017585671E+03  0.00000000000E+00 0. -1.
          1    1    1    2  502    0  0.47482563672E+02 -0.48787185034E+02 -0.31575947957E+02  0.75045477984E+02  0.00000000000E+00 0. -1.
<mgrwt>
<rscale>  0 0.69749756E+02</rscale>
<asrwt>0</asrwt>
<pdfrwt beam="1">  1        1 0.14763991E+00 0.71461261E+02</pdfrwt>
<pdfrwt beam="2">  1        1 0.17235129E-01 0.68079243E+02</pdfrwt>
<totfact> 0.65435293E+02</totfact>
</mgrwt>
</event>
<event>
 5    1  0.7114032E-003  0.3909278E+02  0.7546771E-02  0.1529550E+00
          1   -1    0    0  502    0  0.00000000000E+00  0.00000000000E+00  0.27820260888E+04  0.27820260888E+04  0.00000000000E+00 0. -1.
         -2   -1    0    0    0  501 -0.00000000000E+00 -0.00000000000E+00 -0.43359099242E+01  0.43359099242E+01  0.00000000000E+00 0.  1.
         25    1    1    2    0    0 -0.84221327432E+01  0.42811965868E+01  0.11818593497E+04  0.11884888656E+04  0.12500000000E+03 0.  0.
          1    1    1    2  502    0  0.43144761721E+02  0.30014869578E+01  0.10501435724E+04  0.10510337778E+04  0.00000000000E+00 0. -1.
         -2    1    1    2    0  501 -0.34722628978E+02 -0.72826835446E+01  0.54568725673E+03  0.54683935539E+03  0.00000000000E+00 0.  1.
<mgrwt>
<rscale>  0 0.37241633E+02</rscale>
<asrwt>0</asrwt>
<pdfrwt beam="1">  1        1 0.42800259E+00 0.39092782E+02</pdfrwt>
<pdfrwt beam="2">  1       -2 0.66706529E-03 0.35478140E+02</pdfrwt>
<totfact> 0.32952943E+03</totfact>
</mgrwt>
</event>
<event>
 5    1  0.7114032E-003  0.7841442E+02  0.7546771E-02  0.1446456E+00
          1   -1    0    0  502    0  0.00000000000E+00  0.00000000000E+00  0.45196499741E+03  0.45196499741E+03  0.00000000000E+00 0. -1.
         -2   -1    0    0    0  501 -0.00000000000E+00 -0.00000000000E+00 -0.38287813636E+02  0.38287813636E+02  0.00000000000E+00 0.  1.
         25    1    1    2    0    0  0.44474754987E+01 -0.78595546115E+02  0.25257146445E+03  0.29259935845E+03  0.12500000000E+03 0.  0.
          1    1    1    2  502    0  0.27051161508E+02  0.75830839656E+02  0.13234296473E+03  0.15490881800E+03  0.00000000000E+00 0. -1.
         -2    1    1    2    0  501 -0.31498637007E+02  0.27647064599E+01  0.28762754596E+02  0.42744634600E+02  0.00000000000E+00 0.  1.
<mgrwt>
<rscale>  0 0.49794009E+02</rscale>
<asrwt>0</asrwt>
<pdfrwt beam="1">  1        1 0.69533073E-01 0.78414421E+02</pdfrwt>
<pdfrwt beam="2">  1       -2 0.58904332E-02 0.31619736E+02</pdfrwt>
<totfact> 0.57793357E+03</totfact>
</mgrwt>
</event>
<event>
 5    1  0.7114032E-003  0.2980172E+02  0.7546771E-02  0.1616465E+00
         -1   -1    0    0    0  501 -0.00000000000E+00  0.00000000000E+00  0.12746615213E+03  0.12746615213E+03  0.00000000000E+00 0.  1.
          2   -1    0    0  502    0  0.00000000000E+00 -0.00000000000E+00 -0.90264315543E+03  0.90264315543E+03  0.00000000000E+00 0. -1.
         25    1    1    2    0    0  0.52975630018E+01  0.32723828520E+01 -0.60121920038E+03  0.61410772635E+03  0.12500000000E+03 0.  0.
          2    1    1    2  502    0 -0.29940412623E+02 -0.14467269628E+02 -0.29251247216E+03  0.29439646154E+03  0.00000000000E+00 0. -1.
         -1    1    1    2    0  501  0.24642849621E+02  0.11194886776E+02  0.11855466925E+03  0.12160511966E+03  0.00000000000E+00 0.  1.
<mgrwt>
<rscale>  0 0.28401203E+02</rscale>
<asrwt>0</asrwt>
<pdfrwt beam="2">  1        2 0.13886818E+00 0.29801721E+02</pdfrwt>
<pdfrwt beam="1">  1       -1 0.19610177E-01 0.27066502E+02</pdfrwt>
<totfact> 0.72438416E+02</totfact>
</mgrwt>
</event>
<event>
 5    1  0.7114032E-003  0.8913238E+02  0.7546771E-02  0.1462051E+00
         -1   -1    0    0    0  501 -0.00000000000E+00  0.00000000000E+00  0.23367630945E+02  0.23367630945E+02  0.00000000000E+00 0.  1.
          2   -1    0    0  502    0  0.00000000000E+00 -0.00000000000E+00 -0.85739128789E+03  0.85739128789E+03  0.00000000000E+00 0. -1.
         25    1    1    2    0    0 -0.20737280943E+02  0.84484840412E+02 -0.60829888668E+03  0.62707276979E+03  0.12500000000E+03 0.  0.
          2    1    1    2  502    0  0.24088256233E+02  0.59625821181E+01 -0.58328077702E+02  0.63387389300E+02  0.00000000000E+00 0. -1.
         -1    1    1    2    0  501 -0.33509752899E+01 -0.90447422531E+02 -0.16739669256E+03  0.19029875974E+03  0.00000000000E+00 0.  1.
<mgrwt>
<rscale>  0 0.47030225E+02</rscale>
<asrwt>0</asrwt>
<pdfrwt beam="2">  1        2 0.13190636E+00 0.24815247E+02</pdfrwt>
<pdfrwt beam="1">  1       -1 0.35950199E-02 0.89132382E+02</pdfrwt>
<totfact> 0.10513109E+04</totfact>
</mgrwt>
</event>
<event>
 5    1  0.7114032E-003  0.6797539E+02  0.7546771E-02  0.1372092E+00
          1   -1    0    0  502    0 -0.00000000000E+00  0.00000000000E+00  0.12502205393E+04  0.12502205393E+04  0.00000000000E+00 0. -1.
          2   -1    0    0  501    0  0.00000000000E+00 -0.00000000000E+00 -0.72378536547E+03  0.72378536547E+03  0.00000000000E+00 0. -1.
         25    1    1    2    0    0  0.42629662593E+02 -0.15548490951E+02  0.10068281416E+03  0.16679650108E+03  0.12500000000E+03 0.  0.
          2    1    1    2  501    0 -0.44800054513E+01  0.68460586568E+02 -0.68806830943E+03  0.69148023891E+03  0.00000000000E+00 0. -1.
          1    1    1    2  502    0 -0.38149657142E+02 -0.52912095617E+02  0.11138206692E+04  0.11157291648E+04  0.00000000000E+00 0. -1.
<mgrwt>
<rscale>  0 0.66589068E+02</rscale>
<asrwt>0</asrwt>
<pdfrwt beam="2">  1        2 0.11135159E+00 0.67975386E+02</pdfrwt>
<pdfrwt beam="1">  1        1 0.19234162E+00 0.65231022E+02</pdfrwt>
<totfact> 0.68343705E+01</totfact>
</mgrwt>
</event>
<event>
 5    1  0.7114032E-003  0.1916882E+03  0.7546771E-02  0.1351507E+00
          2   -1    0    0  502    0  0.00000000000E+00  0.00000000000E+00  0.14690465005E+04  0.14690465005E+04  0.00000000000E+00 0.  1.
          2   -1    0    0  501    0 -0.00000000000E+00 -0.00000000000E+00 -0.20720276553E+03  0.20720276553E+03  0.00000000000E+00 0. -1.
         25    1    1    2    0    0  0.15978042391E+03 -0.13373189812E+03  0.53283268229E+02  0.24875311277E+03  0.12500000000E+03 0.  0.
          2    1    1    2  501    0 -0.14715781419E+03  0.10931415920E+03 -0.32462514107E+02  0.18616880109E+03  0.00000000000E+00 0. -1.
          2    1    1    2  502    0 -0.12622609724E+02  0.24417738927E+02  0.12410229808E+04  0.12413273522E+04  0.00000000000E+00 0.  1.
<mgrwt>
<rscale>  0 0.72587925E+02</rscale>
<asrwt>0</asrwt>
<pdfrwt beam="1">  1        2 0.22600715E+00 0.27487383E+02</pdfrwt>
<pdfrwt beam="2">  1        2 0.31877349E-01 0.19168819E+03</pdfrwt>
<totfact> 0.43213526E+02</totfact>
</mgrwt>
</event>
<event>
 5    1  0.7114032E-003  0.9019089E+02  0.7546771E-02  0.1372422E+00
          1   -1    0    0  502    0  0.00000000000E+00  0.00000000000E+00  0.77577665278E+03  0.77577665278E+03  0.00000000000E+00 0. -1.
          1   -1    0    0  501    0 -0.00000000000E+00 -0.00000000000E+00 -0.93468264927E+02  0.93468264927E+02  0.00000000000E+00 0. -1.
         25    1    1    2    0    0 -0.16344500901E+02 -0.47521124309E+02  0.20637924960E+03  0.24646053361E+03  0.12500000000E+03 0.  0.
          1    1    1    2  501    0 -0.17217430963E+02 -0.45907332438E+02 -0.60144047071E+02  0.77596581746E+02  0.00000000000E+00 0. -1.
          1    1    1    2  502    0  0.33561931864E+02  0.93428456748E+02  0.53607318533E+03  0.54518780235E+03  0.00000000000E+00 0. -1.
<mgrwt>
<rscale>  0 0.66498442E+02</rscale>
<asrwt>0</asrwt>
<pdfrwt beam="1">  1        1 0.11935025E+00 0.90190887E+02</pdfrwt>
<pdfrwt beam="2">  1        1 0.14379734E-01 0.49029818E+02</pdfrwt>
<totfact> 0.11035655E+03</totfact>
</mgrwt>
</event>
<event>
 5    1  0.7114032E-003  0.3244202E+03  0.7546771E-02  0.1297389E+00
          2   -1    0    0  501    0  0.00000000000E+00  0.00000000000E+00  0.29166792168E+04  0.29166792168E+04  0.00000000000E+00 0. -1.
          2   -1    0    0  502    0 -0.00000000000E+00 -0.00000000000E+00 -0.94084373250E+02  0.94084373250E+02  0.00000000000E+00 0. -1.
         25    1    1    2    0    0  0.30790060719E+03 -0.15186620771E+03  0.12467744289E+04  0.12992065292E+04  0.12500000000E+03 0.  0.
          2    1    1    2  501    0 -0.17938461846E+02  0.19173849612E+02  0.12682330061E+04  0.12685047823E+04  0.00000000000E+00 0. -1.
          2    1    1    2  502    0 -0.28996214534E+03  0.13269235810E+03  0.30758740848E+03  0.44305227850E+03  0.00000000000E+00 0. -1.
<mgrwt>
<rscale>  0 0.92294466E+02</rscale>
<asrwt>0</asrwt>
<pdfrwt beam="1">  1        2 0.44871981E+00 0.26256902E+02</pdfrwt>
<pdfrwt beam="2">  1        2 0.14474521E-01 0.32442016E+03</pdfrwt>
<totfact> 0.21542253E+02</totfact>
</mgrwt>
</event>
<event>
 5    1  0.7114032E-003  0.7326812E+02  0.7546771E-02  0.1440464E+00
         -1   -1    0    0    0  501 -0.00000000000E+00  0.00000000000E+00  0.95429390771E+02  0.95429390771E+02  0.00000000000E+00 0.  1.
          2   -1    0    0  502    0  0.00000000000E+00 -0.00000000000E+00 -0.20354772429E+03  0.20354772429E+03  0.00000000000E+00 0. -1.
         25    1    1    2    0    0  0.58742160829E+02  0.71514764418E+02 -0.74025276877E+02  0.17224907723E+03  0.12500000000E+03 0.  0.
          2    1    1    2  502    0 -0.34827194299E+02 -0.62447400249E+01 -0.44054883460E+02  0.56504539617E+02  0.00000000000E+00 0. -1.
         -1    1    1    2    0  501 -0.23914966530E+02 -0.65270024393E+02  0.99618268177E+01  0.70223498218E+02  0.00000000000E+00 0.  1.
<mgrwt>
<rscale>  0 0.50915799E+02</rscale>
<asrwt>0</asrwt>
<pdfrwt beam="2">  1        2 0.31315034E-01 0.35382626E+02</pdfrwt>
<pdfrwt beam="1">  1       -1 0.14681445E-01 0.73268121E+02</pdfrwt>
<totfact> 0.56759183E+03</totfact>
</mgrwt>
</event>
<event>
 5    1  0.7114032E-003  0.4505351E+02  0.7546771E-02  0.1482280E+00
          1   -1    0    0  502    0 -0.00000000000E+00  0.00000000000E+00  0.22381319022E+03  0.22381319022E+03  0.00000000000E+00 0. -1.
          2   -1    0    0  501    0  0.00000000000E+00 -0.00000000000E+00 -0.55340041938E+03  0.55340041938E+03  0.00000000000E+00 0. -1.
         25    1    1    2    0    0  0.79541012946E+01 -0.53377205940E+00  0.10084537856E+03  0.16080529537E+03  0.12500000000E+03 0.  0.
          2    1    1    2  501    0 -0.22535785649E+02 -0.39375949404E+02 -0.51752179253E+03  0.51950662438E+03  0.00000000000E+00 0. -1.
          1    1    1    2  502    0  0.14581684355E+02  0.39909721463E+02  0.87089184807E+02  0.96901689852E+02  0.00000000000E+00 0. -1.
<mgrwt>
<rscale>  0 0.43753054E+02</rscale>
<asrwt>0</asrwt>
<pdfrwt beam="2">  1        2 0.85138524E-01 0.45053512E+02</pdfrwt>
<pdfrwt beam="1">  1        1 0.34432799E-01 0.42490133E+02</pdfrwt>
<totfact> 0.96742299E+02</totfact>
</mgrwt>
</event>
<event>
 5    1  0.7114032E-003  0.1395551E+03  0.7546771E-02  0.1378963E+00
          1   -1    0    0  502    0 -0.00000000000E+00  0.00000000000E+00  0.35995529267E+03  0.35995529267E+03  0.00000000000E+00 0. -1.
          2   -1    0    0  501    0  0.00000000000E+00 -0.00000000000E+00 -0.67330951056E+03  0.67330951056E+03  0.00000000000E+00 0. -1.
         25    1    1    2    0    0  0.75999050305E+02 -0.86547556650E+02 -0.17632203946E+03  0.24490977279E+03  0.12500000000E+03 0.  0.
          2    1    1    2  501    0  0.44879457976E+01 -0.29693283598E+02 -0.44682004127E+03  0.44782807195E+03  0.00000000000E+00 0. -1.
          1    1    1    2  502    0 -0.80486996103E+02  0.11624084025E+03  0.30978786285E+03  0.34052695848E+03  0.00000000000E+00 0. -1.
<mgrwt>
<rscale>  0 0.64737274E+02</rscale>
<asrwt>0</asrwt>
<pdfrwt beam="2">  1        2 0.10358608E+00 0.30030530E+02</pdfrwt>
<pdfrwt beam="1">  1        1 0.55377737E-01 0.13955513E+03</pdfrwt>
<totfact> 0.44595290E+02</totfact>
</mgrwt>
</event>
<event>
 5    1  0.7114032E-003  0.6607528E+02  0.7546771E-02  0.1531957E+00
         -3   -1    0    0    0  501 -0.00000000000E+00  0.00000000000E+00  0.44746400566E+02  0.44746400566E+02  0.00000000000E+00 0.  1.
          1   -1    0    0  502    0  0.00000000000E+00 -0.00000000000E+00 -0.90006018127E+03  0.90006018127E+03  0.00000000000E+00 0. -1.
         25    1    1    2    0    0  0.51842416338E+02  0.46053392676E+00 -0.18898579294E+03  0.23244026793E+03  0.12500000000E+03 0.  0.
          1    1    1    2  502    0  0.16892315148E+02  0.11894715986E+02 -0.63582246293E+03  0.63615802985E+03  0.00000000000E+00 0. -1.
         -3    1    1    2    0  501 -0.68734731486E+02 -0.12355249913E+02 -0.30505524835E+02  0.76208284053E+02  0.00000000000E+00 0.  1.
<mgrwt>
<rscale>  0 0.36947445E+02</rscale>
<asrwt>0</asrwt>
<pdfrwt beam="2">  1        1 0.13847080E+00 0.20659975E+02</pdfrwt>
<pdfrwt beam="1">  1       -3 0.68840616E-02 0.66075281E+02</pdfrwt>
<totfact> 0.14272688E+03</totfact>
</mgrwt>
</event>
<event>
 5    1  0.7114032E-003  0.1493887E+03  0.7546771E-02  0.1262103E+00
          3   -1    0    0  502    0 -0.00000000000E+00  0.00000000000E+00  0.23068139915E+03  0.23068139915E+03  0.00000000000E+00 0. -1.
          1   -1    0    0  501    0  0.00000000000E+00 -0.00000000000E+00 -0.36908663952E+03  0.36908663952E+03  0.00000000000E+00 0. -1.
         25    1    1    2    0    0 -0.15744588298E+02  0.13952501691E+03  0.30922444109E+01  0.18801511742E+03  0.12500000000E+03 0.  0.
          1    1    1    2  501    0  0.93985092535E+02 -0.12388565999E+03 -0.23939084014E+03  0.28546248214E+03  0.00000000000E+00 0. -1.
          3    1    1    2  502    0 -0.78240504237E+02 -0.15639356920E+02  0.97893355348E+02  0.12629043911E+03  0.00000000000E+00 0. -1.
<mgrwt>
<rscale>  0 0.10917630E+03</rscale>
<asrwt>0</asrwt>
<pdfrwt beam="2">  1        1 0.56782559E-01 0.14938871E+03</pdfrwt>
<pdfrwt beam="1">  1        3 0.35489446E-01 0.79788257E+02</pdfrwt>
<totfact> 0.27075678E+02</totfact>
</mgrwt>
</event>
<event>
 5    1  0.7114032E-003  0.4640594E+02  0.7546771E-02  0.1551819E+00
          1   -1    0    0  501    0  0.00000000000E+00  0.00000000000E+00  0.89225221493E+03  0.89225221493E+03  0.00000000000E+00 0. -1.
          3   -1    0    0  502    0 -0.00000000000E+00 -0.00000000000E+00 -0.25727343197E+02  0.25727343197E+02  0.00000000000E+00 0. -1.
         25    1    1    2    0    0 -0.20480133873E+00  0.58336310352E+02  0.53076693732E+03  0.54839922393E+03  0.12500000000E+03 0.  0.
          1    1    1    2  501    0 -0.18961739938E+02 -0.40979580411E+02  0.34033800097E+03  0.34332030015E+03  0.00000000000E+00 0. -1.
          3    1    1    2  502    0  0.19166541277E+02 -0.17356729941E+02 -0.45800665556E+01  0.26260034052E+02  0.00000000000E+00 0. -1.
<mgrwt>
<rscale>  0 0.34640198E+02</rscale>
<asrwt>0</asrwt>
<pdfrwt beam="1">  1        1 0.13726955E+00 0.46405936E+02</pdfrwt>
<pdfrwt beam="2">  1        3 0.39580535E-02 0.25857540E+02</pdfrwt>
<totfact> 0.26825808E+03</totfact>
</mgrwt>
</event>
<event>
 5    1  0.7114032E-003  0.1142661E+03  0.7546771E-02  0.1314985E+00
          1   -1    0    0  502    0 -0.00000000000E+00  0.00000000000E+00  0.36862134457E+04  0.36862134457E+04  0.00000000000E+00 0. -1.
          2   -1    0    0  501    0  0.00000000000E+00 -0.00000000000E+00 -0.90991676965E+03  0.90991676965E+03  0.00000000000E+00 0. -1.
         25    1    1    2    0    0 -0.72197514393E+02  0.11998643136E+02 -0.79117327314E+02  0.16504847774E+03  0.12500000000E+03 0.  0.
          2    1    1    2  501    0  0.96114413714E+02 -0.70805966300E+02 -0.78303301491E+03  0.79208090990E+03  0.00000000000E+00 0. -1.
          1    1    1    2  502    0 -0.23916899321E+02  0.58807323164E+02  0.36384470183E+04  0.36390008277E+04  0.00000000000E+00 0. -1.
<mgrwt>
<rscale>  0 0.85171365E+02</rscale>
<asrwt>0</asrwt>
<pdfrwt beam="2">  1        2 0.13998720E+00 0.11426612E+03</pdfrwt>
<pdfrwt beam="1">  1        1 0.56710975E+00 0.63484796E+02</pdfrwt>
<totfact> 0.12876055E+00</totfact>
</mgrwt>
</event>
<event>
 5    1  0.7114032E-003  0.1237724E+03  0.7546771E-02  0.1316271E+00
          1   -1    0    0  501    0  0.00000000000E+00  0.00000000000E+00  0.55483003171E+03  0.55483003171E+03  0.00000000000E+00 0. -1.
          1   -1    0    0  502    0 -0.00000000000E+00 -0.00000000000E+00 -0.39180874945E+03  0.39180874945E+03  0.00000000000E+00 0. -1.
         25    1    1    2    0    0 -0.28661681874E+02 -0.80415911274E+02  0.22033408531E+03  0.26732063135E+03  0.12500000000E+03 0.  0.
          1    1    1    2  501    0  0.36338205399E+02 -0.45121568564E+02  0.29738813451E+03  0.30297875118E+03  0.00000000000E+00 0. -1.
          1    1    1    2  502    0 -0.76765235249E+01  0.12553747984E+03 -0.35470093756E+03  0.37633939864E+03  0.00000000000E+00 0. -1.
<mgrwt>
<rscale>  0 0.84680036E+02</rscale>
<asrwt>0</asrwt>
<pdfrwt beam="1">  1        1 0.85358467E-01 0.57934628E+02</pdfrwt>
<pdfrwt beam="2">  1        1 0.60278269E-01 0.12377241E+03</pdfrwt>
<totfact> 0.30929279E+02</totfact>
</mgrwt>
</event>
<event>
 5    1  0.7114032E-003  0.1323604E+03  0.7546771E-02  0.1287454E+00
          2   -1    0    0  501    0  0.00000000000E+00  0.00000000000E+00  0.15424646177E+04  0.15424646177E+04  0.00000000000E+00 0. -1.
          1   -1    0    0  502    0 -0.00000000000E+00 -0.00000000000E+00 -0.68899087094E+02  0.68899087094E+02  0.00000000000E+00 0. -1.
         25    1    1    2    0    0 -0.48765795805E+02  0.49509131415E+02  0.67605064852E+03  0.69101283367E+03  0.12500000000E+03 0.  0.
          2    1    1    2  501    0 -0.54674450305E+02  0.44675868423E+02  0.77553137959E+03  0.77873881980E+03  0.00000000000E+00 0. -1.
          1    1    1    2  502    0  0.10344024611E+03 -0.94184999838E+02  0.21983502547E+02  0.14161205137E+03  0.00000000000E+00 0. -1.
<mgrwt>
<rscale>  0 0.96671912E+02</rscale>
<asrwt>0</asrwt>
<pdfrwt beam="1">  1        2 0.23730222E+00 0.70606152E+02</pdfrwt>
<pdfrwt beam="2">  1        1 0.10599861E-01 0.13236040E+03</pdfrwt>
<totfact> 0.11200474E+03</totfact>
</mgrwt>
</event>
<event>
 5    1  0.7114032E-003  0.3345978E+02  0.7546771E-02  0.1604200E+00
          2   -1    0    0  501    0  0.00000000000E+00  0.00000000000E+00  0.13055584186E+04  0.13055584186E+04  0.00000000000E+00 0. -1.
          1   -1    0    0  502    0 -0.00000000000E+00 -0.00000000000E+00 -0.15180177444E+04  0.15180177444E+04  0.00000000000E+00 0. -1.
         25    1    1    2    0    0 -0.53977346212E+02 -0.38245281083E+01 -0.39658024826E+03  0.41931977562E+03  0.12500000000E+03 0.  0.
          2    1    1    2  501    0  0.22271364217E+02  0.13276373212E+02  0.12938122190E+04  0.12940719972E+04  0.00000000000E+00 0. -1.
          1    1    1    2  502    0  0.31705981996E+02 -0.94518451035E+01 -0.11096912965E+04  0.11101843902E+04  0.00000000000E+00 0. -1.
<mgrwt>
<rscale>  0 0.29454281E+02</rscale>
<asrwt>0</asrwt>
<pdfrwt beam="1">  1        2 0.20085514E+00 0.25928281E+02</pdfrwt>
<pdfrwt beam="2">  1        1 0.23354119E+00 0.33459784E+02</pdfrwt>
<totfact> 0.24283584E+01</totfact>
</mgrwt>
</event>
<event>
 5    1  0.7114032E-003  0.8538789E+02  0.7546771E-02  0.1349638E+00
          1   -1    0    0  501    0  0.00000000000E+00  0.00000000000E+00  0.73812142998E+03  0.73812142998E+03  0.00000000000E+00 0. -1.
          1   -1    0    0  502    0 -0.00000000000E+00 -0.00000000000E+00 -0.10704172437E+04  0.10704172437E+04  0.00000000000E+00 0. -1.
         25    1    1    2    0    0 -0.74424551016E+01 -0.21984628381E+02  0.27470233004E+03  0.30269635636E+03  0.12500000000E+03 0.  0.
          1    1    1    2  501    0 -0.27654637170E+02 -0.56269390085E+02  0.44548256643E+03  0.44987302676E+03  0.00000000000E+00 0. -1.
          1    1    1    2  502    0  0.35097092271E+02  0.78254018466E+02 -0.10524807102E+04  0.10559692906E+04  0.00000000000E+00 0. -1.
<mgrwt>
<rscale>  0 0.73168566E+02</rscale>
<asrwt>0</asrwt>
<pdfrwt beam="1">  1        1 0.11355714E+00 0.62697873E+02</pdfrwt>
<pdfrwt beam="2">  1        1 0.16467957E+00 0.85387891E+02</pdfrwt>
<totfact> 0.51487934E+01</totfact>
</mgrwt>
</event>
<event>
 5    1  0.7114032E-003  0.1021703E+03  0.7546771E-02  0.1322164E+00
          2   -1    0    0  502    0  0.00000000000E+00  0.00000000000E+00  0.60288490696E+02  0.60288490696E+02  0.00000000000E+00 0. -1.
         -1   -1    0    0    0  501 -0.00000000000E+00 -0.00000000000E+00 -0.63631018241E+03  0.63631018241E+03  0.00000000000E+00 0.  1.
         25    1    1    2    0    0 -0.75009616407E+02 -0.12838611853E+03 -0.43323059602E+03  0.47478751807E+03  0.12500000000E+03 0.  0.
          2    1    1    2  502    0  0.72418245444E+02  0.61856027731E+02 -0.49891063522E+02  0.10751599257E+03  0.00000000000E+00 0. -1.
         -1    1    1    2    0  501  0.25913709634E+01  0.66530090798E+02 -0.92900032172E+02  0.11429516246E+03  0.00000000000E+00 0.  1.
<mgrwt>
<rscale>  0 0.82477605E+02</rscale>
<asrwt>0</asrwt>
<pdfrwt beam="1">  1        2 0.92751521E-02 0.10217033E+03</pdfrwt>
<pdfrwt beam="2">  1       -1 0.97893878E-01 0.66580539E+02</pdfrwt>
<totfact> 0.84890467E+02</totfact>
</mgrwt>
</event>
<event>
 5    1  0.7114032E-003  0.7886567E+02  0.7546771E-02  0.1453604E+00
         -2   -1    0    0    0  501 -0.00000000000E+00  0.00000000000E+00  0.15066661372E+02  0.15066661372E+02  0.00000000000E+00 0.  1.
          1   -1    0    0  502    0  0.00000000000E+00 -0.00000000000E+00 -0.13726310454E+04  0.13726310454E+04  0.00000000000E+00 0. -1.
         25    1    1    2    0    0 -0.73144707447E+02  0.48369363138E+02 -0.97766220086E+03  0.98951408403E+03  0.12500000000E+03 0.  0.
          1    1    1    2  502    0  0.72350446213E+02 -0.18553822658E+02 -0.34142820600E+03  0.34950257689E+03  0.00000000000E+00 0. -1.
         -2    1    1    2    0  501  0.79426123427E+00 -0.29815540481E+02 -0.38473977168E+02  0.48681045841E+02  0.00000000000E+00 0.  1.
<mgrwt>
<rscale>  0 0.48500068E+02</rscale>
<asrwt>0</asrwt>
<pdfrwt beam="2">  1        1 0.21117403E+00 0.78865665E+02</pdfrwt>
<pdfrwt beam="1">  1       -2 0.23179477E-02 0.29826118E+02</pdfrwt>
<totfact> 0.39551516E+03</totfact>
</mgrwt>
</event>
<event>
 5    1  0.7114032E-003  0.1266046E+03  0.7546771E-02  0.1293225E+00
          1   -1    0    0  502    0  0.00000000000E+00  0.00000000000E+00  0.15439828768E+04  0.15439828768E+04  0.00000000000E+00 0. -1.
          1   -1    0    0  501    0 -0.00000000000E+00 -0.00000000000E+00 -0.16044448654E+03  0.16044448654E+03  0.00000000000E+00 0. -1.
         25    1    1    2    0    0  0.69089611225E+01  0.66202814167E+02  0.78293584908E+03  0.79564067903E+03  0.12500000000E+03 0.  0.
          1    1    1    2  501    0  0.30871504168E+02 -0.12505437715E+03 -0.12519606399E+03  0.17962656110E+03  0.00000000000E+00 0. -1.
          1    1    1    2  502    0 -0.37780465291E+02  0.58851562985E+02  0.72579860519E+03  0.72916012324E+03  0.00000000000E+00 0. -1.
<mgrwt>
<rscale>  0 0.94096008E+02</rscale>
<asrwt>0</asrwt>
<pdfrwt beam="1">  1        1 0.23753582E+00 0.69934755E+02</pdfrwt>
<pdfrwt beam="2">  1        1 0.24683768E-01 0.12660456E+03</pdfrwt>
<totfact> 0.17464601E+02</totfact>
</mgrwt>
</event>
<event>
 5    1  0.7114032E-003  0.2309359E+02  0.7546771E-02  0.1706834E+00
          1   -1    0    0  502    0  0.00000000000E+00  0.00000000000E+00  0.29408144949E+03  0.29408144949E+03  0.00000000000E+00 0. -1.
         -1   -1    0    0    0  501 -0.00000000000E+00 -0.00000000000E+00 -0.38987322301E+02  0.38987322301E+02  0.00000000000E+00 0.  1.
         25    1    1    2    0    0  0.15040322469E+02  0.21905932499E+02  0.12767090973E+03  0.18064036750E+03  0.12500000000E+03 0.  0.
          1    1    1    2  502    0  0.83184486605E+01 -0.19407547833E+02  0.12719457400E+03  0.12893529057E+03  0.00000000000E+00 0. -1.
         -1    1    1    2    0  501 -0.23358771129E+02 -0.24983846665E+01  0.22864346645E+00  0.23493113724E+02  0.00000000000E+00 0.  1.
<mgrwt>
<rscale>  0 0.22082222E+02</rscale>
<asrwt>0</asrwt>
<pdfrwt beam="1">  1        1 0.45243299E-01 0.21115149E+02</pdfrwt>
<pdfrwt beam="2">  1       -1 0.59980498E-02 0.23093587E+02</pdfrwt>
<totfact> 0.93494868E+03</totfact>
</mgrwt>
</event>
<event>
 5    1  0.7114032E-003  0.9631411E+02  0.7546771E-02  0.1314768E+00
         -3   -1    0    0    0  501 -0.00000000000E+00  0.00000000000E+00  0.32033711955E+03  0.32033711955E+03  0.00000000000E+00 0.  1.
          2   -1    0    0  502    0  0.00000000000E+00 -0.00000000000E+00 -0.25582956690E+04  0.25582956690E+04  0.00000000000E+00 0.  1.
         25    1    1    2    0    0 -0.17014506865E+03  0.14818494073E+02  0.14947110220E+02  0.21217292064E+03  0.12500000000E+03 0.  0.
          2    1    1    2  502    0  0.94685610851E+02 -0.13926379517E+02 -0.24518326236E+04  0.24536997622E+04  0.00000000000E+00 0.  1.
         -3    1    1    2    0  501  0.75459457794E+02 -0.89211455592E+00  0.19892696387E+03  0.21276010574E+03  0.00000000000E+00 0.  1.
<mgrwt>
<rscale>  0 0.85254434E+02</rscale>
<asrwt>0</asrwt>
<pdfrwt beam="2">  1        2 0.39358395E+00 0.96314112E+02</pdfrwt>
<pdfrwt beam="1">  1       -3 0.49282634E-01 0.75464731E+02</pdfrwt>
<totfact> 0.10392873E+01</totfact>
</mgrwt>
</event>
<event>
 5    1  0.7114032E-003  0.1124483E+03  0.7546771E-02  0.1429142E+00
          2   -1    0    0  501    0  0.00000000000E+00  0.00000000000E+00  0.11046279606E+03  0.11046279606E+03  0.00000000000E+00 0. -1.
          1   -1    0    0  502    0 -0.00000000000E+00 -0.00000000000E+00 -0.11128631534E+04  0.11128631534E+04  0.00000000000E+00 0. -1.
         25    1    1    2    0    0 -0.85002667420E+02  0.55874844001E+02 -0.24460736881E+03  0.29292527466E+03  0.12500000000E+03 0.  0.
          2    1    1    2  501    0  0.38166579111E+01  0.24813736615E+02  0.80502665708E+02  0.84326553283E+02  0.00000000000E+00 0. -1.
          1    1    1    2  502    0  0.81186009509E+02 -0.80688580615E+02 -0.83829565425E+03  0.84607412153E+03  0.00000000000E+00 0. -1.
<mgrwt>
<rscale>  0 0.53132614E+02</rscale>
<asrwt>0</asrwt>
<pdfrwt beam="1">  1        2 0.16994277E-01 0.25105545E+02</pdfrwt>
<pdfrwt beam="2">  1        1 0.17120971E+00 0.11244825E+03</pdfrwt>
<totfact> 0.57375780E+02</totfact>
</mgrwt>
</event>
<event>
 5    1  0.7114032E-003  0.2110563E+03  0.7546771E-02  0.1164963E+00
          1   -1    0    0  501    0  0.00000000000E+00  0.00000000000E+00  0.38941369981E+04  0.38941369981E+04  0.00000000000E+00 0. -1.
          1   -1    0    0  502    0 -0.00000000000E+00 -0.00000000000E+00 -0.33471932105E+02  0.33471932105E+02  0.00000000000E+00 0. -1.
         25    1    1    2    0    0  0.86787962396E+02 -0.94733475307E+02  0.13011305552E+04  0.13134200789E+04  0.12500000000E+03 0.  0.
          1    1    1    2  501    0  0.15860606286E+03  0.16355736698E+01  0.18647502828E+04  0.18714839501E+04  0.00000000000E+00 0. -1.
          1    1    1    2  502    0 -0.24539402526E+03  0.93097901637E+02  0.69478422788E+03  0.74270490118E+03  0.00000000000E+00 0. -1.
<mgrwt>
<rscale>  0 0.18296610E+03</rscale>
<asrwt>0</asrwt>
<pdfrwt beam="1">  1        1 0.59909764E+00 0.15861450E+03</pdfrwt>
<pdfrwt beam="2">  1        1 0.51495311E-02 0.21105633E+03</pdfrwt>
<totfact> 0.31837805E+01</totfact>
</mgrwt>
</event>
<event>
 5    1  0.7348875E-003  0.1095730E+03  0.7546771E-02  0.1396034E+00
          2   -1    0    0  502    0  0.00000000000E+00  0.00000000000E+00  0.60679244952E+03  0.60679244952E+03  0.00000000000E+00 0. -1.
         -1   -1    0    0    0  501 -0.00000000000E+00 -0.00000000000E+00 -0.40158959296E+02  0.40158959296E+02  0.00000000000E+00 0.  1.
         25    1    1    2    0    0 -0.50818156927E+02 -0.10367025957E+03  0.34003719439E+03  0.38023716463E+03  0.12500000000E+03 0.  0.
          2    1    1    2  502    0  0.72696053655E+02  0.78528595150E+02  0.16460652270E+03  0.19633329771E+03  0.00000000000E+00 0. -1.
         -1    1    1    2    0  501 -0.21877896729E+02  0.25141664418E+02  0.61989773127E+02  0.70380946479E+02  0.00000000000E+00 0.  1.
<mgrwt>
<rscale>  0 0.60430404E+02</rscale>
<asrwt>0</asrwt>
<pdfrwt beam="1">  1        2 0.93352678E-01 0.10957303E+03</pdfrwt>
<pdfrwt beam="2">  1       -1 0.61783019E-02 0.33327851E+02</pdfrwt>
<totfact> 0.61204630E+03</totfact>
</mgrwt>
</event>
<event>
 5    1  0.7114032E-003  0.8215154E+02  0.7546771E-02  0.1346510E+00
          3   -1    0    0  502    0 -0.00000000000E+00  0.00000000000E+00  0.52770093414E+03  0.52770093414E+03  0.00000000000E+00 0. -1.
          2   -1    0    0  501    0  0.00000000000E+00 -0.00000000000E+00 -0.63670612475E+02  0.63670612475E+02  0.00000000000E+00 0. -1.
         25    1    1    2    0    0  0.11256984273E+03 -0.62195951803E+02  0.27055270509E+03  0.32459832431E+03  0.12500000000E+03 0.  0.
          2    1    1    2  501    0 -0.66605549344E+02  0.66379760307E+01  0.75586665878E+01  0.67360933558E+02  0.00000000000E+00 0. -1.
          3    1    1    2  502    0 -0.45964293389E+02  0.55557975772E+02  0.18591895000E+03  0.19941228875E+03  0.00000000000E+00 0. -1.
<mgrwt>
<rscale>  0 0.74154265E+02</rscale>
<asrwt>0</asrwt>
<pdfrwt beam="2">  1        2 0.97954792E-02 0.66935506E+02</pdfrwt>
<pdfrwt beam="1">  1        3 0.81184756E-01 0.82151542E+02</pdfrwt>
<totfact> 0.52263427E+02</totfact>
</mgrwt>
</event>
<event>
 5    1  0.7114032E-003  0.3382137E+02  0.7546771E-02  0.1604711E+00
         -2   -1    0    0    0  501 -0.00000000000E+00  0.00000000000E+00  0.10269731712E+02  0.10269731712E+02  0.00000000000E+00 0.  1.
          1   -1    0    0  502    0  0.00000000000E+00 -0.00000000000E+00 -0.14829218781E+04  0.14829218781E+04  0.00000000000E+00 0. -1.
         25    1    1    2    0    0  0.91307729863E+01 -0.49671243896E+01 -0.44219274671E+03  0.45963841069E+03  0.12500000000E+03 0.  0.
          1    1    1    2  502    0 -0.63118056182E+00 -0.33815479858E+02 -0.68221547191E+03  0.68305331797E+03  0.00000000000E+00 0. -1.
         -2    1    1    2    0  501 -0.84995924244E+01  0.38782604248E+02 -0.34824392774E+03  0.35049988113E+03  0.00000000000E+00 0.  1.
<mgrwt>
<rscale>  0 0.29409352E+02</rscale>
<asrwt>0</asrwt>
<pdfrwt beam="2">  1        1 0.22814192E+00 0.33821370E+02</pdfrwt>
<pdfrwt beam="1">  1       -2 0.15799581E-02 0.25572884E+02</pdfrwt>
<totfact> 0.60462654E+03</totfact>
</mgrwt>
</event>
<event>
 5    1  0.7114032E-003  0.1063997E+03  0.7546771E-02  0.1410237E+00
         -1   -1    0    0    0  501 -0.00000000000E+00  0.00000000000E+00  0.10293906587E+02  0.10293906587E+02  0.00000000000E+00 0.  1.
          2   -1    0    0  502    0  0.00000000000E+00 -0.00000000000E+00 -0.22606128206E+04  0.22606128206E+04  0.00000000000E+00 0. -1.
         25    1    1    2    0    0  0.49499381932E+01  0.11052852272E+03 -0.12985186479E+04  0.13092046193E+04  0.12500000000E+03 0.  0.
          2    1    1    2  502    0  0.28860909177E+02 -0.10428067704E+02 -0.27456940784E+03  0.27627894671E+03  0.00000000000E+00 0. -1.
         -1    1    1    2    0  501 -0.33810847370E+02 -0.10010045501E+03 -0.67723085820E+03  0.68542316111E+03  0.00000000000E+00 0.  1.
<mgrwt>
<rscale>  0 0.57141024E+02</rscale>
<asrwt>0</asrwt>
<pdfrwt beam="2">  1        2 0.34778686E+00 0.30687077E+02</pdfrwt>
<pdfrwt beam="1">  1       -1 0.15836767E-02 0.10639973E+03</pdfrwt>
<totfact> 0.69298257E+03</totfact>
</mgrwt>
</event>
<event>
 5    1  0.7114032E-003  0.1202087E+03  0.7546771E-02  0.1409071E+00
          1   -1    0    0  502    0  0.00000000000E+00  0.00000000000E+00  0.66889415220E+03  0.66889415220E+03  0.00000000000E+00 0. -1.
         -1   -1    0    0    0  501 -0.00000000000E+00 -0.00000000000E+00 -0.15026241937E+03  0.15026241937E+03  0.00000000000E+00 0.  1.
         25    1    1    2    0    0  0.85728364642E+02 -0.91269409262E+02  0.91032517206E+02  0.19897581954E+03  0.12500000000E+03 0.  0.
          1    1    1    2  502    0 -0.24838726974E+02 -0.11591541117E+02  0.48625894195E+03  0.48703088692E+03  0.00000000000E+00 0. -1.
         -1    1    1    2    0  501 -0.60889637669E+02  0.10286095038E+03 -0.58659726327E+02  0.13314986512E+03  0.00000000000E+00 0.  1.
<mgrwt>
<rscale>  0 0.57401748E+02</rscale>
<asrwt>0</asrwt>
<pdfrwt beam="1">  1        1 0.10290679E+00 0.27410330E+02</pdfrwt>
<pdfrwt beam="2">  1       -1 0.23117296E-01 0.12020872E+03</pdfrwt>
<totfact> 0.51581384E+02</totfact>
</mgrwt>
</event>
<event>
 5    1  0.7114032E-003  0.1508291E+03  0.7546771E-02  0.1371469E+00
          2   -1    0    0  502    0  0.00000000000E+00  0.00000000000E+00  0.73010512769E+03  0.73010512769E+03  0.00000000000E+00 0. -1.
          2   -1    0    0  501    0 -0.00000000000E+00 -0.00000000000E+00 -0.25358199856E+04  0.25358199856E+04  0.00000000000E+00 0.  1.
         25    1    1    2    0    0 -0.14852882542E+03 -0.85595205519E+02 -0.11724861234E+03  0.24240377118E+03  0.12500000000E+03 0.  0.
          2    1    1    2  501    0  0.11945481246E+03  0.90876255815E+02 -0.23532747693E+04  0.23580564212E+04  0.00000000000E+00 0.  1.
          2    1    1    2  502    0  0.29074012959E+02 -0.52810502960E+01  0.66480852369E+03  0.66546492086E+03  0.00000000000E+00 0. -1.
<mgrwt>
<rscale>  0 0.66760486E+02</rscale>
<asrwt>0</asrwt>
<pdfrwt beam="1">  1        2 0.11232387E+00 0.29549750E+02</pdfrwt>
<pdfrwt beam="2">  1        2 0.39012615E+00 0.15082911E+03</pdfrwt>
<totfact> 0.27636628E+01</totfact>
</mgrwt>
</event>
<event>
 5    1  0.7114032E-003  0.1190541E+03  0.7546771E-02  0.1294639E+00
          2   -1    0    0  501    0  0.00000000000E+00  0.00000000000E+00  0.52385715587E+03  0.52385715587E+03  0.00000000000E+00 0. -1.
          2   -1    0    0  502    0 -0.00000000000E+00 -0.00000000000E+00 -0.27135160920E+04  0.27135160920E+04  0.00000000000E+00 0. -1.
         25    1    1    2    0    0  0.86228567379E+02  0.67730922721E+02 -0.41952282549E+02  0.17148713577E+03  0.12500000000E+03 0.  0.
          2    1    1    2  501    0 -0.55541277649E+02  0.47984006137E+02  0.45477122088E+03  0.46065622943E+03  0.00000000000E+00 0. -1.
          2    1    1    2  502    0 -0.30687289730E+02 -0.11571492886E+03 -0.26024778744E+04  0.26052298826E+04  0.00000000000E+00 0. -1.
<mgrwt>
<rscale>  0 0.93479193E+02</rscale>
<asrwt>0</asrwt>
<pdfrwt beam="1">  1        2 0.80593409E-01 0.73398218E+02</pdfrwt>
<pdfrwt beam="2">  1        2 0.41746401E+00 0.11905411E+03</pdfrwt>
<totfact> 0.32185877E+01</totfact>
</mgrwt>
</event>
<event>
 5    1  0.7114032E-003  0.4326113E+02  0.7546771E-02  0.1532768E+00
          2   -1    0    0  502    0  0.00000000000E+00  0.00000000000E+00  0.58391264753E+03  0.58391264753E+03  0.00000000000E+00 0. -1.
         -1   -1    0    0    0  501 -0.00000000000E+00 -0.00000000000E+00 -0.18978773876E+02  0.18978773876E+02  0.00000000000E+00 0.  1.
         25    1    1    2    0    0  0.14838540747E+02 -0.16361977300E+02  0.34430127292E+03  0.36695539664E+03  0.12500000000E+03 0.  0.
          2    1    1    2  502    0  0.30743087323E+02 -0.63271628524E+01  0.10497272481E+03  0.10956479070E+03  0.00000000000E+00 0. -1.
         -1    1    1    2    0  501 -0.45581628070E+02  0.22689140152E+02  0.11565987593E+03  0.12637123406E+03  0.00000000000E+00 0.  1.
<mgrwt>
<rscale>  0 0.36849092E+02</rscale>
<asrwt>0</asrwt>
<pdfrwt beam="1">  1        2 0.89832701E-01 0.31387424E+02</pdfrwt>
<pdfrwt beam="2">  1       -1 0.29198118E-02 0.43261133E+02</pdfrwt>
<totfact> 0.19599992E+04</totfact>
</mgrwt>
</event>
<event>
 5    1  0.7114032E-003  0.5227647E+02  0.7546771E-02  0.1478948E+00
          1   -1    0    0  502    0  0.00000000000E+00  0.00000000000E+00  0.22528523092E+03  0.22528523092E+03  0.00000000000E+00 0. -1.
         -2   -1    0    0    0  501 -0.00000000000E+00 -0.00000000000E+00 -0.89859222031E+03  0.89859222031E+03  0.00000000000E+00 0.  1.
         25    1    1    2    0    0  0.39533532010E+02  0.44870855285E+02  0.22064048594E+02  0.14031434726E+03  0.12500000000E+03 0.  0.
          1    1    1    2  502    0 -0.28386900011E+01 -0.52554314576E+02  0.13885510309E+03  0.14849496219E+03  0.00000000000E+00 0. -1.
         -2    1    1    2    0  501 -0.36694842008E+02  0.76834592911E+01 -0.83422614107E+03  0.83506814178E+03  0.00000000000E+00 0.  1.
<mgrwt>
<rscale>  0 0.44270505E+02</rscale>
<asrwt>0</asrwt>
<pdfrwt beam="1">  1        1 0.34659266E-01 0.52276471E+02</pdfrwt>
<pdfrwt beam="2">  1       -2 0.13824496E+00 0.37490625E+02</pdfrwt>
<totfact> 0.46607839E+01</totfact>
</mgrwt>
</event>
<event>
 5    1  0.7114032E-003  0.2651211E+02  0.7546771E-02  0.1665729E+00
         -1   -1    0    0    0  501 -0.00000000000E+00  0.00000000000E+00  0.44378920500E+02  0.44378920500E+02  0.00000000000E+00 0.  1.
          2   -1    0    0  502    0  0.00000000000E+00 -0.00000000000E+00 -0.37778529944E+03  0.37778529944E+03  0.00000000000E+00 0. -1.
         25    1    1    2    0    0  0.33402622511E+02  0.23974230879E+02 -0.29989364937E+03  0.32749305316E+03  0.12500000000E+03 0.  0.
          2    1    1    2  502    0 -0.10508110200E+02 -0.22197144426E+02 -0.56851696724E+02  0.61929387378E+02  0.00000000000E+00 0. -1.
         -1    1    1    2    0  501 -0.22894512311E+02 -0.17770864534E+01  0.23338967156E+02  0.32741779398E+02  0.00000000000E+00 0.  1.
<mgrwt>
<rscale>  0 0.24674028E+02</rscale>
<asrwt>0</asrwt>
<pdfrwt beam="2">  1        2 0.58120813E-01 0.26512112E+02</pdfrwt>
<pdfrwt beam="1">  1       -1 0.68275265E-02 0.22963378E+02</pdfrwt>
<totfact> 0.84747742E+03</totfact>
</mgrwt>
</event>
<event>
 5    1  0.7114032E-003  0.5611464E+02  0.7546771E-02  0.1487059E+00
         -1   -1    0    0    0  501 -0.00000000000E+00  0.00000000000E+00  0.12128636693E+03  0.12128636693E+03  0.00000000000E+00 0.  1.
          3   -1    0    0  502    0  0.00000000000E+00 -0.00000000000E+00 -0.21201451601E+04  0.21201451601E+04  0.00000000000E+00 0. -1.
         25    1    1    2    0    0  0.25750149370E+02  0.82817125218E+02 -0.98974471068E+02  0.18150121858E+03  0.12500000000E+03 0.  0.
          3    1    1    2  502    0 -0.13528010976E+02 -0.30087990614E+02 -0.19706006268E+04  0.19708767401E+04  0.00000000000E+00 0. -1.
         -1    1    1    2    0  501 -0.12222138394E+02 -0.52729134604E+02  0.70716304654E+02  0.89053568412E+02  0.00000000000E+00 0.  1.
<mgrwt>
<rscale>  0 0.43025377E+02</rscale>
<asrwt>0</asrwt>
<pdfrwt beam="2">  1        3 0.32617617E+00 0.32989305E+02</pdfrwt>
<pdfrwt beam="1">  1       -1 0.18659441E-01 0.56114642E+02</pdfrwt>
<totfact> 0.37791088E+00</totfact>
</mgrwt>
</event>
<event>
 5    1  0.7114032E-003  0.1035387E+03  0.7546771E-02  0.1402640E+00
          1   -1    0    0  502    0  0.00000000000E+00  0.00000000000E+00  0.12013597777E+04  0.12013597777E+04  0.00000000000E+00 0. -1.
         -2   -1    0    0    0  501 -0.00000000000E+00 -0.00000000000E+00 -0.27912320276E+02  0.27912320276E+02  0.00000000000E+00 0.  1.
         25    1    1    2    0    0 -0.11056004850E+03  0.30939511008E+02  0.30176359842E+03  0.34621820720E+03  0.12500000000E+03 0.  0.
          1    1    1    2  502    0  0.86726934463E+02 -0.54440659655E+02  0.74577605737E+03  0.75277305632E+03  0.00000000000E+00 0. -1.
         -2    1    1    2    0  501  0.23833114034E+02  0.23501148646E+02  0.12590780163E+03  0.13028083444E+03  0.00000000000E+00 0.  1.
<mgrwt>
<rscale>  0 0.58869054E+02</rscale>
<asrwt>0</asrwt>
<pdfrwt beam="1">  1        1 0.18482454E+00 0.10353873E+03</pdfrwt>
<pdfrwt beam="2">  1       -2 0.42942041E-02 0.33471201E+02</pdfrwt>
<totfact> 0.21411056E+03</totfact>
</mgrwt>
</event>
<event>
 5    1  0.7114032E-003  0.1103090E+03  0.7546771E-02  0.1391293E+00
          2   -1    0    0  502    0  0.00000000000E+00  0.00000000000E+00  0.14363659212E+04  0.14363659212E+04  0.00000000000E+00 0. -1.
         -2   -1    0    0    0  501 -0.00000000000E+00 -0.00000000000E+00 -0.23476716964E+02  0.23476716964E+02  0.00000000000E+00 0.  1.
         25    1    1    2    0    0 -0.69701343890E+02  0.53546611427E+02  0.56593792082E+03  0.58620495320E+03  0.12500000000E+03 0.  0.
          2    1    1    2  502    0 -0.31409638905E+02  0.13989140949E+02  0.57161674845E+03  0.57264995293E+03  0.00000000000E+00 0. -1.
         -2    1    1    2    0  501  0.10111098279E+03 -0.67535752376E+02  0.27533453497E+03  0.30098773204E+03  0.00000000000E+00 0.  1.
<mgrwt>
<rscale>  0 0.61586251E+02</rscale>
<asrwt>0</asrwt>
<pdfrwt beam="1">  1        2 0.22097930E+00 0.34384029E+02</pdfrwt>
<pdfrwt beam="2">  1       -2 0.36118037E-02 0.11030896E+03</pdfrwt>
<totfact> 0.51053506E+03</totfact>
</mgrwt>
</event>
<event>
 5    1  0.7114032E-003  0.3539597E+02  0.7546771E-02  0.1575948E+00
         -2   -1    0    0    0  501 -0.00000000000E+00  0.00000000000E+00  0.38201623159E+02  0.38201623159E+02  0.00000000000E+00 0.  1.
          2   -1    0    0  502    0  0.00000000000E+00 -0.00000000000E+00 -0.61179585465E+03  0.61179585465E+03  0.00000000000E+00 0. -1.
         25    1    1    2    0    0 -0.16835415554E+02 -0.56281484423E+01 -0.53293794626E+03  0.54768874540E+03  0.12500000000E+03 0.  0.
          2    1    1    2  502    0  0.28176728706E+02  0.39157972112E+02 -0.45825150734E+02  0.66537352369E+02  0.00000000000E+00 0. -1.
         -2    1    1    2    0  501 -0.11341313153E+02 -0.33529823670E+02  0.51688655041E+01  0.35771380040E+02  0.00000000000E+00 0.  1.
<mgrwt>
<rscale>  0 0.32102383E+02</rscale>
<asrwt>0</asrwt>
<pdfrwt beam="2">  1        2 0.94122437E-01 0.29115266E+02</pdfrwt>
<pdfrwt beam="1">  1       -2 0.58771729E-02 0.35395967E+02</pdfrwt>
<totfact> 0.65695794E+03</totfact>
</mgrwt>
</event>
<event>
 5    1  0.7114032E-003  0.3163838E+02  0.7546771E-02  0.1596633E+00
          2   -1    0    0  502    0  0.00000000000E+00  0.00000000000E+00  0.16992085538E+04  0.16992085538E+04  0.00000000000E+00 0. -1.
         -1   -1    0    0    0  501 -0.00000000000E+00 -0.00000000000E+00 -0.65323035308E+01  0.65323035308E+01  0.00000000000E+00 0.  1.
         25    1    1    2    0    0  0.97995423141E+01 -0.20756790488E+02  0.95605563416E+03  0.96446578529E+03  0.12500000000E+03 0.  0.
          2    1    1    2  502    0  0.24221930428E+02  0.15389951872E+02  0.58864082686E+03  0.58933994908E+03  0.00000000000E+00 0. -1.
         -1    1    1    2    0  501 -0.34021472742E+02  0.53668386161E+01  0.14797978923E+03  0.15193512295E+03  0.00000000000E+00 0.  1.
<mgrwt>
<rscale>  0 0.30132139E+02</rscale>
<asrwt>0</asrwt>
<pdfrwt beam="1">  1        2 0.26141635E+00 0.28697605E+02</pdfrwt>
<pdfrwt beam="2">  1       -1 0.10049711E-02 0.31638383E+02</pdfrwt>
<totfact> 0.19770745E+04</totfact>
</mgrwt>
</event>
<event>
 5    1  0.7114032E-003  0.3388338E+02  0.7546771E-02  0.1579654E+00
         -1   -1    0    0    0  501 -0.00000000000E+00  0.00000000000E+00  0.44086098715E+01  0.44086098715E+01  0.00000000000E+00 0.  1.
          2   -1    0    0  502    0  0.00000000000E+00 -0.00000000000E+00 -0.24686866540E+04  0.24686866540E+04  0.00000000000E+00 0. -1.
         25    1    1    2    0    0  0.83432536793E+01  0.77094927696E+01 -0.13779160368E+04  0.13836208478E+04  0.12500000000E+03 0.  0.
          2    1    1    2  502    0 -0.38276573577E+02  0.81675355688E+01 -0.32328498727E+03  0.32564549393E+03  0.00000000000E+00 0. -1.
         -1    1    1    2    0  501  0.29933319898E+02 -0.15877028338E+02 -0.76307702004E+03  0.76382892207E+03  0.00000000000E+00 0.  1.
<mgrwt>
<rscale>  0 0.31736219E+02</rscale>
<asrwt>0</asrwt>
<pdfrwt beam="2">  1        2 0.37979721E+00 0.29725118E+02</pdfrwt>
<pdfrwt beam="1">  1       -1 0.67824899E-03 0.33883383E+02</pdfrwt>
<totfact> 0.14639852E+04</totfact>
</mgrwt>
</event>
<event>
 5    1  0.7114032E-003  0.9275510E+02  0.7546771E-02  0.1462386E+00
          2   -1    0    0  502    0  0.00000000000E+00  0.00000000000E+00  0.18776073722E+04  0.18776073722E+04  0.00000000000E+00 0. -1.
         -3   -1    0    0    0  501 -0.00000000000E+00 -0.00000000000E+00 -0.35860610447E+02  0.35860610447E+02  0.00000000000E+00 0.  1.
         25    1    1    2    0    0 -0.23448811147E+02  0.76418092141E+02  0.10869140752E+04  0.10969944295E+04  0.12500000000E+03 0.  0.
          2    1    1    2  502    0 -0.23296117828E+02  0.48142076410E+01  0.71374430598E+03  0.71414061642E+03  0.00000000000E+00 0. -1.
         -3    1    1    2    0  501  0.46744928975E+02 -0.81232299782E+02  0.41088380553E+02  0.10233293668E+03  0.00000000000E+00 0.  1.
<mgrwt>
<rscale>  0 0.46973301E+02</rscale>
<asrwt>0</asrwt>
<pdfrwt beam="1">  1        2 0.28886260E+00 0.23788352E+02</pdfrwt>
<pdfrwt beam="2">  1       -3 0.55170184E-02 0.92755102E+02</pdfrwt>
<totfact> 0.12174800E+03</totfact>
</mgrwt>
</event>
<event>
 5    1  0.7114032E-003  0.1036162E+03  0.7546771E-02  0.1380991E+00
         -1   -1    0    0    0  501 -0.00000000000E+00  0.00000000000E+00  0.55258864778E+02  0.55258864778E+02  0.00000000000E+00 0.  1.
          1   -1    0    0  502    0  0.00000000000E+00 -0.00000000000E+00 -0.22280509880E+04  0.22280509880E+04  0.00000000000E+00 0. -1.
         25    1    1    2    0    0 -0.32046892367E+02  0.99791921306E+02 -0.53399682679E+03  0.55835744993E+03  0.12500000000E+03 0.  0.
          1    1    1    2  502    0  0.66701219052E+02 -0.80253065558E+02 -0.16707003128E+04  0.16739561352E+04  0.00000000000E+00 0. -1.
         -1    1    1    2    0  501 -0.34654326685E+02 -0.19538855748E+02  0.31905016427E+02  0.50996267659E+02  0.00000000000E+00 0.  1.
<mgrwt>
<rscale>  0 0.64204090E+02</rscale>
<asrwt>0</asrwt>
<pdfrwt beam="2">  1        1 0.34277710E+00 0.10361618E+03</pdfrwt>
<pdfrwt beam="1">  1       -1 0.85013633E-02 0.39783027E+02</pdfrwt>
<totfact> 0.18491923E+02</totfact>
</mgrwt>
</event>
<event>
 5    1  0.7114032E-003  0.9431773E+02  0.7546771E-02  0.1299640E+00
          2   -1    0    0  501    0  0.00000000000E+00  0.00000000000E+00  0.53565199267E+03  0.53565199267E+03  0.00000000000E+00 0. -1.
          1   -1    0    0  502    0 -0.00000000000E+00 -0.00000000000E+00 -0.38233541033E+03  0.38233541033E+03  0.00000000000E+00 0. -1.
         25    1    1    2    0    0  0.12270319135E+02 -0.46348598710E+02  0.19579560048E+03  0.23719121084E+03  0.12500000000E+03 0.  0.
          2    1    1    2  501    0 -0.90208197999E+02  0.88181632141E+02  0.30086490285E+03  0.32624102900E+03  0.00000000000E+00 0. -1.
          1    1    1    2  502    0  0.77937878864E+02 -0.41833033431E+02 -0.34334392098E+03  0.35455516316E+03  0.00000000000E+00 0. -1.
<mgrwt>
<rscale>  0 0.91339423E+02</rscale>
<asrwt>0</asrwt>
<pdfrwt beam="1">  1        2 0.82407999E-01 0.94317731E+02</pdfrwt>
<pdfrwt beam="2">  1        1 0.58820832E-01 0.88455162E+02</pdfrwt>
<totfact> 0.52045691E+02</totfact>
</mgrwt>
</event>
<event>
 5    1  0.7114032E-003  0.2013502E+03  0.7546771E-02  0.1318924E+00
          2   -1    0    0  502    0  0.00000000000E+00  0.00000000000E+00  0.55164711319E+03  0.55164711319E+03  0.00000000000E+00 0. -1.
         -1   -1    0    0    0  501 -0.00000000000E+00 -0.00000000000E+00 -0.21259739925E+03  0.21259739925E+03  0.00000000000E+00 0.  1.
         25    1    1    2    0    0 -0.19026832789E+03 -0.39836071218E+02 -0.78781669870E+02  0.24417309572E+03  0.12500000000E+03 0.  0.
          2    1    1    2  502    0  0.18844426272E+03  0.74564216850E+02  0.43602698790E+03  0.48082283303E+03  0.00000000000E+00 0. -1.
         -1    1    1    2    0  501  0.18240651715E+01 -0.34728145633E+02 -0.18195604095E+02  0.39248583684E+02  0.00000000000E+00 0.  1.
<mgrwt>
<rscale>  0 0.83678894E+02</rscale>
<asrwt>0</asrwt>
<pdfrwt beam="1">  1        2 0.84868786E-01 0.20135019E+03</pdfrwt>
<pdfrwt beam="2">  1       -1 0.32707293E-01 0.34776016E+02</pdfrwt>
<totfact> 0.54679889E+02</totfact>
</mgrwt>
</event>
<event>
 5    1  0.7114032E-003  0.7859782E+02  0.7546771E-02  0.1436101E+00
         -1   -1    0    0    0  501 -0.00000000000E+00  0.00000000000E+00  0.48608759022E+02  0.48608759022E+02  0.00000000000E+00 0.  1.
          2   -1    0    0  502    0  0.00000000000E+00 -0.00000000000E+00 -0.53781895024E+03  0.53781895024E+03  0.00000000000E+00 0. -1.
         25    1    1    2    0    0 -0.29387543597E+02  0.10391805127E+03 -0.15687419725E+03  0.22780935640E+03  0.12500000000E+03 0.  0.
          2    1    1    2  502    0  0.13731583208E+02 -0.73648077226E+02 -0.30738194378E+03  0.31637992196E+03  0.00000000000E+00 0. -1.
         -1    1    1    2    0  501  0.15655960389E+02 -0.30269974048E+02 -0.24954050184E+02  0.42238430903E+02  0.00000000000E+00 0.  1.
<mgrwt>
<rscale>  0 0.51754591E+02</rscale>
<asrwt>0</asrwt>
<pdfrwt beam="2">  1        2 0.82741377E-01 0.78597823E+02</pdfrwt>
<pdfrwt beam="1">  1       -1 0.74782706E-02 0.34079032E+02</pdfrwt>
<totfact> 0.53674476E+03</totfact>
</mgrwt>
</event>
<event>
 5    1  0.7114032E-003  0.7652193E+02  0.7546771E-02  0.1343724E+00
         -3   -1    0    0    0  501 -0.00000000000E+00  0.00000000000E+00  0.67907203351E+03  0.67907203351E+03  0.00000000000E+00 0.  1.
          2   -1    0    0  502    0  0.00000000000E+00 -0.00000000000E+00 -0.20811102535E+04  0.20811102535E+04  0.00000000000E+00 0. -1.
         25    1    1    2    0    0  0.76850025528E+02  0.43369875930E+02 -0.29061526283E+02  0.15574480689E+03  0.12500000000E+03 0.  0.
          2    1    1    2  502    0 -0.10881448865E+02 -0.76008538793E+02 -0.19857629885E+04  0.19872469273E+04  0.00000000000E+00 0. -1.
         -3    1    1    2    0  501 -0.65968576663E+02  0.32638662863E+02  0.61278629474E+03  0.61719055279E+03  0.00000000000E+00 0.  1.
<mgrwt>
<rscale>  0 0.75047354E+02</rscale>
<asrwt>0</asrwt>
<pdfrwt beam="2">  1        2 0.32017080E+00 0.76521931E+02</pdfrwt>
<pdfrwt beam="1">  1       -3 0.10447262E+00 0.73601192E+02</pdfrwt>
<totfact> 0.38761122E+00</totfact>
</mgrwt>
</event>
<event>
 5    1  0.7114032E-003  0.1092407E+03  0.7546771E-02  0.1264076E+00
          2   -1    0    0  501    0  0.00000000000E+00  0.00000000000E+00  0.10980539246E+04  0.10980539246E+04  0.00000000000E+00 0. -1.
          1   -1    0    0  502    0 -0.00000000000E+00 -0.00000000000E+00 -0.15074769225E+04  0.15074769225E+04  0.00000000000E+00 0. -1.
         25    1    1    2    0    0 -0.71472025017E+02 -0.29954499312E+02  0.10394374718E+02  0.14744004007E+03  0.12500000000E+03 0.  0.
          2    1    1    2  501    0  0.35304939170E+01  0.11265146722E+03  0.10140200736E+04  0.10202644398E+04  0.00000000000E+00 0. -1.
          1    1    1    2  502    0  0.67941531100E+02 -0.82696967906E+02 -0.14338374463E+04  0.14378263673E+04  0.00000000000E+00 0. -1.
<mgrwt>
<rscale>  0 0.10812832E+03</rscale>
<asrwt>0</asrwt>
<pdfrwt beam="1">  1        2 0.16893137E+00 0.10924069E+03</pdfrwt>
<pdfrwt beam="2">  1        1 0.23191953E+00 0.10702729E+03</pdfrwt>
<totfact> 0.25569444E+01</totfact>
</mgrwt>
</event>
<event>
 5    1  0.7114032E-003  0.5168670E+02  0.7546771E-02  0.1436559E+00
          1   -1    0    0  501    0  0.00000000000E+00  0.00000000000E+00  0.48894330324E+03  0.48894330324E+03  0.00000000000E+00 0. -1.
          1   -1    0    0  502    0 -0.00000000000E+00 -0.00000000000E+00 -0.37603257089E+03  0.37603257089E+03  0.00000000000E+00 0. -1.
         25    1    1    2    0    0  0.11762051313E+02  0.21561088830E+02 -0.28197861261E+02  0.13047354438E+03  0.12500000000E+03 0.  0.
          1    1    1    2  501    0  0.41147755023E+02 -0.31209644601E+02  0.43382391706E+03  0.43688713723E+03  0.00000000000E+00 0. -1.
          1    1    1    2  502    0 -0.52909806337E+02  0.96485557712E+01 -0.29271532345E+03  0.29761519252E+03  0.00000000000E+00 0. -1.
<mgrwt>
<rscale>  0 0.51665719E+02</rscale>
<asrwt>0</asrwt>
<pdfrwt beam="1">  1        1 0.75222046E-01 0.51644745E+02</pdfrwt>
<pdfrwt beam="2">  1        1 0.57851165E-01 0.51686702E+02</pdfrwt>
<totfact> 0.38632025E+02</totfact>
</mgrwt>
</event>
<event>
 5    1  0.7114032E-003  0.4728819E+02  0.7546771E-02  0.1560929E+00
         -1   -1    0    0    0  501 -0.00000000000E+00  0.00000000000E+00  0.14025353558E+02  0.14025353558E+02  0.00000000000E+00 0.  1.
          2   -1    0    0  502    0  0.00000000000E+00 -0.00000000000E+00 -0.24693936625E+04  0.24693936625E+04  0.00000000000E+00 0. -1.
         25    1    1    2    0    0 -0.40244960593E+02  0.56482896524E+02 -0.79802776887E+03  0.81073009957E+03  0.12500000000E+03 0.  0.
          2    1    1    2  502    0  0.14426118740E+02 -0.19111190349E+02 -0.15969153850E+04  0.15970948931E+04  0.00000000000E+00 0. -1.
         -1    1    1    2    0  501  0.25818841853E+02 -0.37371706175E+02 -0.60425155055E+02  0.75594023444E+02  0.00000000000E+00 0.  1.
<mgrwt>
<rscale>  0 0.33649714E+02</rscale>
<asrwt>0</asrwt>
<pdfrwt beam="2">  1        2 0.37990690E+00 0.23944738E+02</pdfrwt>
<pdfrwt beam="1">  1       -1 0.21577457E-02 0.47288187E+02</pdfrwt>
<totfact> 0.32696807E+03</totfact>
</mgrwt>
</event>
<event>
 5    1  0.7114032E-003  0.4022518E+02  0.7546771E-02  0.1550258E+00
          2   -1    0    0  502    0  0.00000000000E+00  0.00000000000E+00  0.25057419176E+02  0.25057419176E+02  0.00000000000E+00 0.  1.
         -2   -1    0    0    0  501 -0.00000000000E+00 -0.00000000000E+00 -0.56548869345E+03  0.56548869345E+03  0.00000000000E+00 0. -1.
         25    1    1    2    0    0 -0.38069390968E+01 -0.50701578258E+02 -0.30093619544E+03  0.32980712022E+03  0.12500000000E+03 0.  0.
          2    1    1    2  502    0  0.23232924676E+02  0.27668986154E+02 -0.22392880842E+03  0.22682471828E+03  0.00000000000E+00 0. -1.
         -2    1    1    2    0  501 -0.19425985579E+02  0.23032592103E+02 -0.15566270419E+02  0.33914274126E+02  0.00000000000E+00 0.  1.
<mgrwt>
<rscale>  0 0.34814071E+02</rscale>
<asrwt>0</asrwt>
<pdfrwt beam="1">  1        2 0.38549875E-02 0.40225178E+02</pdfrwt>
<pdfrwt beam="2">  1       -2 0.86998262E-01 0.30130868E+02</pdfrwt>
<totfact> 0.22675134E+03</totfact>
</mgrwt>
</event>
<event>
 5    1  0.7114032E-003  0.7957000E+02  0.7546771E-02  0.1347757E+00
          2   -1    0    0  502    0  0.00000000000E+00  0.00000000000E+00  0.53659558305E+03  0.53659558305E+03  0.00000000000E+00 0. -1.
         -2   -1    0    0    0  501 -0.00000000000E+00 -0.00000000000E+00 -0.14082376913E+03  0.14082376913E+03  0.00000000000E+00 0.  1.
         25    1    1    2    0    0 -0.11637489288E+03  0.48443510516E+02  0.37485321079E+03  0.41476477555E+03  0.12500000000E+03 0.  0.
          2    1    1    2  502    0  0.67186701020E+02  0.12679740471E+02  0.11888491387E+03  0.13714390748E+03  0.00000000000E+00 0. -1.
         -2    1    1    2    0  501  0.49188191860E+02 -0.61123250987E+02 -0.97966310743E+02  0.12551066915E+03  0.00000000000E+00 0.  1.
<mgrwt>
<rscale>  0 0.73759183E+02</rscale>
<asrwt>0</asrwt>
<pdfrwt beam="1">  1        2 0.82553166E-01 0.68372718E+02</pdfrwt>
<pdfrwt beam="2">  1       -2 0.21665195E-01 0.79569999E+02</pdfrwt>
<totfact> 0.10392508E+03</totfact>
</mgrwt>
</event>
<event>
 5    1  0.7114032E-003  0.1063899E+03  0.7546771E-02  0.1314306E+00
          2   -1    0    0  502    0  0.00000000000E+00  0.00000000000E+00  0.11815549926E+04  0.11815549926E+04  0.00000000000E+00 0.  1.
          2   -1    0    0  501    0 -0.00000000000E+00 -0.00000000000E+00 -0.58984207745E+02  0.58984207745E+02  0.00000000000E+00 0.  1.
         25    1    1    2    0    0  0.50787768450E+02  0.10274616143E+03  0.23096885548E+03  0.28654455730E+03  0.12500000000E+03 0.  0.
          2    1    1    2  501    0  0.17630122727E+02 -0.10778669372E+03  0.70421951874E+02  0.12995400677E+03  0.00000000000E+00 0.  1.
          2    1    1    2  502    0 -0.68417891177E+02  0.50405322901E+01  0.82117997750E+03  0.82404063629E+03  0.00000000000E+00 0.  1.
<mgrwt>
<rscale>  0 0.85432428E+02</rscale>
<asrwt>0</asrwt>
<pdfrwt beam="1">  1        2 0.18177767E+00 0.68603315E+02</pdfrwt>
<pdfrwt beam="2">  1        2 0.90744943E-02 0.10638990E+03</pdfrwt>
<totfact> 0.23539429E+03</totfact>
</mgrwt>
</event>
<event>
 5    1  0.7114032E-003  0.2552361E+03  0.7546771E-02  0.1230788E+00
          2   -1    0    0  502    0  0.00000000000E+00  0.00000000000E+00  0.17551334341E+04  0.17551334341E+04  0.00000000000E+00 0. -1.
         -1   -1    0    0    0  501 -0.00000000000E+00 -0.00000000000E+00 -0.13246055882E+03  0.13246055882E+03  0.00000000000E+00 0.  1.
         25    1    1    2    0    0 -0.99506284686E+02  0.19634826501E+03  0.43780472968E+03  0.50571941153E+03  0.12500000000E+03 0.  0.
          2    1    1    2  502    0  0.15918600058E+03 -0.21938291734E+03  0.12567511386E+04  0.12856486579E+04  0.00000000000E+00 0. -1.
         -1    1    1    2    0  501 -0.59679715892E+02  0.23034652336E+02 -0.71882992917E+02  0.96225923575E+02  0.00000000000E+00 0.  1.
<mgrwt>
<rscale>  0 0.12777971E+03</rscale>
<asrwt>0</asrwt>
<pdfrwt beam="1">  1        2 0.27002051E+00 0.25523605E+03</pdfrwt>
<pdfrwt beam="2">  1       -1 0.20378549E-01 0.63970803E+02</pdfrwt>
<totfact> 0.21507532E+02</totfact>
</mgrwt>
</event>
<event>
 5    1  0.7114032E-003  0.9375010E+02  0.7546771E-02  0.1460487E+00
          3   -1    0    0  502    0  0.00000000000E+00  0.00000000000E+00  0.97346936213E+03  0.97346936213E+03  0.00000000000E+00 0. -1.
         -3   -1    0    0    0  501 -0.00000000000E+00 -0.00000000000E+00 -0.15392642722E+03  0.15392642722E+03  0.00000000000E+00 0.  1.
         25    1    1    2    0    0 -0.32156923689E+02 -0.11024863622E+03  0.37672039085E+02  0.17387642755E+03  0.12500000000E+03 0.  0.
          3    1    1    2  502    0  0.34205948789E+02  0.86474733248E+02  0.86349026948E+03  0.86848337458E+03  0.00000000000E+00 0. -1.
         -3    1    1    2    0  501 -0.20490250999E+01  0.23773902976E+02 -0.81619373653E+02  0.85035987217E+02  0.00000000000E+00 0.  1.
<mgrwt>
<rscale>  0 0.47297660E+02</rscale>
<asrwt>0</asrwt>
<pdfrwt beam="1">  1        3 0.14976451E+00 0.93750099E+02</pdfrwt>
<pdfrwt beam="2">  1       -3 0.23680989E-01 0.23862040E+02</pdfrwt>
<totfact> 0.11409920E+01</totfact>
</mgrwt>
</event>
<event>
 5    1  0.7114032E-003  0.2054775E+03  0.7546771E-02  0.1233573E+00
          2   -1    0    0  502    0  0.00000000000E+00  0.00000000000E+00  0.12551253627E+04  0.12551253627E+04  0.00000000000E+00 0. -1.
          2   -1    0    0  501    0 -0.00000000000E+00 -0.00000000000E+00 -0.28541764530E+04  0.28541764530E+04  0.00000000000E+00 0. -1.
         25    1    1    2    0    0  0.85334268052E+02  0.20793732850E+03  0.35425017823E+03  0.43776484402E+03  0.12500000000E+03 0.  0.
          2    1    1    2  501    0 -0.13837775776E+03 -0.15182197429E+03 -0.28069230338E+04  0.28144298238E+04  0.00000000000E+00 0. -1.
          2    1    1    2  502    0  0.53043489710E+02 -0.56115354208E+02  0.85362176521E+03  0.85710714781E+03  0.00000000000E+00 0. -1.
<mgrwt>
<rscale>  0 0.12596214E+03</rscale>
<asrwt>0</asrwt>
<pdfrwt beam="1">  1        2 0.19309621E+00 0.77217516E+02</pdfrwt>
<pdfrwt beam="2">  1        2 0.43910407E+00 0.20547747E+03</pdfrwt>
<totfact> 0.83497021E+00</totfact>
</mgrwt>
</event>
<event>
 5    1  0.7114032E-003  0.6570124E+02  0.7546771E-02  0.1527307E+00
         -2   -1    0    0    0  501 -0.00000000000E+00  0.00000000000E+00  0.27003418371E+02  0.27003418371E+02  0.00000000000E+00 0.  1.
          2   -1    0    0  502    0  0.00000000000E+00 -0.00000000000E+00 -0.64368716726E+03  0.64368716726E+03  0.00000000000E+00 0. -1.
         25    1    1    2    0    0  0.35913329672E+02 -0.34263658536E+02 -0.44168928488E+03  0.46171223714E+03  0.12500000000E+03 0.  0.
          2    1    1    2  502    0  0.21140081176E+02 -0.34837703359E+01 -0.11802289214E+03  0.11995183516E+03  0.00000000000E+00 0. -1.
         -2    1    1    2    0  501 -0.57053410848E+02  0.37747428872E+02 -0.56971571867E+02  0.89026513336E+02  0.00000000000E+00 0.  1.
<mgrwt>
<rscale>  0 0.37518833E+02</rscale>
<asrwt>0</asrwt>
<pdfrwt beam="2">  1        2 0.99028784E-01 0.21425212E+02</pdfrwt>
<pdfrwt beam="1">  1       -2 0.41543725E-02 0.65701235E+02</pdfrwt>
<totfact> 0.11161495E+04</totfact>
</mgrwt>
</event>
<event>
 5    1  0.7114032E-003  0.1226090E+03  0.7546771E-02  0.1408760E+00
         -2   -1    0    0    0  501 -0.00000000000E+00  0.00000000000E+00  0.10006954258E+03  0.10006954258E+03  0.00000000000E+00 0.  1.
          2   -1    0    0  502    0  0.00000000000E+00 -0.00000000000E+00 -0.30822548874E+04  0.30822548874E+04  0.00000000000E+00 0.  1.
         25    1    1    2    0    0 -0.52433651190E+02 -0.94972620455E+02 -0.16432257694E+04  0.16515401950E+04  0.12500000000E+03 0.  0.
          2    1    1    2  502    0  0.54117604771E+02  0.12185891762E+03 -0.14298153245E+04  0.14360188624E+04  0.00000000000E+00 0.  1.
         -2    1    1    2    0  501 -0.16839535810E+01 -0.26886297161E+02  0.90855749163E+02  0.94765372530E+02  0.00000000000E+00 0.  1.
<mgrwt>
<rscale>  0 0.57471402E+02</rscale>
<asrwt>0</asrwt>
<pdfrwt beam="2">  1        2 0.47419309E+00 0.12260902E+03</pdfrwt>
<pdfrwt beam="1">  1       -2 0.15395313E-01 0.26938981E+02</pdfrwt>
<totfact> 0.61281891E+01</totfact>
</mgrwt>
</event>
<event>
 5    1  0.7114032E-003  0.1053343E+03  0.7546771E-02  0.1368243E+00
         -1   -1    0    0    0  501  0.00000000000E+00  0.00000000000E+00  0.42129242336E+03  0.42129242336E+03  0.00000000000E+00 0.  1.
         -3   -1    0    0    0  502 -0.00000000000E+00 -0.00000000000E+00 -0.20818253525E+03  0.20818253525E+03  0.00000000000E+00 0.  1.
         25    1    1    2    0    0  0.19653119295E+02 -0.10670289793E+03  0.80734358426E+02  0.18415968656E+03  0.12500000000E+03 0.  0.
         -1    1    1    2    0  501 -0.58998613101E+02  0.88249514230E+02  0.27576158716E+03  0.29548818261E+03  0.00000000000E+00 0.  1.
         -3    1    1    2    0  502  0.39345493806E+02  0.18453383700E+02 -0.14338605747E+03  0.14982708944E+03  0.00000000000E+00 0.  1.
<mgrwt>
<rscale>  0 0.67658074E+02</rscale>
<asrwt>0</asrwt>
<pdfrwt beam="1">  1       -1 0.64814219E-01 0.10533430E+03</pdfrwt>
<pdfrwt beam="2">  1       -3 0.32028082E-01 0.43457971E+02</pdfrwt>
<totfact> 0.98658740E+01</totfact>
</mgrwt>
</event>
<event>
 5    1  0.7249804E-003  0.9303760E+02  0.7546771E-02  0.1400130E+00
         -2   -1    0    0    0  501 -0.00000000000E+00  0.00000000000E+00  0.37104346970E+02  0.37104346970E+02  0.00000000000E+00 0.  1.
          1   -1    0    0  502    0  0.00000000000E+00 -0.00000000000E+00 -0.60620438024E+03  0.60620438024E+03  0.00000000000E+00 0. -1.
         25    1    1    2    0    0 -0.73577001882E+02  0.78324942292E+02 -0.33227674509E+03  0.37091940785E+03  0.12500000000E+03 0.  0.
          1    1    1    2  502    0  0.37846353121E+02  0.33604590388E+01 -0.11713352288E+03  0.12314179352E+03  0.00000000000E+00 0. -1.
         -2    1    1    2    0  501  0.35730648761E+02 -0.81685401331E+02 -0.11968976530E+03  0.14924752584E+03  0.00000000000E+00 0.  1.
<mgrwt>
<rscale>  0 0.59455757E+02</rscale>
<asrwt>0</asrwt>
<pdfrwt beam="2">  1        1 0.93262215E-01 0.37995251E+02</pdfrwt>
<pdfrwt beam="1">  1       -2 0.57083609E-02 0.93037602E+02</pdfrwt>
<totfact> 0.47565814E+03</totfact>
</mgrwt>
</event>
<event>
 5    1  0.7114032E-003  0.7207047E+02  0.7546771E-02  0.1355563E+00
         -1   -1    0    0    0  502 -0.00000000000E+00  0.00000000000E+00  0.11697445873E+04  0.11697445873E+04  0.00000000000E+00 0.  1.
         -2   -1    0    0    0  501  0.00000000000E+00 -0.00000000000E+00 -0.23429962930E+03  0.23429962930E+03  0.00000000000E+00 0.  1.
         25    1    1    2    0    0  0.14423658368E+02 -0.58872365503E+02  0.13785660756E+02  0.13960315821E+03  0.12500000000E+03 0.  0.
         -2    1    1    2    0  501  0.55912661041E+02  0.52371915136E+02 -0.16162188808E+03  0.17885938014E+03  0.00000000000E+00 0.  1.
         -1    1    1    2    0  502 -0.70336319408E+02  0.65004503669E+01  0.10832811853E+04  0.10855816782E+04  0.00000000000E+00 0.  1.
<mgrwt>
<rscale>  0 0.71349664E+02</rscale>
<asrwt>0</asrwt>
<pdfrwt beam="2">  1       -2 0.36046098E-01 0.72070471E+02</pdfrwt>
<pdfrwt beam="1">  1       -1 0.17996070E+00 0.70636065E+02</pdfrwt>
<totfact> 0.13596166E+01</totfact>
</mgrwt>
</event>
<event>
 5    1  0.7114032E-003  0.1290573E+03  0.7546771E-02  0.1431588E+00
         -3   -1    0    0    0  501 -0.00000000000E+00  0.00000000000E+00  0.30709903906E+03  0.30709903906E+03  0.00000000000E+00 0.  1.
          3   -1    0    0  502    0  0.00000000000E+00 -0.00000000000E+00 -0.92441751030E+02  0.92441751030E+02  0.00000000000E+00 0. -1.
         25    1    1    2    0    0 -0.34233250940E+02  0.11869986235E+03  0.82550567519E+02  0.19416788867E+03  0.12500000000E+03 0.  0.
          3    1    1    2  502    0  0.19382984900E+02 -0.13420984015E+03  0.11722020902E+03  0.17924441051E+03  0.00000000000E+00 0. -1.
         -3    1    1    2    0  501  0.14850266040E+02  0.15509977803E+02  0.14886511488E+02  0.26128490910E+02  0.00000000000E+00 0.  1.
<mgrwt>
<rscale>  0 0.52642643E+02</rscale>
<asrwt>0</asrwt>
<pdfrwt beam="2">  1        3 0.14221808E-01 0.12905731E+03</pdfrwt>
<pdfrwt beam="1">  1       -3 0.47246006E-01 0.21473002E+02</pdfrwt>
<totfact> 0.36599444E+02</totfact>
</mgrwt>
</event>
<event>
 5    1  0.7114032E-003  0.1502629E+03  0.7546771E-02  0.1320231E+00
          2   -1    0    0  502    0  0.00000000000E+00  0.00000000000E+00  0.79669758586E+03  0.79669758586E+03  0.00000000000E+00 0. -1.
         -1   -1    0    0    0  501 -0.00000000000E+00 -0.00000000000E+00 -0.42720782827E+03  0.42720782827E+03  0.00000000000E+00 0.  1.
         25    1    1    2    0    0  0.29209624505E+01 -0.10965816066E+03 -0.38920198060E+02  0.17080171556E+03  0.12500000000E+03 0.  0.
          2    1    1    2  502    0 -0.21096107219E+02  0.15197826792E+03  0.72099657419E+03  0.73714211632E+03  0.00000000000E+00 0. -1.
         -1    1    1    2    0  501  0.18175144769E+02 -0.42320107262E+02 -0.31258661854E+03  0.31596158225E+03  0.00000000000E+00 0.  1.
<mgrwt>
<rscale>  0 0.83191291E+02</rscale>
<asrwt>0</asrwt>
<pdfrwt beam="1">  1        2 0.12256886E+00 0.15026294E+03</pdfrwt>
<pdfrwt beam="2">  1       -1 0.65724281E-01 0.46057870E+02</pdfrwt>
<totfact> 0.10580777E+02</totfact>
</mgrwt>
</event>
<event>
 5    1  0.7114032E-003  0.1621052E+03  0.7546771E-02  0.1200744E+00
          1   -1    0    0  502    0 -0.00000000000E+00  0.00000000000E+00  0.44514602856E+03  0.44514602856E+03  0.00000000000E+00 0. -1.
          2   -1    0    0  501    0  0.00000000000E+00 -0.00000000000E+00 -0.94771134984E+03  0.94771134984E+03  0.00000000000E+00 0. -1.
         25    1    1    2    0    0 -0.13333524230E+03 -0.29104474976E+02 -0.25757319543E+03  0.31716605794E+03  0.12500000000E+03 0.  0.
          2    1    1    2  501    0  0.72330851203E+01  0.13820186910E+03 -0.63585817560E+03  0.65074395396E+03  0.00000000000E+00 0. -1.
          1    1    1    2  502    0  0.12610215718E+03 -0.10909739412E+03  0.39086604975E+03  0.42494736650E+03  0.00000000000E+00 0. -1.
<mgrwt>
<rscale>  0 0.14977949E+03</rscale>
<asrwt>0</asrwt>
<pdfrwt beam="2">  1        2 0.14580175E+00 0.13839102E+03</pdfrwt>
<pdfrwt beam="1">  1        1 0.68484005E-01 0.16210515E+03</pdfrwt>
<totfact> 0.21273151E+02</totfact>
</mgrwt>
</event>
<event>
 5    1  0.7114032E-003  0.1254292E+03  0.7546771E-02  0.1353943E+00
          2   -1    0    0  501    0  0.00000000000E+00  0.00000000000E+00  0.10783427205E+04  0.10783427205E+04  0.00000000000E+00 0. -1.
          1   -1    0    0  502    0 -0.00000000000E+00 -0.00000000000E+00 -0.12573269392E+04  0.12573269392E+04  0.00000000000E+00 0. -1.
         25    1    1    2    0    0 -0.14852854798E+03  0.43674917545E+02  0.43139743156E+03  0.47507575390E+03  0.12500000000E+03 0.  0.
          2    1    1    2  501    0  0.10768984159E+03 -0.48707443450E+02  0.61917203209E+03  0.63035190358E+03  0.00000000000E+00 0. -1.
          1    1    1    2  502    0  0.40838706387E+02  0.50325259053E+01 -0.12295536823E+04  0.12302420022E+04  0.00000000000E+00 0. -1.
<mgrwt>
<rscale>  0 0.71840879E+02</rscale>
<asrwt>0</asrwt>
<pdfrwt beam="1">  1        2 0.16589888E+00 0.12542919E+03</pdfrwt>
<pdfrwt beam="2">  1        1 0.19343491E+00 0.41147615E+02</pdfrwt>
<totfact> 0.41131189E+01</totfact>
</mgrwt>
</event>
<event>
 5    1  0.7114032E-003  0.2202011E+03  0.7546771E-02  0.1135362E+00
          1   -1    0    0  502    0  0.00000000000E+00  0.00000000000E+00  0.10806688198E+04  0.10806688198E+04  0.00000000000E+00 0. -1.
          1   -1    0    0  501    0 -0.00000000000E+00 -0.00000000000E+00 -0.37024957452E+03  0.37024957452E+03  0.00000000000E+00 0. -1.
         25    1    1    2    0    0  0.81708406567E+02  0.11695723793E+03 -0.17947396312E+03  0.26113437661E+03  0.12500000000E+03 0.  0.
          1    1    1    2  501    0 -0.20034057409E+03  0.80409417008E+02 -0.50419904218E+02  0.22168488156E+03  0.00000000000E+00 0. -1.
          1    1    1    2  502    0  0.11863216753E+03 -0.19736665494E+03  0.94031311266E+03  0.96809913619E+03  0.00000000000E+00 0. -1.
<mgrwt>
<rscale>  0 0.21802730E+03</rscale>
<asrwt>0</asrwt>
<pdfrwt beam="1">  1        1 0.16625674E+00 0.22020106E+03</pdfrwt>
<pdfrwt beam="2">  1        1 0.56961473E-01 0.21587501E+03</pdfrwt>
<totfact> 0.11423254E+02</totfact>
</mgrwt>
</event>
<event>
 5    1  0.7114032E-003  0.6868017E+02  0.7546771E-02  0.1372884E+00
         -1   -1    0    0    0  501 -0.00000000000E+00  0.00000000000E+00  0.45350020284E+03  0.45350020284E+03  0.00000000000E+00 0.  1.
          2   -1    0    0  502    0  0.00000000000E+00 -0.00000000000E+00 -0.11430114727E+03  0.11430114727E+03  0.00000000000E+00 0. -1.
         25    1    1    2    0    0  0.59072180197E+02  0.35005731025E+02  0.29799395369E+02  0.14569807014E+03  0.12500000000E+03 0.  0.
          2    1    1    2  502    0 -0.17177194401E+00 -0.70328646148E+02 -0.29535909847E+02  0.76279210438E+02  0.00000000000E+00 0. -1.
         -1    1    1    2    0  501 -0.58900408253E+02  0.35322915123E+02  0.33893557005E+03  0.34582406953E+03  0.00000000000E+00 0.  1.
<mgrwt>
<rscale>  0 0.66371825E+02</rscale>
<asrwt>0</asrwt>
<pdfrwt beam="2">  1        2 0.17584792E-01 0.64141060E+02</pdfrwt>
<pdfrwt beam="1">  1       -1 0.69769261E-01 0.68680175E+02</pdfrwt>
<totfact> 0.77612606E+02</totfact>
</mgrwt>
</event>
<event>
 5    1  0.7114032E-003  0.2439246E+02  0.7546771E-02  0.1675780E+00
         -2   -1    0    0    0  501 -0.00000000000E+00  0.00000000000E+00  0.72465975531E+01  0.72465975531E+01  0.00000000000E+00 0.  1.
          2   -1    0    0  502    0  0.00000000000E+00 -0.00000000000E+00 -0.17329144823E+04  0.17329144823E+04  0.00000000000E+00 0.  1.
         25    1    1    2    0    0  0.17197154056E+02  0.11499412493E+02 -0.78927277338E+03  0.79937756373E+03  0.12500000000E+03 0.  0.
          2    1    1    2  502    0 -0.22020391862E+02  0.11618605709E+02 -0.86924953699E+03  0.86960602989E+03  0.00000000000E+00 0.  1.
         -2    1    1    2    0  501  0.48232378061E+01 -0.23118018202E+02 -0.67145574352E+02  0.71177486212E+02  0.00000000000E+00 0.  1.
<mgrwt>
<rscale>  0 0.24000995E+02</rscale>
<asrwt>0</asrwt>
<pdfrwt beam="2">  1        2 0.26660282E+00 0.24392464E+02</pdfrwt>
<pdfrwt beam="1">  1       -2 0.11148587E-02 0.23615808E+02</pdfrwt>
<totfact> 0.15729911E+04</totfact>
</mgrwt>
</event>
<event>
 5    1  0.7114032E-003  0.4662881E+02  0.7546771E-02  0.1471615E+00
          1   -1    0    0  502    0  0.00000000000E+00  0.00000000000E+00  0.15090219450E+04  0.15090219450E+04  0.00000000000E+00 0. -1.
         -2   -1    0    0    0  501 -0.00000000000E+00 -0.00000000000E+00 -0.12534776032E+02  0.12534776032E+02  0.00000000000E+00 0.  1.
         25    1    1    2    0    0  0.21865331183E+02 -0.43059656276E+02  0.70609651932E+03  0.71869988263E+03  0.12500000000E+03 0.  0.
          1    1    1    2  502    0 -0.48255676677E+02  0.75017789822E+01  0.70480102403E+03  0.70649088493E+03  0.00000000000E+00 0. -1.
         -2    1    1    2    0  501  0.26390345494E+02  0.35557877293E+02  0.85589625605E+02  0.96365953449E+02  0.00000000000E+00 0.  1.
<mgrwt>
<rscale>  0 0.45439779E+02</rscale>
<asrwt>0</asrwt>
<pdfrwt beam="1">  1        1 0.23215708E+00 0.46628810E+02</pdfrwt>
<pdfrwt beam="2">  1       -2 0.19284283E-02 0.44281068E+02</pdfrwt>
<totfact> 0.47175129E+03</totfact>
</mgrwt>
</event>
<event>
 5    1  0.7114032E-003  0.7507261E+02  0.7546771E-02  0.1414988E+00
         -1   -1    0    0    0  501 -0.00000000000E+00  0.00000000000E+00  0.80899021168E+03  0.80899021168E+03  0.00000000000E+00 0.  1.
          1   -1    0    0  502    0  0.00000000000E+00 -0.00000000000E+00 -0.50329090066E+03  0.50329090066E+03  0.00000000000E+00 0. -1.
         25    1    1    2    0    0  0.28023313484E+02  0.62139725065E+02  0.38756576479E+03  0.41289087367E+03  0.12500000000E+03 0.  0.
          1    1    1    2  502    0 -0.63648979472E+02 -0.40055346161E+02 -0.48665797261E+03  0.49243436685E+03  0.00000000000E+00 0. -1.
         -1    1    1    2    0  501  0.35625665989E+02 -0.22084378904E+02  0.40479151886E+03  0.40695587182E+03  0.00000000000E+00 0.  1.
<mgrwt>
<rscale>  0 0.56095498E+02</rscale>
<asrwt>0</asrwt>
<pdfrwt beam="2">  1        1 0.77429369E-01 0.75072611E+02</pdfrwt>
<pdfrwt beam="1">  1       -1 0.12446003E+00 0.41915485E+02</pdfrwt>
<totfact> 0.31391861E+01</totfact>
</mgrwt>
</event>
<event>
 5    1  0.7114032E-003  0.4703109E+02  0.7546771E-02  0.1465978E+00
          1   -1    0    0  502    0 -0.00000000000E+00  0.00000000000E+00  0.13927613674E+04  0.13927613674E+04  0.00000000000E+00 0. -1.
          2   -1    0    0  501    0  0.00000000000E+00 -0.00000000000E+00 -0.15888678291E+03  0.15888678291E+03  0.00000000000E+00 0. -1.
         25    1    1    2    0    0  0.28221160120E+02  0.45946467990E+02 -0.45109948488E+02  0.14341345562E+03  0.12500000000E+03 0.  0.
          2    1    1    2  501    0  0.17493143547E+02 -0.45916596758E+02 -0.54836754713E+02  0.73630249195E+02  0.00000000000E+00 0. -1.
          1    1    1    2  502    0 -0.45714303666E+02 -0.29871232338E-01  0.13338212877E+04  0.13346044455E+04  0.00000000000E+00 0. -1.
<mgrwt>
<rscale>  0 0.46368025E+02</rscale>
<asrwt>0</asrwt>
<pdfrwt beam="2">  1        2 0.24444121E-01 0.47031085E+02</pdfrwt>
<pdfrwt beam="1">  1        1 0.21427097E+00 0.45714313E+02</pdfrwt>
<totfact> 0.28270280E+02</totfact>
</mgrwt>
</event>
<event>
 5    1  0.7114032E-003  0.7623348E+02  0.7546771E-02  0.1453202E+00
          2   -1    0    0  501    0  0.00000000000E+00  0.00000000000E+00  0.14437178349E+04  0.14437178349E+04  0.00000000000E+00 0. -1.
          1   -1    0    0  502    0 -0.00000000000E+00 -0.00000000000E+00 -0.24299282646E+02  0.24299282646E+02  0.00000000000E+00 0. -1.
         25    1    1    2    0    0 -0.22587812301E+02  0.95871334468E+02  0.78481741006E+03  0.80079016550E+03  0.12500000000E+03 0.  0.
          2    1    1    2  501    0 -0.98802750635E+01 -0.29327352325E+02  0.56423034153E+03  0.56507839432E+03  0.00000000000E+00 0. -1.
          1    1    1    2  502    0  0.32468087364E+02 -0.66543982143E+02  0.70370800651E+02  0.10214855770E+03  0.00000000000E+00 0. -1.
<mgrwt>
<rscale>  0 0.48571528E+02</rscale>
<asrwt>0</asrwt>
<pdfrwt beam="1">  1        2 0.22211037E+00 0.30946945E+02</pdfrwt>
<pdfrwt beam="2">  1        1 0.37383523E-02 0.76233480E+02</pdfrwt>
<totfact> 0.52107479E+03</totfact>
</mgrwt>
</event>
<event>
 5    1  0.8647675E-003  0.6822452E+02  0.7546771E-02  0.1398298E+00
         -2   -1    0    0    0  501 -0.00000000000E+00  0.00000000000E+00  0.37139741602E+02  0.37139741602E+02  0.00000000000E+00 0.  1.
          1   -1    0    0  502    0  0.00000000000E+00 -0.00000000000E+00 -0.65616172910E+03  0.65616172910E+03  0.00000000000E+00 0. -1.
         25    1    1    2    0    0 -0.56604369475E+02 -0.92021913500E+02 -0.43468001464E+03  0.46502021712E+03  0.12500000000E+03 0.  0.
          1    1    1    2  502    0  0.24793822301E+02  0.50166021761E+02 -0.16157560063E+03  0.17099133920E+03  0.00000000000E+00 0. -1.
         -2    1    1    2    0  501  0.31810547174E+02  0.41855891739E+02 -0.22766372232E+02  0.57289914378E+02  0.00000000000E+00 0.  1.
<mgrwt>
<rscale>  0 0.59889121E+02</rscale>
<asrwt>0</asrwt>
<pdfrwt beam="2">  1        1 0.10094795E+00 0.68224520E+02</pdfrwt>
<pdfrwt beam="1">  1       -2 0.57138067E-02 0.52572108E+02</pdfrwt>
<totfact> 0.39593501E+03</totfact>
</mgrwt>
</event>
<event>
 5    1  0.7114032E-003  0.1272393E+03  0.7546771E-02  0.1287001E+00
          2   -1    0    0  501    0  0.00000000000E+00  0.00000000000E+00  0.12297842761E+04  0.12297842761E+04  0.00000000000E+00 0. -1.
          1   -1    0    0  502    0 -0.00000000000E+00 -0.00000000000E+00 -0.11411550990E+04  0.11411550990E+04  0.00000000000E+00 0.  1.
         25    1    1    2    0    0 -0.43254573437E+02  0.98689583080E+02 -0.25747194693E+03  0.30582249000E+03  0.12500000000E+03 0.  0.
          2    1    1    2  501    0 -0.25611723800E+02 -0.12511425429E+03  0.12006337274E+04  0.12074066773E+04  0.00000000000E+00 0. -1.
          1    1    1    2  502    0  0.68866297237E+02  0.26424671215E+02 -0.85453260342E+03  0.85771020773E+03  0.00000000000E+00 0.  1.
<mgrwt>
<rscale>  0 0.96878386E+02</rscale>
<asrwt>0</asrwt>
<pdfrwt beam="1">  1        2 0.18919758E+00 0.12723928E+03</pdfrwt>
<pdfrwt beam="2">  1        1 0.17556232E+00 0.73761983E+02</pdfrwt>
<totfact> 0.38427072E+01</totfact>
</mgrwt>
</event>
<event>
 5    1  0.7114032E-003  0.5827175E+02  0.7546771E-02  0.1484401E+00
         -1   -1    0    0    0  501 -0.00000000000E+00  0.00000000000E+00  0.30814021261E+02  0.30814021261E+02  0.00000000000E+00 0.  1.
          2   -1    0    0  502    0  0.00000000000E+00 -0.00000000000E+00 -0.59027925678E+03  0.59027925678E+03  0.00000000000E+00 0. -1.
         25    1    1    2    0    0 -0.79218667728E+02 -0.17707675733E+02 -0.38966422871E+03  0.41719584158E+03  0.12500000000E+03 0.  0.
          2    1    1    2  502    0  0.51918172463E+02  0.32361710259E+00 -0.16267152250E+03  0.17075604116E+03  0.00000000000E+00 0. -1.
         -1    1    1    2    0  501  0.27300495265E+02  0.17384058630E+02 -0.71294843136E+01  0.33141395305E+02  0.00000000000E+00 0.  1.
<mgrwt>
<rscale>  0 0.43428005E+02</rscale>
<asrwt>0</asrwt>
<pdfrwt beam="2">  1        2 0.90812182E-01 0.58271752E+02</pdfrwt>
<pdfrwt beam="1">  1       -1 0.47406192E-02 0.32365453E+02</pdfrwt>
<totfact> 0.92890819E+03</totfact>
</mgrwt>
</event>
<event>
 5    1  0.7114032E-003  0.7279161E+02  0.7546771E-02  0.1493843E+00
         -2   -1    0    0    0  501 -0.00000000000E+00  0.00000000000E+00  0.45503597630E+02  0.45503597630E+02  0.00000000000E+00 0.  1.
          2   -1    0    0  502    0  0.00000000000E+00 -0.00000000000E+00 -0.28903748222E+04  0.28903748222E+04  0.00000000000E+00 0. -1.
         25    1    1    2    0    0  0.63766624873E+02 -0.16035984499E+02 -0.18720937227E+03  0.23451158674E+03  0.12500000000E+03 0.  0.
          2    1    1    2  502    0 -0.72725445190E+02 -0.65072656289E+01 -0.26721262522E+04  0.26731236489E+04  0.00000000000E+00 0. -1.
         -2    1    1    2    0  501  0.89588203175E+01  0.22543250128E+02  0.14464399882E+02  0.28243184165E+02  0.00000000000E+00 0.  1.
<mgrwt>
<rscale>  0 0.42021315E+02</rscale>
<asrwt>0</asrwt>
<pdfrwt beam="2">  1        2 0.44467316E+00 0.72791611E+02</pdfrwt>
<pdfrwt beam="1">  1       -2 0.70005517E-02 0.24258165E+02</pdfrwt>
<totfact> 0.27731682E+02</totfact>
</mgrwt>
</event>
<event>
 5    1  0.7114032E-003  0.5146831E+02  0.7546771E-02  0.1509595E+00
          2   -1    0    0  502    0  0.00000000000E+00  0.00000000000E+00  0.46151236069E+03  0.46151236069E+03  0.00000000000E+00 0. -1.
         -1   -1    0    0    0  501 -0.00000000000E+00 -0.00000000000E+00 -0.27668740893E+02  0.27668740893E+02  0.00000000000E+00 0.  1.
         25    1    1    2    0    0 -0.13826704273E+02 -0.35570711940E+02  0.31034156449E+03  0.33673927592E+03  0.12500000000E+03 0.  0.
          2    1    1    2  502    0  0.22793211260E+02 -0.20709723671E+02  0.30342989113E+02  0.43233321898E+02  0.00000000000E+00 0. -1.
         -1    1    1    2    0  501 -0.89665069869E+01  0.56280435611E+02  0.93159066199E+02  0.10920850377E+03  0.00000000000E+00 0.  1.
<mgrwt>
<rscale>  0 0.39812595E+02</rscale>
<asrwt>0</asrwt>
<pdfrwt beam="1">  1        2 0.71001896E-01 0.30796479E+02</pdfrwt>
<pdfrwt beam="2">  1       -1 0.42567297E-02 0.51468310E+02</pdfrwt>
<totfact> 0.14989317E+04</totfact>
</mgrwt>
</event>
<event>
 5    1  0.7114032E-003  0.4161413E+02  0.7546771E-02  0.1574602E+00
          1   -1    0    0  501    0  0.00000000000E+00  0.00000000000E+00  0.56768325340E+03  0.56768325340E+03  0.00000000000E+00 0. -1.
          1   -1    0    0  502    0 -0.00000000000E+00 -0.00000000000E+00 -0.16396932911E+04  0.16396932911E+04  0.00000000000E+00 0. -1.
         25    1    1    2    0    0 -0.17135551980E+02  0.18504354883E+02  0.11369569205E+03  0.17084422344E+03  0.12500000000E+03 0.  0.
          1    1    1    2  501    0  0.10565703923E+02  0.22627441347E+02  0.42477729351E+03  0.42551073345E+03  0.00000000000E+00 0. -1.
          1    1    1    2  502    0  0.65698480572E+01 -0.41131796230E+02 -0.16104830233E+04  0.16110215876E+04  0.00000000000E+00 0. -1.
<mgrwt>
<rscale>  0 0.32236883E+02</rscale>
<asrwt>0</asrwt>
<pdfrwt beam="1">  1        1 0.87335886E-01 0.24972689E+02</pdfrwt>
<pdfrwt beam="2">  1        1 0.25226050E+00 0.41614126E+02</pdfrwt>
<totfact> 0.34624257E+01</totfact>
</mgrwt>
</event>
<event>
 5    1  0.7114032E-003  0.8018543E+02  0.7546771E-02  0.1407963E+00
          2   -1    0    0  501    0  0.00000000000E+00  0.00000000000E+00  0.49131974313E+03  0.49131974313E+03  0.00000000000E+00 0. -1.
          1   -1    0    0  502    0 -0.00000000000E+00 -0.00000000000E+00 -0.22044318633E+04  0.22044318633E+04  0.00000000000E+00 0. -1.
         25    1    1    2    0    0 -0.85892827970E+02  0.51099347558E+02  0.16245884859E+03  0.22804955318E+03  0.12500000000E+03 0.  0.
          2    1    1    2  501    0  0.77412329880E+02 -0.10526921210E+02  0.29071000704E+03  0.30102457222E+03  0.00000000000E+00 0. -1.
          1    1    1    2  502    0  0.84804980895E+01 -0.40572426348E+02 -0.21662809758E+04  0.21666774811E+04  0.00000000000E+00 0. -1.
<mgrwt>
<rscale>  0 0.57650901E+02</rscale>
<asrwt>0</asrwt>
<pdfrwt beam="1">  1        2 0.75587653E-01 0.80185433E+02</pdfrwt>
<pdfrwt beam="2">  1        1 0.33914336E+00 0.41449254E+02</pdfrwt>
<totfact> 0.28270627E+01</totfact>
</mgrwt>
</event>
<event>
 5    1  0.7114032E-003  0.4327265E+02  0.7546771E-02  0.1525683E+00
          2   -1    0    0  501    0  0.00000000000E+00  0.00000000000E+00  0.13227873557E+04  0.13227873557E+04  0.00000000000E+00 0. -1.
          3   -1    0    0  502    0 -0.00000000000E+00 -0.00000000000E+00 -0.83850947631E+02  0.83850947631E+02  0.00000000000E+00 0. -1.
         25    1    1    2    0    0  0.42748764701E+02 -0.39745277951E+02  0.97866829578E+02  0.16914508664E+03  0.12500000000E+03 0.  0.
          2    1    1    2  501    0 -0.32825657696E+02 -0.19250262540E+01  0.11794921433E+04  0.11799503996E+04  0.00000000000E+00 0. -1.
          3    1    1    2  502    0 -0.99231070044E+01  0.41670304205E+02 -0.38422564816E+02  0.57542817034E+02  0.00000000000E+00 0. -1.
<mgrwt>
<rscale>  0 0.37721265E+02</rscale>
<asrwt>0</asrwt>
<pdfrwt beam="1">  1        2 0.20350573E+00 0.32882055E+02</pdfrwt>
<pdfrwt beam="2">  1        3 0.12900147E-01 0.43272655E+02</pdfrwt>
<totfact> 0.49586153E+02</totfact>
</mgrwt>
</event>
<event>
 5    1  0.7114032E-003  0.5620910E+02  0.7546771E-02  0.1538107E+00
          2   -1    0    0  501    0  0.00000000000E+00  0.00000000000E+00  0.34508978419E+04  0.34508978419E+04  0.00000000000E+00 0. -1.
          1   -1    0    0  502    0 -0.00000000000E+00 -0.00000000000E+00 -0.43436193437E+03  0.43436193437E+03  0.00000000000E+00 0.  1.
         25    1    1    2    0    0  0.37654737309E+02 -0.26221738743E+02  0.47725215473E+02  0.14145018564E+03  0.12500000000E+03 0.  0.
          2    1    1    2  501    0 -0.55220337836E+02  0.10872444884E+02  0.33557229011E+04  0.33561948222E+04  0.00000000000E+00 0. -1.
          1    1    1    2  502    0  0.17565600527E+02  0.15349293859E+02 -0.38691220906E+03  0.38761476838E+03  0.00000000000E+00 0.  1.
<mgrwt>
<rscale>  0 0.36210389E+02</rscale>
<asrwt>0</asrwt>
<pdfrwt beam="1">  1        2 0.53090734E+00 0.56209096E+02</pdfrwt>
<pdfrwt beam="2">  1        1 0.66824915E-01 0.23327047E+02</pdfrwt>
<totfact> 0.11277529E+01</totfact>
</mgrwt>
</event>
<event>
 5    1  0.7114032E-003  0.8183561E+02  0.7546771E-02  0.1449113E+00
          1   -1    0    0  502    0 -0.00000000000E+00  0.00000000000E+00  0.68761364571E+03  0.68761364571E+03  0.00000000000E+00 0. -1.
          2   -1    0    0  501    0  0.00000000000E+00 -0.00000000000E+00 -0.60747541167E+03  0.60747541167E+03  0.00000000000E+00 0. -1.
         25    1    1    2    0    0 -0.94006919072E+02  0.57500564115E+02  0.51568514985E+03  0.54194076197E+03  0.12500000000E+03 0.  0.
          2    1    1    2  501    0  0.65667293165E+02 -0.48585660932E+02 -0.59011959677E+03  0.59574650510E+03  0.00000000000E+00 0. -1.
          1    1    1    2  502    0  0.28339625908E+02 -0.89149031834E+01  0.15457268096E+03  0.15740179032E+03  0.00000000000E+00 0. -1.
<mgrwt>
<rscale>  0 0.49307541E+02</rscale>
<asrwt>0</asrwt>
<pdfrwt beam="2">  1        2 0.93457755E-01 0.81835605E+02</pdfrwt>
<pdfrwt beam="1">  1        1 0.10578672E+00 0.29708751E+02</pdfrwt>
<totfact> 0.22172306E+02</totfact>
</mgrwt>
</event>
<event>
 5    1  0.7114032E-003  0.5974832E+02  0.7546771E-02  0.1506303E+00
         -1   -1    0    0    0  501 -0.00000000000E+00  0.00000000000E+00  0.41500275989E+02  0.41500275989E+02  0.00000000000E+00 0.  1.
          2   -1    0    0  502    0  0.00000000000E+00 -0.00000000000E+00 -0.41083471775E+03  0.41083471775E+03  0.00000000000E+00 0. -1.
         25    1    1    2    0    0  0.67067012513E+02  0.41415738104E+02 -0.19030996537E+03  0.24094839789E+03  0.12500000000E+03 0.  0.
          2    1    1    2  502    0 -0.14824361478E+02 -0.22720489941E+02 -0.14226335391E+03  0.14482694578E+03  0.00000000000E+00 0. -1.
         -1    1    1    2    0  501 -0.52242651035E+02 -0.18695248163E+02 -0.36761122481E+02  0.66559650067E+02  0.00000000000E+00 0.  1.
<mgrwt>
<rscale>  0 0.40260549E+02</rscale>
<asrwt>0</asrwt>
<pdfrwt beam="2">  1        2 0.63205339E-01 0.27128995E+02</pdfrwt>
<pdfrwt beam="1">  1       -1 0.63846581E-02 0.59748319E+02</pdfrwt>
<totfact> 0.95378206E+03</totfact>
</mgrwt>
</event>
<event>
 5    1  0.7114032E-003  0.3945449E+02  0.7546771E-02  0.1512392E+00
          2   -1    0    0  502    0  0.00000000000E+00  0.00000000000E+00  0.14685306342E+04  0.14685306342E+04  0.00000000000E+00 0. -1.
         -1   -1    0    0    0  501 -0.00000000000E+00 -0.00000000000E+00 -0.85323180397E+01  0.85323180397E+01  0.00000000000E+00 0.  1.
         25    1    1    2    0    0 -0.25663254626E+02  0.36471017566E+02  0.89434480198E+03  0.90413846428E+03  0.12500000000E+03 0.  0.
          2    1    1    2  502    0  0.41666407170E+02 -0.44505028267E+00  0.41894610566E+03  0.42101321476E+03  0.00000000000E+00 0. -1.
         -1    1    1    2    0  501 -0.16003152544E+02 -0.36025967283E+02  0.14670740851E+03  0.15191127319E+03  0.00000000000E+00 0.  1.
<mgrwt>
<rscale>  0 0.39437464E+02</rscale>
<asrwt>0</asrwt>
<pdfrwt beam="1">  1        2 0.22592759E+00 0.39454495E+02</pdfrwt>
<pdfrwt beam="2">  1       -1 0.13126655E-02 0.39420442E+02</pdfrwt>
<totfact> 0.17915938E+04</totfact>
</mgrwt>
</event>
<event>
 5    1  0.7114032E-003  0.5872600E+02  0.7546771E-02  0.1493833E+00
          2   -1    0    0  502    0  0.00000000000E+00  0.00000000000E+00  0.44366430910E+03  0.44366430910E+03  0.00000000000E+00 0. -1.
         -1   -1    0    0    0  501 -0.00000000000E+00 -0.00000000000E+00 -0.31326786849E+02  0.31326786849E+02  0.00000000000E+00 0.  1.
         25    1    1    2    0    0  0.16215533973E+02  0.52578306939E+02  0.27498869930E+03  0.30703616504E+03  0.12500000000E+03 0.  0.
          2    1    1    2  502    0  0.12409714031E+02 -0.61787943398E+02  0.11248524383E+03  0.12893673266E+03  0.00000000000E+00 0. -1.
         -1    1    1    2    0  501 -0.28625248004E+02  0.92096364592E+01  0.24863579129E+02  0.39018198243E+02  0.00000000000E+00 0.  1.
<mgrwt>
<rscale>  0 0.42022704E+02</rscale>
<asrwt>0</asrwt>
<pdfrwt beam="1">  1        2 0.68256043E-01 0.58725997E+02</pdfrwt>
<pdfrwt beam="2">  1       -1 0.48195060E-02 0.30070288E+02</pdfrwt>
<totfact> 0.12181964E+04</totfact>
</mgrwt>
</event>
<event>
 5    1  0.7114032E-003  0.7581193E+02  0.7546771E-02  0.1479666E+00
         -1   -1    0    0    0  501 -0.00000000000E+00  0.00000000000E+00  0.56040598730E+02  0.56040598730E+02  0.00000000000E+00 0.  1.
          2   -1    0    0  502    0  0.00000000000E+00 -0.00000000000E+00 -0.34723036899E+03  0.34723036899E+03  0.00000000000E+00 0. -1.
         25    1    1    2    0    0  0.11390248082E+02  0.95341001156E+02 -0.17780418958E+03  0.23761097214E+03  0.12500000000E+03 0.  0.
          2    1    1    2  502    0  0.13777584250E+01 -0.25683885355E+02 -0.85946049082E+02  0.89712226246E+02  0.00000000000E+00 0. -1.
         -1    1    1    2    0  501 -0.12768006507E+02 -0.69657115801E+02 -0.27439531608E+02  0.75947769334E+02  0.00000000000E+00 0.  1.
<mgrwt>
<rscale>  0 0.44158176E+02</rscale>
<asrwt>0</asrwt>
<pdfrwt beam="2">  1        2 0.53420057E-01 0.25720812E+02</pdfrwt>
<pdfrwt beam="1">  1       -1 0.86216305E-02 0.75811934E+02</pdfrwt>
<totfact> 0.73888011E+03</totfact>
</mgrwt>
</event>
<event>
 5    1  0.7114032E-003  0.5054513E+02  0.7546771E-02  0.1548231E+00
          2   -1    0    0  501    0  0.00000000000E+00  0.00000000000E+00  0.12232363400E+04  0.12232363400E+04  0.00000000000E+00 0. -1.
          2   -1    0    0  502    0 -0.00000000000E+00 -0.00000000000E+00 -0.35417359501E+03  0.35417359501E+03  0.00000000000E+00 0. -1.
         25    1    1    2    0    0  0.98000462957E+01  0.29030221213E+02  0.46023690043E+03  0.47789308341E+03  0.12500000000E+03 0.  0.
          2    1    1    2  501    0 -0.11150931934E+02  0.21583106667E+02  0.75211839950E+03  0.75251063823E+03  0.00000000000E+00 0. -1.
          2    1    1    2  502    0  0.13508856382E+01 -0.50613327880E+02 -0.34329255494E+03  0.34700621338E+03  0.00000000000E+00 0. -1.
<mgrwt>
<rscale>  0 0.35041656E+02</rscale>
<asrwt>0</asrwt>
<pdfrwt beam="1">  1        2 0.18819020E+00 0.24293492E+02</pdfrwt>
<pdfrwt beam="2">  1        2 0.54488246E-01 0.50545125E+02</pdfrwt>
<totfact> 0.32295852E+02</totfact>
</mgrwt>
</event>
<event>
 5    1  0.7114032E-003  0.7763234E+02  0.7546771E-02  0.1335940E+00
          2   -1    0    0  502    0  0.00000000000E+00  0.00000000000E+00  0.13626711689E+04  0.13626711689E+04  0.00000000000E+00 0. -1.
          2   -1    0    0  501    0 -0.00000000000E+00 -0.00000000000E+00 -0.33463689352E+03  0.33463689352E+03  0.00000000000E+00 0. -1.
         25    1    1    2    0    0  0.13287995154E+02 -0.87774651981E+02  0.56692755677E+02  0.16346262231E+03  0.12500000000E+03 0.  0.
          2    1    1    2  501    0  0.56748328703E+02  0.52975542446E+02 -0.27464545933E+03  0.28540656832E+03  0.00000000000E+00 0. -1.
          2    1    1    2  502    0 -0.70036323857E+02  0.34799109535E+02  0.12459869790E+04  0.12484388718E+04  0.00000000000E+00 0. -1.
<mgrwt>
<rscale>  0 0.77621544E+02</rscale>
<asrwt>0</asrwt>
<pdfrwt beam="1">  1        2 0.20964172E+00 0.77610746E+02</pdfrwt>
<pdfrwt beam="2">  1        2 0.51482600E-01 0.77632344E+02</pdfrwt>
<totfact> 0.26720846E+02</totfact>
</mgrwt>
</event>
<event>
 5    1  0.7114032E-003  0.1393197E+03  0.7546771E-02  0.1263455E+00
         -3   -1    0    0    0  501 -0.00000000000E+00  0.00000000000E+00  0.50936304127E+03  0.50936304127E+03  0.00000000000E+00 0.  1.
          1   -1    0    0  502    0  0.00000000000E+00 -0.00000000000E+00 -0.92326237799E+03  0.92326237799E+03  0.00000000000E+00 0. -1.
         25    1    1    2    0    0  0.30413427136E+02  0.19291817407E+03 -0.17954109733E+03  0.29326166484E+03  0.12500000000E+03 0.  0.
          1    1    1    2  502    0  0.27292200591E+02 -0.13128615745E+03 -0.67628161214E+03  0.68944741516E+03  0.00000000000E+00 0. -1.
         -3    1    1    2    0  501 -0.57705627727E+02 -0.61632016625E+02  0.44192337275E+03  0.44991633925E+03  0.00000000000E+00 0.  1.
<mgrwt>
<rscale>  0 0.10845635E+03</rscale>
<asrwt>0</asrwt>
<pdfrwt beam="2">  1        1 0.14204037E+00 0.13931971E+03</pdfrwt>
<pdfrwt beam="1">  1       -3 0.78363545E-01 0.84430119E+02</pdfrwt>
<totfact> 0.15800721E+01</totfact>
</mgrwt>
</event>
<event>
 5    1  0.7114032E-003  0.5272964E+02  0.7546771E-02  0.1481085E+00
          2   -1    0    0  501    0  0.00000000000E+00  0.00000000000E+00  0.10883762909E+04  0.10883762909E+04  0.00000000000E+00 0.  1.
          1   -1    0    0  502    0 -0.00000000000E+00 -0.00000000000E+00 -0.44522652947E+03  0.44522652947E+03  0.00000000000E+00 0. -1.
         25    1    1    2    0    0  0.51740973118E+02 -0.14057445634E+02 -0.23145605604E+03  0.26846162846E+03  0.12500000000E+03 0.  0.
          2    1    1    2  501    0 -0.29920552793E+02  0.43455888472E+02  0.10675001433E+04  0.10688031669E+04  0.00000000000E+00 0.  1.
          1    1    1    2  502    0 -0.21820420326E+02 -0.29398442838E+02 -0.19289432573E+03  0.19633802506E+03  0.00000000000E+00 0. -1.
<mgrwt>
<rscale>  0 0.43937561E+02</rscale>
<asrwt>0</asrwt>
<pdfrwt beam="1">  1        2 0.16744251E+00 0.52729640E+02</pdfrwt>
<pdfrwt beam="2">  1        1 0.68496389E-01 0.36611462E+02</pdfrwt>
<totfact> 0.19012488E+02</totfact>
</mgrwt>
</event>
<event>
 5    1  0.7114032E-003  0.5837063E+02  0.7546771E-02  0.1421107E+00
          2   -1    0    0  501    0  0.00000000000E+00  0.00000000000E+00  0.53749321331E+03  0.53749321331E+03  0.00000000000E+00 0. -1.
          2   -1    0    0  502    0 -0.00000000000E+00 -0.00000000000E+00 -0.37543355124E+04  0.37543355124E+04  0.00000000000E+00 0.  1.
         25    1    1    2    0    0  0.57524064286E+01 -0.24703699136E+02 -0.86868276789E+01  0.12784296581E+03  0.12500000000E+03 0.  0.
          2    1    1    2  501    0 -0.56761356812E+02  0.18183734457E+02  0.47587667140E+03  0.47959473122E+03  0.00000000000E+00 0. -1.
          2    1    1    2  502    0  0.51008950383E+02  0.65199646790E+01 -0.36840321428E+04  0.36843910286E+04  0.00000000000E+00 0.  1.
<mgrwt>
<rscale>  0 0.54787301E+02</rscale>
<asrwt>0</asrwt>
<pdfrwt beam="1">  1        2 0.82691263E-01 0.58370626E+02</pdfrwt>
<pdfrwt beam="2">  1        2 0.57759008E+00 0.51423953E+02</pdfrwt>
<totfact> 0.86999354E+00</totfact>
</mgrwt>
</event>
<event>
 5    1  0.7114032E-003  0.3549148E+02  0.7546771E-02  0.1546957E+00
          2   -1    0    0  502    0  0.00000000000E+00  0.00000000000E+00  0.26181093807E+03  0.26181093807E+03  0.00000000000E+00 0. -1.
         -1   -1    0    0    0  501 -0.00000000000E+00 -0.00000000000E+00 -0.42606455160E+02  0.42606455160E+02  0.00000000000E+00 0.  1.
         25    1    1    2    0    0 -0.10869825311E+02 -0.34094496352E+01  0.16560642357E+03  0.20779861640E+03  0.12500000000E+03 0.  0.
          2    1    1    2  502    0  0.55537321101E+01 -0.35054264442E+02  0.44167717560E+02  0.56660680108E+02  0.00000000000E+00 0. -1.
         -1    1    1    2    0  501  0.53160932005E+01  0.38463714077E+02  0.94303417786E+01  0.39958096721E+02  0.00000000000E+00 0.  1.
<mgrwt>
<rscale>  0 0.35185743E+02</rscale>
<asrwt>0</asrwt>
<pdfrwt beam="1">  1        2 0.40278605E-01 0.35491483E+02</pdfrwt>
<pdfrwt beam="2">  1       -1 0.65548394E-02 0.34882637E+02</pdfrwt>
<totfact> 0.13672782E+04</totfact>
</mgrwt>
</event>
<event>
 5    1  0.7114032E-003  0.6237005E+02  0.7546771E-02  0.1428722E+00
         -1   -1    0    0    0  501 -0.00000000000E+00  0.00000000000E+00  0.40899900844E+03  0.40899900844E+03  0.00000000000E+00 0.  1.
          2   -1    0    0  502    0  0.00000000000E+00 -0.00000000000E+00 -0.86723410195E+02  0.86723410195E+02  0.00000000000E+00 0.  1.
         25    1    1    2    0    0  0.79980068703E+02 -0.17329548771E+02  0.22319300060E+03  0.26858376751E+03  0.12500000000E+03 0.  0.
          2    1    1    2  502    0 -0.37769458915E+02 -0.25205966170E+02 -0.49352501898E+02  0.67063717470E+02  0.00000000000E+00 0.  1.
         -1    1    1    2    0  501 -0.42210609788E+02  0.42535514941E+02  0.14843509954E+03  0.16007493366E+03  0.00000000000E+00 0.  1.
<mgrwt>
<rscale>  0 0.53217384E+02</rscale>
<asrwt>0</asrwt>
<pdfrwt beam="2">  1        2 0.13342063E-01 0.45407849E+02</pdfrwt>
<pdfrwt beam="1">  1       -1 0.62922923E-01 0.62370054E+02</pdfrwt>
<totfact> 0.12700376E+03</totfact>
</mgrwt>
</event>
<event>
 5    1  0.7114032E-003  0.5251844E+02  0.7546771E-02  0.1491313E+00
          2   -1    0    0  501    0  0.00000000000E+00  0.00000000000E+00  0.37398528394E+03  0.37398528394E+03  0.00000000000E+00 0. -1.
          1   -1    0    0  502    0 -0.00000000000E+00 -0.00000000000E+00 -0.42518263218E+03  0.42518263218E+03  0.00000000000E+00 0. -1.
         25    1    1    2    0    0  0.47361777165E+02 -0.51376051785E+02 -0.19167390197E+03  0.23926245282E+03  0.12500000000E+03 0.  0.
          2    1    1    2  501    0  0.80591682784E+00  0.34208380276E+02  0.34621784740E+03  0.34790467177E+03  0.00000000000E+00 0. -1.
          1    1    1    2  502    0 -0.48167693993E+02  0.17167671509E+02 -0.20574129368E+03  0.21200079154E+03  0.00000000000E+00 0. -1.
<mgrwt>
<rscale>  0 0.42391855E+02</rscale>
<asrwt>0</asrwt>
<pdfrwt beam="1">  1        2 0.57536198E-01 0.34217872E+02</pdfrwt>
<pdfrwt beam="2">  1        1 0.65412712E-01 0.52518444E+02</pdfrwt>
<totfact> 0.67358476E+02</totfact>
</mgrwt>
</event>
<event>
 5    1  0.7114032E-003  0.6288137E+02  0.7546771E-02  0.1487383E+00
         -1   -1    0    0    0  501 -0.00000000000E+00  0.00000000000E+00  0.10029025833E+03  0.10029025833E+03  0.00000000000E+00 0.  1.
          2   -1    0    0  502    0  0.00000000000E+00 -0.00000000000E+00 -0.31428695152E+03  0.31428695152E+03  0.00000000000E+00 0. -1.
         25    1    1    2    0    0 -0.13508704984E+02 -0.38933797205E+02  0.27457750858E+02  0.13445167815E+03  0.12500000000E+03 0.  0.
          2    1    1    2  502    0 -0.16239686082E+01  0.64108328403E+02 -0.24239816907E+03  0.25073768647E+03  0.00000000000E+00 0. -1.
         -1    1    1    2    0  501  0.15132673593E+02 -0.25174531197E+02  0.94372502485E+00  0.29387845242E+02  0.00000000000E+00 0.  1.
<mgrwt>
<rscale>  0 0.42976678E+02</rscale>
<asrwt>0</asrwt>
<pdfrwt beam="2">  1        2 0.48351838E-01 0.62881369E+02</pdfrwt>
<pdfrwt beam="1">  1       -1 0.15429271E-01 0.29372689E+02</pdfrwt>
<totfact> 0.32190031E+03</totfact>
</mgrwt>
</event>
<event>
 5    1  0.7114032E-003  0.4336873E+02  0.7546771E-02  0.1543953E+00
          2   -1    0    0  502    0  0.00000000000E+00  0.00000000000E+00  0.70464297093E+03  0.70464297093E+03  0.00000000000E+00 0. -1.
         -2   -1    0    0    0  501 -0.00000000000E+00 -0.00000000000E+00 -0.21163270224E+03  0.21163270224E+03  0.00000000000E+00 0.  1.
         25    1    1    2    0    0 -0.19053657729E+01  0.63786284965E+02 -0.55493274562E+02  0.15091992609E+03  0.12500000000E+03 0.  0.
          2    1    1    2  502    0  0.17823570966E+02 -0.39418549794E+02  0.65424898845E+03  0.65567769570E+03  0.00000000000E+00 0. -1.
         -2    1    1    2    0  501 -0.15918205193E+02 -0.24367735171E+02 -0.10574544520E+03  0.10967805138E+03  0.00000000000E+00 0.  1.
<mgrwt>
<rscale>  0 0.35528898E+02</rscale>
<asrwt>0</asrwt>
<pdfrwt beam="1">  1        2 0.10840661E+00 0.43368730E+02</pdfrwt>
<pdfrwt beam="2">  1       -2 0.32558878E-01 0.29106284E+02</pdfrwt>
<totfact> 0.37197254E+02</totfact>
</mgrwt>
</event>
<event>
 5    1  0.7114032E-003  0.2633003E+03  0.7546771E-02  0.1139315E+00
          2   -1    0    0  501    0  0.00000000000E+00  0.00000000000E+00  0.15376703701E+04  0.15376703701E+04  0.00000000000E+00 0. -1.
          3   -1    0    0  502    0 -0.00000000000E+00 -0.00000000000E+00 -0.94533948117E+02  0.94533948117E+02  0.00000000000E+00 0. -1.
         25    1    1    2    0    0  0.39252467795E+02 -0.63758937834E+02  0.20966246675E+03  0.25532196996E+03  0.12500000000E+03 0.  0.
          2    1    1    2  501    0  0.11317825812E+03  0.27844918029E+03  0.91807465807E+03  0.96602502137E+03  0.00000000000E+00 0. -1.
          3    1    1    2  502    0 -0.15243072592E+03 -0.21469024245E+03  0.31539929717E+03  0.41085732690E+03  0.00000000000E+00 0. -1.
<mgrwt>
<rscale>  0 0.21286713E+03</rscale>
<asrwt>0</asrwt>
<pdfrwt beam="1">  1        2 0.23656465E+00 0.17209408E+03</pdfrwt>
<pdfrwt beam="2">  1        3 0.14543685E-01 0.26330026E+03</pdfrwt>
<totfact> 0.33422467E+02</totfact>
</mgrwt>
</event>
<event>
 5    1  0.7114032E-003  0.6063412E+02  0.7546771E-02  0.1537317E+00
         -2   -1    0    0    0  501 -0.00000000000E+00  0.00000000000E+00  0.57599014494E+01  0.57599014494E+01  0.00000000000E+00 0.  1.
          2   -1    0    0  502    0  0.00000000000E+00 -0.00000000000E+00 -0.29538807264E+04  0.29538807264E+04  0.00000000000E+00 0. -1.
         25    1    1    2    0    0  0.37675445182E+02 -0.61017463322E+02 -0.17112516076E+04  0.17173088349E+04  0.12500000000E+03 0.  0.
          2    1    1    2  502    0 -0.42742894353E+02  0.39879850610E+02 -0.11800450027E+04  0.11814920931E+04  0.00000000000E+00 0. -1.
         -2    1    1    2    0  501  0.50674491715E+01  0.21137612712E+02 -0.56824214669E+02  0.60839699909E+02  0.00000000000E+00 0.  1.
<mgrwt>
<rscale>  0 0.36303950E+02</rscale>
<asrwt>0</asrwt>
<pdfrwt beam="2">  1        2 0.45444359E+00 0.60634124E+02</pdfrwt>
<pdfrwt beam="1">  1       -2 0.88613790E-03 0.21736552E+02</pdfrwt>
<totfact> 0.45400777E+03</totfact>
</mgrwt>
</event>
<event>
 5    1  0.7114032E-003  0.4495220E+02  0.7546771E-02  0.1579549E+00
          1   -1    0    0  502    0  0.00000000000E+00  0.00000000000E+00  0.57602942760E+03  0.57602942760E+03  0.00000000000E+00 0. -1.
         -2   -1    0    0    0  501 -0.00000000000E+00 -0.00000000000E+00 -0.21105590721E+02  0.21105590721E+02  0.00000000000E+00 0.  1.
         25    1    1    2    0    0  0.48707523365E+01  0.37222324882E+02  0.28826816753E+03  0.31643761172E+03  0.12500000000E+03 0.  0.
          1    1    1    2  502    0 -0.20845467828E+02  0.82540910396E+01  0.18122980197E+03  0.18261134869E+03  0.00000000000E+00 0. -1.
         -2    1    1    2    0  501  0.15974715491E+02 -0.45476415922E+02  0.85425867385E+02  0.98086057922E+02  0.00000000000E+00 0.  1.
<mgrwt>
<rscale>  0 0.31746425E+02</rscale>
<asrwt>0</asrwt>
<pdfrwt beam="1">  1        1 0.88619900E-01 0.22420159E+02</pdfrwt>
<pdfrwt beam="2">  1       -2 0.32470144E-02 0.44952200E+02</pdfrwt>
<totfact> 0.10830440E+04</totfact>
</mgrwt>
</event>
<event>
 5    1  0.7114032E-003  0.6098130E+02  0.7546771E-02  0.1453359E+00
         -1   -1    0    0    0  501 -0.00000000000E+00  0.00000000000E+00  0.32420884548E+03  0.32420884548E+03  0.00000000000E+00 0.  1.
          2   -1    0    0  502    0  0.00000000000E+00 -0.00000000000E+00 -0.57542754225E+02  0.57542754225E+02  0.00000000000E+00 0. -1.
         25    1    1    2    0    0  0.54927131736E+02 -0.46021146164E+02  0.76504273441E+02  0.16313442172E+03  0.12500000000E+03 0.  0.
          2    1    1    2  502    0  0.54486276021E+01  0.38256604097E+02  0.35764444105E+02  0.52653117305E+02  0.00000000000E+00 0. -1.
         -1    1    1    2    0  501 -0.60375759338E+02  0.77645420671E+01  0.15439737371E+03  0.16596406068E+03  0.00000000000E+00 0.  1.
<mgrwt>
<rscale>  0 0.48543586E+02</rscale>
<asrwt>0</asrwt>
<pdfrwt beam="2">  1        2 0.88527316E-02 0.38642662E+02</pdfrwt>
<pdfrwt beam="1">  1       -1 0.49878283E-01 0.60981301E+02</pdfrwt>
<totfact> 0.31008279E+03</totfact>
</mgrwt>
</event>
<event>
 5    1  0.7114032E-003  0.2210660E+03  0.7546771E-02  0.1311787E+00
          1   -1    0    0  501    0  0.00000000000E+00  0.00000000000E+00  0.17531581442E+04  0.17531581442E+04  0.00000000000E+00 0. -1.
          3   -1    0    0  502    0 -0.00000000000E+00 -0.00000000000E+00 -0.77344743019E+03  0.77344743019E+03  0.00000000000E+00 0. -1.
         25    1    1    2    0    0  0.19141044149E+02 -0.20395921044E+03  0.13536530505E+03  0.27552586976E+03  0.12500000000E+03 0.  0.
          1    1    1    2  501    0  0.31226746076E+02 -0.12871147118E+02  0.15299089621E+04  0.15302817415E+04  0.00000000000E+00 0. -1.
          3    1    1    2  502    0 -0.50367790225E+02  0.21683035756E+03 -0.68556355313E+03  0.72079796312E+03  0.00000000000E+00 0. -1.
<mgrwt>
<rscale>  0 0.86409410E+02</rscale>
<asrwt>0</asrwt>
<pdfrwt beam="1">  1        1 0.26971664E+00 0.33775377E+02</pdfrwt>
<pdfrwt beam="2">  1        3 0.11899191E+00 0.22106596E+03</pdfrwt>
<totfact> 0.20265318E+00</totfact>
</mgrwt>
</event>
<event>
 5    1  0.7114032E-003  0.1049221E+03  0.7546771E-02  0.1375668E+00
         -2   -1    0    0    0  501 -0.00000000000E+00  0.00000000000E+00  0.63164778512E+03  0.63164778512E+03  0.00000000000E+00 0.  1.
          2   -1    0    0  502    0  0.00000000000E+00 -0.00000000000E+00 -0.20374944913E+04  0.20374944913E+04  0.00000000000E+00 0. -1.
         25    1    1    2    0    0  0.64421403464E+02 -0.17074591190E+02 -0.45523507829E+03  0.47676580770E+03  0.12500000000E+03 0.  0.
          2    1    1    2  502    0  0.31561072871E+02 -0.26225900373E+02 -0.15667590307E+04  0.15672963216E+04  0.00000000000E+00 0. -1.
         -2    1    1    2    0  501 -0.95982476335E+02  0.43300491563E+02  0.61614740285E+03  0.62508014716E+03  0.00000000000E+00 0.  1.
<mgrwt>
<rscale>  0 0.65616408E+02</rscale>
<asrwt>0</asrwt>
<pdfrwt beam="2">  1        2 0.31346069E+00 0.41035341E+02</pdfrwt>
<pdfrwt beam="1">  1       -2 0.97176582E-01 0.10492207E+03</pdfrwt>
<totfact> 0.83868004E+00</totfact>
</mgrwt>
</event>
<event>
 5    1  0.7114032E-003  0.6815187E+02  0.7546771E-02  0.1375007E+00
          1   -1    0    0  502    0  0.00000000000E+00  0.00000000000E+00  0.44691333262E+02  0.44691333262E+02  0.00000000000E+00 0. -1.
         -3   -1    0    0    0  501 -0.00000000000E+00 -0.00000000000E+00 -0.19915062266E+04  0.19915062266E+04  0.00000000000E+00 0.  1.
         25    1    1    2    0    0 -0.37833699014E+02 -0.73636711516E+02 -0.13596359291E+03  0.20239775854E+03  0.12500000000E+03 0.  0.
          1    1    1    2  502    0  0.62739870773E+02  0.99192643838E+01 -0.82619669513E+02  0.10421464859E+03  0.00000000000E+00 0. -1.
         -3    1    1    2    0  501 -0.24906171759E+02  0.63717447132E+02 -0.17282316309E+04  0.17295851527E+04  0.00000000000E+00 0.  1.
<mgrwt>
<rscale>  0 0.65794750E+02</rscale>
<asrwt>0</asrwt>
<pdfrwt beam="1">  1        1 0.68755884E-02 0.63519156E+02</pdfrwt>
<pdfrwt beam="2">  1       -3 0.30638563E+00 0.68151868E+02</pdfrwt>
<totfact> 0.23277236E+01</totfact>
</mgrwt>
</event>
<event>
 5    1  0.7114032E-003  0.9945060E+02  0.7546771E-02  0.1361299E+00
         -1   -1    0    0    0  501 -0.00000000000E+00  0.00000000000E+00  0.54932615077E+03  0.54932615077E+03  0.00000000000E+00 0.  1.
          2   -1    0    0  502    0  0.00000000000E+00 -0.00000000000E+00 -0.17292647997E+03  0.17292647997E+03  0.00000000000E+00 0. -1.
         25    1    1    2    0    0  0.55049378652E+02  0.56118093627E+02  0.21514392675E+02  0.14922313364E+03  0.12500000000E+03 0.  0.
          2    1    1    2  502    0 -0.25514117575E+02  0.41568765940E+02 -0.97637229490E+02  0.10914193090E+03  0.00000000000E+00 0. -1.
         -1    1    1    2    0  501 -0.29535261078E+02 -0.97686859567E+02  0.45252250762E+03  0.46388756621E+03  0.00000000000E+00 0.  1.
<mgrwt>
<rscale>  0 0.69646490E+02</rscale>
<asrwt>0</asrwt>
<pdfrwt beam="2">  1        2 0.26604074E-01 0.48774302E+02</pdfrwt>
<pdfrwt beam="1">  1       -1 0.84511715E-01 0.99450600E+02</pdfrwt>
<totfact> 0.33004396E+02</totfact>
</mgrwt>
</event>
<event>
 5    1  0.7114032E-003  0.8413766E+02  0.7546771E-02  0.1349618E+00
          2   -1    0    0  502    0  0.00000000000E+00  0.00000000000E+00  0.30160888763E+04  0.30160888763E+04  0.00000000000E+00 0. -1.
         -3   -1    0    0    0  501 -0.00000000000E+00 -0.00000000000E+00 -0.46120685801E+02  0.46120685801E+02  0.00000000000E+00 0.  1.
         25    1    1    2    0    0  0.11500088166E+03 -0.68892346323E+02  0.76801629202E+03  0.78958557673E+03  0.12500000000E+03 0.  0.
          2    1    1    2  502    0 -0.51673189633E+02  0.62591428002E+02  0.22072699947E+04  0.22087617877E+04  0.00000000000E+00 0. -1.
         -3    1    1    2    0  501 -0.63327692031E+02  0.63009183210E+01 -0.53180961651E+01  0.63862197711E+02  0.00000000000E+00 0.  1.
<mgrwt>
<rscale>  0 0.73174810E+02</rscale>
<asrwt>0</asrwt>
<pdfrwt beam="1">  1        2 0.46401352E+00 0.84137660E+02</pdfrwt>
<pdfrwt beam="2">  1       -3 0.70954925E-02 0.63640381E+02</pdfrwt>
<totfact> 0.16967213E+02</totfact>
</mgrwt>
</event>
<event>
 5    1  0.7114032E-003  0.8081372E+02  0.7546771E-02  0.1452505E+00
          2   -1    0    0  501    0  0.00000000000E+00  0.00000000000E+00  0.30975518292E+03  0.30975518292E+03  0.00000000000E+00 0. -1.
          2   -1    0    0  502    0 -0.00000000000E+00 -0.00000000000E+00 -0.16401714866E+03  0.16401714866E+03  0.00000000000E+00 0. -1.
         25    1    1    2    0    0  0.82051389641E+02  0.46301592206E+02  0.41565419022E+02  0.16195354902E+03  0.12500000000E+03 0.  0.
          2    1    1    2  501    0 -0.46549820930E+01 -0.28971163441E+02  0.19156655661E+03  0.19380078117E+03  0.00000000000E+00 0. -1.
          2    1    1    2  502    0 -0.77396407548E+02 -0.17330428765E+02 -0.87393941372E+02  0.11801800139E+03  0.00000000000E+00 0. -1.
<mgrwt>
<rscale>  0 0.48695964E+02</rscale>
<asrwt>0</asrwt>
<pdfrwt beam="1">  1        2 0.47654644E-01 0.29342753E+02</pdfrwt>
<pdfrwt beam="2">  1        2 0.25233407E-01 0.80813715E+02</pdfrwt>
<totfact> 0.33008626E+03</totfact>
</mgrwt>
</event>
<event>
 5    1  0.7114032E-003  0.6278226E+02  0.7546771E-02  0.1417556E+00
         -2   -1    0    0    0  501 -0.00000000000E+00  0.00000000000E+00  0.40582628895E+01  0.40582628895E+01  0.00000000000E+00 0.  1.
          1   -1    0    0  502    0  0.00000000000E+00 -0.00000000000E+00 -0.44345513004E+04  0.44345513004E+04  0.00000000000E+00 0. -1.
         25    1    1    2    0    0  0.76686675791E+02  0.29613047930E+02 -0.27995076201E+04  0.28035023977E+04  0.12500000000E+03 0.  0.
          1    1    1    2  502    0 -0.32036720104E+02 -0.50124115923E+02 -0.11698082383E+04  0.11713198081E+04  0.00000000000E+00 0. -1.
         -2    1    1    2    0  501 -0.44649955687E+02  0.20511067993E+02 -0.46117717913E+03  0.46378735752E+03  0.00000000000E+00 0.  1.
<mgrwt>
<rscale>  0 0.55541460E+02</rscale>
<asrwt>0</asrwt>
<pdfrwt beam="2">  1        1 0.68224056E+00 0.62782261E+02</pdfrwt>
<pdfrwt beam="1">  1       -2 0.62434640E-03 0.49135755E+02</pdfrwt>
<totfact> 0.19995819E+02</totfact>
</mgrwt>
</event>
<event>
 5    1  0.7114032E-003  0.6857462E+02  0.7546771E-02  0.1460810E+00
          2   -1    0    0  502    0  0.00000000000E+00  0.00000000000E+00  0.31121222023E+02  0.31121222023E+02  0.00000000000E+00 0. -1.
          2   -1    0    0  501    0 -0.00000000000E+00 -0.00000000000E+00 -0.10507154948E+04  0.10507154948E+04  0.00000000000E+00 0. -1.
         25    1    1    2    0    0  0.23239418042E+02  0.41613500258E+02 -0.47630298788E+03  0.49473355478E+03  0.12500000000E+03 0.  0.
          2    1    1    2  501    0 -0.54219923475E+02 -0.51586304052E+02 -0.54898506660E+03  0.55406276739E+03  0.00000000000E+00 0. -1.
          2    1    1    2  502    0  0.30980505433E+02  0.99728037941E+01  0.56937816550E+01  0.33040394700E+02  0.00000000000E+00 0. -1.
<mgrwt>
<rscale>  0 0.47242314E+02</rscale>
<asrwt>0</asrwt>
<pdfrwt beam="1">  1        2 0.47878802E-02 0.32546099E+02</pdfrwt>
<pdfrwt beam="2">  1        2 0.16164854E+00 0.68574617E+02</pdfrwt>
<totfact> 0.55194805E+03</totfact>
</mgrwt>
</event>
<event>
 5    1  0.7114032E-003  0.1170441E+03  0.7546771E-02  0.1399236E+00
          2   -1    0    0  501    0  0.00000000000E+00  0.00000000000E+00  0.17350048908E+03  0.17350048908E+03  0.00000000000E+00 0. -1.
          1   -1    0    0  502    0 -0.00000000000E+00 -0.00000000000E+00 -0.24635519389E+04  0.24635519389E+04  0.00000000000E+00 0. -1.
         25    1    1    2    0    0 -0.37980056346E+02  0.80673578596E+02 -0.26216324688E+03  0.30381783848E+03  0.12500000000E+03 0.  0.
          2    1    1    2  501    0  0.54754179237E+02 -0.10604689276E+03  0.12922531239E+03  0.17590663709E+03  0.00000000000E+00 0. -1.
          1    1    1    2  502    0 -0.16774122891E+02  0.25373314162E+02 -0.21571135153E+04  0.21573279524E+04  0.00000000000E+00 0. -1.
<mgrwt>
<rscale>  0 0.59666556E+02</rscale>
<asrwt>0</asrwt>
<pdfrwt beam="1">  1        2 0.26692385E-01 0.11704415E+03</pdfrwt>
<pdfrwt beam="2">  1        1 0.37900797E+00 0.30416710E+02</pdfrwt>
<totfact> 0.62212675E+01</totfact>
</mgrwt>
</event>
<event>
 5    1  0.7114032E-003  0.9956631E+02  0.7546771E-02  0.1381046E+00
          2   -1    0    0  501    0  0.00000000000E+00  0.00000000000E+00  0.11132699283E+04  0.11132699283E+04  0.00000000000E+00 0. -1.
          2   -1    0    0  502    0 -0.00000000000E+00 -0.00000000000E+00 -0.80142474838E+03  0.80142474838E+03  0.00000000000E+00 0.  1.
         25    1    1    2    0    0  0.13150966118E+03 -0.48540779357E+02  0.18787733250E+03  0.26565746802E+03  0.12500000000E+03 0.  0.
          2    1    1    2  501    0 -0.37536431024E+02  0.17422051525E+02  0.88280303322E+03  0.88377242942E+03  0.00000000000E+00 0. -1.
          2    1    1    2  502    0 -0.93973230160E+02  0.31118727832E+02 -0.75883518578E+03  0.76526477927E+03  0.00000000000E+00 0.  1.
<mgrwt>
<rscale>  0 0.64189588E+02</rscale>
<asrwt>0</asrwt>
<pdfrwt beam="1">  1        2 0.17127230E+00 0.41382503E+02</pdfrwt>
<pdfrwt beam="2">  1        2 0.12329612E+00 0.99566312E+02</pdfrwt>
<totfact> 0.14365424E+02</totfact>
</mgrwt>
</event>
<event>
 5    1  0.7114032E-003  0.5800869E+02  0.7546771E-02  0.1471749E+00
         -1   -1    0    0    0  502 -0.00000000000E+00  0.00000000000E+00  0.78473163748E+02  0.78473163748E+02  0.00000000000E+00 0.  1.
         -2   -1    0    0    0  501  0.00000000000E+00 -0.00000000000E+00 -0.77887840767E+03  0.77887840767E+03  0.00000000000E+00 0.  1.
         25    1    1    2    0    0 -0.69244011843E+02  0.29667854897E+02 -0.20924571968E+03  0.25511504462E+03  0.12500000000E+03 0.  0.
         -2    1    1    2    0  501  0.32508352304E+02  0.14412737211E+02 -0.53112181617E+03  0.53231090875E+03  0.00000000000E+00 0.  1.
         -1    1    1    2    0  502  0.36735659539E+02 -0.44080592107E+02  0.39962291927E+02  0.69925618041E+02  0.00000000000E+00 0.  1.
<mgrwt>
<rscale>  0 0.45417993E+02</rscale>
<asrwt>0</asrwt>
<pdfrwt beam="2">  1       -2 0.11982745E+00 0.35560089E+02</pdfrwt>
<pdfrwt beam="1">  1       -1 0.12072794E-01 0.58008687E+02</pdfrwt>
<totfact> 0.18483012E+02</totfact>
</mgrwt>
</event>
<event>
 5    1  0.7114032E-003  0.1157813E+03  0.7546771E-02  0.1344597E+00
         -2   -1    0    0    0  501 -0.00000000000E+00  0.00000000000E+00  0.20031516735E+03  0.20031516735E+03  0.00000000000E+00 0.  1.
          2   -1    0    0  502    0  0.00000000000E+00 -0.00000000000E+00 -0.57078418181E+03  0.57078418181E+03  0.00000000000E+00 0. -1.
         25    1    1    2    0    0  0.75853923272E+02 -0.33666135267E+02  0.51648321328E+02  0.15868136449E+03  0.12500000000E+03 0.  0.
          2    1    1    2  502    0 -0.86261916836E+02  0.80811396766E+02 -0.50382892243E+03  0.51750863106E+03  0.00000000000E+00 0. -1.
         -2    1    1    2    0  501  0.10407993564E+02 -0.47145261500E+02  0.81711586637E+02  0.94909353610E+02  0.00000000000E+00 0.  1.
<mgrwt>
<rscale>  0 0.74766138E+02</rscale>
<asrwt>0</asrwt>
<pdfrwt beam="2">  1        2 0.87812952E-01 0.11578134E+03</pdfrwt>
<pdfrwt beam="1">  1       -2 0.30817718E-01 0.48280452E+02</pdfrwt>
<totfact> 0.51501245E+02</totfact>
</mgrwt>
</event>
<event>
 5    1  0.7114032E-003  0.6447754E+02  0.7546771E-02  0.1489912E+00
          2   -1    0    0  502    0  0.00000000000E+00  0.00000000000E+00  0.17209451076E+03  0.17209451076E+03  0.00000000000E+00 0. -1.
         -1   -1    0    0    0  501 -0.00000000000E+00 -0.00000000000E+00 -0.92028156110E+02  0.92028156110E+02  0.00000000000E+00 0.  1.
         25    1    1    2    0    0 -0.14624983363E+02  0.51944740719E+02  0.94944396934E+02  0.16598670048E+03  0.12500000000E+03 0.  0.
          2    1    1    2  502    0 -0.28131123330E+02  0.86549770125E+00 -0.10525271030E+02  0.30048136653E+02  0.00000000000E+00 0. -1.
         -1    1    1    2    0  501  0.42756106693E+02 -0.52810238420E+02 -0.43527712482E+01  0.68087829742E+02  0.00000000000E+00 0.  1.
<mgrwt>
<rscale>  0 0.42599106E+02</rscale>
<asrwt>0</asrwt>
<pdfrwt beam="1">  1        2 0.26476079E-01 0.28144434E+02</pdfrwt>
<pdfrwt beam="2">  1       -1 0.14158178E-01 0.64477539E+02</pdfrwt>
<totfact> 0.70219242E+03</totfact>
</mgrwt>
</event>
<event>
 5    1  0.7114032E-003  0.6312194E+02  0.7546771E-02  0.1478479E+00
          2   -1    0    0  502    0  0.00000000000E+00  0.00000000000E+00  0.53858144625E+03  0.53858144625E+03  0.00000000000E+00 0. -1.
         -1   -1    0    0    0  501 -0.00000000000E+00 -0.00000000000E+00 -0.46622605575E+03  0.46622605575E+03  0.00000000000E+00 0.  1.
         25    1    1    2    0    0 -0.33516198879E+01  0.32071618783E+02 -0.19749766560E+03  0.23594522671E+03  0.12500000000E+03 0.  0.
          2    1    1    2  502    0  0.63777031527E+01 -0.63076493884E+02  0.51643925314E+03  0.52031607832E+03  0.00000000000E+00 0. -1.
         -1    1    1    2    0  501 -0.30260832648E+01  0.31004875101E+02 -0.24658619704E+03  0.24854619697E+03  0.00000000000E+00 0.  1.
<mgrwt>
<rscale>  0 0.44343964E+02</rscale>
<asrwt>0</asrwt>
<pdfrwt beam="1">  1        2 0.82858684E-01 0.63121939E+02</pdfrwt>
<pdfrwt beam="2">  1       -1 0.71727086E-01 0.31152198E+02</pdfrwt>
<totfact> 0.14505199E+02</totfact>
</mgrwt>
</event>
<event>
 5    1  0.7114032E-003  0.3416824E+02  0.7546771E-02  0.1638907E+00
         -1   -1    0    0    0  501 -0.00000000000E+00  0.00000000000E+00  0.29503041841E+02  0.29503041841E+02  0.00000000000E+00 0.  1.
          1   -1    0    0  502    0  0.00000000000E+00 -0.00000000000E+00 -0.45636487156E+03  0.45636487156E+03  0.00000000000E+00 0. -1.
         25    1    1    2    0    0 -0.35731467238E+01  0.14843025638E+02 -0.35479594748E+03  0.37648140344E+03  0.12500000000E+03 0.  0.
          1    1    1    2  502    0 -0.13063650986E+02  0.16086342945E+02 -0.71308369307E+02  0.74258419992E+02  0.00000000000E+00 0. -1.
         -1    1    1    2    0  501  0.16636797710E+02 -0.30929368583E+02 -0.75751293080E+00  0.35128089968E+02  0.00000000000E+00 0.  1.
<mgrwt>
<rscale>  0 0.26609350E+02</rscale>
<asrwt>0</asrwt>
<pdfrwt beam="2">  1        1 0.70209979E-01 0.20722679E+02</pdfrwt>
<pdfrwt beam="1">  1       -1 0.45389296E-02 0.34168243E+02</pdfrwt>
<totfact> 0.87663623E+03</totfact>
</mgrwt>
</event>
<event>
 5    1  0.7114032E-003  0.8465037E+02  0.7546771E-02  0.1360414E+00
          2   -1    0    0  501    0  0.00000000000E+00  0.00000000000E+00  0.60674703712E+03  0.60674703712E+03  0.00000000000E+00 0.  1.
          1   -1    0    0  502    0 -0.00000000000E+00 -0.00000000000E+00 -0.32875609559E+03  0.32875609559E+03  0.00000000000E+00 0. -1.
         25    1    1    2    0    0 -0.10895697787E+03  0.74201770587E+02  0.10725788697E+03  0.21096630087E+03  0.12500000000E+03 0.  0.
          2    1    1    2  501    0  0.52429472631E+02 -0.62484617690E+02  0.44084363029E+03  0.44832609049E+03  0.00000000000E+00 0.  1.
          1    1    1    2  502    0  0.56527505238E+02 -0.11717152897E+02 -0.27011057573E+03  0.27621074135E+03  0.00000000000E+00 0. -1.
<mgrwt>
<rscale>  0 0.69905583E+02</rscale>
<asrwt>0</asrwt>
<pdfrwt beam="1">  1        2 0.93345698E-01 0.84650366E+02</pdfrwt>
<pdfrwt beam="2">  1        1 0.50577861E-01 0.57729113E+02</pdfrwt>
<totfact> 0.54767493E+02</totfact>
</mgrwt>
</event>
<event>
 5    1  0.7114032E-003  0.6401180E+02  0.7546771E-02  0.1470816E+00
          1   -1    0    0  502    0  0.00000000000E+00  0.00000000000E+00  0.70867241069E+02  0.70867241069E+02  0.00000000000E+00 0.  1.
         -2   -1    0    0    0  501 -0.00000000000E+00 -0.00000000000E+00 -0.44161593894E+03  0.44161593894E+03  0.00000000000E+00 0.  1.
         25    1    1    2    0    0  0.74106975727E+02  0.40838028486E+02 -0.78746763380E+02  0.17025169945E+03  0.12500000000E+03 0.  0.
          1    1    1    2  502    0 -0.12184778937E+02 -0.30065618765E+02  0.98516378439E+01  0.33903761409E+02  0.00000000000E+00 0.  1.
         -2    1    1    2    0  501 -0.61922196790E+02 -0.10772409721E+02 -0.30185357233E+03  0.30832771915E+03  0.00000000000E+00 0.  1.
<mgrwt>
<rscale>  0 0.45569714E+02</rscale>
<asrwt>0</asrwt>
<pdfrwt beam="1">  1        1 0.10902653E-01 0.32440873E+02</pdfrwt>
<pdfrwt beam="2">  1       -2 0.67940913E-01 0.64011804E+02</pdfrwt>
<totfact> 0.91226045E+02</totfact>
</mgrwt>
</event>
<event>
 5    1  0.7114032E-003  0.1321861E+03  0.7546771E-02  0.1229008E+00
          1   -1    0    0  502    0  0.00000000000E+00  0.00000000000E+00  0.34541735778E+03  0.34541735778E+03  0.00000000000E+00 0. -1.
         -1   -1    0    0    0  501 -0.00000000000E+00 -0.00000000000E+00 -0.70249816471E+03  0.70249816471E+03  0.00000000000E+00 0.  1.
         25    1    1    2    0    0  0.41371857382E+02  0.14832314238E+03  0.79528012293E+02  0.21368455697E+03  0.12500000000E+03 0.  0.
          1    1    1    2  502    0 -0.11941817770E+03 -0.39597721263E+02  0.17086554355E+03  0.21218792300E+03  0.00000000000E+00 0. -1.
         -1    1    1    2    0  501  0.78046320321E+02 -0.10872542112E+03 -0.60747436277E+03  0.62204304251E+03  0.00000000000E+00 0.  1.
<mgrwt>
<rscale>  0 0.12895970E+03</rscale>
<asrwt>0</asrwt>
<pdfrwt beam="1">  1        1 0.53141132E-01 0.12581208E+03</pdfrwt>
<pdfrwt beam="2">  1       -1 0.10807664E+00 0.13218607E+03</pdfrwt>
<totfact> 0.65074726E+01</totfact>
</mgrwt>
</event>
<event>
 5    1  0.7114032E-003  0.9621589E+02  0.7546771E-02  0.1409886E+00
          1   -1    0    0  501    0  0.00000000000E+00  0.00000000000E+00  0.20263977569E+04  0.20263977569E+04  0.00000000000E+00 0. -1.
          1   -1    0    0  502    0 -0.00000000000E+00 -0.00000000000E+00 -0.11688539610E+03  0.11688539610E+03  0.00000000000E+00 0. -1.
         25    1    1    2    0    0  0.18824585494E+02 -0.65666951721E+02  0.48205774743E+03  0.50266408806E+03  0.12500000000E+03 0.  0.
          1    1    1    2  501    0 -0.15699242873E+02  0.99551244333E+02  0.15296196641E+04  0.15329361478E+04  0.00000000000E+00 0. -1.
          1    1    1    2  502    0 -0.31253426211E+01 -0.33884292612E+02 -0.10216505073E+03  0.10768291714E+03  0.00000000000E+00 0. -1.
<mgrwt>
<rscale>  0 0.57219279E+02</rscale>
<asrwt>0</asrwt>
<pdfrwt beam="1">  1        1 0.31175347E+00 0.96215887E+02</pdfrwt>
<pdfrwt beam="2">  1        1 0.17982370E-01 0.34028121E+02</pdfrwt>
<totfact> 0.11833912E+02</totfact>
</mgrwt>
</event>
<event>
 5    1  0.7114032E-003  0.5125982E+02  0.7546771E-02  0.1523257E+00
         -2   -1    0    0    0  501 -0.00000000000E+00  0.00000000000E+00  0.22819314123E+03  0.22819314123E+03  0.00000000000E+00 0.  1.
          1   -1    0    0  502    0  0.00000000000E+00 -0.00000000000E+00 -0.75688182326E+02  0.75688182326E+02  0.00000000000E+00 0. -1.
         25    1    1    2    0    0 -0.15585040821E+02 -0.23281690079E+02 -0.16087624326E+01  0.12811135276E+03  0.12500000000E+03 0.  0.
          1    1    1    2  502    0 -0.25329944995E+02 -0.12416866199E+02  0.71975115191E+02  0.77305898135E+02  0.00000000000E+00 0. -1.
         -2    1    1    2    0  501  0.40914985816E+02  0.35698556277E+02  0.82138606144E+02  0.98464072656E+02  0.00000000000E+00 0.  1.
<mgrwt>
<rscale>  0 0.38026593E+02</rscale>
<asrwt>0</asrwt>
<pdfrwt beam="2">  1        1 0.11644336E-01 0.28209656E+02</pdfrwt>
<pdfrwt beam="1">  1       -2 0.35106637E-01 0.51259816E+02</pdfrwt>
<totfact> 0.29779787E+03</totfact>
</mgrwt>
</event>
<event>
 5    1  0.7114032E-003  0.1335974E+03  0.7546771E-02  0.1360294E+00
          3   -1    0    0  502    0 -0.00000000000E+00  0.00000000000E+00  0.61655181031E+03  0.61655181031E+03  0.00000000000E+00 0. -1.
          2   -1    0    0  501    0  0.00000000000E+00 -0.00000000000E+00 -0.11560518672E+03  0.11560518672E+03  0.00000000000E+00 0. -1.
         25    1    1    2    0    0 -0.11093870704E+03 -0.97759066752E+02  0.19142635895E+02  0.19456534214E+03  0.12500000000E+03 0.  0.
          2    1    1    2  501    0 -0.63504795662E+01  0.36060493196E+02 -0.13011574264E+01  0.36638514857E+02  0.00000000000E+00 0. -1.
          3    1    1    2  502    0  0.11728918660E+03  0.61698573556E+02  0.48310514512E+03  0.50095314004E+03  0.00000000000E+00 0. -1.
<mgrwt>
<rscale>  0 0.69940841E+02</rscale>
<asrwt>0</asrwt>
<pdfrwt beam="2">  1        2 0.17785414E-01 0.36615403E+02</pdfrwt>
<pdfrwt beam="1">  1        3 0.94854123E-01 0.13359736E+03</pdfrwt>
<totfact> 0.18208559E+02</totfact>
</mgrwt>
</event>
<event>
 5    1  0.7114032E-003  0.5510273E+02  0.7546771E-02  0.1508602E+00
         -1   -1    0    0    0  501 -0.00000000000E+00  0.00000000000E+00  0.22827044001E+02  0.22827044001E+02  0.00000000000E+00 0.  1.
          2   -1    0    0  502    0  0.00000000000E+00 -0.00000000000E+00 -0.60217941020E+03  0.60217941020E+03  0.00000000000E+00 0. -1.
         25    1    1    2    0    0 -0.47871285225E+02 -0.26304144073E+02 -0.35841548570E+03  0.38349736418E+03  0.12500000000E+03 0.  0.
          2    1    1    2  502    0  0.57100007113E+02 -0.11457239511E+01 -0.19299194401E+03  0.20126503409E+03  0.00000000000E+00 0. -1.
         -1    1    1    2    0  501 -0.92287218886E+01  0.27449868024E+02 -0.27944936498E+02  0.40244055935E+02  0.00000000000E+00 0.  1.
<mgrwt>
<rscale>  0 0.39946951E+02</rscale>
<asrwt>0</asrwt>
<pdfrwt beam="2">  1        2 0.92642966E-01 0.55102732E+02</pdfrwt>
<pdfrwt beam="1">  1       -1 0.35118537E-02 0.28959706E+02</pdfrwt>
<totfact> 0.13646674E+04</totfact>
</mgrwt>
</event>
<event>
 5    1  0.7114032E-003  0.1240860E+03  0.7546771E-02  0.1388206E+00
          2   -1    0    0  502    0  0.00000000000E+00  0.00000000000E+00  0.20787680319E+04  0.20787680319E+04  0.00000000000E+00 0. -1.
         -2   -1    0    0    0  501 -0.00000000000E+00 -0.00000000000E+00 -0.19614781459E+02  0.19614781459E+02  0.00000000000E+00 0.  1.
         25    1    1    2    0    0 -0.36887109805E+02 -0.13329194160E+03  0.15998248896E+04  0.16106495826E+04  0.12500000000E+03 0.  0.
          2    1    1    2  502    0  0.30587824822E+02  0.10259727030E+03  0.43522904488E+03  0.44820323114E+03  0.00000000000E+00 0. -1.
         -2    1    1    2    0  501  0.62992849838E+01  0.30694671307E+02  0.24099315917E+02  0.39529999565E+02  0.00000000000E+00 0.  1.
<mgrwt>
<rscale>  0 0.62355090E+02</rscale>
<asrwt>0</asrwt>
<pdfrwt beam="1">  1        2 0.31981029E+00 0.12408595E+03</pdfrwt>
<pdfrwt beam="2">  1       -2 0.30176603E-02 0.31334387E+02</pdfrwt>
<totfact> 0.23779131E+03</totfact>
</mgrwt>
</event>
<event>
 5    1  0.7114032E-003  0.5214895E+02  0.7546771E-02  0.1508249E+00
          1   -1    0    0  502    0  0.00000000000E+00  0.00000000000E+00  0.21821829327E+04  0.21821829327E+04  0.00000000000E+00 0. -1.
         -1   -1    0    0    0  501 -0.00000000000E+00 -0.00000000000E+00 -0.74834066347E+01  0.74834066347E+01  0.00000000000E+00 0.  1.
         25    1    1    2    0    0 -0.32539341795E+02  0.25992234391E+02  0.74466296767E+03  0.75622902644E+03  0.12500000000E+03 0.  0.
          1    1    1    2  502    0  0.53797287515E+02 -0.38795903152E+01  0.12179920204E+04  0.12191856959E+04  0.00000000000E+00 0. -1.
         -1    1    1    2    0  501 -0.21257945720E+02 -0.22112644075E+02  0.21204453795E+03  0.21425161693E+03  0.00000000000E+00 0.  1.
<mgrwt>
<rscale>  0 0.39994945E+02</rscale>
<asrwt>0</asrwt>
<pdfrwt beam="1">  1        1 0.33571994E+00 0.52148948E+02</pdfrwt>
<pdfrwt beam="2">  1       -1 0.11512951E-02 0.30673593E+02</pdfrwt>
<totfact> 0.34545476E+03</totfact>
</mgrwt>
</event>
<event>
 5    1  0.7114032E-003  0.4431448E+02  0.7546771E-02  0.1519133E+00
          1   -1    0    0  502    0  0.00000000000E+00  0.00000000000E+00  0.20342849433E+03  0.20342849433E+03  0.00000000000E+00 0. -1.
         -1   -1    0    0    0  501 -0.00000000000E+00 -0.00000000000E+00 -0.66228860737E+02  0.66228860737E+02  0.00000000000E+00 0.  1.
         25    1    1    2    0    0 -0.93625969167E+01 -0.33085392464E+02  0.50420532800E+02  0.13910259359E+03  0.12500000000E+03 0.  0.
          1    1    1    2  502    0 -0.33088761408E+02  0.54938794797E+01  0.69303261918E+02  0.76993447486E+02  0.00000000000E+00 0. -1.
         -1    1    1    2    0  501  0.42451358325E+02  0.27591512984E+02  0.17475838879E+02  0.53561313995E+02  0.00000000000E+00 0.  1.
<mgrwt>
<rscale>  0 0.38553665E+02</rscale>
<asrwt>0</asrwt>
<pdfrwt beam="1">  1        1 0.31296691E-01 0.33541748E+02</pdfrwt>
<pdfrwt beam="2">  1       -1 0.10189056E-01 0.44314480E+02</pdfrwt>
<totfact> 0.72346126E+03</totfact>
</mgrwt>
</event>
<event>
 5    1  0.7114032E-003  0.7802506E+02  0.7546771E-02  0.1362490E+00
         -1   -1    0    0    0  501 -0.00000000000E+00  0.00000000000E+00  0.18397452228E+03  0.18397452228E+03  0.00000000000E+00 0.  1.
          1   -1    0    0  502    0  0.00000000000E+00 -0.00000000000E+00 -0.11597876494E+04  0.11597876494E+04  0.00000000000E+00 0. -1.
         25    1    1    2    0    0 -0.27398116837E+02 -0.12642347607E+02 -0.20870088802E+03  0.24513577140E+03  0.12500000000E+03 0.  0.
          1    1    1    2  502    0  0.41309827573E+02  0.72600139468E+02 -0.92520832340E+03  0.92897132561E+03  0.00000000000E+00 0. -1.
         -1    1    1    2    0  501 -0.13911710737E+02 -0.59957791860E+02  0.15809608429E+03  0.16965507469E+03  0.00000000000E+00 0.  1.
<mgrwt>
<rscale>  0 0.69299978E+02</rscale>
<asrwt>0</asrwt>
<pdfrwt beam="2">  1        1 0.17842886E+00 0.78025062E+02</pdfrwt>
<pdfrwt beam="1">  1       -1 0.28303773E-01 0.61550569E+02</pdfrwt>
<totfact> 0.14849697E+02</totfact>
</mgrwt>
</event>
<event>
 5    1  0.7114032E-003  0.9913970E+02  0.7546771E-02  0.1347081E+00
          1   -1    0    0  502    0  0.00000000000E+00  0.00000000000E+00  0.48197180938E+03  0.48197180938E+03  0.00000000000E+00 0. -1.
         -3   -1    0    0    0  501 -0.00000000000E+00 -0.00000000000E+00 -0.78390973329E+02  0.78390973329E+02  0.00000000000E+00 0.  1.
         25    1    1    2    0    0  0.41358030300E+02 -0.11025069803E+03  0.10325934935E+03  0.20038262478E+03  0.12500000000E+03 0.  0.
          1    1    1    2  502    0 -0.73136647089E+02  0.65122227302E+02  0.28693442057E+03  0.30318515027E+03  0.00000000000E+00 0. -1.
         -3    1    1    2    0  501  0.31778616789E+02  0.45128470727E+02  0.13387066131E+02  0.56795007657E+02  0.00000000000E+00 0.  1.
<mgrwt>
<rscale>  0 0.73972899E+02</rscale>
<asrwt>0</asrwt>
<pdfrwt beam="1">  1        1 0.74149507E-01 0.99139697E+02</pdfrwt>
<pdfrwt beam="2">  1       -3 0.12060150E-01 0.55194740E+02</pdfrwt>
<totfact> 0.12273841E+03</totfact>
</mgrwt>
</event>
<event>
 5    1  0.7114032E-003  0.1634040E+03  0.7546771E-02  0.1222773E+00
         -1   -1    0    0    0  501 -0.00000000000E+00  0.00000000000E+00  0.62076424178E+03  0.62076424178E+03  0.00000000000E+00 0.  1.
          2   -1    0    0  502    0  0.00000000000E+00 -0.00000000000E+00 -0.70781361843E+03  0.70781361843E+03  0.00000000000E+00 0. -1.
         25    1    1    2    0    0  0.27472433508E+02 -0.13334220165E+03  0.17850405319E+03  0.25695052899E+03  0.12500000000E+03 0.  0.
          2    1    1    2  502    0 -0.10069226315E+03 -0.40657505664E+02 -0.64167018021E+03  0.65079381127E+03  0.00000000000E+00 0. -1.
         -1    1    1    2    0  501  0.73219829643E+02  0.17399970732E+03  0.37611675037E+03  0.42083351995E+03  0.00000000000E+00 0.  1.
<mgrwt>
<rscale>  0 0.13320728E+03</rscale>
<asrwt>0</asrwt>
<pdfrwt beam="2">  1        2 0.10889440E+00 0.10859081E+03</pdfrwt>
<pdfrwt beam="1">  1       -1 0.95502192E-01 0.16340405E+03</pdfrwt>
<totfact> 0.55962243E+01</totfact>
</mgrwt>
</event>
<event>
 5    1  0.7114032E-003  0.1129954E+03  0.7546771E-02  0.1294683E+00
         -3   -1    0    0    0  501 -0.00000000000E+00  0.00000000000E+00  0.14843266283E+03  0.14843266283E+03  0.00000000000E+00 0.  1.
          1   -1    0    0  502    0  0.00000000000E+00 -0.00000000000E+00 -0.17002564448E+04  0.17002564448E+04  0.00000000000E+00 0. -1.
         25    1    1    2    0    0 -0.12562583860E+03 -0.12280536732E+03 -0.71654171168E+02  0.22720547927E+03  0.12500000000E+03 0.  0.
          1    1    1    2  502    0  0.53901332102E+02  0.55409394121E+02 -0.15150831246E+04  0.15170538649E+04  0.00000000000E+00 0. -1.
         -3    1    1    2    0  501  0.71724506498E+02  0.67395973198E+02  0.34913513856E+02  0.10442976341E+03  0.00000000000E+00 0.  1.
<mgrwt>
<rscale>  0 0.93459839E+02</rscale>
<asrwt>0</asrwt>
<pdfrwt beam="2">  1        1 0.26157791E+00 0.77301711E+02</pdfrwt>
<pdfrwt beam="1">  1       -3 0.22835795E-01 0.11299545E+03</pdfrwt>
<totfact> 0.55596162E+01</totfact>
</mgrwt>
</event>
<event>
 5    1  0.7114032E-003  0.1037612E+03  0.7546771E-02  0.1353871E+00
          1   -1    0    0  502    0  0.00000000000E+00  0.00000000000E+00  0.85325373334E+02  0.85325373334E+02  0.00000000000E+00 0. -1.
         -2   -1    0    0    0  501 -0.00000000000E+00 -0.00000000000E+00 -0.37518044198E+03  0.37518044198E+03  0.00000000000E+00 0.  1.
         25    1    1    2    0    0 -0.81580411056E+02  0.11308517119E+03 -0.20604591828E+03  0.27843049375E+03  0.12500000000E+03 0.  0.
          1    1    1    2  502    0  0.71231904085E+02 -0.64402540860E+02 -0.15062428594E+02  0.97203642853E+02  0.00000000000E+00 0. -1.
         -2    1    1    2    0  501  0.10348506971E+02 -0.48682630332E+02 -0.68746721771E+02  0.84871678708E+02  0.00000000000E+00 0.  1.
<mgrwt>
<rscale>  0 0.71862619E+02</rscale>
<asrwt>0</asrwt>
<pdfrwt beam="1">  1        1 0.13126981E-01 0.10376125E+03</pdfrwt>
<pdfrwt beam="2">  1       -2 0.57720067E-01 0.49770374E+02</pdfrwt>
<totfact> 0.10826871E+03</totfact>
</mgrwt>
</event>
<event>
 5    1  0.7114032E-003  0.4588836E+02  0.7546771E-02  0.1499195E+00
          2   -1    0    0  501    0  0.00000000000E+00  0.00000000000E+00  0.16844323800E+04  0.16844323800E+04  0.00000000000E+00 0. -1.
          2   -1    0    0  502    0 -0.00000000000E+00 -0.00000000000E+00 -0.16381854302E+04  0.16381854302E+04  0.00000000000E+00 0.  1.
         25    1    1    2    0    0  0.17353795587E+02 -0.37918833892E+02 -0.14432250301E+03  0.19543023579E+03  0.12500000000E+03 0.  0.
          2    1    1    2  501    0  0.27058413684E+02  0.25358885158E+02  0.16583084684E+04  0.16587230653E+04  0.00000000000E+00 0. -1.
          2    1    1    2  502    0 -0.44412209271E+02  0.12559948734E+02 -0.14677390156E+04  0.14684645091E+04  0.00000000000E+00 0.  1.
<mgrwt>
<rscale>  0 0.41252016E+02</rscale>
<asrwt>0</asrwt>
<pdfrwt beam="1">  1        2 0.25914344E+00 0.37084105E+02</pdfrwt>
<pdfrwt beam="2">  1        2 0.25202853E+00 0.45888363E+02</pdfrwt>
<totfact> 0.27666597E+01</totfact>
</mgrwt>
</event>
<event>
 5    1  0.7114032E-003  0.4968488E+02  0.7546771E-02  0.1530345E+00
         -1   -1    0    0    0  501 -0.00000000000E+00  0.00000000000E+00  0.10221155768E+02  0.10221155768E+02  0.00000000000E+00 0.  1.
          2   -1    0    0  502    0  0.00000000000E+00 -0.00000000000E+00 -0.15724778445E+04  0.15724778445E+04  0.00000000000E+00 0. -1.
         25    1    1    2    0    0  0.42788215200E+01 -0.54421688777E+02 -0.11795593004E+04  0.11874195432E+04  0.12500000000E+03 0.  0.
          2    1    1    2  502    0  0.21755700837E+02  0.44762491493E+02 -0.34438164427E+03  0.34795934831E+03  0.00000000000E+00 0. -1.
         -1    1    1    2    0  501 -0.26034522357E+02  0.96591972842E+01 -0.38315744098E+02  0.47320108752E+02  0.00000000000E+00 0.  1.
<mgrwt>
<rscale>  0 0.37144055E+02</rscale>
<asrwt>0</asrwt>
<pdfrwt beam="2">  1        2 0.24191975E+00 0.49684884E+02</pdfrwt>
<pdfrwt beam="1">  1       -1 0.15724850E-02 0.27768623E+02</pdfrwt>
<totfact> 0.11390915E+04</totfact>
</mgrwt>
</event>
<event>
 5    1  0.7114032E-003  0.9861357E+02  0.7546771E-02  0.1340454E+00
          2   -1    0    0  502    0  0.00000000000E+00  0.00000000000E+00  0.37218379340E+04  0.37218379340E+04  0.00000000000E+00 0.  1.
          2   -1    0    0  501    0 -0.00000000000E+00 -0.00000000000E+00 -0.14805446775E+03  0.14805446775E+03  0.00000000000E+00 0. -1.
         25    1    1    2    0    0  0.53185071018E+01  0.50552292122E+02  0.12712052443E+04  0.12783472117E+04  0.12500000000E+03 0.  0.
          2    1    1    2  501    0 -0.54085214141E+02 -0.83312733192E+02 -0.12701479118E+03  0.16124198919E+03  0.00000000000E+00 0. -1.
          2    1    1    2  502    0  0.48766707039E+02  0.32760441070E+02  0.24295930132E+04  0.24303032008E+04  0.00000000000E+00 0.  1.
<mgrwt>
<rscale>  0 0.76114671E+02</rscale>
<asrwt>0</asrwt>
<pdfrwt beam="1">  1        2 0.57259038E+00 0.58748942E+02</pdfrwt>
<pdfrwt beam="2">  1        2 0.22777613E-01 0.98613574E+02</pdfrwt>
<totfact> 0.34811831E+01</totfact>
</mgrwt>
</event>
<event>
 5    1  0.7114032E-003  0.7661408E+02  0.7546771E-02  0.1381491E+00
          1   -1    0    0  502    0 -0.00000000000E+00  0.00000000000E+00  0.30837207120E+03  0.30837207120E+03  0.00000000000E+00 0. -1.
          2   -1    0    0  501    0  0.00000000000E+00 -0.00000000000E+00 -0.33316434788E+03  0.33316434788E+03  0.00000000000E+00 0.  1.
         25    1    1    2    0    0 -0.11851413958E+03  0.21687035688E+02 -0.29460859939E+02  0.17609335895E+03  0.12500000000E+03 0.  0.
          2    1    1    2  501    0  0.65963071951E+02 -0.32164793397E+02 -0.22132956671E+03  0.23317906830E+03  0.00000000000E+00 0.  1.
          1    1    1    2  502    0  0.52551067631E+02  0.10477757710E+02  0.22599814996E+03  0.23226399183E+03  0.00000000000E+00 0. -1.
<mgrwt>
<rscale>  0 0.64073384E+02</rscale>
<asrwt>0</asrwt>
<pdfrwt beam="2">  1        2 0.51256053E-01 0.76614084E+02</pdfrwt>
<pdfrwt beam="1">  1        1 0.47441857E-01 0.53585428E+02</pdfrwt>
<totfact> 0.11215707E+03</totfact>
</mgrwt>
</event>
<event>
 5    1  0.7114032E-003  0.5680206E+02  0.7546771E-02  0.1461164E+00
          2   -1    0    0  502    0  0.00000000000E+00  0.00000000000E+00  0.28299311044E+04  0.28299311044E+04  0.00000000000E+00 0. -1.
         -2   -1    0    0    0  501 -0.00000000000E+00 -0.00000000000E+00 -0.21499742749E+02  0.21499742749E+02  0.00000000000E+00 0.  1.
         25    1    1    2    0    0  0.34460879978E+01 -0.77843555045E+02  0.89752886162E+03  0.90953534952E+03  0.12500000000E+03 0.  0.
          2    1    1    2  502    0  0.24452465602E+02  0.50319284949E+02  0.19005328061E+04  0.19013560688E+04  0.00000000000E+00 0. -1.
         -2    1    1    2    0  501 -0.27898553600E+02  0.27524270096E+02  0.10369694000E+02  0.40539428843E+02  0.00000000000E+00 0.  1.
<mgrwt>
<rscale>  0 0.47181727E+02</rscale>
<asrwt>0</asrwt>
<pdfrwt beam="1">  1        2 0.43537372E+00 0.56802063E+02</pdfrwt>
<pdfrwt beam="2">  1       -2 0.33076550E-02 0.39190748E+02</pdfrwt>
<totfact> 0.97370434E+02</totfact>
</mgrwt>
</event>
<event>
 5    1  0.7114032E-003  0.1319626E+03  0.7546771E-02  0.1345757E+00
          1   -1    0    0  501    0  0.00000000000E+00  0.00000000000E+00  0.11303077352E+04  0.11303077352E+04  0.00000000000E+00 0. -1.
          1   -1    0    0  502    0 -0.00000000000E+00 -0.00000000000E+00 -0.25619150184E+03  0.25619150184E+03  0.00000000000E+00 0. -1.
         25    1    1    2    0    0 -0.27844350357E+02 -0.11409370773E+03  0.50845896466E+02  0.17889378742E+03  0.12500000000E+03 0.  0.
          1    1    1    2  501    0 -0.41858613877E+02 -0.26121961441E+01  0.99089877046E+03  0.99178593477E+03  0.00000000000E+00 0. -1.
          1    1    1    2  502    0  0.69702964233E+02  0.11670590388E+03 -0.16762843359E+03  0.21581951481E+03  0.00000000000E+00 0. -1.
<mgrwt>
<rscale>  0 0.74394337E+02</rscale>
<asrwt>0</asrwt>
<pdfrwt beam="1">  1        1 0.17389349E+00 0.41940042E+02</pdfrwt>
<pdfrwt beam="2">  1        1 0.39414078E-01 0.13196261E+03</pdfrwt>
<totfact> 0.18856179E+02</totfact>
</mgrwt>
</event>
<event>
 5    1  0.7114032E-003  0.1116681E+03  0.7546771E-02  0.1341587E+00
          2   -1    0    0  501    0  0.00000000000E+00  0.00000000000E+00  0.77060662107E+03  0.77060662107E+03  0.00000000000E+00 0. -1.
          1   -1    0    0  502    0 -0.00000000000E+00 -0.00000000000E+00 -0.11508742430E+04  0.11508742430E+04  0.00000000000E+00 0. -1.
         25    1    1    2    0    0  0.10523178993E+02  0.11156448580E+03  0.82975670932E+02  0.18726273990E+03  0.12500000000E+03 0.  0.
          2    1    1    2  501    0  0.40449537089E+02 -0.10514781571E+03  0.62988626442E+03  0.63988196904E+03  0.00000000000E+00 0. -1.
          1    1    1    2  502    0 -0.50972716082E+02 -0.64166700870E+01 -0.10931295573E+04  0.10943361552E+04  0.00000000000E+00 0. -1.
<mgrwt>
<rscale>  0 0.75742663E+02</rscale>
<asrwt>0</asrwt>
<pdfrwt beam="1">  1        2 0.11855486E+00 0.11166813E+03</pdfrwt>
<pdfrwt beam="2">  1        1 0.17705758E+00 0.51375008E+02</pdfrwt>
<totfact> 0.73975915E+01</totfact>
</mgrwt>
</event>
<event>
 5    1  0.7114032E-003  0.8258306E+02  0.7546771E-02  0.1478564E+00
          2   -1    0    0  501    0  0.00000000000E+00  0.00000000000E+00  0.10789041354E+04  0.10789041354E+04  0.00000000000E+00 0. -1.
          1   -1    0    0  502    0 -0.00000000000E+00 -0.00000000000E+00 -0.18362048485E+03  0.18362048485E+03  0.00000000000E+00 0. -1.
         25    1    1    2    0    0  0.81175410448E+02 -0.61988287066E+02  0.18376769977E+02  0.16246445971E+03  0.12500000000E+03 0.  0.
          2    1    1    2  501    0 -0.22187024333E+02  0.86035864608E+01  0.97413763712E+03  0.97442825380E+03  0.00000000000E+00 0. -1.
          1    1    1    2  502    0 -0.58988386115E+02  0.53384700605E+02 -0.97230756580E+02  0.12563190670E+03  0.00000000000E+00 0. -1.
<mgrwt>
<rscale>  0 0.44330681E+02</rscale>
<asrwt>0</asrwt>
<pdfrwt beam="1">  1        2 0.16598525E+00 0.23796759E+02</pdfrwt>
<pdfrwt beam="2">  1        1 0.28249306E-01 0.82583064E+02</pdfrwt>
<totfact> 0.58940161E+02</totfact>
</mgrwt>
</event>
<event>
 5    1  0.7114032E-003  0.9220019E+02  0.7546771E-02  0.1483078E+00
         -1   -1    0    0    0  501 -0.00000000000E+00  0.00000000000E+00  0.41032446580E+03  0.41032446580E+03  0.00000000000E+00 0.  1.
          2   -1    0    0  502    0  0.00000000000E+00 -0.00000000000E+00 -0.57615040918E+02  0.57615040918E+02  0.00000000000E+00 0. -1.
         25    1    1    2    0    0  0.44551140311E+02  0.99274926631E+02  0.14444423819E+03  0.21983960768E+03  0.12500000000E+03 0.  0.
          2    1    1    2  502    0 -0.66782100601E+01 -0.19536507737E+02 -0.13141929421E+01  0.20688178442E+02  0.00000000000E+00 0. -1.
         -1    1    1    2    0  501 -0.37872930251E+02 -0.79738418894E+02  0.20957937964E+03  0.22741172059E+03  0.00000000000E+00 0.  1.
<mgrwt>
<rscale>  0 0.43630282E+02</rscale>
<asrwt>0</asrwt>
<pdfrwt beam="2">  1        2 0.88638527E-02 0.20646395E+02</pdfrwt>
<pdfrwt beam="1">  1       -1 0.63126839E-01 0.92200188E+02</pdfrwt>
<totfact> 0.18812845E+03</totfact>
</mgrwt>
</event>
<event>
 5    1  0.7114032E-003  0.5860551E+03  0.7546771E-02  0.1232446E+00
          2   -1    0    0  501    0  0.00000000000E+00  0.00000000000E+00  0.42573361975E+03  0.42573361975E+03  0.00000000000E+00 0.  1.
          1   -1    0    0  502    0 -0.00000000000E+00 -0.00000000000E+00 -0.14208460003E+04  0.14208460003E+04  0.00000000000E+00 0. -1.
         25    1    1    2    0    0 -0.38827156043E+03 -0.45698032322E+03 -0.78709043764E+03  0.99735759760E+03  0.12500000000E+03 0.  0.
          2    1    1    2  501    0  0.36088401836E+03  0.45673722435E+03  0.55073871648E+02  0.58470445368E+03  0.00000000000E+00 0.  1.
          1    1    1    2  502    0  0.27387542071E+02  0.24309886842E+00 -0.26309581458E+03  0.26451756881E+03  0.00000000000E+00 0. -1.
<mgrwt>
<rscale>  0 0.12669349E+03</rscale>
<asrwt>0</asrwt>
<pdfrwt beam="1">  1        2 0.65497479E-01 0.58605505E+03</pdfrwt>
<pdfrwt beam="2">  1        1 0.21859169E+00 0.27388621E+02</pdfrwt>
<totfact> 0.10136294E+02</totfact>
</mgrwt>
</event>
<event>
 5    1  0.7114032E-003  0.1574456E+03  0.7546771E-02  0.1233583E+00
          1   -1    0    0  502    0 -0.00000000000E+00  0.00000000000E+00  0.17021352832E+04  0.17021352832E+04  0.00000000000E+00 0. -1.
          2   -1    0    0  501    0  0.00000000000E+00 -0.00000000000E+00 -0.63164302440E+03  0.63164302440E+03  0.00000000000E+00 0.  1.
         25    1    1    2    0    0 -0.11221494683E+03 -0.19449596863E+03  0.69947278752E+03  0.74518994665E+03  0.12500000000E+03 0.  0.
          2    1    1    2  501    0  0.85748613714E+02  0.52920278213E+02 -0.59926243407E+03  0.60767495052E+03  0.00000000000E+00 0.  1.
          1    1    1    2  502    0  0.26466333117E+02  0.14157569041E+03  0.97028190534E+03  0.98091341041E+03  0.00000000000E+00 0. -1.
<mgrwt>
<rscale>  0 0.12595574E+03</rscale>
<asrwt>0</asrwt>
<pdfrwt beam="2">  1        2 0.97175851E-01 0.10076398E+03</pdfrwt>
<pdfrwt beam="1">  1        1 0.26186696E+00 0.15744561E+03</pdfrwt>
<totfact> 0.37217679E+01</totfact>
</mgrwt>
</event>
<event>
 5    1  0.7114032E-003  0.4088714E+02  0.7546771E-02  0.1575551E+00
         -1   -1    0    0    0  501 -0.00000000000E+00  0.00000000000E+00  0.69326218454E+01  0.69326218454E+01  0.00000000000E+00 0.  1.
          2   -1    0    0  502    0  0.00000000000E+00 -0.00000000000E+00 -0.20545139246E+04  0.20545139246E+04  0.00000000000E+00 0. -1.
         25    1    1    2    0    0  0.33932844085E+02  0.48001041180E+02 -0.12990281454E+04  0.13063516603E+04  0.12500000000E+03 0.  0.
          2    1    1    2  502    0 -0.31104380149E+02 -0.22892588788E+02 -0.69288823646E+03  0.69396373198E+03  0.00000000000E+00 0. -1.
         -1    1    1    2    0  501 -0.28284639362E+01 -0.25108452392E+02 -0.55664920952E+02  0.61131154204E+02  0.00000000000E+00 0.  1.
<mgrwt>
<rscale>  0 0.32141970E+02</rscale>
<asrwt>0</asrwt>
<pdfrwt beam="2">  1        2 0.31607918E+00 0.40887143E+02</pdfrwt>
<pdfrwt beam="1">  1       -1 0.10665568E-02 0.25267263E+02</pdfrwt>
<totfact> 0.11291823E+04</totfact>
</mgrwt>
</event>
<event>
 5    1  0.7114032E-003  0.7577969E+02  0.7546771E-02  0.1391305E+00
          2   -1    0    0  502    0  0.00000000000E+00  0.00000000000E+00  0.92917546034E+03  0.92917546034E+03  0.00000000000E+00 0.  1.
         -1   -1    0    0    0  501 -0.00000000000E+00 -0.00000000000E+00 -0.17616879740E+03  0.17616879740E+03  0.00000000000E+00 0.  1.
         25    1    1    2    0    0 -0.67485518212E+02 -0.72381497170E+01  0.36362708850E+03  0.39045658590E+03  0.12500000000E+03 0.  0.
          2    1    1    2  502    0  0.14639462051E+02 -0.47857350490E+02  0.54196435795E+03  0.54427015822E+03  0.00000000000E+00 0.  1.
         -1    1    1    2    0  501  0.52846056162E+02  0.55095500207E+02 -0.15258478351E+03  0.17061751362E+03  0.00000000000E+00 0.  1.
<mgrwt>
<rscale>  0 0.61583268E+02</rscale>
<asrwt>0</asrwt>
<pdfrwt beam="1">  1        2 0.14295007E+00 0.50046377E+02</pdfrwt>
<pdfrwt beam="2">  1       -1 0.27102892E-01 0.75779690E+02</pdfrwt>
<totfact> 0.42737589E+02</totfact>
</mgrwt>
</event>
<event>
 5    1  0.7114032E-003  0.2355772E+03  0.7546771E-02  0.1269181E+00
          2   -1    0    0  501    0  0.00000000000E+00  0.00000000000E+00  0.11017342969E+04  0.11017342969E+04  0.00000000000E+00 0. -1.
          1   -1    0    0  502    0 -0.00000000000E+00 -0.00000000000E+00 -0.33824136519E+03  0.33824136519E+03  0.00000000000E+00 0. -1.
         25    1    1    2    0    0 -0.10355147923E+03  0.16575366994E+03  0.49283113106E+03  0.54470607826E+03  0.12500000000E+03 0.  0.
          2    1    1    2  501    0 -0.39430238190E+02  0.25992562947E+02  0.53597756193E+03  0.53805418306E+03  0.00000000000E+00 0. -1.
          1    1    1    2  502    0  0.14298171742E+03 -0.19174623289E+03 -0.26531576130E+03  0.35721540076E+03  0.00000000000E+00 0. -1.
<mgrwt>
<rscale>  0 0.10547760E+03</rscale>
<asrwt>0</asrwt>
<pdfrwt beam="1">  1        2 0.16949758E+00 0.47226656E+02</pdfrwt>
<pdfrwt beam="2">  1        1 0.52037133E-01 0.23557720E+03</pdfrwt>
<totfact> 0.25918528E+02</totfact>
</mgrwt>
</event>
<event>
 5    1  0.7114032E-003  0.5931995E+02  0.7546771E-02  0.1464750E+00
          2   -1    0    0  502    0  0.00000000000E+00  0.00000000000E+00  0.14887888512E+04  0.14887888512E+04  0.00000000000E+00 0. -1.
          2   -1    0    0  501    0 -0.00000000000E+00 -0.00000000000E+00 -0.28290259243E+02  0.28290259243E+02  0.00000000000E+00 0.  1.
         25    1    1    2    0    0  0.39159248578E+02 -0.33630749945E+02  0.96547144690E+03  0.97489721965E+03  0.12500000000E+03 0.  0.
          2    1    1    2  501    0 -0.59942985178E+02  0.35455088646E+01  0.16518785989E+02  0.62278426407E+02  0.00000000000E+00 0.  1.
          2    1    1    2  502    0  0.20783736600E+02  0.30085241080E+02  0.47850835902E+03  0.47990346434E+03  0.00000000000E+00 0. -1.
<mgrwt>
<rscale>  0 0.46573641E+02</rscale>
<asrwt>0</asrwt>
<pdfrwt beam="1">  1        2 0.22904438E+00 0.36566179E+02</pdfrwt>
<pdfrwt beam="2">  1        2 0.43523487E-02 0.59319953E+02</pdfrwt>
<totfact> 0.41349576E+03</totfact>
</mgrwt>
</event>
<event>
 5    1  0.7114032E-003  0.3997688E+02  0.7546771E-02  0.1525656E+00
         -2   -1    0    0    0  501 -0.00000000000E+00  0.00000000000E+00  0.72968044742E+03  0.72968044742E+03  0.00000000000E+00 0.  1.
          1   -1    0    0  502    0  0.00000000000E+00 -0.00000000000E+00 -0.85162523827E+03  0.85162523827E+03  0.00000000000E+00 0. -1.
         25    1    1    2    0    0 -0.48502040336E+02  0.44817860387E+02 -0.14485812101E+03  0.20241038449E+03  0.12500000000E+03 0.  0.
          1    1    1    2  502    0  0.13742416604E+02 -0.37131284634E+02 -0.67696017149E+03  0.67811699588E+03  0.00000000000E+00 0. -1.
         -2    1    1    2    0  501  0.34759623732E+02 -0.76865757521E+01  0.69987350165E+03  0.70077830532E+03  0.00000000000E+00 0.  1.
<mgrwt>
<rscale>  0 0.37724681E+02</rscale>
<asrwt>0</asrwt>
<pdfrwt beam="2">  1        1 0.13101927E+00 0.39976879E+02</pdfrwt>
<pdfrwt beam="1">  1       -2 0.11225853E+00 0.35599366E+02</pdfrwt>
<totfact> 0.14383143E+01</totfact>
</mgrwt>
</event>
<event>
 5    1  0.7114032E-003  0.4841418E+02  0.7546771E-02  0.1464533E+00
          2   -1    0    0  502    0  0.00000000000E+00  0.00000000000E+00  0.93070692275E+03  0.93070692275E+03  0.00000000000E+00 0. -1.
         -2   -1    0    0    0  501 -0.00000000000E+00 -0.00000000000E+00 -0.41800690457E+02  0.41800690457E+02  0.00000000000E+00 0.  1.
         25    1    1    2    0    0  0.80011021661E+01 -0.68003516214E+01  0.40945323028E+03  0.42823732930E+03  0.12500000000E+03 0.  0.
          2    1    1    2  502    0 -0.43077311281E+02 -0.26570181494E+02  0.49172668487E+03  0.49432455119E+03  0.00000000000E+00 0. -1.
         -2    1    1    2    0  501  0.35076209114E+02  0.33370533116E+02 -0.12273682857E+02  0.49945732722E+02  0.00000000000E+00 0.  1.
<mgrwt>
<rscale>  0 0.46610114E+02</rscale>
<asrwt>0</asrwt>
<pdfrwt beam="1">  1        2 0.14318566E+00 0.44873271E+02</pdfrwt>
<pdfrwt beam="2">  1       -2 0.64308762E-02 0.48414181E+02</pdfrwt>
<totfact> 0.36289972E+03</totfact>
</mgrwt>
</event>
<event>
 5    1  0.7114032E-003  0.6875107E+02  0.7546771E-02  0.1392211E+00
          3   -1    0    0  502    0  0.00000000000E+00  0.00000000000E+00  0.12336393312E+04  0.12336393312E+04  0.00000000000E+00 0. -1.
         -3   -1    0    0    0  501 -0.00000000000E+00 -0.00000000000E+00 -0.34209640636E+03  0.34209640636E+03  0.00000000000E+00 0.  1.
         25    1    1    2    0    0 -0.74069933221E+02 -0.96119746287E+02  0.56538216919E+01  0.17430526766E+03  0.12500000000E+03 0.  0.
          3    1    1    2  502    0  0.48817332553E+02  0.47525838686E+02  0.11397223225E+04  0.11417568961E+04  0.00000000000E+00 0. -1.
         -3    1    1    2    0  501  0.25252600668E+02  0.48593907601E+02 -0.25383321936E+03  0.25967357383E+03  0.00000000000E+00 0.  1.
<mgrwt>
<rscale>  0 0.61360105E+02</rscale>
<asrwt>0</asrwt>
<pdfrwt beam="1">  1        3 0.18979066E+00 0.68751073E+02</pdfrwt>
<pdfrwt beam="2">  1       -3 0.52630217E-01 0.54763690E+02</pdfrwt>
<totfact> 0.15916005E+00</totfact>
</mgrwt>
</event>
<event>
 5    1  0.7114032E-003  0.5371876E+02  0.7546771E-02  0.1484763E+00
          2   -1    0    0  502    0  0.00000000000E+00  0.00000000000E+00  0.11754288660E+04  0.11754288660E+04  0.00000000000E+00 0. -1.
         -1   -1    0    0    0  501 -0.00000000000E+00 -0.00000000000E+00 -0.12093759327E+02  0.12093759327E+02  0.00000000000E+00 0.  1.
         25    1    1    2    0    0  0.11885918437E+02 -0.53139006203E+02  0.52590669179E+03  0.54329354635E+03  0.12500000000E+03 0.  0.
          2    1    1    2  502    0  0.31549496558E+02  0.15198487049E+02  0.27925390509E+03  0.28144112750E+03  0.00000000000E+00 0. -1.
         -1    1    1    2    0  501 -0.43435414995E+02  0.37940519154E+02  0.35817450982E+03  0.36278795150E+03  0.00000000000E+00 0.  1.
<mgrwt>
<rscale>  0 0.43372845E+02</rscale>
<asrwt>0</asrwt>
<pdfrwt beam="1">  1        2 0.18083512E+00 0.35019491E+02</pdfrwt>
<pdfrwt beam="2">  1       -1 0.18605793E-02 0.53718762E+02</pdfrwt>
<totfact> 0.16472295E+04</totfact>
</mgrwt>
</event>
<event>
 5    1  0.7114032E-003  0.7996436E+02  0.7546771E-02  0.1444710E+00
         -3   -1    0    0    0  501 -0.00000000000E+00  0.00000000000E+00  0.42247142870E+03  0.42247142870E+03  0.00000000000E+00 0.  1.
          2   -1    0    0  502    0  0.00000000000E+00 -0.00000000000E+00 -0.15375860820E+04  0.15375860820E+04  0.00000000000E+00 0. -1.
         25    1    1    2    0    0  0.19630639085E+02  0.52423051612E+02  0.19444138815E+03  0.23783606068E+03  0.12500000000E+03 0.  0.
          2    1    1    2  502    0 -0.45300633386E+01 -0.79965997322E+02 -0.15136283170E+04  0.15157459432E+04  0.00000000000E+00 0. -1.
         -3    1    1    2    0  501 -0.15100575747E+02  0.27542945710E+02  0.20407227559E+03  0.20647550681E+03  0.00000000000E+00 0.  1.
<mgrwt>
<rscale>  0 0.50117344E+02</rscale>
<asrwt>0</asrwt>
<pdfrwt beam="2">  1        2 0.23655171E+00 0.79964359E+02</pdfrwt>
<pdfrwt beam="1">  1       -3 0.64995604E-01 0.31410846E+02</pdfrwt>
<totfact> 0.19031706E+01</totfact>
</mgrwt>
</event>
<event>
 5    1  0.7114032E-003  0.5153294E+02  0.7546771E-02  0.1512620E+00
         -3   -1    0    0    0  501 -0.00000000000E+00  0.00000000000E+00  0.36001001460E+02  0.36001001460E+02  0.00000000000E+00 0.  1.
          1   -1    0    0  502    0  0.00000000000E+00 -0.00000000000E+00 -0.21885400584E+04  0.21885400584E+04  0.00000000000E+00 0. -1.
         25    1    1    2    0    0  0.58339636551E+02 -0.38194880384E+02 -0.40417990214E+03  0.42877588012E+03  0.12500000000E+03 0.  0.
          1    1    1    2  502    0 -0.28508587103E+02  0.42460802559E+02 -0.17619610129E+04  0.17627031146E+04  0.00000000000E+00 0. -1.
         -3    1    1    2    0  501 -0.29831049448E+02 -0.42659221753E+01  0.13601858135E+02  0.33062065088E+02  0.00000000000E+00 0.  1.
<mgrwt>
<rscale>  0 0.39407113E+02</rscale>
<asrwt>0</asrwt>
<pdfrwt beam="2">  1        1 0.33669851E+00 0.51532937E+02</pdfrwt>
<pdfrwt beam="1">  1       -3 0.55386149E-02 0.30134525E+02</pdfrwt>
<totfact> 0.24740824E+02</totfact>
</mgrwt>
</event>
<event>
 5    1  0.7114032E-003  0.4732198E+02  0.7546771E-02  0.1467891E+00
          2   -1    0    0  501    0  0.00000000000E+00  0.00000000000E+00  0.45463552692E+02  0.45463552692E+02  0.00000000000E+00 0.  1.
          2   -1    0    0  502    0 -0.00000000000E+00 -0.00000000000E+00 -0.13075775304E+04  0.13075775304E+04  0.00000000000E+00 0. -1.
         25    1    1    2    0    0 -0.53584925381E+02  0.17760545217E+02 -0.39532814340E+03  0.41844488545E+03  0.12500000000E+03 0.  0.
          2    1    1    2  501    0  0.17558148562E+02 -0.44410141888E+02  0.16234772810E+02  0.50439241981E+02  0.00000000000E+00 0.  1.
          2    1    1    2  502    0  0.36026776819E+02  0.26649596671E+02 -0.88302060714E+03  0.88415695568E+03  0.00000000000E+00 0. -1.
<mgrwt>
<rscale>  0 0.46049974E+02</rscale>
<asrwt>0</asrwt>
<pdfrwt beam="1">  1        2 0.69943940E-02 0.47321981E+02</pdfrwt>
<pdfrwt beam="2">  1        2 0.20116574E+00 0.44812160E+02</pdfrwt>
<totfact> 0.26947799E+03</totfact>
</mgrwt>
</event>
<event>
 5    1  0.7114032E-003  0.7114517E+02  0.7546771E-02  0.1416365E+00
         -3   -1    0    0    0  501 -0.00000000000E+00  0.00000000000E+00  0.27924502514E+03  0.27924502514E+03  0.00000000000E+00 0.  1.
          2   -1    0    0  502    0  0.00000000000E+00 -0.00000000000E+00 -0.13873685234E+04  0.13873685234E+04  0.00000000000E+00 0. -1.
         25    1    1    2    0    0  0.57654164485E+02  0.40516310267E+02 -0.78578188999E+03  0.79877640971E+03  0.12500000000E+03 0.  0.
          2    1    1    2  502    0 -0.25643184651E+02 -0.70353798180E+02 -0.59095611590E+03  0.59568142556E+03  0.00000000000E+00 0. -1.
         -3    1    1    2    0  501 -0.32010979834E+02  0.29837487913E+02  0.26861450767E+03  0.27215571323E+03  0.00000000000E+00 0.  1.
<mgrwt>
<rscale>  0 0.55797364E+02</rscale>
<asrwt>0</asrwt>
<pdfrwt beam="2">  1        2 0.21344131E+00 0.71145169E+02</pdfrwt>
<pdfrwt beam="1">  1       -3 0.42960773E-01 0.43760467E+02</pdfrwt>
<totfact> 0.52812422E+01</totfact>
</mgrwt>
</event>
<event>
 5    1  0.7114032E-003  0.9902738E+02  0.7546771E-02  0.1356534E+00
          2   -1    0    0  502    0  0.00000000000E+00  0.00000000000E+00  0.65877674127E+03  0.65877674127E+03  0.00000000000E+00 0. -1.
         -1   -1    0    0    0  501 -0.00000000000E+00 -0.00000000000E+00 -0.55123313338E+03  0.55123313338E+03  0.00000000000E+00 0.  1.
         25    1    1    2    0    0 -0.12671932632E+03 -0.57554257788E+02  0.49117705485E+03  0.52559507177E+03  0.12500000000E+03 0.  0.
          2    1    1    2  502    0  0.29287180548E+02  0.41737200899E+02  0.14133308550E+03  0.15024903973E+03  0.00000000000E+00 0. -1.
         -1    1    1    2    0  501  0.97432145768E+02  0.15817056889E+02 -0.52496653246E+03  0.53416576315E+03  0.00000000000E+00 0.  1.
<mgrwt>
<rscale>  0 0.71057482E+02</rscale>
<asrwt>0</asrwt>
<pdfrwt beam="1">  1        2 0.10135027E+00 0.50987576E+02</pdfrwt>
<pdfrwt beam="2">  1       -1 0.84805097E-01 0.99027375E+02</pdfrwt>
<totfact> 0.81327633E+01</totfact>
</mgrwt>
</event>
