<event>
 7    1  0.7037933E-004  0.1602340E+03  0.7546771E-02  0.1213639E+00
          2   -1    0    0  503    0  0.00000000000E+00  0.00000000000E+00  0.92770876198E+03  0.92770876198E+03  0.00000000000E+00 0. -1.
          1   -1    0    0  502    0 -0.00000000000E+00 -0.00000000000E+00 -0.32544147520E+03  0.32544147520E+03  0.00000000000E+00 0. -1.
         25    2    1    2    0    0 -0.13855484094E+03  0.15655790445E+03  0.21177470616E+02  0.24449557930E+03  0.12498712589E+03 0.  0.
          4    1    3    3  501    0 -0.13933137305E+03  0.17549760260E+03  0.15291225763E+02  0.22460648815E+03  0.12700000000E+01 0. -1.
         -4    1    3    3    0  501  0.77653210630E+00 -0.18939698148E+02  0.58862448522E+01  0.19889091144E+02  0.12700000000E+01 0. -1.
          2    1    1    2  502    0  0.15211067713E+03 -0.35395126321E+02 -0.17974411224E+03  0.23811429807E+03  0.00000000000E+00 0. -1.
          1    1    1    2  503    0 -0.13555836183E+02 -0.12116277813E+03  0.76083392840E+03  0.77054035982E+03  0.00000000000E+00 0. -1.
<mgrwt>
<rscale>  0 0.13976954E+03</rscale>
<asrwt>0</asrwt>
<pdfrwt beam="1">  1        2 0.14272442E+00 0.12191874E+03</pdfrwt>
<pdfrwt beam="2">  1        1 0.50067920E-01 0.16023397E+03</pdfrwt>
<totfact> 0.32709529E+02</totfact>
</mgrwt>
</event>
<event>
 7    1  0.7037933E-004  0.4900916E+02  0.7546771E-02  0.1578999E+00
         -1   -1    0    0    0  501 -0.00000000000E+00  0.00000000000E+00  0.30784488735E+02  0.30784488735E+02  0.00000000000E+00 0.  1.
          1   -1    0    0  503    0  0.00000000000E+00 -0.00000000000E+00 -0.11191156898E+04  0.11191156898E+04  0.00000000000E+00 0. -1.
         25    2    1    2    0    0  0.41794096661E+02 -0.47757974705E+02 -0.81557714701E+03  0.82753677108E+03  0.12499381621E+03 0.  0.
          4    1    3    3  502    0  0.29373083610E+01 -0.30809405937E+01 -0.67473090146E+03  0.67474552407E+03  0.12700000000E+01 0. -1.
         -4    1    3    3    0  502  0.38856788300E+02 -0.44677034112E+02 -0.14084624556E+03  0.15279124701E+03  0.12700000000E+01 0. -1.
          2    1    1    2  503    0 -0.23357921373E+02  0.38490745294E+02 -0.29121578479E+03  0.29467569169E+03  0.00000000000E+00 0. -1.
         -2    1    1    2    0  501 -0.18436175288E+02  0.92672294112E+01  0.18461730762E+02  0.27687715741E+02  0.00000000000E+00 0.  1.
<mgrwt>
<rscale>  0 0.31800464E+02</rscale>
<asrwt>0</asrwt>
<pdfrwt beam="2">  1        1 0.17217162E+00 0.49009164E+02</pdfrwt>
<pdfrwt beam="1">  1       -1 0.47360759E-02 0.20634294E+02</pdfrwt>
<totfact> 0.21416574E+03</totfact>
</mgrwt>
</event>
<event>
 7    1  0.7037933E-004  0.4491938E+02  0.7546771E-02  0.1490288E+00
          2   -1    0    0  503    0  0.00000000000E+00  0.00000000000E+00  0.24763846746E+03  0.24763846746E+03  0.00000000000E+00 0. -1.
          1   -1    0    0  502    0 -0.00000000000E+00 -0.00000000000E+00 -0.23848681525E+04  0.23848681525E+04  0.00000000000E+00 0. -1.
         25    2    1    2    0    0  0.77062254130E+02 -0.27718382573E+02 -0.68744195409E+02  0.16448338486E+03  0.12498847847E+03 0.  0.
          4    1    3    3  501    0  0.59892882814E+02 -0.64314425241E+02 -0.83692968488E+02  0.12136568123E+03  0.12700000000E+01 0.  1.
         -4    1    3    3    0  501  0.17169371315E+02  0.36596042668E+02  0.14948773079E+02  0.43117703636E+02  0.12700000000E+01 0.  1.
          2    1    1    2  502    0 -0.40146971310E+02  0.34282093102E+01 -0.22656292728E+04  0.22659875405E+04  0.00000000000E+00 0. -1.
          1    1    1    2  503    0 -0.36915282819E+02  0.24290173263E+02  0.19714378320E+03  0.20203569456E+03  0.00000000000E+00 0. -1.
<mgrwt>
<rscale>  0 0.42543391E+02</rscale>
<asrwt>0</asrwt>
<pdfrwt beam="1">  1        2 0.38098225E-01 0.44919384E+02</pdfrwt>
<pdfrwt beam="2">  1        1 0.36690280E+00 0.40293075E+02</pdfrwt>
<totfact> 0.44596499E+01</totfact>
</mgrwt>
</event>
<event>
 7    1  0.7037933E-004  0.3952991E+02  0.7546771E-02  0.1538880E+00
         -1   -1    0    0    0  501 -0.00000000000E+00  0.00000000000E+00  0.10031290082E+03  0.10031290082E+03  0.00000000000E+00 0.  1.
          1   -1    0    0  503    0  0.00000000000E+00 -0.00000000000E+00 -0.19845079122E+04  0.19845079122E+04  0.00000000000E+00 0. -1.
         25    2    1    2    0    0  0.28003285591E+02  0.11327556915E+02 -0.32629279293E+03  0.35072260346E+03  0.12500744104E+03 0.  0.
          4    1    3    3  502    0 -0.12660697179E+02 -0.47465591761E+02 -0.19638093860E+03  0.20243606793E+03  0.12700000000E+01 0.  1.
         -4    1    3    3    0  502  0.40663982770E+02  0.58793148676E+02 -0.12991185433E+03  0.14828653553E+03  0.12700000000E+01 0.  1.
          2    1    1    2  503    0 -0.18488003704E+02  0.27338255050E+02 -0.16413263481E+04  0.16416581153E+04  0.00000000000E+00 0. -1.
         -2    1    1    2    0  501 -0.95152818865E+01 -0.38665811966E+02  0.83424129703E+02  0.92440094229E+02  0.00000000000E+00 0.  1.
<mgrwt>
<rscale>  0 0.36119228E+02</rscale>
<asrwt>0</asrwt>
<pdfrwt beam="2">  1        1 0.30530891E+00 0.33002825E+02</pdfrwt>
<pdfrwt beam="1">  1       -1 0.15432754E-01 0.39529907E+02</pdfrwt>
<totfact> 0.12632070E+02</totfact>
</mgrwt>
</event>
<event>
 7    1  0.7037933E-004  0.2006210E+03  0.7546771E-02  0.1283294E+00
          2   -1    0    0  503    0  0.00000000000E+00  0.00000000000E+00  0.35459560852E+04  0.35459560852E+04  0.00000000000E+00 0. -1.
          1   -1    0    0  502    0 -0.00000000000E+00 -0.00000000000E+00 -0.14740360242E+03  0.14740360242E+03  0.00000000000E+00 0. -1.
         25    2    1    2    0    0 -0.14210932852E+03  0.19241028073E+03  0.61887958887E+03  0.67516940137E+03  0.12499999056E+03 0.  0.
          4    1    3    3  501    0 -0.56056385977E+02  0.10967455748E+02  0.23604531044E+03  0.24286128752E+03  0.12700000000E+01 0.  1.
         -4    1    3    3    0  501 -0.86052942547E+02  0.18144282499E+03  0.38283427843E+03  0.43230811385E+03  0.12700000000E+01 0.  1.
          2    1    1    2  502    0  0.99392959732E+01 -0.47416751242E+02 -0.11087199465E+03  0.12099478130E+03  0.00000000000E+00 0. -1.
          1    1    1    2  503    0  0.13217003255E+03 -0.14499352949E+03  0.28905448886E+04  0.28971955049E+04  0.00000000000E+00 0. -1.
<mgrwt>
<rscale>  0 0.98587728E+02</rscale>
<asrwt>0</asrwt>
<pdfrwt beam="1">  1        2 0.54553164E+00 0.20062101E+03</pdfrwt>
<pdfrwt beam="2">  1        1 0.22677480E-01 0.48447269E+02</pdfrwt>
<totfact> 0.28046481E+01</totfact>
</mgrwt>
</event>
<event>
 7    1  0.7037933E-004  0.4330093E+02  0.7546771E-02  0.1494269E+00
          1   -1    0    0  502    0 -0.00000000000E+00  0.00000000000E+00  0.11594478392E+04  0.11594478392E+04  0.00000000000E+00 0. -1.
          2   -1    0    0  503    0  0.00000000000E+00 -0.00000000000E+00 -0.90005785912E+03  0.90005785912E+03  0.00000000000E+00 0. -1.
         25    2    1    2    0    0 -0.70103750068E+02  0.44496120964E+02 -0.17284021021E+03  0.22889489160E+03  0.12499877032E+03 0.  0.
          4    1    3    3  501    0  0.21165145231E+02  0.47715017509E+02 -0.32665735797E+02  0.61590173434E+02  0.12700000000E+01 0. -1.
         -4    1    3    3    0  501 -0.91268895299E+02 -0.32188965446E+01 -0.14017447441E+03  0.16730471817E+03  0.12700000000E+01 0. -1.
          2    1    1    2  502    0  0.33876744827E+02 -0.22484411022E+02  0.11304121684E+04  0.11311431621E+04  0.00000000000E+00 0. -1.
          1    1    1    2  503    0  0.36227005241E+02 -0.22011709942E+02 -0.69818197814E+03  0.69946764463E+03  0.00000000000E+00 0. -1.
<mgrwt>
<rscale>  0 0.41959356E+02</rscale>
<asrwt>0</asrwt>
<pdfrwt beam="2">  1        2 0.13847044E+00 0.43300928E+02</pdfrwt>
<pdfrwt beam="1">  1        1 0.17837659E+00 0.40659348E+02</pdfrwt>
<totfact> 0.63912880E+01</totfact>
</mgrwt>
</event>
<event>
 7    1  0.7037933E-004  0.5943357E+02  0.7546771E-02  0.1441739E+00
          1   -1    0    0  502    0 -0.00000000000E+00  0.00000000000E+00  0.58634426559E+03  0.58634426559E+03  0.00000000000E+00 0. -1.
          2   -1    0    0  503    0  0.00000000000E+00 -0.00000000000E+00 -0.46756345521E+03  0.46756345521E+03  0.00000000000E+00 0. -1.
         25    2    1    2    0    0 -0.51761255986E+02  0.43440078275E+02  0.26863969337E+03  0.30390592606E+03  0.12500103607E+03 0.  0.
          4    1    3    3  501    0  0.76835732399E+01  0.58054833016E+02  0.21390278236E+03  0.22177784862E+03  0.12700000000E+01 0.  1.
         -4    1    3    3    0  501 -0.59444829226E+02 -0.14614754741E+02  0.54736911006E+02  0.82128077442E+02  0.12700000000E+01 0.  1.
          2    1    1    2  502    0  0.40529104136E+02  0.14970866380E+02  0.29653319780E+03  0.29966426634E+03  0.00000000000E+00 0. -1.
          3    1    1    2  503    0  0.11232151851E+02 -0.58410944655E+02 -0.44639208079E+03  0.45033752840E+03  0.00000000000E+00 0. -1.
<mgrwt>
<rscale>  0 0.50674161E+02</rscale>
<asrwt>0</asrwt>
<pdfrwt beam="2">  1        2 0.71932839E-01 0.59433566E+02</pdfrwt>
<pdfrwt beam="1">  1        1 0.90206810E-01 0.43205730E+02</pdfrwt>
<totfact> 0.35924866E+02</totfact>
</mgrwt>
</event>
<event>
 7    1  0.7037933E-004  0.4387554E+02  0.7546771E-02  0.1571410E+00
          2   -1    0    0  503    0  0.00000000000E+00  0.00000000000E+00  0.17239751978E+04  0.17239751978E+04  0.00000000000E+00 0. -1.
          1   -1    0    0  502    0 -0.00000000000E+00 -0.00000000000E+00 -0.10823800561E+02  0.10823800561E+02  0.00000000000E+00 0. -1.
         25    2    1    2    0    0 -0.45126920024E+02 -0.37392711986E+02  0.12710541997E+04  0.12785287784E+04  0.12498961872E+03 0.  0.
          4    1    3    3  501    0  0.41998100673E+02 -0.89053514750E+01  0.28440348842E+03  0.28762841110E+03  0.12700000000E+01 0.  1.
         -4    1    3    3    0  501 -0.87125020697E+02 -0.28487360511E+02  0.98665071128E+03  0.99090036729E+03  0.12700000000E+01 0.  1.
          2    1    1    2  502    0  0.41091393268E+02  0.13570719993E+02  0.63155430743E+02  0.76558967301E+02  0.00000000000E+00 0. -1.
          1    1    1    2  503    0  0.40355267561E+01  0.23821991993E+02  0.37894176677E+03  0.37971125264E+03  0.00000000000E+00 0. -1.
<mgrwt>
<rscale>  0 0.32559085E+02</rscale>
<asrwt>0</asrwt>
<pdfrwt beam="1">  1        2 0.26522674E+00 0.24161390E+02</pdfrwt>
<pdfrwt beam="2">  1        1 0.16652015E-02 0.43875538E+02</pdfrwt>
<totfact> 0.10890272E+04</totfact>
</mgrwt>
</event>
<event>
 7    1  0.7037933E-004  0.8967909E+02  0.7546771E-02  0.1306204E+00
         -2   -1    0    0    0  501 -0.00000000000E+00  0.00000000000E+00  0.74501295976E+02  0.74501295976E+02  0.00000000000E+00 0.  1.
          2   -1    0    0  503    0  0.00000000000E+00 -0.00000000000E+00 -0.79152348514E+03  0.79152348514E+03  0.00000000000E+00 0. -1.
         25    2    1    2    0    0  0.23035616939E+02 -0.46171075620E+02 -0.22711405388E+03  0.26432446581E+03  0.12499688750E+03 0.  0.
          4    1    3    3  502    0  0.18538155946E+02 -0.48277321614E+02 -0.24257835149E+03  0.24803272470E+03  0.12700000000E+01 0.  1.
         -4    1    3    3    0  502  0.44974609931E+01  0.21062459940E+01  0.15464297617E+02  0.16291741109E+02  0.12700000000E+01 0.  1.
          1    1    1    2  503    0 -0.83179162743E+02 -0.33519627971E+02 -0.49371010634E+03  0.50178880784E+03  0.00000000000E+00 0. -1.
         -1    1    1    2    0  501  0.60143545804E+02  0.79690703591E+02  0.38019710496E+01  0.99911507468E+02  0.00000000000E+00 0.  1.
<mgrwt>
<rscale>  0 0.88629803E+02</rscale>
<asrwt>0</asrwt>
<pdfrwt beam="2">  1        2 0.12177284E+00 0.89679087E+02</pdfrwt>
<pdfrwt beam="1">  1       -2 0.11461738E-01 0.87592796E+02</pdfrwt>
<totfact> 0.18747481E+03</totfact>
</mgrwt>
</event>
<event>
 7    1  0.7037933E-004  0.3234048E+03  0.7546771E-02  0.1266768E+00
         -2   -1    0    0    0  501 -0.00000000000E+00  0.00000000000E+00  0.44046089095E+03  0.44046089095E+03  0.00000000000E+00 0.  1.
          2   -1    0    0  503    0  0.00000000000E+00 -0.00000000000E+00 -0.17575671895E+04  0.17575671895E+04  0.00000000000E+00 0. -1.
         25    2    1    2    0    0 -0.33716364376E+03 -0.90481664690E+02 -0.36011313763E+03  0.51688798197E+03  0.12500183874E+03 0.  0.
          4    1    3    3  502    0 -0.10462984879E+03  0.16353450267E+02 -0.16070308226E+03  0.19246281236E+03  0.12700000000E+01 0. -1.
         -4    1    3    3    0  502 -0.23253379497E+03 -0.10683511496E+03 -0.19941005537E+03  0.32442516961E+03  0.12700000000E+01 0. -1.
          3    1    1    2  503    0  0.33889864213E+02 -0.95742491878E+01 -0.12483518395E+04  0.12488484713E+04  0.00000000000E+00 0. -1.
         -1    1    1    2    0  501  0.30327377955E+03  0.10005591388E+03  0.29135867862E+03  0.43229162711E+03  0.00000000000E+00 0.  1.
<mgrwt>
<rscale>  0 0.10671984E+03</rscale>
<asrwt>0</asrwt>
<pdfrwt beam="2">  1        2 0.27039495E+00 0.35216319E+02</pdfrwt>
<pdfrwt beam="1">  1       -2 0.67763214E-01 0.32340476E+03</pdfrwt>
<totfact> 0.25144661E+01</totfact>
</mgrwt>
</event>
<event>
 7    1  0.7037933E-004  0.1378657E+03  0.7546771E-02  0.1408659E+00
         -2   -1    0    0    0  501 -0.00000000000E+00  0.00000000000E+00  0.17067521105E+03  0.17067521105E+03  0.00000000000E+00 0.  1.
          2   -1    0    0  503    0  0.00000000000E+00 -0.00000000000E+00 -0.15311523971E+04  0.15311523971E+04  0.00000000000E+00 0. -1.
         25    2    1    2    0    0  0.85735818266E+02  0.76478376832E+02  0.16811179503E+02  0.17060748392E+03  0.12499890062E+03 0.  0.
          4    1    3    3  502    0  0.49149661934E+01 -0.32768551955E+02 -0.29022867545E+01  0.33286199217E+02  0.12700000000E+01 0.  1.
         -4    1    3    3    0  502  0.80820852073E+02  0.10924692879E+03  0.19713466258E+02  0.13732128470E+03  0.12700000000E+01 0.  1.
          1    1    1    2  503    0 -0.10564886805E+03 -0.89833496281E+02 -0.14489924050E+04  0.14556135236E+04  0.00000000000E+00 0. -1.
         -1    1    1    2    0  501  0.19913049783E+02  0.13355119449E+02  0.71704039504E+02  0.75606600560E+02  0.00000000000E+00 0.  1.
<mgrwt>
<rscale>  0 0.57494212E+02</rscale>
<asrwt>0</asrwt>
<pdfrwt beam="2">  1        2 0.23556191E+00 0.13786573E+03</pdfrwt>
<pdfrwt beam="1">  1       -2 0.26257725E-01 0.23976838E+02</pdfrwt>
<totfact> 0.16861372E+02</totfact>
</mgrwt>
</event>
<event>
 7    1  0.7037933E-004  0.1462372E+03  0.7546771E-02  0.1332874E+00
          2   -1    0    0  503    0  0.00000000000E+00  0.00000000000E+00  0.33791683462E+03  0.33791683462E+03  0.00000000000E+00 0. -1.
          1   -1    0    0  502    0 -0.00000000000E+00 -0.00000000000E+00 -0.60196364749E+03  0.60196364749E+03  0.00000000000E+00 0. -1.
         25    2    1    2    0    0 -0.76544750377E+02  0.90396549458E+02  0.10190690528E+02  0.17250994566E+03  0.12500078486E+03 0.  0.
          4    1    3    3  501    0 -0.70338821197E+02  0.28195100416E+01  0.38509790811E+02  0.80250335156E+02  0.12700000000E+01 0.  1.
         -4    1    3    3    0  501 -0.62059291800E+01  0.87577039416E+02 -0.28319100284E+02  0.92259610506E+02  0.12700000000E+01 0.  1.
          2    1    1    2  502    0 -0.40962457815E+02  0.10630341234E+02 -0.49546381628E+03  0.49726785573E+03  0.00000000000E+00 0. -1.
          1    1    1    2  503    0  0.11750720819E+03 -0.10102689069E+03  0.22122631288E+03  0.27010268072E+03  0.00000000000E+00 0. -1.
<mgrwt>
<rscale>  0 0.78668055E+02</rscale>
<asrwt>0</asrwt>
<pdfrwt beam="1">  1        2 0.51987205E-01 0.14623720E+03</pdfrwt>
<pdfrwt beam="2">  1        1 0.92609792E-01 0.42319347E+02</pdfrwt>
<totfact> 0.48759114E+02</totfact>
</mgrwt>
</event>
<event>
 7    1  0.7037933E-004  0.1021204E+03  0.7546771E-02  0.1371255E+00
         -2   -1    0    0    0  501 -0.00000000000E+00  0.00000000000E+00  0.85940466664E+03  0.85940466664E+03  0.00000000000E+00 0.  1.
          2   -1    0    0  503    0  0.00000000000E+00 -0.00000000000E+00 -0.19029562269E+04  0.19029562269E+04  0.00000000000E+00 0. -1.
         25    2    1    2    0    0 -0.12788608502E+03 -0.55010426093E+02 -0.60635644332E+03  0.63456535527E+03  0.12499622405E+03 0.  0.
          4    1    3    3  502    0 -0.51309219214E+02  0.37796086517E+02 -0.26716378854E+03  0.27466212505E+03  0.12700000000E+01 0.  1.
         -4    1    3    3    0  502 -0.76576865804E+02 -0.92806512610E+02 -0.33919265478E+03  0.35990323021E+03  0.12700000000E+01 0.  1.
          1    1    1    2  503    0  0.84745376202E+02  0.47907967064E+02 -0.12800805553E+04  0.12837769200E+04  0.00000000000E+00 0. -1.
         -1    1    1    2    0  501  0.43140708816E+02  0.71024590289E+01  0.84288543843E+03  0.84401861828E+03  0.00000000000E+00 0.  1.
<mgrwt>
<rscale>  0 0.66819547E+02</rscale>
<asrwt>0</asrwt>
<pdfrwt beam="2">  1        2 0.29276249E+00 0.10212038E+03</pdfrwt>
<pdfrwt beam="1">  1       -2 0.13221610E+00 0.43721456E+02</pdfrwt>
<totfact> 0.44094686E+00</totfact>
</mgrwt>
</event>
<event>
 7    1  0.7037933E-004  0.1367753E+03  0.7546771E-02  0.1239236E+00
          1   -1    0    0  502    0 -0.00000000000E+00  0.00000000000E+00  0.16043443409E+03  0.16043443409E+03  0.00000000000E+00 0. -1.
          2   -1    0    0  503    0  0.00000000000E+00 -0.00000000000E+00 -0.14409955407E+04  0.14409955407E+04  0.00000000000E+00 0. -1.
         25    2    1    2    0    0  0.27370391368E+02 -0.37271523898E+02 -0.38133554531E+02  0.13865345290E+03  0.12502922539E+03 0.  0.
          4    1    3    3  501    0  0.72278324123E+02 -0.45628199941E+02 -0.12900246199E+02  0.86452981555E+02  0.12700000000E+01 0. -1.
         -4    1    3    3    0  501 -0.44907932754E+02  0.83566760433E+01 -0.25233308332E+02  0.52200471340E+02  0.12700000000E+01 0. -1.
          2    1    1    2  502    0  0.32390449647E+02  0.16030051889E+03  0.43794573667E+02  0.16930257608E+03  0.00000000000E+00 0. -1.
          1    1    1    2  503    0 -0.59760841015E+02 -0.12302899500E+03 -0.12862221257E+04  0.12934739458E+04  0.00000000000E+00 0. -1.
<mgrwt>
<rscale>  0 0.12237092E+03</rscale>
<asrwt>0</asrwt>
<pdfrwt beam="2">  1        2 0.22169162E+00 0.13677533E+03</pdfrwt>
<pdfrwt beam="1">  1        1 0.24682221E-01 0.10948349E+03</pdfrwt>
<totfact> 0.40146096E+02</totfact>
</mgrwt>
</event>
<event>
 7    1  0.7037933E-004  0.2488074E+03  0.7546771E-02  0.1167668E+00
          2   -1    0    0  503    0  0.00000000000E+00  0.00000000000E+00  0.78333829134E+03  0.78333829134E+03  0.00000000000E+00 0. -1.
          1   -1    0    0  502    0 -0.00000000000E+00 -0.00000000000E+00 -0.12921190273E+04  0.12921190273E+04  0.00000000000E+00 0. -1.
         25    2    1    2    0    0 -0.11526393442E+03 -0.16566315136E+03 -0.12926041087E+03  0.27030301759E+03  0.12500165280E+03 0.  0.
          4    1    3    3  501    0 -0.76267020918E+02 -0.14902362097E+02 -0.66920711629E+02  0.10256087666E+03  0.12700000000E+01 0.  1.
         -4    1    3    3    0  501 -0.38996913500E+02 -0.15076078927E+03 -0.62339699245E+02  0.16774214093E+03  0.12700000000E+01 0.  1.
          2    1    1    2  502    0  0.28295520814E+02  0.26285777159E+03 -0.10701471861E+04  0.11023202096E+04  0.00000000000E+00 0. -1.
          3    1    1    2  503    0  0.86968413604E+02 -0.97194620224E+02  0.69062686093E+03  0.70283409153E+03  0.00000000000E+00 0. -1.
<mgrwt>
<rscale>  0 0.18013979E+03</rscale>
<asrwt>0</asrwt>
<pdfrwt beam="1">  1        2 0.12051358E+00 0.13042354E+03</pdfrwt>
<pdfrwt beam="2">  1        1 0.19878754E+00 0.24880743E+03</pdfrwt>
<totfact> 0.51229629E+01</totfact>
</mgrwt>
</event>
<event>
 7    1  0.7037933E-004  0.4037820E+02  0.7546771E-02  0.1535885E+00
         -1   -1    0    0    0  501 -0.00000000000E+00  0.00000000000E+00  0.75245910088E+01  0.75245910088E+01  0.00000000000E+00 0.  1.
          1   -1    0    0  503    0  0.00000000000E+00 -0.00000000000E+00 -0.17029648966E+04  0.17029648966E+04  0.00000000000E+00 0. -1.
         25    2    1    2    0    0  0.21922189220E+02  0.23971560840E+02 -0.91098545624E+03  0.92009495203E+03  0.12500000461E+03 0.  0.
          4    1    3    3  502    0 -0.45152543789E+02  0.17936448668E+02 -0.19568683549E+03  0.20163188955E+03  0.12700000000E+01 0.  1.
         -4    1    3    3    0  502  0.67074733009E+02  0.60351121719E+01 -0.71529862076E+03  0.71846306248E+03  0.12700000000E+01 0.  1.
          2    1    1    2  503    0  0.27635329321E+02 -0.17940221114E+02 -0.13264919946E+03  0.13667981957E+03  0.00000000000E+00 0. -1.
         -2    1    1    2    0  501 -0.49557518541E+02 -0.60313397265E+01 -0.65180564992E+03  0.65371471604E+03  0.00000000000E+00 0.  1.
<mgrwt>
<rscale>  0 0.36474321E+02</rscale>
<asrwt>0</asrwt>
<pdfrwt beam="2">  1        1 0.26199433E+00 0.32947882E+02</pdfrwt>
<pdfrwt beam="1">  1       -1 0.11576306E-02 0.40378198E+02</pdfrwt>
<totfact> 0.75315112E+03</totfact>
</mgrwt>
</event>
<event>
 7    1  0.7037933E-004  0.6427694E+02  0.7546771E-02  0.1494043E+00
          2   -1    0    0  503    0  0.00000000000E+00  0.00000000000E+00  0.25707382393E+04  0.25707382393E+04  0.00000000000E+00 0. -1.
         -2   -1    0    0    0  501 -0.00000000000E+00 -0.00000000000E+00 -0.65518611756E+01  0.65518611756E+01  0.00000000000E+00 0.  1.
         25    2    1    2    0    0 -0.53579454964E+02  0.24075293771E+02  0.19370483311E+04  0.19419664768E+04  0.12500872985E+03 0.  0.
          4    1    3    3  502    0 -0.34972384689E+02 -0.29756052584E+02  0.26528331242E+03  0.26923101438E+03  0.12700000000E+01 0.  1.
         -4    1    3    3    0  502 -0.18607070275E+02  0.53831346355E+02  0.16717650186E+04  0.16727354625E+04  0.12700000000E+01 0.  1.
          3    1    1    2  503    0  0.72223227955E+02 -0.39505076110E+01  0.50420596204E+03  0.50936769953E+03  0.00000000000E+00 0. -1.
         -3    1    1    2    0  501 -0.18643772991E+02 -0.20124786160E+02  0.12293208501E+03  0.12595592409E+03  0.00000000000E+00 0.  1.
<mgrwt>
<rscale>  0 0.41992164E+02</rscale>
<asrwt>0</asrwt>
<pdfrwt beam="1">  1        2 0.39549739E+00 0.64276940E+02</pdfrwt>
<pdfrwt beam="2">  1       -2 0.10079807E-02 0.27433507E+02</pdfrwt>
<totfact> 0.64026930E+03</totfact>
</mgrwt>
</event>
<event>
 7    1  0.7037933E-004  0.7402566E+02  0.7546771E-02  0.1421387E+00
          1   -1    0    0  502    0 -0.00000000000E+00  0.00000000000E+00  0.57069226479E+03  0.57069226479E+03  0.00000000000E+00 0. -1.
          2   -1    0    0  503    0  0.00000000000E+00 -0.00000000000E+00 -0.18968273105E+04  0.18968273105E+04  0.00000000000E+00 0. -1.
         25    2    1    2    0    0  0.92147592805E+01  0.88725859349E+02 -0.59231187982E+02  0.16459309722E+03  0.12500145645E+03 0.  0.
          4    1    3    3  501    0  0.19247908792E+02 -0.21266674139E+02 -0.44781640093E+02  0.53195503675E+02  0.12700000000E+01 0.  1.
         -4    1    3    3    0  501 -0.10033149512E+02  0.10999253349E+03 -0.14449547889E+02  0.11139759354E+03  0.12700000000E+01 0.  1.
          2    1    1    2  502    0 -0.39807818055E+02 -0.62245155945E+02  0.51514584334E+03  0.52041748792E+03  0.00000000000E+00 0. -1.
          1    1    1    2  503    0  0.30593058774E+02 -0.26480703404E+02 -0.17820497011E+04  0.17825089901E+04  0.00000000000E+00 0. -1.
<mgrwt>
<rscale>  0 0.54728573E+02</rscale>
<asrwt>0</asrwt>
<pdfrwt beam="2">  1        2 0.29181959E+00 0.40461870E+02</pdfrwt>
<pdfrwt beam="1">  1        1 0.87798810E-01 0.74025662E+02</pdfrwt>
<totfact> 0.55232442E+01</totfact>
</mgrwt>
</event>
<event>
 7    1  0.7037933E-004  0.2598144E+03  0.7546771E-02  0.1198187E+00
          2   -1    0    0  503    0  0.00000000000E+00  0.00000000000E+00  0.21473210230E+04  0.21473210230E+04  0.00000000000E+00 0. -1.
          1   -1    0    0  502    0 -0.00000000000E+00 -0.00000000000E+00 -0.50971328252E+03  0.50971328252E+03  0.00000000000E+00 0. -1.
         25    2    1    2    0    0  0.15830988988E+03 -0.74871840114E+02  0.13061057333E+04  0.13237087472E+04  0.12499938814E+03 0.  0.
          4    1    3    3  501    0  0.65445938313E+02 -0.99003698998E+02  0.76734656830E+03  0.77647103747E+03  0.12700000000E+01 0. -1.
         -4    1    3    3    0  501  0.92863951566E+02  0.24131858884E+02  0.53875916501E+03  0.54723770968E+03  0.12700000000E+01 0. -1.
          2    1    1    2  502    0 -0.24547994181E+03  0.91701412695E+02 -0.46400036914E+03  0.53288450295E+03  0.00000000000E+00 0. -1.
          3    1    1    2  503    0  0.87170051935E+02 -0.16829572581E+02  0.79550237629E+03  0.80044105538E+03  0.00000000000E+00 0. -1.
<mgrwt>
<rscale>  0 0.15187583E+03</rscale>
<asrwt>0</asrwt>
<pdfrwt beam="1">  1        2 0.33035708E+00 0.88779798E+02</pdfrwt>
<pdfrwt beam="2">  1        1 0.78417429E-01 0.25981438E+03</pdfrwt>
<totfact> 0.42557960E+01</totfact>
</mgrwt>
</event>
<event>
 7    1  0.7037933E-004  0.9157194E+02  0.7546771E-02  0.1313418E+00
          2   -1    0    0  503    0  0.00000000000E+00  0.00000000000E+00  0.31337467716E+03  0.31337467716E+03  0.00000000000E+00 0. -1.
          1   -1    0    0  502    0 -0.00000000000E+00 -0.00000000000E+00 -0.75891425650E+03  0.75891425650E+03  0.00000000000E+00 0. -1.
         25    2    1    2    0    0  0.48254170048E+01 -0.51325637799E+01 -0.14574842233E+03  0.19213907239E+03  0.12500077067E+03 0.  0.
          4    1    3    3  501    0 -0.57410424769E+02 -0.19912007452E+02 -0.62963197565E+02  0.87512410894E+02  0.12700000000E+01 0.  1.
         -4    1    3    3    0  501  0.62235841774E+02  0.14779443672E+02 -0.82785224761E+02  0.10462666149E+03  0.12700000000E+01 0.  1.
          2    1    1    2  502    0 -0.80377955976E+02 -0.46609428814E+02 -0.57894855176E+03  0.58635695634E+03  0.00000000000E+00 0. -1.
          1    1    1    2  503    0  0.75552538971E+02  0.51741992594E+02  0.27915739475E+03  0.29379290493E+03  0.00000000000E+00 0. -1.
<mgrwt>
<rscale>  0 0.85775144E+02</rscale>
<asrwt>0</asrwt>
<pdfrwt beam="1">  1        2 0.48211489E-01 0.91571939E+02</pdfrwt>
<pdfrwt beam="2">  1        1 0.11675604E+00 0.80345305E+02</pdfrwt>
<totfact> 0.37462446E+02</totfact>
</mgrwt>
</event>
<event>
 7    1  0.7037933E-004  0.5934085E+02  0.7546771E-02  0.1523426E+00
          2   -1    0    0  503    0  0.00000000000E+00  0.00000000000E+00  0.61971628774E+03  0.61971628774E+03  0.00000000000E+00 0. -1.
          1   -1    0    0  502    0 -0.00000000000E+00 -0.00000000000E+00 -0.49604090216E+03  0.49604090216E+03  0.00000000000E+00 0. -1.
         25    2    1    2    0    0  0.83346228505E+02 -0.26859113511E+01 -0.17957476205E+03  0.23414918936E+03  0.12499975914E+03 0.  0.
          4    1    3    3  501    0  0.66293876938E+02 -0.29188468563E+02 -0.25382365413E+02  0.76764068355E+02  0.12700000000E+01 0. -1.
         -4    1    3    3    0  501  0.17052351568E+02  0.26502557212E+02 -0.15419239663E+03  0.15738512100E+03  0.12700000000E+01 0. -1.
          2    1    1    2  502    0 -0.24177082020E+02  0.28173141682E+01 -0.28718541577E+03  0.28821507869E+03  0.00000000000E+00 0. -1.
          1    1    1    2  503    0 -0.59169146485E+02 -0.13140281707E+00  0.59043556341E+03  0.59339292185E+03  0.00000000000E+00 0. -1.
<mgrwt>
<rscale>  0 0.38005215E+02</rscale>
<asrwt>0</asrwt>
<pdfrwt beam="1">  1        2 0.95340968E-01 0.59340846E+02</pdfrwt>
<pdfrwt beam="2">  1        1 0.76313985E-01 0.24340677E+02</pdfrwt>
<totfact> 0.33165015E+02</totfact>
</mgrwt>
</event>
<event>
 7    1  0.7037933E-004  0.7998238E+02  0.7546771E-02  0.1338769E+00
          1   -1    0    0  502    0 -0.00000000000E+00  0.00000000000E+00  0.22712606830E+03  0.22712606830E+03  0.00000000000E+00 0. -1.
          2   -1    0    0  503    0  0.00000000000E+00 -0.00000000000E+00 -0.12171151811E+04  0.12171151811E+04  0.00000000000E+00 0. -1.
         25    2    1    2    0    0 -0.86993756233E+02  0.24515279282E+02  0.11769499467E+03  0.19402558436E+03  0.12499961230E+03 0.  0.
          4    1    3    3  501    0 -0.81551489186E+02  0.54598538166E+02  0.32320828762E+02  0.10333389875E+03  0.12700000000E+01 0. -1.
         -4    1    3    3    0  501 -0.54422670463E+01 -0.30083258884E+02  0.85374165906E+02  0.90691685616E+02  0.12700000000E+01 0. -1.
          2    1    1    2  502    0  0.71669218838E+02  0.47368468439E+02  0.43771430374E+02  0.96416735311E+02  0.00000000000E+00 0. -1.
          1    1    1    2  503    0  0.15324537395E+02 -0.71883747720E+02 -0.11514555378E+04  0.11537989297E+04  0.00000000000E+00 0. -1.
<mgrwt>
<rscale>  0 0.76672235E+02</rscale>
<asrwt>0</asrwt>
<pdfrwt beam="2">  1        2 0.18724849E+00 0.73499079E+02</pdfrwt>
<pdfrwt beam="1">  1        1 0.34942472E-01 0.79982384E+02</pdfrwt>
<totfact> 0.35699001E+02</totfact>
</mgrwt>
</event>
<event>
 7    1  0.7037933E-004  0.1372288E+03  0.7546771E-02  0.1324190E+00
          1   -1    0    0  502    0 -0.00000000000E+00  0.00000000000E+00  0.10245693212E+03  0.10245693212E+03  0.00000000000E+00 0. -1.
          2   -1    0    0  503    0  0.00000000000E+00 -0.00000000000E+00 -0.13768649325E+04  0.13768649325E+04  0.00000000000E+00 0. -1.
         25    2    1    2    0    0  0.62899549868E+02 -0.10616180736E+03 -0.41733903376E+02  0.18053855809E+03  0.12500307817E+03 0.  0.
          4    1    3    3  501    0 -0.21607149653E+01  0.63071786270E+01 -0.49886135401E+02  0.50345690944E+02  0.12700000000E+01 0.  1.
         -4    1    3    3    0  501  0.65060264833E+02 -0.11246898598E+03  0.81522320252E+01  0.13019286715E+03  0.12700000000E+01 0.  1.
          2    1    1    2  502    0 -0.10801928986E+03  0.12445238019E+03 -0.17644219416E+03  0.24142992730E+03  0.00000000000E+00 0. -1.
          1    1    1    2  503    0  0.45119739990E+02 -0.18290572828E+02 -0.10562319028E+04  0.10573533792E+04  0.00000000000E+00 0. -1.
<mgrwt>
<rscale>  0 0.81738209E+02</rscale>
<asrwt>0</asrwt>
<pdfrwt beam="2">  1        2 0.21182537E+00 0.48686096E+02</pdfrwt>
<pdfrwt beam="1">  1        1 0.15762605E-01 0.13722880E+03</pdfrwt>
<totfact> 0.83465323E+02</totfact>
</mgrwt>
</event>
<event>
 7    1  0.7037933E-004  0.1155486E+03  0.7546771E-02  0.1348883E+00
         -2   -1    0    0    0  501 -0.00000000000E+00  0.00000000000E+00  0.11879515593E+04  0.11879515593E+04  0.00000000000E+00 0.  1.
          2   -1    0    0  503    0  0.00000000000E+00 -0.00000000000E+00 -0.25069421968E+02  0.25069421968E+02  0.00000000000E+00 0. -1.
         25    2    1    2    0    0  0.13214592118E+03 -0.71212770218E+01  0.52694588175E+03  0.55750253609E+03  0.12499543346E+03 0.  0.
          4    1    3    3  502    0  0.14625009056E+03 -0.14997806017E+02  0.34743992417E+03  0.37726666561E+03  0.12700000000E+01 0. -1.
         -4    1    3    3    0  502 -0.14104169373E+02  0.78765289949E+01  0.17950595758E+03  0.18023587048E+03  0.12700000000E+01 0. -1.
          1    1    1    2  503    0 -0.27066382133E+02  0.37973193634E+02  0.25154276580E+03  0.25582868390E+03  0.00000000000E+00 0. -1.
         -1    1    1    2    0  501 -0.10507953905E+03 -0.30851916612E+02  0.38439348977E+03  0.39968976127E+03  0.00000000000E+00 0.  1.
<mgrwt>
<rscale>  0 0.73404848E+02</rscale>
<asrwt>0</asrwt>
<pdfrwt beam="2">  1        2 0.38568351E-02 0.46632097E+02</pdfrwt>
<pdfrwt beam="1">  1       -2 0.18276173E+00 0.11554856E+03</pdfrwt>
<totfact> 0.36791942E+02</totfact>
</mgrwt>
</event>
<event>
 7    1  0.7037933E-004  0.5797679E+02  0.7546771E-02  0.1520831E+00
         -1   -1    0    0    0  501 -0.00000000000E+00  0.00000000000E+00  0.47934506465E+02  0.47934506465E+02  0.00000000000E+00 0.  1.
          1   -1    0    0  503    0  0.00000000000E+00 -0.00000000000E+00 -0.53375841198E+03  0.53375841198E+03  0.00000000000E+00 0. -1.
         25    2    1    2    0    0 -0.16293862074E+01 -0.62490473359E+02 -0.12496867912E+03  0.18747994425E+03  0.12499537821E+03 0.  0.
          4    1    3    3  502    0  0.48226932878E+02 -0.15261160448E+01 -0.11954578649E+02  0.49726159470E+02  0.12700000000E+01 0.  1.
         -4    1    3    3    0  502 -0.49856319085E+02 -0.60964357314E+02 -0.11301410047E+03  0.13775378478E+03  0.12700000000E+01 0.  1.
          2    1    1    2  503    0  0.24883423629E+02  0.52401855725E+02 -0.36406924382E+03  0.36866184173E+03  0.00000000000E+00 0. -1.
         -2    1    1    2    0  501 -0.23254037421E+02  0.10088617634E+02  0.32140174252E+01  0.25551132464E+02  0.00000000000E+00 0.  1.
<mgrwt>
<rscale>  0 0.38335445E+02</rscale>
<asrwt>0</asrwt>
<pdfrwt beam="2">  1        1 0.82116676E-01 0.57976788E+02</pdfrwt>
<pdfrwt beam="1">  1       -1 0.73745397E-02 0.25348185E+02</pdfrwt>
<totfact> 0.34290527E+03</totfact>
</mgrwt>
</event>
<event>
 7    1  0.7037933E-004  0.8314155E+02  0.7546771E-02  0.1493189E+00
         -1   -1    0    0    0  501 -0.00000000000E+00  0.00000000000E+00  0.55594376681E+02  0.55594376681E+02  0.00000000000E+00 0.  1.
          1   -1    0    0  503    0  0.00000000000E+00 -0.00000000000E+00 -0.15777475959E+04  0.15777475959E+04  0.00000000000E+00 0. -1.
         25    2    1    2    0    0 -0.66314589086E+00  0.93263117902E+02 -0.12206636792E+03  0.19804977293E+03  0.12500026183E+03 0.  0.
          4    1    3    3  502    0  0.39919821607E+02  0.91622565729E+02 -0.12160753331E+03  0.15741121868E+03  0.12700000000E+01 0.  1.
         -4    1    3    3    0  502 -0.40582967498E+02  0.16405521728E+01 -0.45883460908E+00  0.40638554251E+02  0.12700000000E+01 0.  1.
          2    1    1    2  503    0  0.13805696373E+02 -0.16265893833E+02 -0.13305279440E+04  0.13306989841E+04  0.00000000000E+00 0. -1.
         -2    1    1    2    0  501 -0.13142550482E+02 -0.76997224068E+02 -0.69558907228E+02  0.10459321547E+03  0.00000000000E+00 0.  1.
<mgrwt>
<rscale>  0 0.42116670E+02</rscale>
<asrwt>0</asrwt>
<pdfrwt beam="2">  1        1 0.24273041E+00 0.21334867E+02</pdfrwt>
<pdfrwt beam="1">  1       -1 0.85529807E-02 0.83141550E+02</pdfrwt>
<totfact> 0.59748470E+02</totfact>
</mgrwt>
</event>
<event>
 7    1  0.7037933E-004  0.6230592E+02  0.7546771E-02  0.1466675E+00
          1   -1    0    0  502    0 -0.00000000000E+00  0.00000000000E+00  0.96033308174E+03  0.96033308174E+03  0.00000000000E+00 0. -1.
          2   -1    0    0  503    0  0.00000000000E+00 -0.00000000000E+00 -0.14990585804E+03  0.14990585804E+03  0.00000000000E+00 0. -1.
         25    2    1    2    0    0 -0.53600351702E+02 -0.74466905152E+02  0.31394074394E+03  0.35014758285E+03  0.12500488552E+03 0.  0.
          4    1    3    3  501    0 -0.42557055739E+02 -0.94535837825E+02  0.30998836237E+03  0.32686774899E+03  0.12700000000E+01 0. -1.
         -4    1    3    3    0  501 -0.11043295963E+02  0.20068932674E+02  0.39523815736E+01  0.23279833859E+02  0.12700000000E+01 0. -1.
          2    1    1    2  502    0  0.43182389638E+02  0.41751459512E+02  0.62458742739E+03  0.62746900927E+03  0.00000000000E+00 0. -1.
          1    1    1    2  503    0  0.10417962064E+02  0.32715445640E+02 -0.12810094763E+03  0.13262234767E+03  0.00000000000E+00 0. -1.
<mgrwt>
<rscale>  0 0.46251717E+02</rscale>
<asrwt>0</asrwt>
<pdfrwt beam="2">  1        2 0.23062440E-01 0.34334157E+02</pdfrwt>
<pdfrwt beam="1">  1        1 0.14774355E+00 0.62305924E+02</pdfrwt>
<totfact> 0.56151520E+02</totfact>
</mgrwt>
</event>
<event>
 7    1  0.7037933E-004  0.2026924E+03  0.7546771E-02  0.1226680E+00
          1   -1    0    0  502    0 -0.00000000000E+00  0.00000000000E+00  0.55156761038E+03  0.55156761038E+03  0.00000000000E+00 0. -1.
          2   -1    0    0  503    0  0.00000000000E+00 -0.00000000000E+00 -0.26697244684E+04  0.26697244684E+04  0.00000000000E+00 0. -1.
         25    2    1    2    0    0 -0.99815668834E+02  0.85497197511E+02 -0.81984594087E+02  0.19905496223E+03  0.12501386240E+03 0.  0.
          4    1    3    3  501    0  0.27581333800E+02  0.24504208581E+00 -0.74454463288E+01  0.28597859900E+02  0.12700000000E+01 0. -1.
         -4    1    3    3    0  501 -0.12739700263E+03  0.85252155425E+02 -0.74539147759E+02  0.17045710233E+03  0.12700000000E+01 0. -1.
          2    1    1    2  502    0  0.17260431146E+03 -0.12752558478E+03  0.46894123918E+03  0.51571397975E+03  0.00000000000E+00 0. -1.
          1    1    1    2  503    0 -0.72788642631E+02  0.42028387267E+02 -0.25051135031E+04  0.25065231368E+04  0.00000000000E+00 0. -1.
<mgrwt>
<rscale>  0 0.13052393E+03</rscale>
<asrwt>0</asrwt>
<pdfrwt beam="2">  1        2 0.41072684E+00 0.84051007E+02</pdfrwt>
<pdfrwt beam="1">  1        1 0.84856557E-01 0.20269235E+03</pdfrwt>
<totfact> 0.20790227E+01</totfact>
</mgrwt>
</event>
<event>
 7    1  0.7037933E-004  0.8712661E+02  0.7546771E-02  0.1434174E+00
         -2   -1    0    0    0  501 -0.00000000000E+00  0.00000000000E+00  0.59932651125E+03  0.59932651125E+03  0.00000000000E+00 0.  1.
          2   -1    0    0  503    0  0.00000000000E+00 -0.00000000000E+00 -0.48838322141E+03  0.48838322141E+03  0.00000000000E+00 0. -1.
         25    2    1    2    0    0  0.34767330487E+02  0.46909883292E+02  0.38918034363E+00  0.13796026274E+03  0.12499431273E+03 0.  0.
          4    1    3    3  502    0 -0.15092090347E+02 -0.34444202758E+02  0.16672414649E+02  0.41155274327E+02  0.12700000000E+01 0. -1.
         -4    1    3    3    0  502  0.49859420834E+02  0.81354086051E+02 -0.16283234305E+02  0.96804988417E+02  0.12700000000E+01 0. -1.
          1    1    1    2  503    0  0.25070799229E+02  0.18558084446E+02 -0.41529909141E+03  0.41646882573E+03  0.00000000000E+00 0. -1.
         -1    1    1    2    0  501 -0.59838129716E+02 -0.65467967738E+02  0.52585320090E+03  0.53328064419E+03  0.00000000000E+00 0.  1.
<mgrwt>
<rscale>  0 0.52131205E+02</rscale>
<asrwt>0</asrwt>
<pdfrwt beam="2">  1        2 0.75135880E-01 0.31192106E+02</pdfrwt>
<pdfrwt beam="1">  1       -2 0.92204079E-01 0.87126611E+02</pdfrwt>
<totfact> 0.70739651E+01</totfact>
</mgrwt>
</event>
<event>
 7    1  0.7037933E-004  0.3255274E+02  0.7546771E-02  0.1620550E+00
          2   -1    0    0  503    0  0.00000000000E+00  0.00000000000E+00  0.38434413259E+03  0.38434413259E+03  0.00000000000E+00 0. -1.
         -2   -1    0    0    0  501 -0.00000000000E+00 -0.00000000000E+00 -0.82198237056E+02  0.82198237056E+02  0.00000000000E+00 0.  1.
         25    2    1    2    0    0 -0.77386283830E-01  0.36330881665E+02  0.16160630734E+03  0.20751255960E+03  0.12499969947E+03 0.  0.
          4    1    3    3  502    0  0.41079693336E+02  0.21559873423E+02  0.15677536549E+03  0.16350075679E+03  0.12700000000E+01 0.  1.
         -4    1    3    3    0  502 -0.41157079620E+02  0.14771008241E+02  0.48309418535E+01  0.44011802809E+02  0.12700000000E+01 0.  1.
          1    1    1    2  503    0  0.21391770395E+02 -0.24888666538E+02  0.19589190228E+03  0.19862198000E+03  0.00000000000E+00 0. -1.
         -1    1    1    2    0  501 -0.21314384111E+02 -0.11442215126E+02 -0.55352314081E+02  0.60407830048E+02  0.00000000000E+00 0.  1.
<mgrwt>
<rscale>  0 0.28062407E+02</rscale>
<asrwt>0</asrwt>
<pdfrwt beam="1">  1        2 0.59129866E-01 0.32552742E+02</pdfrwt>
<pdfrwt beam="2">  1       -2 0.12645883E-01 0.24191471E+02</pdfrwt>
<totfact> 0.32530823E+03</totfact>
</mgrwt>
</event>
<event>
 7    1  0.7037933E-004  0.6344189E+02  0.7546771E-02  0.1414190E+00
          1   -1    0    0  502    0 -0.00000000000E+00  0.00000000000E+00  0.21476148222E+04  0.21476148222E+04  0.00000000000E+00 0. -1.
          2   -1    0    0  503    0  0.00000000000E+00 -0.00000000000E+00 -0.19924869126E+04  0.19924869126E+04  0.00000000000E+00 0. -1.
         25    2    1    2    0    0 -0.84486229481E+02 -0.53504682380E+02  0.34772123110E+02  0.16381583726E+03  0.12500341588E+03 0.  0.
          4    1    3    3  501    0 -0.16527632813E+02  0.40549023544E+02  0.56094020573E+01  0.44164060595E+02  0.12700000000E+01 0. -1.
         -4    1    3    3    0  501 -0.67958596669E+02 -0.94053705924E+02  0.29162721053E+02  0.11965177666E+03  0.12700000000E+01 0. -1.
          2    1    1    2  502    0  0.49905045336E+02  0.48855885828E+00  0.20474971504E+04  0.20481053033E+04  0.00000000000E+00 0. -1.
          1    1    1    2  503    0  0.34581184145E+02  0.53016123521E+02 -0.19271413639E+04  0.19281805942E+04  0.00000000000E+00 0. -1.
<mgrwt>
<rscale>  0 0.56269192E+02</rscale>
<asrwt>0</asrwt>
<pdfrwt beam="2">  1        2 0.30653645E+00 0.63441888E+02</pdfrwt>
<pdfrwt beam="1">  1        1 0.33040228E+00 0.49907437E+02</pdfrwt>
<totfact> 0.40575770E+00</totfact>
</mgrwt>
</event>
<event>
 7    1  0.7037933E-004  0.2324340E+03  0.7546771E-02  0.1215918E+00
          2   -1    0    0  503    0  0.00000000000E+00  0.00000000000E+00  0.72453065993E+03  0.72453065993E+03  0.00000000000E+00 0. -1.
          1   -1    0    0  502    0 -0.00000000000E+00 -0.00000000000E+00 -0.10248239641E+04  0.10248239641E+04  0.00000000000E+00 0. -1.
         25    2    1    2    0    0  0.21368917762E+03 -0.20109963803E+03 -0.35367635391E+03  0.47625276712E+03  0.12500242328E+03 0.  0.
          4    1    3    3  501    0  0.21421748092E+03 -0.18387256253E+03 -0.26941083285E+03  0.39023333807E+03  0.12700000000E+01 0.  1.
         -4    1    3    3    0  501 -0.52830330219E+00 -0.17227075507E+02 -0.84265521066E+02  0.86019429057E+02  0.12700000000E+01 0.  1.
          2    1    1    2  502    0 -0.14351030988E+03  0.15860153263E+03 -0.58841319690E+03  0.62608285832E+03  0.00000000000E+00 0. -1.
          1    1    1    2  503    0 -0.70178867738E+02  0.42498105405E+02  0.64179624660E+03  0.64701899863E+03  0.00000000000E+00 0. -1.
<mgrwt>
<rscale>  0 0.13809323E+03</rscale>
<asrwt>0</asrwt>
<pdfrwt beam="1">  1        2 0.11146626E+00 0.82043662E+02</pdfrwt>
<pdfrwt beam="2">  1        1 0.15766523E+00 0.23243403E+03</pdfrwt>
<totfact> 0.88803019E+01</totfact>
</mgrwt>
</event>
<event>
 7    1  0.7037933E-004  0.5930110E+02  0.7546771E-02  0.1415865E+00
         -2   -1    0    0    0  501 -0.00000000000E+00  0.00000000000E+00  0.86977274243E+02  0.86977274243E+02  0.00000000000E+00 0.  1.
          2   -1    0    0  503    0  0.00000000000E+00 -0.00000000000E+00 -0.78966624945E+03  0.78966624945E+03  0.00000000000E+00 0. -1.
         25    2    1    2    0    0 -0.66158199139E+02 -0.23434400583E+02 -0.17790699670E+03  0.22848051429E+03  0.12500546985E+03 0.  0.
          4    1    3    3  502    0 -0.53220293352E+02  0.45593005700E+01 -0.59330019416E+01  0.53758722625E+02  0.12700000000E+01 0. -1.
         -4    1    3    3    0  502 -0.12937905787E+02 -0.27993701153E+02 -0.17197399476E+03  0.17472179167E+03  0.12700000000E+01 0. -1.
          1    1    1    2  503    0  0.12890594543E+02  0.51103399002E+02 -0.57036306883E+03  0.57279294261E+03  0.00000000000E+00 0. -1.
         -1    1    1    2    0  501  0.53267604596E+02 -0.27668998419E+02  0.45581090324E+02  0.75370066791E+02  0.00000000000E+00 0.  1.
<mgrwt>
<rscale>  0 0.55905390E+02</rscale>
<asrwt>0</asrwt>
<pdfrwt beam="2">  1        2 0.12148712E+00 0.52704125E+02</pdfrwt>
<pdfrwt beam="1">  1       -2 0.13381118E-01 0.59301100E+02</pdfrwt>
<totfact> 0.14652730E+03</totfact>
</mgrwt>
</event>
<event>
 7    1  0.7037933E-004  0.1104546E+03  0.7546771E-02  0.1327235E+00
          1   -1    0    0  502    0 -0.00000000000E+00  0.00000000000E+00  0.73272703419E+03  0.73272703419E+03  0.00000000000E+00 0. -1.
          2   -1    0    0  503    0  0.00000000000E+00 -0.00000000000E+00 -0.11189292397E+04  0.11189292397E+04  0.00000000000E+00 0. -1.
         25    2    1    2    0    0 -0.67577537793E+02 -0.47841374720E+01 -0.34075448645E+03  0.36923046380E+03  0.12501161455E+03 0.  0.
          4    1    3    3  501    0 -0.99002949029E+02 -0.28095080903E+02 -0.23994285447E+03  0.26108447636E+03  0.12700000000E+01 0.  1.
         -4    1    3    3    0  501  0.31425411236E+02  0.23310943431E+02 -0.10081163198E+03  0.10814598743E+03  0.12700000000E+01 0.  1.
          2    1    1    2  502    0 -0.57182674492E+02 -0.14028121602E+02  0.71205616263E+03  0.71448626663E+03  0.00000000000E+00 0. -1.
          1    1    1    2  503    0  0.12476021228E+03  0.18812259074E+02 -0.75750388174E+03  0.76793954352E+03  0.00000000000E+00 0. -1.
<mgrwt>
<rscale>  0 0.80643485E+02</rscale>
<asrwt>0</asrwt>
<pdfrwt beam="2">  1        2 0.17214296E+00 0.11045460E+03</pdfrwt>
<pdfrwt beam="1">  1        1 0.11272724E+00 0.58878234E+02</pdfrwt>
<totfact> 0.90687641E+01</totfact>
</mgrwt>
</event>
<event>
 7    1  0.7037933E-004  0.5667632E+02  0.7546771E-02  0.1449844E+00
         -2   -1    0    0    0  501  0.00000000000E+00  0.00000000000E+00  0.20358665039E+03  0.20358665039E+03  0.00000000000E+00 0.  1.
         -1   -1    0    0    0  502 -0.00000000000E+00 -0.00000000000E+00 -0.16555690192E+03  0.16555690192E+03  0.00000000000E+00 0.  1.
         25    2    1    2    0    0 -0.65547984289E+02  0.33391935111E+02  0.46164466780E+02  0.15220872089E+03  0.12499910859E+03 0.  0.
          4    1    3    3  503    0  0.14759523353E+02 -0.10651633673E+02 -0.28630600265E+02  0.33950331384E+02  0.12700000000E+01 0. -1.
         -4    1    3    3    0  503 -0.80307507642E+02  0.44043568784E+02  0.74795067045E+02  0.11825838951E+03  0.12700000000E+01 0. -1.
         -2    1    1    2    0  502  0.39529575752E+02  0.16056441085E+02 -0.10038850394E+03  0.10907909233E+03  0.00000000000E+00 0.  1.
         -1    1    1    2    0  501  0.26018408537E+02 -0.49448376196E+02  0.92253785629E+02  0.10785573909E+03  0.00000000000E+00 0.  1.
<mgrwt>
<rscale>  0 0.49174769E+02</rscale>
<asrwt>0</asrwt>
<pdfrwt beam="1">  1       -2 0.31321023E-01 0.56676320E+02</pdfrwt>
<pdfrwt beam="2">  1       -1 0.25470293E-01 0.42666107E+02</pdfrwt>
<totfact> 0.87464209E+02</totfact>
</mgrwt>
</event>
<event>
 7    1  0.7037933E-004  0.1019042E+03  0.7546771E-02  0.1284404E+00
          2   -1    0    0  503    0  0.00000000000E+00  0.00000000000E+00  0.28272781329E+03  0.28272781329E+03  0.00000000000E+00 0. -1.
          1   -1    0    0  502    0 -0.00000000000E+00 -0.00000000000E+00 -0.25453098507E+03  0.25453098507E+03  0.00000000000E+00 0. -1.
         25    2    1    2    0    0 -0.21625791746E+02 -0.99081428602E+02 -0.49166047929E+02  0.16829870859E+03  0.12498940228E+03 0.  0.
          4    1    3    3  501    0 -0.33020041235E+02 -0.10387569544E+02 -0.68537131802E+02  0.76793072993E+02  0.12700000000E+01 0.  1.
         -4    1    3    3    0  501  0.11394249490E+02 -0.88693859058E+02  0.19371083873E+02  0.91505635600E+02  0.12700000000E+01 0.  1.
          2    1    1    2  502    0 -0.76037641048E+02  0.55914653826E+02 -0.11510714847E+03  0.14885505365E+03  0.00000000000E+00 0. -1.
          1    1    1    2  503    0  0.97663432794E+02  0.43166774776E+02  0.19247002461E+03  0.22010503612E+03  0.00000000000E+00 0. -1.
<mgrwt>
<rscale>  0 0.98071559E+02</rscale>
<asrwt>0</asrwt>
<pdfrwt beam="1">  1        2 0.43496587E-01 0.10190415E+03</pdfrwt>
<pdfrwt beam="2">  1        1 0.39158613E-01 0.94383110E+02</pdfrwt>
<totfact> 0.16865521E+03</totfact>
</mgrwt>
</event>
<event>
 7    1  0.7037933E-004  0.2044532E+03  0.7546771E-02  0.1217960E+00
          3   -1    0    0  502    0 -0.00000000000E+00  0.00000000000E+00  0.63465415148E+03  0.63465415148E+03  0.00000000000E+00 0. -1.
          2   -1    0    0  503    0  0.00000000000E+00 -0.00000000000E+00 -0.10243946991E+04  0.10243946991E+04  0.00000000000E+00 0. -1.
         25    2    1    2    0    0 -0.25235634538E+03 -0.11971496810E+03 -0.39308031557E+02  0.30852117345E+03  0.12499917792E+03 0.  0.
          4    1    3    3  501    0  0.39093782186E+01 -0.78760920330E+01  0.20716461718E+02  0.22541090255E+02  0.12700000000E+01 0.  1.
         -4    1    3    3    0  501 -0.25626572360E+03 -0.11183887607E+03 -0.60024493275E+02  0.28598008320E+03  0.12700000000E+01 0.  1.
          2    1    1    2  502    0  0.18885976247E+03  0.54134445041E+02  0.47814637723E+03  0.51693568853E+03  0.00000000000E+00 0. -1.
          1    1    1    2  503    0  0.63496582913E+02  0.65580523058E+02 -0.82857889328E+03  0.83359198858E+03  0.00000000000E+00 0. -1.
<mgrwt>
<rscale>  0 0.13661309E+03</rscale>
<asrwt>0</asrwt>
<pdfrwt beam="2">  1        2 0.15759918E+00 0.91283191E+02</pdfrwt>
<pdfrwt beam="1">  1        3 0.97639102E-01 0.20445316E+03</pdfrwt>
<totfact> 0.15877453E+01</totfact>
</mgrwt>
</event>
<event>
 7    1  0.7037933E-004  0.1927388E+03  0.7546771E-02  0.1234324E+00
         -2   -1    0    0    0  501 -0.00000000000E+00  0.00000000000E+00  0.12303049981E+03  0.12303049981E+03  0.00000000000E+00 0.  1.
          2   -1    0    0  503    0  0.00000000000E+00 -0.00000000000E+00 -0.24970422375E+04  0.24970422375E+04  0.00000000000E+00 0. -1.
         25    2    1    2    0    0 -0.75367064335E+02  0.14785095512E+03 -0.49476423510E+03  0.53662482946E+03  0.12503783403E+03 0.  0.
          4    1    3    3  502    0  0.10124217799E+02  0.11416653032E+03 -0.30367511299E+03  0.32458694302E+03  0.12700000000E+01 0. -1.
         -4    1    3    3    0  502 -0.85491282134E+02  0.33684424805E+02 -0.19108912211E+03  0.21203788644E+03  0.12700000000E+01 0. -1.
          1    1    1    2  503    0 -0.79072168967E+02 -0.20512602204E+02 -0.18814964769E+04  0.18832690109E+04  0.00000000000E+00 0. -1.
         -1    1    1    2    0  501  0.15443923330E+03 -0.12733835292E+03  0.22489743012E+01  0.20017889697E+03  0.00000000000E+00 0.  1.
<mgrwt>
<rscale>  0 0.12547803E+03</rscale>
<asrwt>0</asrwt>
<pdfrwt beam="2">  1        2 0.38416037E+00 0.81689502E+02</pdfrwt>
<pdfrwt beam="1">  1       -2 0.18927768E-01 0.19273878E+03</pdfrwt>
<totfact> 0.10820466E+02</totfact>
</mgrwt>
</event>
<event>
 7    1  0.7037933E-004  0.8476412E+02  0.7546771E-02  0.1429620E+00
          2   -1    0    0  503    0  0.00000000000E+00  0.00000000000E+00  0.37102233376E+03  0.37102233376E+03  0.00000000000E+00 0. -1.
          1   -1    0    0  502    0 -0.00000000000E+00 -0.00000000000E+00 -0.90256525375E+02  0.90256525375E+02  0.00000000000E+00 0. -1.
         25    2    1    2    0    0 -0.89598440175E+02  0.32158308195E+02  0.18403587814E+03  0.24198451196E+03  0.12500104926E+03 0.  0.
          4    1    3    3  501    0 -0.98311720174E+02 -0.20719504776E+02  0.96344345176E+02  0.13920609882E+03  0.12700000000E+01 0. -1.
         -4    1    3    3    0  501  0.87132799984E+01  0.52877812972E+02  0.87691532965E+02  0.10277841314E+03  0.12700000000E+01 0. -1.
          2    1    1    2  502    0  0.84006114597E+02  0.55157047702E+00 -0.29298362222E+02  0.88970363315E+02  0.00000000000E+00 0. -1.
          1    1    1    2  503    0  0.55923255788E+01 -0.32709878672E+02  0.12602829247E+03  0.13032398387E+03  0.00000000000E+00 0. -1.
<mgrwt>
<rscale>  0 0.53036347E+02</rscale>
<asrwt>0</asrwt>
<pdfrwt beam="1">  1        2 0.57080358E-01 0.33184488E+02</pdfrwt>
<pdfrwt beam="2">  1        1 0.13885619E-01 0.84764125E+02</pdfrwt>
<totfact> 0.45919563E+03</totfact>
</mgrwt>
</event>
<event>
 7    1  0.7037933E-004  0.5699066E+02  0.7546771E-02  0.1459260E+00
          2   -1    0    0  503    0  0.00000000000E+00  0.00000000000E+00  0.21401195864E+04  0.21401195864E+04  0.00000000000E+00 0. -1.
         -2   -1    0    0    0  501 -0.00000000000E+00 -0.00000000000E+00 -0.24659541765E+02  0.24659541765E+02  0.00000000000E+00 0.  1.
         25    2    1    2    0    0  0.20403396569E+02  0.15412975636E+02  0.99930054107E+03  0.10074117752E+04  0.12499222010E+03 0.  0.
          4    1    3    3  502    0 -0.24835336231E+02 -0.29453867438E+02  0.71578761334E+03  0.71682483533E+03  0.12700000000E+01 0.  1.
         -4    1    3    3    0  502  0.45238732800E+02  0.44866843074E+02  0.28351292773E+03  0.29058693990E+03  0.12700000000E+01 0.  1.
          1    1    1    2  503    0 -0.58180432817E+02 -0.27305370821E+02  0.11159126519E+04  0.11177618676E+04  0.00000000000E+00 0. -1.
         -1    1    1    2    0  501  0.37777036248E+02  0.11892395184E+02  0.24685166537E+00  0.39605485310E+02  0.00000000000E+00 0.  1.
<mgrwt>
<rscale>  0 0.47508936E+02</rscale>
<asrwt>0</asrwt>
<pdfrwt beam="1">  1        2 0.32924902E+00 0.56990662E+02</pdfrwt>
<pdfrwt beam="2">  1       -2 0.37937774E-02 0.39604716E+02</pdfrwt>
<totfact> 0.18144878E+03</totfact>
</mgrwt>
</event>
<event>
 7    1  0.7037933E-004  0.1348439E+03  0.7546771E-02  0.1279495E+00
          1   -1    0    0  502    0 -0.00000000000E+00  0.00000000000E+00  0.17632576175E+04  0.17632576175E+04  0.00000000000E+00 0. -1.
          2   -1    0    0  503    0  0.00000000000E+00 -0.00000000000E+00 -0.20614961675E+04  0.20614961675E+04  0.00000000000E+00 0. -1.
         25    2    1    2    0    0 -0.47797732256E+02  0.19166490675E+03 -0.69001759980E+03  0.72853928096E+03  0.12500054477E+03 0.  0.
          4    1    3    3  501    0 -0.59167715284E+02  0.73449100253E+02 -0.46106422080E+03  0.47061387300E+03  0.12700000000E+01 0.  1.
         -4    1    3    3    0  501  0.11369983027E+02  0.11821580650E+03 -0.22895337900E+03  0.25792540797E+03  0.12700000000E+01 0.  1.
          2    1    1    2  502    0  0.21830077960E+01 -0.74695553593E+02  0.17402790194E+04  0.17418826759E+04  0.00000000000E+00 0. -1.
          1    1    1    2  503    0  0.45614724460E+02 -0.11696935316E+03 -0.13484999696E+04  0.13543318281E+04  0.00000000000E+00 0. -1.
<mgrwt>
<rscale>  0 0.10038196E+03</rscale>
<asrwt>0</asrwt>
<pdfrwt beam="2">  1        2 0.31715326E+00 0.13484386E+03</pdfrwt>
<pdfrwt beam="1">  1        1 0.27127040E+00 0.74727446E+02</pdfrwt>
<totfact> 0.56476726E+00</totfact>
</mgrwt>
</event>
<event>
 7    1  0.7037933E-004  0.1320537E+03  0.7546771E-02  0.1287831E+00
          1   -1    0    0  502    0 -0.00000000000E+00  0.00000000000E+00  0.13517840147E+04  0.13517840147E+04  0.00000000000E+00 0. -1.
          2   -1    0    0  503    0  0.00000000000E+00 -0.00000000000E+00 -0.99752418785E+03  0.99752418785E+03  0.00000000000E+00 0. -1.
         25    2    1    2    0    0 -0.17499967843E+03 -0.87390633823E+02  0.33371892458E+03  0.40651583595E+03  0.12499917569E+03 0.  0.
          4    1    3    3  501    0 -0.14006454482E+03 -0.11228102784E+03  0.21392913831E+03  0.27927118549E+03  0.12700000000E+01 0. -1.
         -4    1    3    3    0  501 -0.34935133613E+02  0.24890394019E+02  0.11978978627E+03  0.12724465045E+03  0.12700000000E+01 0. -1.
          2    1    1    2  502    0  0.11182973645E+03  0.56043475474E+02  0.97637766070E+03  0.98435770806E+03  0.00000000000E+00 0. -1.
          1    1    1    2  503    0  0.63169941977E+02  0.31347158349E+02 -0.95583675844E+03  0.95843465854E+03  0.00000000000E+00 0. -1.
<mgrwt>
<rscale>  0 0.96501001E+02</rscale>
<asrwt>0</asrwt>
<pdfrwt beam="2">  1        2 0.15346526E+00 0.70520110E+02</pdfrwt>
<pdfrwt beam="1">  1        1 0.20796677E+00 0.13205372E+03</pdfrwt>
<totfact> 0.37050366E+01</totfact>
</mgrwt>
</event>
<event>
 7    1  0.7037933E-004  0.6911843E+02  0.7546771E-02  0.1401944E+00
          1   -1    0    0  503    0  0.00000000000E+00  0.00000000000E+00  0.31229058841E+02  0.31229058841E+02  0.00000000000E+00 0. -1.
         -1   -1    0    0    0  501 -0.00000000000E+00 -0.00000000000E+00 -0.78664737109E+03  0.78664737109E+03  0.00000000000E+00 0.  1.
         25    2    1    2    0    0  0.78598576635E+02 -0.78358661102E+02 -0.40050069489E+03  0.43398986993E+03  0.12501433750E+03 0.  0.
          4    1    3    3  502    0  0.95908808932E+01 -0.14167538134E+01  0.79886319361E+01  0.12626295097E+02  0.12700000000E+01 0. -1.
         -4    1    3    3    0  502  0.69007695741E+02 -0.76941907289E+02 -0.40848932683E+03  0.42136357484E+03  0.12700000000E+01 0. -1.
          2    1    1    2  503    0 -0.29780103999E+02  0.40680459424E+02 -0.44011391432E+02  0.66923515665E+02  0.00000000000E+00 0. -1.
         -2    1    1    2    0  501 -0.48818472635E+02  0.37678201678E+02 -0.31090622593E+03  0.31696304433E+03  0.00000000000E+00 0.  1.
<mgrwt>
<rscale>  0 0.59031026E+02</rscale>
<asrwt>0</asrwt>
<pdfrwt beam="1">  1        1 0.48044708E-02 0.50415815E+02</pdfrwt>
<pdfrwt beam="2">  1       -1 0.12102267E+00 0.69118432E+02</pdfrwt>
<totfact> 0.10531670E+03</totfact>
</mgrwt>
</event>
<event>
 7    1  0.7037933E-004  0.7265676E+02  0.7546771E-02  0.1412523E+00
         -2   -1    0    0    0  501 -0.00000000000E+00  0.00000000000E+00  0.58716180070E+03  0.58716180070E+03  0.00000000000E+00 0.  1.
          2   -1    0    0  503    0  0.00000000000E+00 -0.00000000000E+00 -0.14830326815E+03  0.14830326815E+03  0.00000000000E+00 0. -1.
         25    2    1    2    0    0  0.40935984617E+02 -0.20409673144E+02 -0.24404026582E+02  0.13532466701E+03  0.12499959757E+03 0.  0.
          4    1    3    3  502    0  0.74670177497E+02  0.17562016405E+02  0.45368641932E+01  0.76852168898E+02  0.12700000000E+01 0. -1.
         -4    1    3    3    0  502 -0.33734192880E+02 -0.37971689549E+02 -0.28940890775E+02  0.58472498111E+02  0.12700000000E+01 0. -1.
          1    1    1    2  503    0  0.32193790436E+02  0.30205838740E+02 -0.58443592148E+02  0.73242653555E+02  0.00000000000E+00 0. -1.
         -1    1    1    2    0  501 -0.73129775052E+02 -0.97961655965E+01  0.52170615128E+03  0.52689774828E+03  0.00000000000E+00 0.  1.
<mgrwt>
<rscale>  0 0.56634577E+02</rscale>
<asrwt>0</asrwt>
<pdfrwt beam="2">  1        2 0.22815888E-01 0.44145587E+02</pdfrwt>
<pdfrwt beam="1">  1       -2 0.90332583E-01 0.72656760E+02</pdfrwt>
<totfact> 0.25337526E+02</totfact>
</mgrwt>
</event>
<event>
 7    1  0.7037933E-004  0.1684602E+03  0.7546771E-02  0.1291595E+00
          2   -1    0    0  503    0  0.00000000000E+00  0.00000000000E+00  0.24272199943E+04  0.24272199943E+04  0.00000000000E+00 0. -1.
          1   -1    0    0  502    0 -0.00000000000E+00 -0.00000000000E+00 -0.53334913689E+03  0.53334913689E+03  0.00000000000E+00 0. -1.
         25    2    1    2    0    0  0.31574298435E+02  0.21014936625E+03 -0.40121593726E+02  0.24979379348E+03  0.12501001769E+03 0.  0.
          4    1    3    3  501    0  0.61181666427E+02  0.10361566374E+03 -0.64538875194E+02  0.13655138736E+03  0.12700000000E+01 0.  1.
         -4    1    3    3    0  501 -0.29607367991E+02  0.10653370251E+03  0.24417281468E+02  0.11324240612E+03  0.12700000000E+01 0.  1.
          2    1    1    2  502    0 -0.10398890113E+02 -0.16116632941E+03 -0.37128035756E+03  0.40488495473E+03  0.00000000000E+00 0. -1.
          1    1    1    2  503    0 -0.21175408323E+02 -0.48983036837E+02  0.23052728087E+04  0.23058903830E+04  0.00000000000E+00 0. -1.
<mgrwt>
<rscale>  0 0.94814256E+02</rscale>
<asrwt>0</asrwt>
<pdfrwt beam="1">  1        2 0.37341845E+00 0.53364181E+02</pdfrwt>
<pdfrwt beam="2">  1        1 0.82053715E-01 0.16846025E+03</pdfrwt>
<totfact> 0.31232381E+01</totfact>
</mgrwt>
</event>
<event>
 7    1  0.7037933E-004  0.8521737E+02  0.7546771E-02  0.1402747E+00
          1   -1    0    0  502    0 -0.00000000000E+00  0.00000000000E+00  0.86141011055E+02  0.86141011055E+02  0.00000000000E+00 0. -1.
          2   -1    0    0  503    0  0.00000000000E+00 -0.00000000000E+00 -0.59798893984E+03  0.59798893984E+03  0.00000000000E+00 0. -1.
         25    2    1    2    0    0 -0.43567661182E+02  0.64486219496E+02 -0.21764714402E+03  0.26277644877E+03  0.12499827648E+03 0.  0.
          4    1    3    3  501    0 -0.52944411262E+01  0.80331159545E+02 -0.20372352007E+03  0.21905709719E+03  0.12700000000E+01 0. -1.
         -4    1    3    3    0  501 -0.38273220056E+02 -0.15844940050E+02 -0.13923623947E+02  0.43719351578E+02  0.12700000000E+01 0. -1.
          2    1    1    2  502    0  0.95197078785E+01 -0.86662453643E+02  0.31820982850E+02  0.92809378077E+02  0.00000000000E+00 0. -1.
          1    1    1    2  503    0  0.34047953303E+02  0.22176234148E+02 -0.32602176762E+03  0.32854412405E+03  0.00000000000E+00 0. -1.
<mgrwt>
<rscale>  0 0.58844248E+02</rscale>
<asrwt>0</asrwt>
<pdfrwt beam="2">  1        2 0.91998301E-01 0.40633096E+02</pdfrwt>
<pdfrwt beam="1">  1        1 0.13252463E-01 0.85217368E+02</pdfrwt>
<totfact> 0.29756602E+03</totfact>
</mgrwt>
</event>
<event>
 7    1  0.7037933E-004  0.1442797E+03  0.7546771E-02  0.1371363E+00
          1   -1    0    0  502    0 -0.00000000000E+00  0.00000000000E+00  0.96502404572E+02  0.96502404572E+02  0.00000000000E+00 0. -1.
          2   -1    0    0  503    0  0.00000000000E+00 -0.00000000000E+00 -0.15459783248E+04  0.15459783248E+04  0.00000000000E+00 0. -1.
         25    2    1    2    0    0 -0.14547577257E+03 -0.83686488882E+02 -0.32570331683E+03  0.38713277669E+03  0.12499002907E+03 0.  0.
          4    1    3    3  501    0 -0.30321844738E+01 -0.60023750863E+02 -0.61233816288E+02  0.85809311660E+02  0.12700000000E+01 0. -1.
         -4    1    3    3    0  501 -0.14244358810E+03 -0.23662738019E+02 -0.26446950054E+03  0.30132346503E+03  0.12700000000E+01 0. -1.
          2    1    1    2  502    0  0.16604079886E+02  0.26081487891E+02  0.57705743119E+02  0.65466726422E+02  0.00000000000E+00 0. -1.
          1    1    1    2  503    0  0.12887169269E+03  0.57605000991E+02 -0.11814783465E+04  0.11898812262E+04  0.00000000000E+00 0. -1.
<mgrwt>
<rscale>  0 0.66789803E+02</rscale>
<asrwt>0</asrwt>
<pdfrwt beam="2">  1        2 0.23784280E+00 0.14427967E+03</pdfrwt>
<pdfrwt beam="1">  1        1 0.14846525E-01 0.30918271E+02</pdfrwt>
<totfact> 0.62595277E+02</totfact>
</mgrwt>
</event>
<event>
 7    1  0.7037933E-004  0.8355260E+02  0.7546771E-02  0.1329097E+00
          1   -1    0    0  503    0  0.00000000000E+00  0.00000000000E+00  0.13272636522E+04  0.13272636522E+04  0.00000000000E+00 0. -1.
         -1   -1    0    0    0  501 -0.00000000000E+00 -0.00000000000E+00 -0.12218286999E+03  0.12218286999E+03  0.00000000000E+00 0.  1.
         25    2    1    2    0    0 -0.24270088523E+01 -0.25980073189E+02  0.64159485839E+03  0.65417832119E+03  0.12499783607E+03 0.  0.
          4    1    3    3  502    0  0.54856491641E+02  0.99985473062E+01  0.20851833115E+03  0.21584881966E+03  0.12700000000E+01 0.  1.
         -4    1    3    3    0  502 -0.57283500493E+02 -0.35978620495E+02  0.43307652724E+03  0.43832950153E+03  0.12700000000E+01 0.  1.
          2    1    1    2  503    0 -0.76245743987E+02 -0.70140294249E+01  0.66116242709E+03  0.66558122350E+03  0.00000000000E+00 0. -1.
         -2    1    1    2    0  501  0.78672752839E+02  0.32994102614E+02 -0.97676503263E+02  0.12968697751E+03  0.00000000000E+00 0.  1.
<mgrwt>
<rscale>  0 0.79983932E+02</rscale>
<asrwt>0</asrwt>
<pdfrwt beam="1">  1        1 0.20419440E+00 0.76567683E+02</pdfrwt>
<pdfrwt beam="2">  1       -1 0.18797366E-01 0.83552604E+02</pdfrwt>
<totfact> 0.22421375E+02</totfact>
</mgrwt>
</event>
<event>
 7    1  0.7037933E-004  0.8408776E+02  0.7546771E-02  0.1495481E+00
          1   -1    0    0  502    0 -0.00000000000E+00  0.00000000000E+00  0.21414910303E+04  0.21414910303E+04  0.00000000000E+00 0. -1.
          2   -1    0    0  503    0  0.00000000000E+00 -0.00000000000E+00 -0.17250179986E+02  0.17250179986E+02  0.00000000000E+00 0. -1.
         25    2    1    2    0    0  0.62565346419E+02  0.44175216157E+02  0.15024918586E+04  0.15096288968E+04  0.12502699177E+03 0.  0.
          4    1    3    3  501    0  0.95362534850E+02  0.50097488451E+01  0.96736975742E+03  0.97207251330E+03  0.12700000000E+01 0.  1.
         -4    1    3    3    0  501 -0.32797188431E+02  0.39165467312E+02  0.53512210121E+03  0.53755638355E+03  0.12700000000E+01 0.  1.
          2    1    1    2  502    0 -0.64943100109E+02 -0.64801189279E+02  0.62161568257E+03  0.62834931145E+03  0.00000000000E+00 0. -1.
          1    1    1    2  503    0  0.23777536902E+01  0.20625973122E+02  0.13330911186E+00  0.20763001979E+02  0.00000000000E+00 0. -1.
<mgrwt>
<rscale>  0 0.41783709E+02</rscale>
<asrwt>0</asrwt>
<pdfrwt beam="2">  1        2 0.26538755E-02 0.20762574E+02</pdfrwt>
<pdfrwt beam="1">  1        1 0.32945995E+00 0.84087761E+02</pdfrwt>
<totfact> 0.11452456E+03</totfact>
</mgrwt>
</event>
<event>
 7    1  0.7037933E-004  0.3392955E+02  0.7546771E-02  0.1578251E+00
          2   -1    0    0  503    0  0.00000000000E+00  0.00000000000E+00  0.20985421766E+04  0.20985421766E+04  0.00000000000E+00 0. -1.
          1   -1    0    0  502    0 -0.00000000000E+00 -0.00000000000E+00 -0.74610249785E+02  0.74610249785E+02  0.00000000000E+00 0. -1.
         25    2    1    2    0    0 -0.69480611676E+01  0.34266878863E+02  0.11950037233E+02  0.13034690561E+03  0.12500007148E+03 0.  0.
          4    1    3    3  501    0 -0.38085032195E+02  0.58346765801E+02 -0.27207219475E+02  0.74810831090E+02  0.12700000000E+01 0. -1.
         -4    1    3    3    0  501  0.31136971028E+02 -0.24079886938E+02  0.39157256709E+02  0.55536074516E+02  0.12700000000E+01 0. -1.
          2    1    1    2  502    0 -0.23292458084E+02 -0.18816411334E+02 -0.58816289088E+00  0.29948987874E+02  0.00000000000E+00 0. -1.
          1    1    1    2  503    0  0.30240519251E+02 -0.15450467529E+02  0.20125700525E+04  0.20128565329E+04  0.00000000000E+00 0. -1.
<mgrwt>
<rscale>  0 0.31874122E+02</rscale>
<asrwt>0</asrwt>
<pdfrwt beam="1">  1        2 0.32285260E+00 0.33929548E+02</pdfrwt>
<pdfrwt beam="2">  1        1 0.11478502E-01 0.29943212E+02</pdfrwt>
<totfact> 0.53093307E+02</totfact>
</mgrwt>
</event>
<event>
 7    1  0.7037933E-004  0.5530819E+02  0.7546771E-02  0.1449017E+00
          2   -1    0    0  503    0  0.00000000000E+00  0.00000000000E+00  0.51783506327E+03  0.51783506327E+03  0.00000000000E+00 0. -1.
          1   -1    0    0  502    0 -0.00000000000E+00 -0.00000000000E+00 -0.77356933719E+02  0.77356933719E+02  0.00000000000E+00 0. -1.
         25    2    1    2    0    0 -0.32362576706E+02  0.84842662715E+01  0.42304371764E+02  0.13612368606E+03  0.12498271437E+03 0.  0.
          4    1    3    3  501    0 -0.40226103075E+02 -0.25472304349E+01  0.83505978685E+02  0.92733430475E+02  0.12700000000E+01 0.  1.
         -4    1    3    3    0  501  0.78635263689E+01  0.11031496706E+02 -0.41201606921E+02  0.43390255582E+02  0.12700000000E+01 0.  1.
          2    1    1    2  502    0 -0.13491959269E+02 -0.41868721406E+02 -0.11515622842E+02  0.45471225699E+02  0.00000000000E+00 0. -1.
          1    1    1    2  503    0  0.45854535975E+02  0.33384455135E+02  0.40968938063E+03  0.41359708523E+03  0.00000000000E+00 0. -1.
<mgrwt>
<rscale>  0 0.49324906E+02</rscale>
<asrwt>0</asrwt>
<pdfrwt beam="1">  1        2 0.79666931E-01 0.55308195E+02</pdfrwt>
<pdfrwt beam="2">  1        1 0.11901067E-01 0.43988894E+02</pdfrwt>
<totfact> 0.38032974E+03</totfact>
</mgrwt>
</event>
<event>
 7    1  0.7037933E-004  0.7623132E+02  0.7546771E-02  0.1493073E+00
          2   -1    0    0  503    0  0.00000000000E+00  0.00000000000E+00  0.12667341333E+03  0.12667341333E+03  0.00000000000E+00 0. -1.
          1   -1    0    0  502    0 -0.00000000000E+00 -0.00000000000E+00 -0.11917478189E+04  0.11917478189E+04  0.00000000000E+00 0. -1.
         25    2    1    2    0    0  0.37781366043E+02  0.41187267482E+02 -0.37998170330E+03  0.40390090443E+03  0.12500409249E+03 0.  0.
          4    1    3    3  501    0  0.73239774178E+02  0.39451310008E+02 -0.34167147354E+03  0.35165534137E+03  0.12700000000E+01 0.  1.
         -4    1    3    3    0  501 -0.35458408135E+02  0.17359574742E+01 -0.38310229756E+02  0.52245563063E+02  0.12700000000E+01 0.  1.
          2    1    1    2  502    0  0.49923646857E+01  0.22746076342E+02 -0.78671954894E+03  0.78706413740E+03  0.00000000000E+00 0. -1.
          1    1    1    2  503    0 -0.42773730729E+02 -0.63933343824E+02  0.10162684670E+03  0.12745619037E+03  0.00000000000E+00 0. -1.
<mgrwt>
<rscale>  0 0.42133561E+02</rscale>
<asrwt>0</asrwt>
<pdfrwt beam="1">  1        2 0.19488217E-01 0.76231321E+02</pdfrwt>
<pdfrwt beam="2">  1        1 0.18334582E+00 0.23287501E+02</pdfrwt>
<totfact> 0.52576210E+02</totfact>
</mgrwt>
</event>
<event>
 7    1  0.7037933E-004  0.4095838E+02  0.7546771E-02  0.1552786E+00
          2   -1    0    0  503    0  0.00000000000E+00  0.00000000000E+00  0.59261114308E+02  0.59261114308E+02  0.00000000000E+00 0.  1.
         -2   -1    0    0    0  501 -0.00000000000E+00 -0.00000000000E+00 -0.21742386226E+03  0.21742386226E+03  0.00000000000E+00 0. -1.
         25    2    1    2    0    0  0.18490412005E+02 -0.19125400196E+02 -0.11259670577E+03  0.17032652954E+03  0.12500172897E+03 0.  0.
          4    1    3    3  502    0 -0.49578205665E+01 -0.61920750679E+02 -0.19350011936E+02  0.65075304158E+02  0.12700000000E+01 0. -1.
         -4    1    3    3    0  502  0.23448232571E+02  0.42795350483E+02 -0.93246693832E+02  0.10525122538E+03  0.12700000000E+01 0. -1.
          1    1    1    2  503    0  0.91200980704E+01 -0.27650530055E+02 -0.43065141438E+02  0.51983982228E+02  0.00000000000E+00 0. -1.
         -1    1    1    2    0  501 -0.27610510075E+02  0.46775930251E+02 -0.25009007419E+01  0.54374464797E+02  0.00000000000E+00 0.  1.
<mgrwt>
<rscale>  0 0.34533097E+02</rscale>
<asrwt>0</asrwt>
<pdfrwt beam="1">  1        2 0.91170947E-02 0.29115769E+02</pdfrwt>
<pdfrwt beam="2">  1       -2 0.33449824E-01 0.40958383E+02</pdfrwt>
<totfact> 0.49605373E+03</totfact>
</mgrwt>
</event>
<event>
 7    1  0.7037933E-004  0.4935388E+02  0.7546771E-02  0.1457002E+00
         -2   -1    0    0    0  501 -0.00000000000E+00  0.00000000000E+00  0.10928159316E+03  0.10928159316E+03  0.00000000000E+00 0.  1.
          2   -1    0    0  503    0  0.00000000000E+00 -0.00000000000E+00 -0.12722284470E+04  0.12722284470E+04  0.00000000000E+00 0. -1.
         25    2    1    2    0    0 -0.74322585138E+02 -0.55027397656E+02 -0.22130280202E+03  0.27046633894E+03  0.12500099666E+03 0.  0.
          4    1    3    3  502    0 -0.91046884187E+02  0.66309550293E+01 -0.12192749002E+03  0.15232015759E+03  0.12700000000E+01 0.  1.
         -4    1    3    3    0  502  0.16724299048E+02 -0.61658352685E+02 -0.99375311998E+02  0.11814618136E+03  0.12700000000E+01 0.  1.
          1    1    1    2  503    0  0.30402416708E+02  0.35173159585E+02 -0.10189135616E+04  0.10199736782E+04  0.00000000000E+00 0. -1.
         -1    1    1    2    0  501  0.43920168430E+02  0.19854238071E+02  0.77269509767E+02  0.91070023081E+02  0.00000000000E+00 0.  1.
<mgrwt>
<rscale>  0 0.47901307E+02</rscale>
<asrwt>0</asrwt>
<pdfrwt beam="2">  1        2 0.19572745E+00 0.46491484E+02</pdfrwt>
<pdfrwt beam="1">  1       -2 0.16812553E-01 0.49353881E+02</pdfrwt>
<totfact> 0.53975303E+02</totfact>
</mgrwt>
</event>
<event>
 7    1  0.7037933E-004  0.1251914E+03  0.7546771E-02  0.1321592E+00
          1   -1    0    0  503    0  0.00000000000E+00  0.00000000000E+00  0.22947672920E+03  0.22947672920E+03  0.00000000000E+00 0. -1.
         -1   -1    0    0    0  501 -0.00000000000E+00 -0.00000000000E+00 -0.25399054052E+03  0.25399054052E+03  0.00000000000E+00 0.  1.
         25    2    1    2    0    0  0.12501434113E+03  0.78258093523E+02 -0.78304597714E+02  0.20858846590E+03  0.12499849356E+03 0.  0.
          4    1    3    3  502    0 -0.16185667103E+02  0.15966911895E+02  0.15901189532E+02  0.27773707415E+02  0.12700000000E+01 0.  1.
         -4    1    3    3    0  502  0.14120000823E+03  0.62291181629E+02 -0.94205787245E+02  0.18081475848E+03  0.12700000000E+01 0.  1.
          2    1    1    2  503    0 -0.74067746534E+02 -0.97935815578E+02  0.13148802524E+03  0.17990707555E+03  0.00000000000E+00 0. -1.
         -2    1    1    2    0  501 -0.50946594597E+02  0.19677722055E+02 -0.77697238854E+02  0.94971728277E+02  0.00000000000E+00 0.  1.
<mgrwt>
<rscale>  0 0.82687915E+02</rscale>
<asrwt>0</asrwt>
<pdfrwt beam="1">  1        1 0.35304112E-01 0.12519135E+03</pdfrwt>
<pdfrwt beam="2">  1       -1 0.39075468E-01 0.54614726E+02</pdfrwt>
<totfact> 0.78428769E+02</totfact>
</mgrwt>
</event>
<event>
 7    1  0.7037933E-004  0.4362007E+02  0.7546771E-02  0.1502813E+00
          1   -1    0    0  502    0 -0.00000000000E+00  0.00000000000E+00  0.20420026872E+03  0.20420026872E+03  0.00000000000E+00 0. -1.
          2   -1    0    0  503    0  0.00000000000E+00 -0.00000000000E+00 -0.11550165419E+04  0.11550165419E+04  0.00000000000E+00 0. -1.
         25    2    1    2    0    0  0.42456532794E+02 -0.51230688025E+02 -0.70703262506E+03  0.72107394006E+03  0.12500141423E+03 0.  0.
          4    1    3    3  501    0 -0.20682493223E+02 -0.11028367057E+02 -0.50617060310E+03  0.50671459694E+03  0.12700000000E+01 0. -1.
         -4    1    3    3    0  501  0.63139026017E+02 -0.40202320968E+02 -0.20086202196E+03  0.21435934312E+03  0.12700000000E+01 0. -1.
          2    1    1    2  502    0 -0.30841310879E+01  0.37930816932E+02  0.19435092853E+03  0.19804176872E+03  0.00000000000E+00 0. -1.
          1    1    1    2  503    0 -0.39372401706E+02  0.13299871093E+02 -0.43813457668E+03  0.44010110188E+03  0.00000000000E+00 0. -1.
<mgrwt>
<rscale>  0 0.40743163E+02</rscale>
<asrwt>0</asrwt>
<pdfrwt beam="2">  1        2 0.17769486E+00 0.43620074E+02</pdfrwt>
<pdfrwt beam="1">  1        1 0.31415425E-01 0.38055995E+02</pdfrwt>
<totfact> 0.44651889E+02</totfact>
</mgrwt>
</event>
<event>
 7    1  0.7037933E-004  0.5348733E+02  0.7546771E-02  0.1467672E+00
          2   -1    0    0  503    0  0.00000000000E+00  0.00000000000E+00  0.27905908478E+02  0.27905908478E+02  0.00000000000E+00 0. -1.
          1   -1    0    0  502    0 -0.00000000000E+00 -0.00000000000E+00 -0.15755552043E+04  0.15755552043E+04  0.00000000000E+00 0. -1.
         25    2    1    2    0    0  0.48261850679E+02  0.11643955135E+02 -0.48051084043E+03  0.49898373398E+03  0.12501724318E+03 0.  0.
          4    1    3    3  501    0  0.31275267360E+02  0.68330813480E+02 -0.28099199644E+03  0.29087000083E+03  0.12700000000E+01 0.  1.
         -4    1    3    3    0  501  0.16986583319E+02 -0.56686858345E+02 -0.19951884399E+03  0.20811373316E+03  0.12700000000E+01 0.  1.
          2    1    1    2  502    0 -0.47078767008E+02  0.28047680586E+02 -0.10631576767E+04  0.10645690810E+04  0.00000000000E+00 0. -1.
          1    1    1    2  503    0 -0.11830836706E+01 -0.39691635722E+02 -0.39807786844E+01  0.39908297786E+02  0.00000000000E+00 0. -1.
<mgrwt>
<rscale>  0 0.46086249E+02</rscale>
<asrwt>0</asrwt>
<pdfrwt beam="1">  1        2 0.42932162E-02 0.39709264E+02</pdfrwt>
<pdfrwt beam="2">  1        1 0.24239314E+00 0.53487327E+02</pdfrwt>
<totfact> 0.16251581E+03</totfact>
</mgrwt>
</event>
<event>
 7    1  0.7037933E-004  0.6318216E+02  0.7546771E-02  0.1412901E+00
          1   -1    0    0  503    0  0.00000000000E+00  0.00000000000E+00  0.70286540120E+03  0.70286540120E+03  0.00000000000E+00 0. -1.
         -1   -1    0    0    0  501 -0.00000000000E+00 -0.00000000000E+00 -0.32288231323E+03  0.32288231323E+03  0.00000000000E+00 0.  1.
         25    2    1    2    0    0 -0.93868119375E+02  0.60365008506E+02  0.12647334401E+03  0.20994431441E+03  0.12500380122E+03 0.  0.
          4    1    3    3  502    0 -0.18472032945E+02  0.53000060721E+02 -0.68893376406E+01  0.56562340039E+02  0.12700000000E+01 0. -1.
         -4    1    3    3    0  502 -0.75396086430E+02  0.73649477853E+01  0.13336268165E+03  0.15338197437E+03  0.12700000000E+01 0. -1.
          2    1    1    2  503    0  0.49738824222E+02 -0.35572383057E+02  0.53060801316E+03  0.53412003211E+03  0.00000000000E+00 0. -1.
         -2    1    1    2    0  501  0.44129295154E+02 -0.24792625449E+02 -0.27709826920E+03  0.28168336792E+03  0.00000000000E+00 0.  1.
<mgrwt>
<rscale>  0 0.56551604E+02</rscale>
<asrwt>0</asrwt>
<pdfrwt beam="1">  1        1 0.10813314E+00 0.63182157E+02</pdfrwt>
<pdfrwt beam="2">  1       -1 0.49674202E-01 0.50616884E+02</pdfrwt>
<totfact> 0.12660275E+02</totfact>
</mgrwt>
</event>
<event>
 7    1  0.7037933E-004  0.3987954E+02  0.7546771E-02  0.1602575E+00
          1   -1    0    0  502    0 -0.00000000000E+00  0.00000000000E+00  0.63273269501E+03  0.63273269501E+03  0.00000000000E+00 0. -1.
          2   -1    0    0  503    0  0.00000000000E+00 -0.00000000000E+00 -0.11945922772E+04  0.11945922772E+04  0.00000000000E+00 0. -1.
         25    2    1    2    0    0  0.10545922530E+02  0.52465820001E+02 -0.25663832079E+03  0.29044090699E+03  0.12501525508E+03 0.  0.
          4    1    3    3  501    0  0.38385631589E+02  0.79806269941E+02 -0.12542860280E+03  0.15354622996E+03  0.12700000000E+01 0. -1.
         -4    1    3    3    0  501 -0.27839709060E+02 -0.27340449940E+02 -0.13120971799E+03  0.13689467703E+03  0.12700000000E+01 0. -1.
          2    1    1    2  502    0  0.10838936555E+02 -0.19106895056E+02  0.61520910121E+03  0.61560116487E+03  0.00000000000E+00 0. -1.
          1    1    1    2  503    0 -0.21384859085E+02 -0.33358924945E+02 -0.92043036265E+03  0.92128290039E+03  0.00000000000E+00 0. -1.
<mgrwt>
<rscale>  0 0.29597976E+02</rscale>
<asrwt>0</asrwt>
<pdfrwt beam="2">  1        2 0.18378343E+00 0.39879543E+02</pdfrwt>
<pdfrwt beam="1">  1        1 0.97343492E-01 0.21967157E+02</pdfrwt>
<totfact> 0.11139950E+02</totfact>
</mgrwt>
</event>
<event>
 7    1  0.7037933E-004  0.9961745E+02  0.7546771E-02  0.1450974E+00
          1   -1    0    0  502    0 -0.00000000000E+00  0.00000000000E+00  0.51930957622E+03  0.51930957622E+03  0.00000000000E+00 0. -1.
          2   -1    0    0  503    0  0.00000000000E+00 -0.00000000000E+00 -0.12977256489E+03  0.12977256489E+03  0.00000000000E+00 0. -1.
         25    2    1    2    0    0 -0.10662345441E+03 -0.49144881108E+02 -0.16642317736E+02  0.17230928481E+03  0.12501896865E+03 0.  0.
          4    1    3    3  501    0  0.12009333336E+01  0.34792080579E+02 -0.43892853837E+01  0.35111391856E+02  0.12700000000E+01 0.  1.
         -4    1    3    3    0  501 -0.10782438774E+03 -0.83936961687E+02 -0.12253032352E+02  0.13719789295E+03  0.12700000000E+01 0.  1.
          2    1    1    2  502    0  0.94464702254E+02  0.28367651765E+02  0.43103176121E+03  0.44217268438E+03  0.00000000000E+00 0. -1.
          1    1    1    2  503    0  0.12158752155E+02  0.20777229344E+02 -0.24852432148E+02  0.34600171919E+02  0.00000000000E+00 0. -1.
<mgrwt>
<rscale>  0 0.48970712E+02</rscale>
<asrwt>0</asrwt>
<pdfrwt beam="2">  1        2 0.19965010E-01 0.24073398E+02</pdfrwt>
<pdfrwt beam="1">  1        1 0.79893779E-01 0.99617454E+02</pdfrwt>
<totfact> 0.15039492E+03</totfact>
</mgrwt>
</event>
<event>
 7    1  0.7037933E-004  0.8408492E+02  0.7546771E-02  0.1334470E+00
         -2   -1    0    0    0  501 -0.00000000000E+00  0.00000000000E+00  0.69361851173E+02  0.69361851173E+02  0.00000000000E+00 0.  1.
          2   -1    0    0  503    0  0.00000000000E+00 -0.00000000000E+00 -0.24283031955E+04  0.24283031955E+04  0.00000000000E+00 0. -1.
         25    2    1    2    0    0 -0.13641726219E+03 -0.54802611687E+02 -0.27425812227E+03  0.33534602576E+03  0.12500577463E+03 0.  0.
          4    1    3    3  502    0 -0.14797943138E+02 -0.59007013449E+02 -0.14782621555E+03  0.15985934336E+03  0.12700000000E+01 0.  1.
         -4    1    3    3    0  502 -0.12161931905E+03  0.42044017622E+01 -0.12643190672E+03  0.17548668240E+03  0.12700000000E+01 0.  1.
          1    1    1    2  503    0  0.63879364676E+02  0.52328056518E+02 -0.20880296297E+04  0.20896618227E+04  0.00000000000E+00 0. -1.
         -1    1    1    2    0  501  0.72537897516E+02  0.24745551694E+01  0.33464077053E+01  0.72657198155E+02  0.00000000000E+00 0.  1.
<mgrwt>
<rscale>  0 0.78121006E+02</rscale>
<asrwt>0</asrwt>
<pdfrwt beam="2">  1        2 0.37358516E+00 0.84084922E+02</pdfrwt>
<pdfrwt beam="1">  1       -2 0.10671053E-01 0.72580094E+02</pdfrwt>
<totfact> 0.28212252E+02</totfact>
</mgrwt>
</event>
<event>
 7    1  0.7037933E-004  0.6249152E+02  0.7546771E-02  0.1459743E+00
          1   -1    0    0  503    0  0.00000000000E+00  0.00000000000E+00  0.47783622426E+03  0.47783622426E+03  0.00000000000E+00 0. -1.
         -1   -1    0    0    0  501 -0.00000000000E+00 -0.00000000000E+00 -0.16471903220E+04  0.16471903220E+04  0.00000000000E+00 0.  1.
         25    2    1    2    0    0 -0.50789253115E+02 -0.42549394426E+02  0.14792578437E+02  0.14224707593E+03  0.12500164413E+03 0.  0.
          4    1    3    3  502    0 -0.21130744506E+02 -0.28124939983E+02 -0.54853191636E+02  0.65176730089E+02  0.12700000000E+01 0. -1.
         -4    1    3    3    0  502 -0.29658508609E+02 -0.14424454444E+02  0.69645770073E+02  0.77070345840E+02  0.12700000000E+01 0. -1.
          2    1    1    2  503    0  0.19161679591E+02  0.59728594085E+02  0.39664690761E+03  0.40157619978E+03  0.00000000000E+00 0. -1.
         -2    1    1    2    0  501  0.31627573524E+02 -0.17179199659E+02 -0.15807935837E+04  0.15812032705E+04  0.00000000000E+00 0.  1.
<mgrwt>
<rscale>  0 0.47425714E+02</rscale>
<asrwt>0</asrwt>
<pdfrwt beam="1">  1        1 0.73513264E-01 0.62491518E+02</pdfrwt>
<pdfrwt beam="2">  1       -1 0.25341390E+00 0.35992059E+02</pdfrwt>
<totfact> 0.47221516E+00</totfact>
</mgrwt>
</event>
<event>
 7    1  0.7037933E-004  0.9359275E+02  0.7546771E-02  0.1452390E+00
          1   -1    0    0  502    0 -0.00000000000E+00  0.00000000000E+00  0.10132554520E+02  0.10132554520E+02  0.00000000000E+00 0. -1.
          2   -1    0    0  503    0  0.00000000000E+00 -0.00000000000E+00 -0.29357429447E+04  0.29357429447E+04  0.00000000000E+00 0. -1.
         25    2    1    2    0    0  0.92702395010E+02  0.14458006528E+02 -0.13099702590E+04  0.13192607145E+04  0.12499594048E+03 0.  0.
          4    1    3    3  501    0  0.73724674375E+02 -0.48140601968E+02 -0.62500233995E+03  0.63117539798E+03  0.12700000000E+01 0. -1.
         -4    1    3    3    0  501  0.18977720634E+02  0.62598608496E+02 -0.68496791908E+03  0.68808531647E+03  0.12700000000E+01 0. -1.
          2    1    1    2  502    0  0.98622353406E+00 -0.25338574928E+02 -0.35306762220E+02  0.43469339479E+02  0.00000000000E+00 0. -1.
          1    1    1    2  503    0 -0.93688618544E+02  0.10880568400E+02 -0.15803333690E+04  0.15831454453E+04  0.00000000000E+00 0. -1.
<mgrwt>
<rscale>  0 0.48716552E+02</rscale>
<asrwt>0</asrwt>
<pdfrwt beam="2">  1        2 0.45165301E+00 0.93592746E+02</pdfrwt>
<pdfrwt beam="1">  1        1 0.15588537E-02 0.25357760E+02</pdfrwt>
<totfact> 0.21904716E+03</totfact>
</mgrwt>
</event>
<event>
 7    1  0.7037933E-004  0.3238137E+03  0.7546771E-02  0.1159896E+00
          2   -1    0    0  503    0  0.00000000000E+00  0.00000000000E+00  0.41726097083E+03  0.41726097083E+03  0.00000000000E+00 0. -1.
          1   -1    0    0  502    0 -0.00000000000E+00 -0.00000000000E+00 -0.17975831257E+04  0.17975831257E+04  0.00000000000E+00 0. -1.
         25    2    1    2    0    0 -0.33919285592E+03 -0.14988146618E+03 -0.63657752816E+03  0.74723720531E+03  0.12496497203E+03 0.  0.
          4    1    3    3  501    0 -0.30944147232E+02 -0.63618637695E+02 -0.10160588642E+03  0.12381534785E+03  0.12700000000E+01 0.  1.
         -4    1    3    3    0  501 -0.30824870869E+03 -0.86262828487E+02 -0.53497164174E+03  0.62342185746E+03  0.12700000000E+01 0.  1.
          2    1    1    2  502    0  0.23937194078E+03  0.19521988909E+03 -0.10750960253E+04  0.11185889302E+04  0.00000000000E+00 0. -1.
          1    1    1    2  503    0  0.99820915148E+02 -0.45338422910E+02  0.33135139864E+03  0.34901796097E+03  0.00000000000E+00 0. -1.
<mgrwt>
<rscale>  0 0.18841773E+03</rscale>
<asrwt>0</asrwt>
<pdfrwt beam="1">  1        2 0.64193995E-01 0.10963479E+03</pdfrwt>
<pdfrwt beam="2">  1        1 0.27655125E+00 0.32381365E+03</pdfrwt>
<totfact> 0.47223284E+01</totfact>
</mgrwt>
</event>
<event>
 7    1  0.7037933E-004  0.1240155E+03  0.7546771E-02  0.1380845E+00
          1   -1    0    0  502    0 -0.00000000000E+00  0.00000000000E+00  0.13005462737E+04  0.13005462737E+04  0.00000000000E+00 0. -1.
          2   -1    0    0  503    0  0.00000000000E+00 -0.00000000000E+00 -0.28043309611E+03  0.28043309611E+03  0.00000000000E+00 0. -1.
         25    2    1    2    0    0  0.12303869462E+03  0.94080276520E+02  0.14746500474E+03  0.24770900772E+03  0.12499682426E+03 0.  0.
          4    1    3    3  501    0  0.14516628956E+03  0.91581107543E+02  0.10925827474E+03  0.20346826382E+03  0.12700000000E+01 0. -1.
         -4    1    3    3    0  501 -0.22127594934E+02  0.24991689776E+01  0.38206730000E+02  0.44240743896E+02  0.12700000000E+01 0. -1.
          2    1    1    2  502    0 -0.99353019563E+02 -0.70704040771E+02  0.10983650296E+04  0.11051134884E+04  0.00000000000E+00 0. -1.
          1    1    1    2  503    0 -0.23685675060E+02 -0.23376235750E+02 -0.22571685677E+03  0.22815687373E+03  0.00000000000E+00 0. -1.
<mgrwt>
<rscale>  0 0.64242134E+02</rscale>
<asrwt>0</asrwt>
<pdfrwt beam="2">  1        2 0.43143554E-01 0.33278516E+02</pdfrwt>
<pdfrwt beam="1">  1        1 0.20008404E+00 0.12401550E+03</pdfrwt>
<totfact> 0.16344614E+02</totfact>
</mgrwt>
</event>
<event>
 7    1  0.7037933E-004  0.5145631E+02  0.7546771E-02  0.1464280E+00
         -2   -1    0    0    0  501 -0.00000000000E+00  0.00000000000E+00  0.10689198427E+03  0.10689198427E+03  0.00000000000E+00 0.  1.
          2   -1    0    0  503    0  0.00000000000E+00 -0.00000000000E+00 -0.56682324865E+03  0.56682324865E+03  0.00000000000E+00 0. -1.
         25    2    1    2    0    0 -0.61447731526E+02 -0.52710212737E+02 -0.25836072991E+03  0.29820853797E+03  0.12499550039E+03 0.  0.
          4    1    3    3  502    0 -0.85654645070E+02 -0.50097323867E+02 -0.25495964015E+03  0.27359183301E+03  0.12700000000E+01 0.  1.
         -4    1    3    3    0  502  0.24206913544E+02 -0.26128888699E+01 -0.34010897607E+01  0.24616704961E+02  0.12700000000E+01 0.  1.
          1    1    1    2  503    0  0.19893904063E+02  0.44812733815E+02 -0.28114543305E+03  0.28538868768E+03  0.00000000000E+00 0. -1.
         -1    1    1    2    0  501  0.41553827463E+02  0.78974789216E+01  0.79574898587E+02  0.90118007275E+02  0.00000000000E+00 0.  1.
<mgrwt>
<rscale>  0 0.46652769E+02</rscale>
<asrwt>0</asrwt>
<pdfrwt beam="2">  1        2 0.87203578E-01 0.51456314E+02</pdfrwt>
<pdfrwt beam="1">  1       -2 0.16444920E-01 0.42297645E+02</pdfrwt>
<totfact> 0.15010440E+03</totfact>
</mgrwt>
</event>
<event>
 7    1  0.7037933E-004  0.9451908E+02  0.7546771E-02  0.1446632E+00
          1   -1    0    0  502    0 -0.00000000000E+00  0.00000000000E+00  0.80143743337E+03  0.80143743337E+03  0.00000000000E+00 0. -1.
          2   -1    0    0  503    0  0.00000000000E+00 -0.00000000000E+00 -0.82342377991E+02  0.82342377991E+02  0.00000000000E+00 0. -1.
         25    2    1    2    0    0  0.50314482587E+02  0.96224579774E+02  0.66118352527E+02  0.17828574987E+03  0.12499382047E+03 0.  0.
          4    1    3    3  501    0  0.63964100427E+02 -0.42328817095E+01  0.28094197087E+02  0.70001573132E+02  0.12700000000E+01 0. -1.
         -4    1    3    3    0  501 -0.13649617840E+02  0.10045746148E+03  0.38024155440E+02  0.10828417674E+03  0.12700000000E+01 0. -1.
          2    1    1    2  502    0  0.63865483932E+00 -0.26190257949E+02  0.60676087954E+03  0.60732619113E+03  0.00000000000E+00 0. -1.
          1    1    1    2  503    0 -0.50953137426E+02 -0.70034321825E+02  0.46215823312E+02  0.98167870362E+02  0.00000000000E+00 0. -1.
<mgrwt>
<rscale>  0 0.49761582E+02</rscale>
<asrwt>0</asrwt>
<pdfrwt beam="2">  1        2 0.12668059E-01 0.94519083E+02</pdfrwt>
<pdfrwt beam="1">  1        1 0.12329806E+00 0.26198044E+02</pdfrwt>
<totfact> 0.15928937E+03</totfact>
</mgrwt>
</event>
<event>
 7    1  0.7037933E-004  0.4015106E+02  0.7546771E-02  0.1544707E+00
          2   -1    0    0  503    0  0.00000000000E+00  0.00000000000E+00  0.44118873596E+03  0.44118873596E+03  0.00000000000E+00 0. -1.
         -2   -1    0    0    0  501 -0.00000000000E+00 -0.00000000000E+00 -0.12227742970E+03  0.12227742970E+03  0.00000000000E+00 0.  1.
         25    2    1    2    0    0  0.13148968239E+02 -0.54857140725E+02  0.22728833582E+02  0.13900889540E+03  0.12499868747E+03 0.  0.
          4    1    3    3  502    0 -0.52924316669E+02 -0.34658373646E+02 -0.72368699131E+01  0.63688078514E+02  0.12700000000E+01 0. -1.
         -4    1    3    3    0  502  0.66073284907E+02 -0.20198767079E+02  0.29965703495E+02  0.75320816883E+02  0.12700000000E+01 0. -1.
          3    1    1    2  503    0  0.15214646935E+02  0.27337185147E+02  0.35347477266E+03  0.35485662186E+03  0.00000000000E+00 0. -1.
         -3    1    1    2    0  501 -0.28363615173E+02  0.27519955578E+02 -0.57292299984E+02  0.69600648403E+02  0.00000000000E+00 0.  1.
<mgrwt>
<rscale>  0 0.35442373E+02</rscale>
<asrwt>0</asrwt>
<pdfrwt beam="1">  1        2 0.67875189E-01 0.31285894E+02</pdfrwt>
<pdfrwt beam="2">  1       -2 0.18811913E-01 0.40151060E+02</pdfrwt>
<totfact> 0.15724185E+03</totfact>
</mgrwt>
</event>
<event>
 7    1  0.7037933E-004  0.1076088E+03  0.7546771E-02  0.1413815E+00
          2   -1    0    0  503    0  0.00000000000E+00  0.00000000000E+00  0.27451239354E+04  0.27451239354E+04  0.00000000000E+00 0. -1.
          1   -1    0    0  502    0 -0.00000000000E+00 -0.00000000000E+00 -0.60966660016E+02  0.60966660016E+02  0.00000000000E+00 0. -1.
         25    2    1    2    0    0  0.75605077941E+02 -0.45434006496E+02  0.70424473118E+03  0.72066510517E+03  0.12496869870E+03 0.  0.
          4    1    3    3  501    0  0.19267653619E+02  0.78624424687E+01  0.52431757227E+03  0.52473192201E+03  0.12700000000E+01 0. -1.
         -4    1    3    3    0  501  0.56337424322E+02 -0.53296448964E+02  0.17992715891E+03  0.19593318316E+03  0.12700000000E+01 0. -1.
          2    1    1    2  502    0  0.28806324285E+02  0.64026180948E+01 -0.46975224219E+02  0.55474945045E+02  0.00000000000E+00 0. -1.
          1    1    1    2  503    0 -0.10441140223E+03  0.39031388401E+02  0.20268877685E+04  0.20299505452E+04  0.00000000000E+00 0. -1.
<mgrwt>
<rscale>  0 0.56351201E+02</rscale>
<asrwt>0</asrwt>
<pdfrwt beam="1">  1        2 0.42232666E+00 0.10760877E+03</pdfrwt>
<pdfrwt beam="2">  1        1 0.93794883E-02 0.29509284E+02</pdfrwt>
<totfact> 0.27164430E+02</totfact>
</mgrwt>
</event>
<event>
 7    1  0.7037933E-004  0.4910710E+02  0.7546771E-02  0.1450808E+00
          1   -1    0    0  502    0 -0.00000000000E+00  0.00000000000E+00  0.19771023286E+04  0.19771023286E+04  0.00000000000E+00 0. -1.
          2   -1    0    0  503    0  0.00000000000E+00 -0.00000000000E+00 -0.66862530289E+03  0.66862530289E+03  0.00000000000E+00 0. -1.
         25    2    1    2    0    0 -0.58076665771E+01 -0.37610624061E+00 -0.41593850575E+01  0.12520285942E+03  0.12499834029E+03 0.  0.
          4    1    3    3  501    0  0.58493352461E+02 -0.77305497040E+01  0.72941403030E+01  0.59464704352E+02  0.12700000000E+01 0.  1.
         -4    1    3    3    0  501 -0.64301019038E+02  0.73544434634E+01 -0.11453525360E+02  0.65738155064E+02  0.12700000000E+01 0.  1.
          2    1    1    2  502    0 -0.26591222038E+01 -0.48822026752E+02  0.19152364394E+04  0.19158604543E+04  0.00000000000E+00 0. -1.
          1    1    1    2  503    0  0.84667887809E+01  0.49198132993E+02 -0.60260002862E+03  0.60466431786E+03  0.00000000000E+00 0. -1.
<mgrwt>
<rscale>  0 0.49000629E+02</rscale>
<asrwt>0</asrwt>
<pdfrwt beam="2">  1        2 0.10286543E+00 0.49107101E+02</pdfrwt>
<pdfrwt beam="1">  1        1 0.30416959E+00 0.48894389E+02</pdfrwt>
<totfact> 0.27432979E+01</totfact>
</mgrwt>
</event>
<event>
 7    1  0.7037933E-004  0.9594287E+02  0.7546771E-02  0.1422804E+00
          1   -1    0    0  502    0 -0.00000000000E+00  0.00000000000E+00  0.20764010390E+03  0.20764010390E+03  0.00000000000E+00 0. -1.
          2   -1    0    0  503    0  0.00000000000E+00 -0.00000000000E+00 -0.11761868045E+04  0.11761868045E+04  0.00000000000E+00 0. -1.
         25    2    1    2    0    0 -0.23599204788E+02 -0.11184996287E+03 -0.42593742910E+03  0.45838337271E+03  0.12500114486E+03 0.  0.
          4    1    3    3  501    0 -0.59742484350E+02 -0.17826842270E+02 -0.10623061480E+03  0.12318083115E+03  0.12700000000E+01 0. -1.
         -4    1    3    3    0  501  0.36143279562E+02 -0.94023120601E+02 -0.31970681430E+03  0.33520254157E+03  0.12700000000E+01 0. -1.
          2    1    1    2  502    0 -0.25951226925E+01  0.95493884923E+02  0.17914760510E+03  0.20302630651E+03  0.00000000000E+00 0. -1.
          1    1    1    2  503    0  0.26194327480E+02  0.16356077948E+02 -0.72175687658E+03  0.72241722914E+03  0.00000000000E+00 0. -1.
<mgrwt>
<rscale>  0 0.54432114E+02</rscale>
<asrwt>0</asrwt>
<pdfrwt beam="2">  1        2 0.18095182E+00 0.30881452E+02</pdfrwt>
<pdfrwt beam="1">  1        1 0.31944631E-01 0.95942867E+02</pdfrwt>
<totfact> 0.44484798E+02</totfact>
</mgrwt>
</event>
<event>
 7    1  0.7037933E-004  0.2938621E+02  0.7546771E-02  0.1660940E+00
          1   -1    0    0  502    0 -0.00000000000E+00  0.00000000000E+00  0.18187228506E+04  0.18187228506E+04  0.00000000000E+00 0. -1.
          2   -1    0    0  503    0  0.00000000000E+00 -0.00000000000E+00 -0.25871285970E+03  0.25871285970E+03  0.00000000000E+00 0. -1.
         25    2    1    2    0    0  0.32996001747E+01 -0.23682228086E+02 -0.99647218164E+02  0.16163769755E+03  0.12500176756E+03 0.  0.
          4    1    3    3  501    0  0.19748795835E+02  0.45903525605E+02 -0.18074148453E+02  0.53154833668E+02  0.12700000000E+01 0.  1.
         -4    1    3    3    0  501 -0.16449195660E+02 -0.69585753691E+02 -0.81573069711E+02  0.10848286389E+03  0.12700000000E+01 0.  1.
          2    1    1    2  502    0  0.17972076997E+02  0.23264615063E+02  0.17867222460E+04  0.17869640798E+04  0.00000000000E+00 0. -1.
          1    1    1    2  503    0 -0.21271677172E+02  0.41761302288E+00 -0.12706503701E+03  0.12883393295E+03  0.00000000000E+00 0. -1.
<mgrwt>
<rscale>  0 0.25004287E+02</rscale>
<asrwt>0</asrwt>
<pdfrwt beam="2">  1        2 0.39801979E-01 0.21275776E+02</pdfrwt>
<pdfrwt beam="1">  1        1 0.27980351E+00 0.29386208E+02</pdfrwt>
<totfact> 0.96681108E+01</totfact>
</mgrwt>
</event>
<event>
 7    1  0.7037933E-004  0.7052377E+02  0.7546771E-02  0.1393780E+00
         -2   -1    0    0    0  501 -0.00000000000E+00  0.00000000000E+00  0.30669198043E+03  0.30669198043E+03  0.00000000000E+00 0.  1.
          2   -1    0    0  503    0  0.00000000000E+00 -0.00000000000E+00 -0.16614714740E+04  0.16614714740E+04  0.00000000000E+00 0. -1.
         25    2    1    2    0    0 -0.10123225571E+01 -0.38633965732E+02  0.55974648819E+02  0.14230862461E+03  0.12499990089E+03 0.  0.
          4    1    3    3  502    0  0.26767527480E+01 -0.47854384120E+01  0.92318985986E+02  0.92490396796E+02  0.12700000000E+01 0.  1.
         -4    1    3    3    0  502 -0.36890753051E+01 -0.33848527320E+02 -0.36344337166E+02  0.49818227813E+02  0.12700000000E+01 0.  1.
          1    1    1    2  503    0 -0.48608926017E+02 -0.20413666486E+02 -0.16106926588E+04  0.16115552695E+04  0.00000000000E+00 0. -1.
         -3    1    1    2    0  501  0.49621248574E+02  0.59047632218E+02  0.19993851646E+03  0.21429956030E+03  0.00000000000E+00 0.  1.
<mgrwt>
<rscale>  0 0.60976320E+02</rscale>
<asrwt>0</asrwt>
<pdfrwt beam="2">  1        2 0.25561100E+00 0.52721395E+02</pdfrwt>
<pdfrwt beam="1">  1       -2 0.47183381E-01 0.70523771E+02</pdfrwt>
<totfact> 0.56575867E+01</totfact>
</mgrwt>
</event>
<event>
 7    1  0.7037933E-004  0.3672964E+02  0.7546771E-02  0.1543867E+00
         -2   -1    0    0    0  501 -0.00000000000E+00  0.00000000000E+00  0.23842220559E+02  0.23842220559E+02  0.00000000000E+00 0.  1.
          2   -1    0    0  503    0  0.00000000000E+00 -0.00000000000E+00 -0.25355844122E+04  0.25355844122E+04  0.00000000000E+00 0. -1.
         25    2    1    2    0    0  0.61254684168E+02  0.81710853461E+01 -0.10279726337E+04  0.10373866305E+04  0.12499752991E+03 0.  0.
          4    1    3    3  502    0 -0.19467397214E+02  0.22116927500E+02 -0.70563052266E+02  0.76478070591E+02  0.12700000000E+01 0. -1.
         -4    1    3    3    0  502  0.80722081382E+02 -0.13945842154E+02 -0.95740958145E+03  0.96090855990E+03  0.12700000000E+01 0. -1.
          1    1    1    2  503    0 -0.27184145054E+02 -0.21058732130E+02 -0.14851878319E+04  0.14855858588E+04  0.00000000000E+00 0. -1.
         -1    1    1    2    0  501 -0.34070539115E+02  0.12887646784E+02  0.14182739400E+01  0.36454143470E+02  0.00000000000E+00 0.  1.
<mgrwt>
<rscale>  0 0.35538888E+02</rscale>
<asrwt>0</asrwt>
<pdfrwt beam="2">  1        2 0.39009010E+00 0.34386741E+02</pdfrwt>
<pdfrwt beam="1">  1       -2 0.36680321E-02 0.36729639E+02</pdfrwt>
<totfact> 0.12857422E+03</totfact>
</mgrwt>
</event>
<event>
 7    1  0.7037933E-004  0.7510792E+02  0.7546771E-02  0.1455730E+00
         -2   -1    0    0    0  501 -0.00000000000E+00  0.00000000000E+00  0.14996777624E+03  0.14996777624E+03  0.00000000000E+00 0.  1.
          2   -1    0    0  503    0  0.00000000000E+00 -0.00000000000E+00 -0.54727966707E+03  0.54727966707E+03  0.00000000000E+00 0. -1.
         25    2    1    2    0    0  0.70832289086E+02 -0.18198365325E+02 -0.21178695086E+00  0.14482040452E+03  0.12499804412E+03 0.  0.
          4    1    3    3  502    0  0.52331216660E+02 -0.70146386611E+02 -0.12206579282E+02  0.88372423694E+02  0.12700000000E+01 0. -1.
         -4    1    3    3    0  502  0.18501072426E+02  0.51948021287E+02  0.11994792331E+02  0.56447980828E+02  0.12700000000E+01 0. -1.
          3    1    1    2  503    0 -0.59205342670E+02  0.46757162215E+02 -0.46856198979E+03  0.47459650557E+03  0.00000000000E+00 0. -1.
         -1    1    1    2    0  501 -0.11626946416E+02 -0.28558796891E+02  0.71461885910E+02  0.77830533215E+02  0.00000000000E+00 0.  1.
<mgrwt>
<rscale>  0 0.48124263E+02</rscale>
<asrwt>0</asrwt>
<pdfrwt beam="2">  1        2 0.84196873E-01 0.75107915E+02</pdfrwt>
<pdfrwt beam="1">  1       -2 0.23071965E-01 0.30834895E+02</pdfrwt>
<totfact> 0.87595994E+02</totfact>
</mgrwt>
</event>
<event>
 7    1  0.7037933E-004  0.1191860E+03  0.7546771E-02  0.1350300E+00
          2   -1    0    0  503    0  0.00000000000E+00  0.00000000000E+00  0.82732346391E+03  0.82732346391E+03  0.00000000000E+00 0. -1.
          1   -1    0    0  502    0 -0.00000000000E+00 -0.00000000000E+00 -0.74345668745E+03  0.74345668745E+03  0.00000000000E+00 0. -1.
         25    2    1    2    0    0  0.73190624981E+02  0.58765578047E+02 -0.27582156974E+03  0.31703210178E+03  0.12498621715E+03 0.  0.
          4    1    3    3  501    0  0.49434514096E+02 -0.34068337228E+02 -0.11776604598E+03  0.13219257646E+03  0.12700000000E+01 0. -1.
         -4    1    3    3    0  501  0.23756110885E+02  0.92833915275E+02 -0.15805552377E+03  0.18483952533E+03  0.12700000000E+01 0. -1.
          2    1    1    2  502    0 -0.83285606402E+02 -0.10227507529E+03 -0.43666137528E+03  0.45614673069E+03  0.00000000000E+00 0. -1.
          1    1    1    2  503    0  0.10094981421E+02  0.43509497241E+02  0.79634972148E+03  0.79760131889E+03  0.00000000000E+00 0. -1.
<mgrwt>
<rscale>  0 0.72962149E+02</rscale>
<asrwt>0</asrwt>
<pdfrwt beam="1">  1        2 0.12728053E+00 0.44665255E+02</pdfrwt>
<pdfrwt beam="2">  1        1 0.11437795E+00 0.11918605E+03</pdfrwt>
<totfact> 0.13372840E+02</totfact>
</mgrwt>
</event>
<event>
 7    1  0.7037933E-004  0.6897823E+02  0.7546771E-02  0.1368458E+00
          2   -1    0    0  503    0  0.00000000000E+00  0.00000000000E+00  0.71226117787E+03  0.71226117787E+03  0.00000000000E+00 0. -1.
         -2   -1    0    0    0  501 -0.00000000000E+00 -0.00000000000E+00 -0.19246799224E+03  0.19246799224E+03  0.00000000000E+00 0.  1.
         25    2    1    2    0    0  0.35258745210E+02 -0.44726718430E+01 -0.91073434647E-01  0.12995680476E+03  0.12500231558E+03 0.  0.
          4    1    3    3  502    0 -0.42328938407E+02 -0.15514058606E+02  0.19547515121E+02  0.49154280470E+02  0.12700000000E+01 0.  1.
         -4    1    3    3    0  502  0.77587683617E+02  0.11041386763E+02 -0.19638588556E+02  0.80802524287E+02  0.12700000000E+01 0.  1.
          1    1    1    2  503    0 -0.20109697986E+01 -0.66214330194E+02  0.63346658754E+03  0.63692095197E+03  0.00000000000E+00 0. -1.
         -1    1    1    2    0  501 -0.33247775411E+02  0.70687002037E+02 -0.11358232849E+03  0.13785141338E+03  0.00000000000E+00 0.  1.
<mgrwt>
<rscale>  0 0.67597729E+02</rscale>
<asrwt>0</asrwt>
<pdfrwt beam="1">  1        2 0.10957864E+00 0.66244860E+02</pdfrwt>
<pdfrwt beam="2">  1       -2 0.29610461E-01 0.68978227E+02</pdfrwt>
<totfact> 0.44041398E+02</totfact>
</mgrwt>
</event>
<event>
 7    1  0.7037933E-004  0.6979609E+02  0.7546771E-02  0.1493949E+00
         -2   -1    0    0    0  501 -0.00000000000E+00  0.00000000000E+00  0.80951238244E+01  0.80951238244E+01  0.00000000000E+00 0.  1.
          2   -1    0    0  503    0  0.00000000000E+00 -0.00000000000E+00 -0.25886599416E+04  0.25886599416E+04  0.00000000000E+00 0. -1.
         25    2    1    2    0    0  0.50329970739E+02  0.75839697025E+01 -0.11420030445E+04  0.11499475935E+04  0.12497156270E+03 0.  0.
          4    1    3    3  502    0  0.86851149354E+01  0.22598317423E+02 -0.38116015266E+02  0.45172543558E+02  0.12700000000E+01 0.  1.
         -4    1    3    3    0  502  0.41644855804E+02 -0.15014347720E+02 -0.11038870293E+04  0.11047750499E+04  0.12700000000E+01 0.  1.
          1    1    1    2  503    0  0.23613786275E+02  0.90275969588E+01 -0.10813124623E+04  0.10816079463E+04  0.00000000000E+00 0. -1.
         -1    1    1    2    0  501 -0.73943757015E+02 -0.16611566661E+02 -0.35724931098E+03  0.36519952566E+03  0.00000000000E+00 0.  1.
<mgrwt>
<rscale>  0 0.42005792E+02</rscale>
<asrwt>0</asrwt>
<pdfrwt beam="2">  1        2 0.39825576E+00 0.25280594E+02</pdfrwt>
<pdfrwt beam="1">  1       -2 0.12454025E-02 0.69796090E+02</pdfrwt>
<totfact> 0.64686236E+03</totfact>
</mgrwt>
</event>
<event>
 7    1  0.7037933E-004  0.7063934E+02  0.7546771E-02  0.1465900E+00
          1   -1    0    0  502    0 -0.00000000000E+00  0.00000000000E+00  0.35016884836E+03  0.35016884836E+03  0.00000000000E+00 0. -1.
          2   -1    0    0  503    0  0.00000000000E+00 -0.00000000000E+00 -0.22342831076E+04  0.22342831076E+04  0.00000000000E+00 0. -1.
         25    2    1    2    0    0 -0.10090550679E+03  0.83050735737E+00  0.39576483666E+02  0.16545198512E+03  0.12500180110E+03 0.  0.
          4    1    3    3  501    0 -0.10201578230E+03 -0.37739460776E+01  0.76895396395E+02  0.12781227404E+03  0.12700000000E+01 0. -1.
         -4    1    3    3    0  501  0.11102755143E+01  0.46044534350E+01 -0.37318912728E+02  0.37639711083E+02  0.12700000000E+01 0. -1.
          2    1    1    2  502    0  0.30435359198E+02 -0.10434924430E+01  0.24614424124E+03  0.24802094158E+03  0.00000000000E+00 0. -1.
          1    1    1    2  503    0  0.70470147590E+02  0.21298508563E+00 -0.21698349841E+04  0.21709790292E+04  0.00000000000E+00 0. -1.
<mgrwt>
<rscale>  0 0.46380996E+02</rscale>
<asrwt>0</asrwt>
<pdfrwt beam="2">  1        2 0.34373585E+00 0.70639336E+02</pdfrwt>
<pdfrwt beam="1">  1        1 0.53872133E-01 0.30453242E+02</pdfrwt>
<totfact> 0.65220210E+01</totfact>
</mgrwt>
</event>
<event>
 7    1  0.7037933E-004  0.7915705E+02  0.7546771E-02  0.1383827E+00
         -1   -1    0    0    0  501 -0.00000000000E+00  0.00000000000E+00  0.55481387500E+03  0.55481387500E+03  0.00000000000E+00 0.  1.
          1   -1    0    0  503    0  0.00000000000E+00 -0.00000000000E+00 -0.29250667537E+03  0.29250667537E+03  0.00000000000E+00 0. -1.
         25    2    1    2    0    0 -0.73325408632E+02 -0.83959660566E+02  0.37566050802E+02  0.17163688877E+03  0.12498869253E+03 0.  0.
          4    1    3    3  502    0  0.11173995248E+02 -0.56946309949E+02  0.56404949025E+02  0.80937454625E+02  0.12700000000E+01 0.  1.
         -4    1    3    3    0  502 -0.84499403880E+02 -0.27013350618E+02 -0.18838898223E+02  0.90699434143E+02  0.12700000000E+01 0.  1.
          2    1    1    2  503    0  0.49980803918E+02  0.95715410402E+01 -0.21915851713E+03  0.22498922372E+03  0.00000000000E+00 0. -1.
         -2    1    1    2    0  501  0.23344604714E+02  0.74388119526E+02  0.44389966596E+03  0.45069443788E+03  0.00000000000E+00 0.  1.
<mgrwt>
<rscale>  0 0.63468314E+02</rscale>
<asrwt>0</asrwt>
<pdfrwt beam="2">  1        1 0.45001027E-01 0.50889048E+02</pdfrwt>
<pdfrwt beam="1">  1       -1 0.85355981E-01 0.79157049E+02</pdfrwt>
<totfact> 0.13536324E+02</totfact>
</mgrwt>
</event>
<event>
 7    1  0.7037933E-004  0.1217812E+03  0.7546771E-02  0.1252556E+00
          2   -1    0    0  503    0  0.00000000000E+00  0.00000000000E+00  0.70459045901E+03  0.70459045901E+03  0.00000000000E+00 0. -1.
          1   -1    0    0  502    0 -0.00000000000E+00 -0.00000000000E+00 -0.62117376794E+03  0.62117376794E+03  0.00000000000E+00 0. -1.
         25    2    1    2    0    0  0.76287391982E+02  0.45385547814E+02  0.19107860140E+03  0.24497944414E+03  0.12499712802E+03 0.  0.
          4    1    3    3  501    0  0.77034593394E+02  0.55413366480E+02  0.20607584307E+03  0.22687846033E+03  0.12700000000E+01 0.  1.
         -4    1    3    3    0  501 -0.74720141274E+00 -0.10027818666E+02 -0.14997241673E+02  0.18100983812E+02  0.12700000000E+01 0.  1.
          2    1    1    2  502    0  0.62164449719E+02 -0.87760901811E+02 -0.57838370590E+03  0.58829763381E+03  0.00000000000E+00 0. -1.
          1    1    1    2  503    0 -0.13845184170E+03  0.42375353997E+02  0.47072179557E+03  0.49248714899E+03  0.00000000000E+00 0. -1.
<mgrwt>
<rscale>  0 0.11444310E+03</rscale>
<asrwt>0</asrwt>
<pdfrwt beam="1">  1        2 0.10839853E+00 0.12178119E+03</pdfrwt>
<pdfrwt beam="2">  1        1 0.95565196E-01 0.10754717E+03</pdfrwt>
<totfact> 0.20199058E+02</totfact>
</mgrwt>
</event>
<event>
 7    1  0.7037933E-004  0.5678690E+02  0.7546771E-02  0.1435581E+00
          1   -1    0    0  502    0 -0.00000000000E+00  0.00000000000E+00  0.10606725556E+04  0.10606725556E+04  0.00000000000E+00 0. -1.
          2   -1    0    0  503    0  0.00000000000E+00 -0.00000000000E+00 -0.56727285087E+02  0.56727285087E+02  0.00000000000E+00 0. -1.
         25    2    1    2    0    0 -0.61317312926E+02 -0.75638098977E+01  0.11210048294E+03  0.17892081264E+03  0.12501645826E+03 0.  0.
          4    1    3    3  501    0 -0.37778450410E+02 -0.13172953873E+02  0.13786092338E+03  0.14355481575E+03  0.12700000000E+01 0.  1.
         -4    1    3    3    0  501 -0.23538862516E+02  0.56091439750E+01 -0.25760440439E+02  0.35365996894E+02  0.12700000000E+01 0.  1.
          2    1    1    2  502    0  0.43996052479E+02 -0.36507360942E+02  0.88921740187E+03  0.89105332490E+03  0.00000000000E+00 0. -1.
          1    1    1    2  503    0  0.17321260448E+02  0.44071170839E+02  0.26273857019E+01  0.47425703139E+02  0.00000000000E+00 0. -1.
<mgrwt>
<rscale>  0 0.51855788E+02</rscale>
<asrwt>0</asrwt>
<pdfrwt beam="2">  1        2 0.87272754E-02 0.47352869E+02</pdfrwt>
<pdfrwt beam="1">  1        1 0.16318038E+00 0.56786902E+02</pdfrwt>
<totfact> 0.14716666E+03</totfact>
</mgrwt>
</event>
<event>
 7    1  0.7037933E-004  0.9404142E+02  0.7546771E-02  0.1362243E+00
          2   -1    0    0  503    0  0.00000000000E+00  0.00000000000E+00  0.19304545885E+04  0.19304545885E+04  0.00000000000E+00 0. -1.
         -2   -1    0    0    0  501 -0.00000000000E+00 -0.00000000000E+00 -0.60117032262E+03  0.60117032262E+03  0.00000000000E+00 0.  1.
         25    2    1    2    0    0 -0.10357607510E+03 -0.56517165420E+02 -0.30852367917E+03  0.35317913826E+03  0.12500579896E+03 0.  0.
          4    1    3    3  502    0 -0.10608755016E+03 -0.24106507806E+02 -0.30061673262E+03  0.31969942892E+03  0.12700000000E+01 0.  1.
         -4    1    3    3    0  502  0.25114750661E+01 -0.32410657615E+02 -0.79069465535E+01  0.33479709345E+02  0.12700000000E+01 0.  1.
          1    1    1    2  503    0  0.15393164544E+02  0.48803601366E+02  0.19005264596E+04  0.19012152863E+04  0.00000000000E+00 0. -1.
         -1    1    1    2    0  501  0.88182910554E+02  0.77135640540E+01 -0.26271851458E+03  0.27723048657E+03  0.00000000000E+00 0.  1.
<mgrwt>
<rscale>  0 0.69371763E+02</rscale>
<asrwt>0</asrwt>
<pdfrwt beam="1">  1        2 0.29699301E+00 0.51173636E+02</pdfrwt>
<pdfrwt beam="2">  1       -2 0.92487743E-01 0.94041422E+02</pdfrwt>
<totfact> 0.10323322E+01</totfact>
</mgrwt>
</event>
<event>
 7    1  0.7037933E-004  0.9418310E+02  0.7546771E-02  0.1407890E+00
          2   -1    0    0  503    0  0.00000000000E+00  0.00000000000E+00  0.12591169276E+04  0.12591169276E+04  0.00000000000E+00 0. -1.
          1   -1    0    0  502    0 -0.00000000000E+00 -0.00000000000E+00 -0.10459525297E+03  0.10459525297E+03  0.00000000000E+00 0. -1.
         25    2    1    2    0    0 -0.61365998090E+02  0.11038170620E+03  0.16405677149E+03  0.24184295481E+03  0.12499393479E+03 0.  0.
          4    1    3    3  501    0  0.19334150762E+02  0.91466476057E+02  0.10143678903E+03  0.13795274805E+03  0.12700000000E+01 0. -1.
         -4    1    3    3    0  501 -0.80700148852E+02  0.18915230143E+02  0.62619982462E+02  0.10389020676E+03  0.12700000000E+01 0. -1.
          2    1    1    2  502    0  0.24334172620E+02 -0.25584842252E+02 -0.58770482551E+02  0.68561692872E+02  0.00000000000E+00 0. -1.
          1    1    1    2  503    0  0.37031825470E+02 -0.84796863947E+02  0.10492353857E+04  0.10533075329E+04  0.00000000000E+00 0. -1.
<mgrwt>
<rscale>  0 0.57667368E+02</rscale>
<asrwt>0</asrwt>
<pdfrwt beam="1">  1        2 0.19371029E+00 0.94183102E+02</pdfrwt>
<pdfrwt beam="2">  1        1 0.16091578E-01 0.35309151E+02</pdfrwt>
<totfact> 0.83496766E+02</totfact>
</mgrwt>
</event>
<event>
 7    1  0.7037933E-004  0.1946198E+03  0.7546771E-02  0.1207078E+00
          2   -1    0    0  503    0  0.00000000000E+00  0.00000000000E+00  0.12170929923E+04  0.12170929923E+04  0.00000000000E+00 0. -1.
          1   -1    0    0  502    0 -0.00000000000E+00 -0.00000000000E+00 -0.87186482765E+02  0.87186482765E+02  0.00000000000E+00 0. -1.
         25    2    1    2    0    0 -0.13377544562E+03 -0.87470187794E+02  0.27402363089E+03  0.34097137394E+03  0.12500249579E+03 0.  0.
          4    1    3    3  501    0 -0.11237666556E+03 -0.82063787725E+02  0.28434714452E+03  0.31657209560E+03  0.12700000000E+01 0. -1.
         -4    1    3    3    0  501 -0.21398780057E+02 -0.54064000683E+01 -0.10323513627E+02  0.24399278335E+02  0.12700000000E+01 0. -1.
          2    1    1    2  502    0  0.23008875868E+03  0.39367393433E+02  0.22814631908E+03  0.32640675766E+03  0.00000000000E+00 0. -1.
          1    1    1    2  503    0 -0.96313313059E+02  0.48102794360E+02  0.62773655956E+03  0.63690134346E+03  0.00000000000E+00 0. -1.
<mgrwt>
<rscale>  0 0.14474902E+03</rscale>
<asrwt>0</asrwt>
<pdfrwt beam="1">  1        2 0.18724506E+00 0.10765748E+03</pdfrwt>
<pdfrwt beam="2">  1        1 0.13413306E-01 0.19461982E+03</pdfrwt>
<totfact> 0.11967543E+03</totfact>
</mgrwt>
</event>
<event>
 7    1  0.7037933E-004  0.5331417E+02  0.7546771E-02  0.1441284E+00
          2   -1    0    0  503    0  0.00000000000E+00  0.00000000000E+00  0.95684925007E+03  0.95684925007E+03  0.00000000000E+00 0. -1.
          1   -1    0    0  502    0 -0.00000000000E+00 -0.00000000000E+00 -0.15222592998E+03  0.15222592998E+03  0.00000000000E+00 0. -1.
         25    2    1    2    0    0 -0.13566133363E+02 -0.51731696293E+02  0.25094140374E+02  0.13825374157E+03  0.12499669116E+03 0.  0.
          4    1    3    3  501    0  0.45340278144E+01  0.21013089502E+02  0.53817869514E+02  0.57966225664E+02  0.12700000000E+01 0. -1.
         -4    1    3    3    0  501 -0.18100161178E+02 -0.72744785795E+02 -0.28723729140E+02  0.80287515908E+02  0.12700000000E+01 0. -1.
          2    1    1    2  502    0  0.51004822934E+02  0.21170375206E+02 -0.86944990698E+02  0.10300052503E+03  0.00000000000E+00 0. -1.
          1    1    1    2  503    0 -0.37438689570E+02  0.30561321087E+02  0.86647417041E+03  0.86782091345E+03  0.00000000000E+00 0. -1.
<mgrwt>
<rscale>  0 0.50760191E+02</rscale>
<asrwt>0</asrwt>
<pdfrwt beam="1">  1        2 0.14720757E+00 0.48328561E+02</pdfrwt>
<pdfrwt beam="2">  1        1 0.23419374E-01 0.53314167E+02</pdfrwt>
<totfact> 0.82195466E+02</totfact>
</mgrwt>
</event>
<event>
 7    1  0.7037933E-004  0.1566615E+03  0.7546771E-02  0.1233478E+00
          1   -1    0    0  502    0 -0.00000000000E+00  0.00000000000E+00  0.41937837351E+03  0.41937837351E+03  0.00000000000E+00 0. -1.
          2   -1    0    0  503    0  0.00000000000E+00 -0.00000000000E+00 -0.49990451876E+03  0.49990451876E+03  0.00000000000E+00 0. -1.
         25    2    1    2    0    0 -0.10779196161E+02  0.14374116780E+02  0.72761255659E+02  0.14574844631E+03  0.12500241187E+03 0.  0.
          4    1    3    3  501    0  0.17026470701E+02  0.61050913154E+02  0.65097342274E+02  0.90864688260E+02  0.12700000000E+01 0. -1.
         -4    1    3    3    0  501 -0.27805666862E+02 -0.46676796374E+02  0.76639133847E+01  0.54883758050E+02  0.12700000000E+01 0. -1.
          2    1    1    2  502    0  0.13900256902E+03  0.75634715422E+02  0.27511784427E+03  0.31738328974E+03  0.00000000000E+00 0. -1.
          3    1    1    2  503    0 -0.12822337286E+03 -0.90008832202E+02 -0.42840524518E+03  0.45615115622E+03  0.00000000000E+00 0. -1.
<mgrwt>
<rscale>  0 0.12602376E+03</rscale>
<asrwt>0</asrwt>
<pdfrwt beam="2">  1        2 0.76908387E-01 0.15666149E+03</pdfrwt>
<pdfrwt beam="1">  1        1 0.64519750E-01 0.10137773E+03</pdfrwt>
<totfact> 0.49556631E+02</totfact>
</mgrwt>
</event>
<event>
 7    1  0.7037933E-004  0.1380536E+03  0.7546771E-02  0.1308878E+00
          1   -1    0    0  502    0 -0.00000000000E+00  0.00000000000E+00  0.10050330375E+04  0.10050330375E+04  0.00000000000E+00 0. -1.
          2   -1    0    0  503    0  0.00000000000E+00 -0.00000000000E+00 -0.13889252795E+04  0.13889252795E+04  0.00000000000E+00 0. -1.
         25    2    1    2    0    0 -0.80907511051E+02 -0.34659075227E+02 -0.49222505123E+01  0.15295532899E+03  0.12499530902E+03 0.  0.
          4    1    3    3  501    0 -0.46288419283E+02  0.23750651773E+02  0.44896280313E+02  0.68731361876E+02  0.12700000000E+01 0.  1.
         -4    1    3    3    0  501 -0.34619091768E+02 -0.58409727000E+02 -0.49818530825E+02  0.84223967115E+02  0.12700000000E+01 0.  1.
          2    1    1    2  502    0 -0.55529021066E+02  0.43807827682E+00  0.92640669529E+03  0.92806951742E+03  0.00000000000E+00 0. -1.
          1    1    1    2  503    0  0.13643653212E+03  0.34220996950E+02 -0.13053766867E+04  0.13129334706E+04  0.00000000000E+00 0. -1.
<mgrwt>
<rscale>  0 0.87556961E+02</rscale>
<asrwt>0</asrwt>
<pdfrwt beam="2">  1        2 0.21368081E+00 0.13805363E+03</pdfrwt>
<pdfrwt beam="1">  1        1 0.15462047E+00 0.55530749E+02</pdfrwt>
<totfact> 0.39751729E+01</totfact>
</mgrwt>
</event>
<event>
 7    1  0.7037933E-004  0.1345018E+03  0.7546771E-02  0.1322914E+00
          1   -1    0    0  503    0  0.00000000000E+00  0.00000000000E+00  0.13063076343E+03  0.13063076343E+03  0.00000000000E+00 0. -1.
         -1   -1    0    0    0  501 -0.00000000000E+00 -0.00000000000E+00 -0.12864015210E+04  0.12864015210E+04  0.00000000000E+00 0.  1.
         25    2    1    2    0    0 -0.12084492325E+03 -0.11098513651E+03 -0.67933974757E+03  0.70996402498E+03  0.12500091253E+03 0.  0.
          4    1    3    3  502    0 -0.39031235474E+02 -0.28372547264E+02 -0.48243794801E+02  0.68245991953E+02  0.12700000000E+01 0. -1.
         -4    1    3    3    0  502 -0.81813687777E+02 -0.82612589250E+02 -0.63109595277E+03  0.64171803303E+03  0.12700000000E+01 0. -1.
          2    1    1    2  503    0  0.48970414386E+02  0.11220862180E+02  0.10307206416E+03  0.11466411664E+03  0.00000000000E+00 0. -1.
         -2    1    1    2    0  501  0.71874508864E+02  0.99764274333E+02 -0.57950307414E+03  0.59240414279E+03  0.00000000000E+00 0.  1.
<mgrwt>
<rscale>  0 0.82202831E+02</rscale>
<asrwt>0</asrwt>
<pdfrwt beam="1">  1        1 0.20097041E-01 0.50239519E+02</pdfrwt>
<pdfrwt beam="2">  1       -1 0.19790792E+00 0.13450180E+03</pdfrwt>
<totfact> 0.44150971E+01</totfact>
</mgrwt>
</event>
<event>
 7    1  0.7037933E-004  0.3748705E+02  0.7546771E-02  0.1558600E+00
          1   -1    0    0  502    0 -0.00000000000E+00  0.00000000000E+00  0.15127807639E+03  0.15127807639E+03  0.00000000000E+00 0. -1.
          2   -1    0    0  503    0  0.00000000000E+00 -0.00000000000E+00 -0.19691686462E+04  0.19691686462E+04  0.00000000000E+00 0. -1.
         25    2    1    2    0    0  0.14213112361E+02  0.52166298696E+02 -0.27604987611E+02  0.13896158208E+03  0.12499980268E+03 0.  0.
          4    1    3    3  501    0  0.21539850418E+01  0.73686143262E+02  0.27407608208E+02  0.78657976379E+02  0.12700000000E+01 0.  1.
         -4    1    3    3    0  501  0.12059127319E+02 -0.21519844566E+02 -0.55012595819E+02  0.60303605701E+02  0.12700000000E+01 0.  1.
          2    1    1    2  502    0 -0.27752650214E+02 -0.24663955893E+02  0.91865332431E+02  0.99084608375E+02  0.00000000000E+00 0. -1.
          1    1    1    2  503    0  0.13539537854E+02 -0.27502342802E+02 -0.18821509147E+04  0.18824005322E+04  0.00000000000E+00 0. -1.
<mgrwt>
<rscale>  0 0.33899065E+02</rscale>
<asrwt>0</asrwt>
<pdfrwt beam="2">  1        2 0.30294901E+00 0.30654493E+02</pdfrwt>
<pdfrwt beam="1">  1        1 0.23273551E-01 0.37487054E+02</pdfrwt>
<totfact> 0.26408091E+02</totfact>
</mgrwt>
</event>
<event>
 7    1  0.7037933E-004  0.5274725E+02  0.7546771E-02  0.1488823E+00
         -2   -1    0    0    0  501 -0.00000000000E+00  0.00000000000E+00  0.46937286310E+02  0.46937286310E+02  0.00000000000E+00 0.  1.
          2   -1    0    0  503    0  0.00000000000E+00 -0.00000000000E+00 -0.22172206412E+04  0.22172206412E+04  0.00000000000E+00 0. -1.
         25    2    1    2    0    0 -0.81057374940E+02 -0.30656070017E+02 -0.31915481276E+03  0.35354442603E+03  0.12499509596E+03 0.  0.
          4    1    3    3  502    0 -0.63062453658E+02 -0.78654325711E+02 -0.21189526578E+03  0.23465845941E+03  0.12700000000E+01 0.  1.
         -4    1    3    3    0  502 -0.17994921281E+02  0.47998255694E+02 -0.10725954698E+03  0.11888596663E+03  0.12700000000E+01 0.  1.
          1    1    1    2  503    0  0.49104978499E+02  0.17211889279E+02 -0.18702838879E+04  0.18710075814E+04  0.00000000000E+00 0. -1.
         -1    1    1    2    0  501  0.31952396441E+02  0.13444180738E+02  0.19155345812E+02  0.39605920103E+02  0.00000000000E+00 0.  1.
<mgrwt>
<rscale>  0 0.42761122E+02</rscale>
<asrwt>0</asrwt>
<pdfrwt beam="2">  1        2 0.34111085E+00 0.52747253E+02</pdfrwt>
<pdfrwt beam="1">  1       -2 0.72211213E-02 0.34665568E+02</pdfrwt>
<totfact> 0.64936058E+02</totfact>
</mgrwt>
</event>
<event>
 7    1  0.7037933E-004  0.7761059E+02  0.7546771E-02  0.1352575E+00
          1   -1    0    0  503    0  0.00000000000E+00  0.00000000000E+00  0.15419159528E+04  0.15419159528E+04  0.00000000000E+00 0. -1.
         -1   -1    0    0    0  501 -0.00000000000E+00 -0.00000000000E+00 -0.13836568872E+03  0.13836568872E+03  0.00000000000E+00 0.  1.
         25    2    1    2    0    0 -0.54501015139E+02  0.54865785781E+02  0.82998808628E+02  0.16880489636E+03  0.12500270278E+03 0.  0.
          4    1    3    3  502    0  0.38918076602E+02  0.19485092383E+01  0.15364285219E+02  0.41905698120E+02  0.12700000000E+01 0. -1.
         -4    1    3    3    0  502 -0.93419091741E+02  0.52917276542E+02  0.67634523409E+02  0.12689919824E+03  0.12700000000E+01 0. -1.
          2    1    1    2  503    0 -0.26297180448E+02 -0.61924104065E+02  0.13978307579E+04  0.13994488073E+04  0.00000000000E+00 0. -1.
         -2    1    1    2    0  501  0.80798195587E+02  0.70583182840E+01 -0.77279302494E+02  0.11202793786E+03  0.00000000000E+00 0.  1.
<mgrwt>
<rscale>  0 0.72259076E+02</rscale>
<asrwt>0</asrwt>
<pdfrwt beam="1">  1        1 0.23721783E+00 0.67276566E+02</pdfrwt>
<pdfrwt beam="2">  1       -1 0.21287030E-01 0.77610590E+02</pdfrwt>
<totfact> 0.13565575E+02</totfact>
</mgrwt>
</event>
<event>
 7    1  0.7037933E-004  0.5087696E+02  0.7546771E-02  0.1452780E+00
          2   -1    0    0  503    0  0.00000000000E+00  0.00000000000E+00  0.18929199201E+04  0.18929199201E+04  0.00000000000E+00 0. -1.
         -2   -1    0    0    0  501 -0.00000000000E+00 -0.00000000000E+00 -0.27195143418E+03  0.27195143418E+03  0.00000000000E+00 0.  1.
         25    2    1    2    0    0 -0.78484616285E+02 -0.39011672693E+02  0.28285021064E+03  0.32142030300E+03  0.12500009569E+03 0.  0.
          4    1    3    3  502    0 -0.97782189643E+02 -0.46732950870E+02  0.28019664418E+03  0.30042819046E+03  0.12700000000E+01 0.  1.
         -4    1    3    3    0  502  0.19297573358E+02  0.77212781764E+01  0.26535664567E+01  0.20992112545E+02  0.12700000000E+01 0.  1.
          1    1    1    2  503    0  0.50228381867E+02  0.20634275299E+01  0.15882428429E+04  0.15890382236E+04  0.00000000000E+00 0. -1.
         -1    1    1    2    0  501  0.28256234419E+02  0.36948245163E+02 -0.25012456757E+03  0.25441282772E+03  0.00000000000E+00 0.  1.
<mgrwt>
<rscale>  0 0.48646790E+02</rscale>
<asrwt>0</asrwt>
<pdfrwt beam="1">  1        2 0.29121844E+00 0.50876958E+02</pdfrwt>
<pdfrwt beam="2">  1       -2 0.41838684E-01 0.46514381E+02</pdfrwt>
<totfact> 0.54740810E+01</totfact>
</mgrwt>
</event>
<event>
 7    1  0.7037933E-004  0.6995308E+02  0.7546771E-02  0.1365408E+00
         -2   -1    0    0    0  501 -0.00000000000E+00  0.00000000000E+00  0.44398251719E+03  0.44398251719E+03  0.00000000000E+00 0.  1.
          2   -1    0    0  503    0  0.00000000000E+00 -0.00000000000E+00 -0.96090477749E+03  0.96090477749E+03  0.00000000000E+00 0. -1.
         25    2    1    2    0    0  0.10045538864E+02  0.57734024568E+02 -0.29951565620E+02  0.14126270531E+03  0.12499570066E+03 0.  0.
          4    1    3    3  502    0  0.32198499285E+02  0.68028520384E+02 -0.64365467116E+02  0.99041149019E+02  0.12700000000E+01 0. -1.
         -4    1    3    3    0  502 -0.22152960422E+02 -0.10294495816E+02  0.34413901496E+02  0.42221556292E+02  0.12700000000E+01 0. -1.
          1    1    1    2  503    0  0.57543716011E+02 -0.34317682469E+02 -0.87070567536E+03  0.87327965492E+03  0.00000000000E+00 0. -1.
         -1    1    1    2    0  501 -0.67589254875E+02 -0.23416342099E+02  0.38373498069E+03  0.39034493445E+03  0.00000000000E+00 0.  1.
<mgrwt>
<rscale>  0 0.68460551E+02</rscale>
<asrwt>0</asrwt>
<pdfrwt beam="2">  1        2 0.14783150E+00 0.66999870E+02</pdfrwt>
<pdfrwt beam="1">  1       -2 0.68305004E-01 0.69953077E+02</pdfrwt>
<totfact> 0.61618914E+01</totfact>
</mgrwt>
</event>
<event>
 7    1  0.7037933E-004  0.8375989E+02  0.7546771E-02  0.1348401E+00
          2   -1    0    0  503    0  0.00000000000E+00  0.00000000000E+00  0.17221838056E+04  0.17221838056E+04  0.00000000000E+00 0. -1.
          1   -1    0    0  502    0 -0.00000000000E+00 -0.00000000000E+00 -0.38808638092E+03  0.38808638092E+03  0.00000000000E+00 0. -1.
         25    2    1    2    0    0  0.12483163736E+03  0.10460519285E+02 -0.26543360792E+03  0.31901183944E+03  0.12498477245E+03 0.  0.
          4    1    3    3  501    0  0.50958266184E+02 -0.52372276450E+02 -0.71832797341E+02  0.10247518679E+03  0.12700000000E+01 0. -1.
         -4    1    3    3    0  501  0.73873371173E+02  0.62832795734E+02 -0.19360081058E+03  0.21653665266E+03  0.12700000000E+01 0. -1.
          2    1    1    2  502    0 -0.47898854283E+02 -0.43339106126E+02 -0.83823997320E+02  0.10582552097E+03  0.00000000000E+00 0. -1.
          1    1    1    2  503    0 -0.76932783073E+02  0.32878586841E+02  0.16833550299E+04  0.16854328261E+04  0.00000000000E+00 0. -1.
<mgrwt>
<rscale>  0 0.73556183E+02</rscale>
<asrwt>0</asrwt>
<pdfrwt beam="1">  1        2 0.26495135E+00 0.83759894E+02</pdfrwt>
<pdfrwt beam="2">  1        1 0.59705598E-01 0.64595498E+02</pdfrwt>
<totfact> 0.10160158E+02</totfact>
</mgrwt>
</event>
<event>
 7    1  0.7037933E-004  0.1792478E+03  0.7546771E-02  0.1320903E+00
          1   -1    0    0  502    0 -0.00000000000E+00  0.00000000000E+00  0.71875014592E+03  0.71875014592E+03  0.00000000000E+00 0. -1.
          2   -1    0    0  503    0  0.00000000000E+00 -0.00000000000E+00 -0.77136966207E+03  0.77136966207E+03  0.00000000000E+00 0. -1.
         25    2    1    2    0    0  0.52681521145E+02 -0.15010496625E+03  0.11672163272E+03  0.23357266091E+03  0.12500161927E+03 0.  0.
          4    1    3    3  501    0  0.11164428169E+02 -0.15625288723E+03  0.72589839610E+02  0.17265719486E+03  0.12700000000E+01 0. -1.
         -4    1    3    3    0  501  0.41517092976E+02  0.61479209760E+01  0.44131793106E+02  0.60915466052E+02  0.12700000000E+01 0. -1.
          2    1    1    2  502    0 -0.31931451152E+02  0.18239137155E+03  0.52729141026E+03  0.55885817640E+03  0.00000000000E+00 0. -1.
          1    1    1    2  503    0 -0.20750069993E+02 -0.32286405301E+02 -0.69663255913E+03  0.69768897068E+03  0.00000000000E+00 0. -1.
<mgrwt>
<rscale>  0 0.82942267E+02</rscale>
<asrwt>0</asrwt>
<pdfrwt beam="2">  1        2 0.11867226E+00 0.38379387E+02</pdfrwt>
<pdfrwt beam="1">  1        1 0.11057695E+00 0.17924777E+03</pdfrwt>
<totfact> 0.15071521E+02</totfact>
</mgrwt>
</event>
<event>
 7    1  0.7037933E-004  0.3730340E+02  0.7546771E-02  0.1540473E+00
         -1   -1    0    0    0  501 -0.00000000000E+00  0.00000000000E+00  0.21300860826E+02  0.21300860826E+02  0.00000000000E+00 0.  1.
          1   -1    0    0  503    0  0.00000000000E+00 -0.00000000000E+00 -0.61077902664E+03  0.61077902664E+03  0.00000000000E+00 0. -1.
         25    2    1    2    0    0  0.16791001511E+02 -0.50825307013E+01 -0.25886583956E+03  0.28799913585E+03  0.12499683801E+03 0.  0.
          4    1    3    3  502    0  0.64530049078E+02 -0.30226929559E+02 -0.16478305781E+03  0.17953513178E+03  0.12700000000E+01 0.  1.
         -4    1    3    3    0  502 -0.47739047567E+02  0.25144398858E+02 -0.94082781755E+02  0.10846400407E+03  0.12700000000E+01 0.  1.
          2    1    1    2  503    0 -0.81079866877E+01 -0.36411594138E+02 -0.25218623859E+03  0.25493027002E+03  0.00000000000E+00 0. -1.
         -2    1    1    2    0  501 -0.86830148237E+01  0.41494124839E+02 -0.78426087655E+02  0.89150481589E+02  0.00000000000E+00 0.  1.
<mgrwt>
<rscale>  0 0.35932396E+02</rscale>
<asrwt>0</asrwt>
<pdfrwt beam="2">  1        1 0.93965988E-01 0.37303400E+02</pdfrwt>
<pdfrwt beam="1">  1       -1 0.32770561E-02 0.34611780E+02</pdfrwt>
<totfact> 0.95631383E+03</totfact>
</mgrwt>
</event>
<event>
 7    1  0.7037933E-004  0.4688022E+02  0.7546771E-02  0.1525154E+00
          1   -1    0    0  503    0  0.00000000000E+00  0.00000000000E+00  0.58537283437E+03  0.58537283437E+03  0.00000000000E+00 0. -1.
         -1   -1    0    0    0  501 -0.00000000000E+00 -0.00000000000E+00 -0.12280277177E+03  0.12280277177E+03  0.00000000000E+00 0.  1.
         25    2    1    2    0    0 -0.18222774183E+02  0.73373886373E+02  0.40832809777E+02  0.15168206790E+03  0.12499733864E+03 0.  0.
          4    1    3    3  502    0  0.38573427432E+02  0.52719831749E+02  0.59549063698E+02  0.88402453873E+02  0.12700000000E+01 0. -1.
         -4    1    3    3    0  502 -0.56796201615E+02  0.20654054624E+02 -0.18716253922E+02  0.63279614025E+02  0.12700000000E+01 0. -1.
          2    1    1    2  503    0  0.46963866380E+01 -0.46083725630E+02  0.48451115841E+03  0.48672048286E+03  0.00000000000E+00 0. -1.
         -2    1    1    2    0  501  0.13526387545E+02 -0.27290160743E+02 -0.62773905593E+02  0.69773055378E+02  0.00000000000E+00 0.  1.
<mgrwt>
<rscale>  0 0.37787535E+02</rscale>
<asrwt>0</asrwt>
<pdfrwt beam="1">  1        1 0.90057358E-01 0.46880216E+02</pdfrwt>
<pdfrwt beam="2">  1       -1 0.18892734E-01 0.30458431E+02</pdfrwt>
<totfact> 0.78089640E+02</totfact>
</mgrwt>
</event>
<event>
 7    1  0.7037933E-004  0.8290918E+02  0.7546771E-02  0.1321299E+00
          1   -1    0    0  502    0 -0.00000000000E+00  0.00000000000E+00  0.17404420171E+04  0.17404420171E+04  0.00000000000E+00 0. -1.
          2   -1    0    0  503    0  0.00000000000E+00 -0.00000000000E+00 -0.13490350660E+04  0.13490350660E+04  0.00000000000E+00 0. -1.
         25    2    1    2    0    0 -0.10033396265E+03  0.46368574973E+02 -0.35292035571E+03  0.39038189329E+03  0.12501318460E+03 0.  0.
          4    1    3    3  501    0 -0.27059949665E+02  0.49713320374E+02 -0.28445911456E+03  0.29003836962E+03  0.12700000000E+01 0. -1.
         -4    1    3    3    0  501 -0.73274012984E+02 -0.33447454009E+01 -0.68461241156E+02  0.10034352366E+03  0.12700000000E+01 0. -1.
          2    1    1    2  502    0  0.76207368047E+02  0.32716010985E+02  0.17189610763E+04  0.17209605115E+04  0.00000000000E+00 0. -1.
          1    1    1    2  503    0  0.24126594601E+02 -0.79084585957E+02 -0.97463376947E+03  0.97813467830E+03  0.00000000000E+00 0. -1.
<mgrwt>
<rscale>  0 0.82795971E+02</rscale>
<asrwt>0</asrwt>
<pdfrwt beam="2">  1        2 0.20754386E+00 0.82682914E+02</pdfrwt>
<pdfrwt beam="1">  1        1 0.26776031E+00 0.82909181E+02</pdfrwt>
<totfact> 0.13922868E+01</totfact>
</mgrwt>
</event>
<event>
 7    1  0.7037933E-004  0.9876616E+02  0.7546771E-02  0.1329746E+00
          1   -1    0    0  503    0  0.00000000000E+00  0.00000000000E+00  0.74256658286E+03  0.74256658286E+03  0.00000000000E+00 0. -1.
         -1   -1    0    0    0  501 -0.00000000000E+00 -0.00000000000E+00 -0.52646205861E+02  0.52646205861E+02  0.00000000000E+00 0.  1.
         25    2    1    2    0    0 -0.55532033722E+02 -0.43607814353E+02  0.28105982451E+03  0.31560174456E+03  0.12499755186E+03 0.  0.
          4    1    3    3  502    0 -0.21971235609E+02 -0.54965612904E+02  0.27286351610E+03  0.27921329681E+03  0.12700000000E+01 0. -1.
         -4    1    3    3    0  502 -0.33560798113E+02  0.11357798551E+02  0.81963084117E+01  0.36388447748E+02  0.12700000000E+01 0. -1.
          2    1    1    2  503    0  0.43898196995E+02  0.10695267785E+03  0.39780577287E+03  0.41426484274E+03  0.00000000000E+00 0. -1.
         -2    1    1    2    0  501  0.11633836727E+02 -0.63344863499E+02  0.11054779617E+02  0.65346201428E+02  0.00000000000E+00 0.  1.
<mgrwt>
<rscale>  0 0.79755682E+02</rscale>
<asrwt>0</asrwt>
<pdfrwt beam="1">  1        1 0.11424100E+00 0.98766164E+02</pdfrwt>
<pdfrwt beam="2">  1       -1 0.80994169E-02 0.64404331E+02</pdfrwt>
<totfact> 0.20615282E+03</totfact>
</mgrwt>
</event>
<event>
 7    1  0.7037933E-004  0.8544379E+02  0.7546771E-02  0.1438148E+00
          1   -1    0    0  502    0 -0.00000000000E+00  0.00000000000E+00  0.15246887602E+04  0.15246887602E+04  0.00000000000E+00 0. -1.
          2   -1    0    0  503    0  0.00000000000E+00 -0.00000000000E+00 -0.30377541474E+02  0.30377541474E+02  0.00000000000E+00 0. -1.
         25    2    1    2    0    0 -0.26072742837E+02 -0.88068190802E+02  0.21416298709E+03  0.26443756083E+03  0.12500257754E+03 0.  0.
          4    1    3    3  501    0 -0.43755271417E+02 -0.10039446609E+03  0.10018554765E+03  0.14843291231E+03  0.12700000000E+01 0.  1.
         -4    1    3    3    0  501  0.17682528580E+02  0.12326275287E+02  0.11397743944E+03  0.11600464853E+03  0.12700000000E+01 0.  1.
          2    1    1    2  502    0  0.50316083976E+02  0.68956248205E+02  0.12203526030E+04  0.12233344384E+04  0.00000000000E+00 0. -1.
          1    1    1    2  503    0 -0.24243341139E+02  0.19111942597E+02  0.59795628638E+02  0.67294302460E+02  0.00000000000E+00 0. -1.
<mgrwt>
<rscale>  0 0.51358714E+02</rscale>
<asrwt>0</asrwt>
<pdfrwt beam="2">  1        2 0.46734691E-02 0.30870794E+02</pdfrwt>
<pdfrwt beam="1">  1        1 0.23456744E+00 0.85443786E+02</pdfrwt>
<totfact> 0.14523445E+03</totfact>
</mgrwt>
</event>
<event>
 7    1  0.7037933E-004  0.1867159E+03  0.7546771E-02  0.1180216E+00
          1   -1    0    0  502    0 -0.00000000000E+00  0.00000000000E+00  0.12555766392E+04  0.12555766392E+04  0.00000000000E+00 0. -1.
          2   -1    0    0  503    0  0.00000000000E+00 -0.00000000000E+00 -0.22678740335E+04  0.22678740335E+04  0.00000000000E+00 0. -1.
         25    2    1    2    0    0  0.10360921186E+03 -0.18329146747E+00 -0.11231627885E+04  0.11348363046E+04  0.12499554579E+03 0.  0.
          4    1    3    3  501    0  0.77719942022E+02  0.50851769820E+02 -0.46483677630E+03  0.47402651127E+03  0.12700000000E+01 0.  1.
         -4    1    3    3    0  501  0.25889269835E+02 -0.51035061287E+02 -0.65832601215E+03  0.66080979332E+03  0.12700000000E+01 0.  1.
          2    1    1    2  502    0 -0.11158014825E+03  0.15068103024E+03  0.12376621215E+04  0.12517836991E+04  0.00000000000E+00 0. -1.
          1    1    1    2  503    0  0.79709363953E+01 -0.15049773877E+03 -0.11267967273E+04  0.11368306690E+04  0.00000000000E+00 0. -1.
<mgrwt>
<rscale>  0 0.16774895E+03</rscale>
<asrwt>0</asrwt>
<pdfrwt beam="2">  1        2 0.34890370E+00 0.15070868E+03</pdfrwt>
<pdfrwt beam="1">  1        1 0.19316564E+00 0.18671593E+03</pdfrwt>
<totfact> 0.85212766E+00</totfact>
</mgrwt>
</event>
<event>
 7    1  0.7037933E-004  0.4979368E+02  0.7546771E-02  0.1499161E+00
          1   -1    0    0  502    0 -0.00000000000E+00  0.00000000000E+00  0.64455721104E+02  0.64455721104E+02  0.00000000000E+00 0. -1.
          2   -1    0    0  503    0  0.00000000000E+00 -0.00000000000E+00 -0.11701158751E+04  0.11701158751E+04  0.00000000000E+00 0. -1.
         25    2    1    2    0    0 -0.59801381276E+02  0.48053557559E+02 -0.61690921730E+02  0.15911066852E+03  0.12500034167E+03 0.  0.
          4    1    3    3  501    0 -0.39902171219E+02 -0.33203012783E+02 -0.54278151749E+02  0.75115604126E+02  0.12700000000E+01 0.  1.
         -4    1    3    3    0  501 -0.19899210058E+02  0.81256570342E+02 -0.74127699807E+01  0.83995064399E+02  0.12700000000E+01 0.  1.
          2    1    1    2  502    0  0.34469296049E+02 -0.25101235214E+02 -0.13935041600E+02  0.44859667450E+02  0.00000000000E+00 0. -1.
          1    1    1    2  503    0  0.25332085228E+02 -0.22952322345E+02 -0.10300341906E+04  0.10306012602E+04  0.00000000000E+00 0. -1.
<mgrwt>
<rscale>  0 0.41256890E+02</rscale>
<asrwt>0</asrwt>
<pdfrwt beam="2">  1        2 0.18001783E+00 0.34183675E+02</pdfrwt>
<pdfrwt beam="1">  1        1 0.99162647E-02 0.49793679E+02</pdfrwt>
<totfact> 0.18743019E+03</totfact>
</mgrwt>
</event>
<event>
 7    1  0.7037933E-004  0.6970997E+02  0.7546771E-02  0.1411519E+00
          2   -1    0    0  503    0  0.00000000000E+00  0.00000000000E+00  0.10247990569E+04  0.10247990569E+04  0.00000000000E+00 0. -1.
          1   -1    0    0  502    0 -0.00000000000E+00 -0.00000000000E+00 -0.42505089904E+02  0.42505089904E+02  0.00000000000E+00 0. -1.
         25    2    1    2    0    0 -0.48104585088E+02 -0.22986472375E+02  0.40051587738E+03  0.42294803272E+03  0.12501856393E+03 0.  0.
          4    1    3    3  501    0 -0.45696853795E+02 -0.27473518656E+01  0.39990370262E+03  0.40251749609E+03  0.12700000000E+01 0. -1.
         -4    1    3    3    0  501 -0.24077312929E+01 -0.20239120510E+02  0.61217476171E+00  0.20430536628E+02  0.12700000000E+01 0. -1.
          2    1    1    2  502    0 -0.25492507811E+02  0.38736749086E+02 -0.10309071771E+02  0.47504532889E+02  0.00000000000E+00 0. -1.
          1    1    1    2  503    0  0.73597092899E+02 -0.15750276711E+02  0.59208716141E+03  0.59685158122E+03  0.00000000000E+00 0. -1.
<mgrwt>
<rscale>  0 0.56856149E+02</rscale>
<asrwt>0</asrwt>
<pdfrwt beam="1">  1        2 0.15766137E+00 0.69709967E+02</pdfrwt>
<pdfrwt beam="2">  1        1 0.65392454E-02 0.46372445E+02</pdfrwt>
<totfact> 0.36720673E+03</totfact>
</mgrwt>
</event>
<event>
 7    1  0.7037933E-004  0.9211777E+02  0.7546771E-02  0.1345254E+00
          1   -1    0    0  502    0 -0.00000000000E+00  0.00000000000E+00  0.34383644477E+04  0.34383644477E+04  0.00000000000E+00 0. -1.
          2   -1    0    0  503    0  0.00000000000E+00 -0.00000000000E+00 -0.53876588838E+03  0.53876588838E+03  0.00000000000E+00 0. -1.
         25    2    1    2    0    0  0.70586360187E+02 -0.43547161826E+02 -0.22369664149E+02  0.15171102410E+03  0.12504816436E+03 0.  0.
          4    1    3    3  501    0  0.56485151133E+02 -0.90425670571E+00 -0.67498252081E+02  0.88028500571E+02  0.12700000000E+01 0.  1.
         -4    1    3    3    0  501  0.14101209054E+02 -0.42642905120E+02  0.45128587932E+02  0.63682523526E+02  0.12700000000E+01 0.  1.
          2    1    1    2  502    0 -0.29298308613E+02  0.87551173426E+02  0.33710438622E+04  0.33723078626E+04  0.00000000000E+00 0. -1.
          1    1    1    2  503    0 -0.41288051574E+02 -0.44004011601E+02 -0.44907563877E+03  0.45311144940E+03  0.00000000000E+00 0. -1.
<mgrwt>
<rscale>  0 0.74555307E+02</rscale>
<asrwt>0</asrwt>
<pdfrwt beam="2">  1        2 0.82887062E-01 0.60341165E+02</pdfrwt>
<pdfrwt beam="1">  1        1 0.52897913E+00 0.92117773E+02</pdfrwt>
<totfact> 0.34236276E+00</totfact>
</mgrwt>
</event>
<event>
 7    1  0.7037933E-004  0.1065208E+03  0.7546771E-02  0.1282758E+00
          1   -1    0    0  502    0 -0.00000000000E+00  0.00000000000E+00  0.12898346613E+04  0.12898346613E+04  0.00000000000E+00 0. -1.
          2   -1    0    0  503    0  0.00000000000E+00 -0.00000000000E+00 -0.39665592628E+02  0.39665592628E+02  0.00000000000E+00 0. -1.
         25    2    1    2    0    0  0.11022316769E+03 -0.32232195629E+02  0.59502893177E+03  0.61876661314E+03  0.12499852303E+03 0.  0.
          4    1    3    3  501    0  0.91690387665E+02 -0.11257668616E+02  0.17575914686E+03  0.19856171056E+03  0.12700000000E+01 0.  1.
         -4    1    3    3    0  501  0.18532780029E+02 -0.20974527013E+02  0.41926978491E+03  0.42020490258E+03  0.12700000000E+01 0.  1.
          2    1    1    2  502    0 -0.98608706862E+02 -0.58739078556E+02  0.58261275041E+03  0.59381105864E+03  0.00000000000E+00 0. -1.
          1    1    1    2  503    0 -0.11614460832E+02  0.90971274185E+02  0.72527386507E+02  0.11692258217E+03  0.00000000000E+00 0. -1.
<mgrwt>
<rscale>  0 0.98838222E+02</rscale>
<asrwt>0</asrwt>
<pdfrwt beam="2">  1        2 0.61023998E-02 0.91709696E+02</pdfrwt>
<pdfrwt beam="1">  1        1 0.19843607E+00 0.10652084E+03</pdfrwt>
<totfact> 0.16149880E+03</totfact>
</mgrwt>
</event>
<event>
 7    1  0.7037933E-004  0.6709280E+02  0.7546771E-02  0.1468383E+00
          1   -1    0    0  503    0  0.00000000000E+00  0.00000000000E+00  0.12258540371E+04  0.12258540371E+04  0.00000000000E+00 0. -1.
         -1   -1    0    0    0  501 -0.00000000000E+00 -0.00000000000E+00 -0.18108759429E+02  0.18108759429E+02  0.00000000000E+00 0.  1.
         25    2    1    2    0    0  0.59970488937E+02 -0.17904265992E+02  0.98699656684E+03  0.99684704289E+03  0.12499912670E+03 0.  0.
          4    1    3    3  502    0  0.38698159686E+02  0.72550891877E+01  0.79237913137E+02  0.88489794104E+02  0.12700000000E+01 0.  1.
         -4    1    3    3    0  502  0.21272329251E+02 -0.25159355179E+02  0.90775865371E+03  0.90835724879E+03  0.12700000000E+01 0.  1.
          2    1    1    2  503    0 -0.62293164354E+02  0.49314167737E+02  0.15274043176E+03  0.17216842033E+03  0.00000000000E+00 0. -1.
         -2    1    1    2    0  501  0.23226754172E+01 -0.31409901746E+02  0.68008279096E+02  0.74947333337E+02  0.00000000000E+00 0.  1.
<mgrwt>
<rscale>  0 0.45968816E+02</rscale>
<asrwt>0</asrwt>
<pdfrwt beam="1">  1        1 0.18859286E+00 0.67092796E+02</pdfrwt>
<pdfrwt beam="2">  1       -1 0.27859640E-02 0.31495662E+02</pdfrwt>
<totfact> 0.39565706E+03</totfact>
</mgrwt>
</event>
<event>
 7    1  0.7037933E-004  0.4158497E+02  0.7546771E-02  0.1540822E+00
          1   -1    0    0  502    0 -0.00000000000E+00  0.00000000000E+00  0.25399374374E+02  0.25399374374E+02  0.00000000000E+00 0. -1.
          2   -1    0    0  503    0  0.00000000000E+00 -0.00000000000E+00 -0.13647067407E+04  0.13647067407E+04  0.00000000000E+00 0. -1.
         25    2    1    2    0    0 -0.65376543475E+02 -0.25632622599E+02 -0.54787369521E+03  0.56632306345E+03  0.12500041009E+03 0.  0.
          4    1    3    3  501    0 -0.60480524321E+02 -0.80394042626E+01 -0.93948089722E+02  0.11202848881E+03  0.12700000000E+01 0. -1.
         -4    1    3    3    0  501 -0.48960191537E+01 -0.17593218337E+02 -0.45392560548E+03  0.45429457464E+03  0.12700000000E+01 0. -1.
          2    1    1    2  502    0  0.34880037474E+02  0.20192942754E+02 -0.97241791076E+01  0.41460000128E+02  0.00000000000E+00 0. -1.
          1    1    1    2  503    0  0.30496506001E+02  0.54396798448E+01 -0.78170949201E+03  0.78232305149E+03  0.00000000000E+00 0. -1.
<mgrwt>
<rscale>  0 0.35891684E+02</rscale>
<asrwt>0</asrwt>
<pdfrwt beam="2">  1        2 0.20995499E+00 0.30977847E+02</pdfrwt>
<pdfrwt beam="1">  1        1 0.39075941E-02 0.41584975E+02</pdfrwt>
<totfact> 0.49960118E+03</totfact>
</mgrwt>
</event>
<event>
 7    1  0.7037933E-004  0.3048612E+02  0.7546771E-02  0.1618933E+00
         -2   -1    0    0    0  501 -0.00000000000E+00  0.00000000000E+00  0.54885703180E+02  0.54885703180E+02  0.00000000000E+00 0.  1.
          2   -1    0    0  503    0  0.00000000000E+00 -0.00000000000E+00 -0.10693681411E+04  0.10693681411E+04  0.00000000000E+00 0. -1.
         25    2    1    2    0    0 -0.27907090688E+02  0.45834768089E+02 -0.18983285845E+03  0.23353754711E+03  0.12499456023E+03 0.  0.
          4    1    3    3  502    0 -0.36158553890E+02 -0.36977019872E+02 -0.87274167099E+02  0.10145508445E+03  0.12700000000E+01 0. -1.
         -4    1    3    3    0  502  0.82514632027E+01  0.82811787961E+02 -0.10255869135E+03  0.13208246266E+03  0.12700000000E+01 0. -1.
          1    1    1    2  503    0  0.22345308320E+02 -0.20357175276E+02 -0.85222626758E+03  0.85276218170E+03  0.00000000000E+00 0. -1.
         -1    1    1    2    0  501  0.55617823673E+01 -0.25477592813E+02  0.27576688073E+02  0.37954115505E+02  0.00000000000E+00 0.  1.
<mgrwt>
<rscale>  0 0.28195831E+02</rscale>
<asrwt>0</asrwt>
<pdfrwt beam="2">  1        2 0.16451816E+00 0.30486122E+02</pdfrwt>
<pdfrwt beam="1">  1       -2 0.84439551E-02 0.26077599E+02</pdfrwt>
<totfact> 0.19405401E+03</totfact>
</mgrwt>
</event>
<event>
 7    1  0.7037933E-004  0.4281000E+02  0.7546771E-02  0.1511600E+00
         -2   -1    0    0    0  501 -0.00000000000E+00  0.00000000000E+00  0.71706127118E+02  0.71706127118E+02  0.00000000000E+00 0.  1.
          2   -1    0    0  503    0  0.00000000000E+00 -0.00000000000E+00 -0.45108453810E+03  0.45108453810E+03  0.00000000000E+00 0. -1.
         25    2    1    2    0    0  0.71842048439E+01  0.12866726760E+02 -0.41273806416E+02  0.13245322353E+03  0.12499265527E+03 0.  0.
          4    1    3    3  502    0  0.42273928772E+02 -0.26878569272E+02 -0.58183775241E+02  0.76788717539E+02  0.12700000000E+01 0. -1.
         -4    1    3    3    0  502 -0.35089723928E+02  0.39745296033E+02  0.16909968825E+02  0.55664505996E+02  0.12700000000E+01 0. -1.
          1    1    1    2  503    0  0.16937278096E+02  0.32361428923E+02 -0.33709594758E+03  0.33906903626E+03  0.00000000000E+00 0. -1.
         -1    1    1    2    0  501 -0.24121482940E+02 -0.45228155683E+02 -0.10086569798E+01  0.51268405423E+02  0.00000000000E+00 0.  1.
<mgrwt>
<rscale>  0 0.39543256E+02</rscale>
<asrwt>0</asrwt>
<pdfrwt beam="2">  1        2 0.69397620E-01 0.36525792E+02</pdfrwt>
<pdfrwt beam="1">  1       -2 0.11031712E-01 0.42809998E+02</pdfrwt>
<totfact> 0.35807300E+03</totfact>
</mgrwt>
</event>
<event>
 7    1  0.7037933E-004  0.4861075E+02  0.7546771E-02  0.1548923E+00
          2   -1    0    0  503    0  0.00000000000E+00  0.00000000000E+00  0.12272384535E+02  0.12272384535E+02  0.00000000000E+00 0. -1.
         -2   -1    0    0    0  501 -0.00000000000E+00 -0.00000000000E+00 -0.10307366627E+04  0.10307366627E+04  0.00000000000E+00 0.  1.
         25    2    1    2    0    0  0.52779438885E+01  0.30041871277E+02 -0.63129941738E+03  0.64427882441E+03  0.12500351382E+03 0.  0.
          4    1    3    3  502    0 -0.50652884219E+02  0.13609486344E+02 -0.13958232296E+03  0.14911663416E+03  0.12700000000E+01 0. -1.
         -4    1    3    3    0  502  0.55930828107E+02  0.16432384933E+02 -0.49171709442E+03  0.49516219025E+03  0.12700000000E+01 0. -1.
          1    1    1    2  503    0  0.64858844953E+01 -0.52268654156E+02 -0.12892205890E+03  0.13926584713E+03  0.00000000000E+00 0. -1.
         -1    1    1    2    0  501 -0.11763828384E+02  0.22226782879E+02 -0.25824280187E+03  0.25946437569E+03  0.00000000000E+00 0.  1.
<mgrwt>
<rscale>  0 0.34963679E+02</rscale>
<asrwt>0</asrwt>
<pdfrwt beam="1">  1        2 0.18880588E-02 0.48610747E+02</pdfrwt>
<pdfrwt beam="2">  1       -2 0.15857490E+00 0.25147913E+02</pdfrwt>
<totfact> 0.14744873E+03</totfact>
</mgrwt>
</event>
<event>
 7    1  0.7037933E-004  0.1382652E+03  0.7546771E-02  0.1415665E+00
          1   -1    0    0  502    0 -0.00000000000E+00  0.00000000000E+00  0.87119379484E+03  0.87119379484E+03  0.00000000000E+00 0. -1.
          2   -1    0    0  503    0  0.00000000000E+00 -0.00000000000E+00 -0.17331321247E+04  0.17331321247E+04  0.00000000000E+00 0. -1.
         25    2    1    2    0    0  0.42403576114E+02  0.10830579731E+03  0.54157839011E+03  0.56785802077E+03  0.12500948010E+03 0.  0.
          4    1    3    3  501    0  0.41957446702E+02  0.50815195433E+02  0.84447621643E+02  0.10712434421E+03  0.12700000000E+01 0. -1.
         -4    1    3    3    0  501  0.44612941280E+00  0.57490601880E+02  0.45713076847E+03  0.46073367656E+03  0.12700000000E+01 0. -1.
          2    1    1    2  502    0  0.28582782900E+01  0.22458269065E+02  0.31328331719E+03  0.31410027131E+03  0.00000000000E+00 0. -1.
          1    1    1    2  503    0 -0.45261854404E+02 -0.13076406638E+03 -0.17168000371E+04  0.17223676274E+04  0.00000000000E+00 0. -1.
<mgrwt>
<rscale>  0 0.55948593E+02</rscale>
<asrwt>0</asrwt>
<pdfrwt beam="2">  1        2 0.26663571E+00 0.13826521E+03</pdfrwt>
<pdfrwt beam="1">  1        1 0.13402981E+00 0.22639426E+02</pdfrwt>
<totfact> 0.34739902E+01</totfact>
</mgrwt>
</event>
<event>
 7    1  0.7037933E-004  0.1922479E+03  0.7546771E-02  0.1207290E+00
          1   -1    0    0  502    0 -0.00000000000E+00  0.00000000000E+00  0.37953419696E+04  0.37953419696E+04  0.00000000000E+00 0. -1.
          2   -1    0    0  503    0  0.00000000000E+00 -0.00000000000E+00 -0.17320637205E+04  0.17320637205E+04  0.00000000000E+00 0. -1.
         25    2    1    2    0    0  0.20576436067E+01  0.24932905115E+03  0.23595508664E+04  0.23759784106E+04  0.12499562625E+03 0.  0.
          4    1    3    3  501    0  0.53995940165E+02  0.56402477356E+02  0.57542000526E+03  0.58069492538E+03  0.12700000000E+01 0.  1.
         -4    1    3    3    0  501 -0.51938296558E+02  0.19292657379E+03  0.17841308612E+04  0.17952834852E+04  0.12700000000E+01 0.  1.
          2    1    1    2  502    0  0.52371059716E+02 -0.15519361415E+03  0.14211540808E+04  0.14305616754E+04  0.00000000000E+00 0. -1.
          1    1    1    2  503    0 -0.54428703323E+02 -0.94135437000E+02 -0.17174266981E+04  0.17208656042E+04  0.00000000000E+00 0. -1.
<mgrwt>
<rscale>  0 0.14458444E+03</rscale>
<asrwt>0</asrwt>
<pdfrwt beam="2">  1        2 0.26647134E+00 0.10873805E+03</pdfrwt>
<pdfrwt beam="1">  1        1 0.58389876E+00 0.19224789E+03</pdfrwt>
<totfact> 0.30360495E-01</totfact>
</mgrwt>
</event>
<event>
 7    1  0.7037933E-004  0.2610815E+02  0.7546771E-02  0.1672822E+00
          2   -1    0    0  503    0  0.00000000000E+00  0.00000000000E+00  0.37076192804E+03  0.37076192804E+03  0.00000000000E+00 0. -1.
         -2   -1    0    0    0  501 -0.00000000000E+00 -0.00000000000E+00 -0.10890381097E+04  0.10890381097E+04  0.00000000000E+00 0.  1.
         25    2    1    2    0    0 -0.32636175013E+02 -0.62261482544E+01 -0.47598282433E+02  0.13781947890E+03  0.12499890972E+03 0.  0.
          4    1    3    3  502    0 -0.73692476949E+02 -0.32505910719E+02 -0.28399576937E+02  0.85412904532E+02  0.12700000000E+01 0. -1.
         -4    1    3    3    0  502  0.41056301935E+02  0.26279762465E+02 -0.19198705496E+02  0.52406574364E+02  0.12700000000E+01 0. -1.
          1    1    1    2  503    0  0.15672177854E+02  0.20891570882E+02  0.32500126064E+03  0.32604891399E+03  0.00000000000E+00 0. -1.
         -1    1    1    2    0  501  0.16963997160E+02 -0.14665422627E+02 -0.99567915988E+03  0.99593164486E+03  0.00000000000E+00 0.  1.
<mgrwt>
<rscale>  0 0.24196249E+02</rscale>
<asrwt>0</asrwt>
<pdfrwt beam="1">  1        2 0.57040297E-01 0.26108149E+02</pdfrwt>
<pdfrwt beam="2">  1       -2 0.16754432E+00 0.22424358E+02</pdfrwt>
<totfact> 0.23690900E+01</totfact>
</mgrwt>
</event>
<event>
 7    1  0.7037933E-004  0.9139011E+02  0.7546771E-02  0.1311983E+00
         -2   -1    0    0    0  501 -0.00000000000E+00  0.00000000000E+00  0.57355678782E+03  0.57355678782E+03  0.00000000000E+00 0.  1.
          2   -1    0    0  503    0  0.00000000000E+00 -0.00000000000E+00 -0.12102631724E+04  0.12102631724E+04  0.00000000000E+00 0. -1.
         25    2    1    2    0    0  0.80570663814E+02 -0.27572038982E+02  0.12382137963E+03  0.19547679874E+03  0.12501038194E+03 0.  0.
          4    1    3    3  502    0  0.39592482084E+02  0.19599819147E+02  0.12539825754E+03  0.13295884116E+03  0.12700000000E+01 0.  1.
         -4    1    3    3    0  502  0.40978181730E+02 -0.47171858129E+02 -0.15768779080E+01  0.62517957589E+02  0.12700000000E+01 0.  1.
          1    1    1    2  503    0  0.23766219572E+00  0.81555528839E+02 -0.11672886963E+04  0.11701342920E+04  0.00000000000E+00 0. -1.
         -1    1    1    2    0  501 -0.80808326010E+02 -0.53983489857E+02  0.40676093204E+03  0.41820886955E+03  0.00000000000E+00 0.  1.
<mgrwt>
<rscale>  0 0.86333081E+02</rscale>
<asrwt>0</asrwt>
<pdfrwt beam="2">  1        2 0.18619433E+00 0.81555875E+02</pdfrwt>
<pdfrwt beam="1">  1       -2 0.88239506E-01 0.91390115E+02</pdfrwt>
<totfact> 0.25350160E+01</totfact>
</mgrwt>
</event>
<event>
 7    1  0.7037933E-004  0.1512354E+03  0.7546771E-02  0.1310170E+00
          1   -1    0    0  502    0 -0.00000000000E+00  0.00000000000E+00  0.19678054673E+04  0.19678054673E+04  0.00000000000E+00 0. -1.
          2   -1    0    0  503    0  0.00000000000E+00 -0.00000000000E+00 -0.22370758910E+03  0.22370758910E+03  0.00000000000E+00 0. -1.
         25    2    1    2    0    0  0.61759525024E+02 -0.14617803282E+03  0.23057261576E+03  0.30654921483E+03  0.12500573492E+03 0.  0.
          4    1    3    3  501    0 -0.37637589611E+02 -0.40075042758E+02  0.46757578332E+02  0.72183663216E+02  0.12700000000E+01 0.  1.
         -4    1    3    3    0  501  0.99397114635E+02 -0.10610299006E+03  0.18381503743E+03  0.23436555161E+03  0.12700000000E+01 0.  1.
          2    1    1    2  502    0  0.38052845828E+02  0.32587173673E+02  0.16680264874E+04  0.16687786868E+04  0.00000000000E+00 0. -1.
          1    1    1    2  503    0 -0.99812370852E+02  0.11359085915E+03 -0.15450122490E+03  0.21618515479E+03  0.00000000000E+00 0. -1.
<mgrwt>
<rscale>  0 0.87044764E+02</rscale>
<asrwt>0</asrwt>
<pdfrwt beam="2">  1        2 0.34416554E-01 0.15123537E+03</pdfrwt>
<pdfrwt beam="1">  1        1 0.30273929E+00 0.50099331E+02</pdfrwt>
<totfact> 0.88483033E+01</totfact>
</mgrwt>
</event>
<event>
 7    1  0.7037933E-004  0.7683632E+02  0.7546771E-02  0.1426670E+00
          1   -1    0    0  502    0 -0.00000000000E+00  0.00000000000E+00  0.88631668568E+03  0.88631668568E+03  0.00000000000E+00 0. -1.
          2   -1    0    0  503    0  0.00000000000E+00 -0.00000000000E+00 -0.78157482488E+03  0.78157482488E+03  0.00000000000E+00 0. -1.
         25    2    1    2    0    0  0.10315754017E+03  0.27795985611E+02  0.16655246167E+02  0.16527810911E+03  0.12500144485E+03 0.  0.
          4    1    3    3  501    0 -0.25073125522E+02  0.25629554468E+02  0.78177589504E+01  0.36718741001E+02  0.12700000000E+01 0.  1.
         -4    1    3    3    0  501  0.12823066569E+03  0.21664311429E+01  0.88374872163E+01  0.12855936811E+03  0.12700000000E+01 0.  1.
          2    1    1    2  502    0 -0.36359429739E+02  0.89233816453E+01  0.79285321532E+03  0.79373664140E+03  0.00000000000E+00 0. -1.
          1    1    1    2  503    0 -0.66798110432E+02 -0.36719367256E+02 -0.70476660068E+03  0.70887676004E+03  0.00000000000E+00 0. -1.
<mgrwt>
<rscale>  0 0.53634223E+02</rscale>
<asrwt>0</asrwt>
<pdfrwt beam="2">  1        2 0.12024228E+00 0.76836317E+02</pdfrwt>
<pdfrwt beam="1">  1        1 0.13635641E+00 0.37438414E+02</pdfrwt>
<totfact> 0.11494228E+02</totfact>
</mgrwt>
</event>
<event>
 7    1  0.7037933E-004  0.1893497E+03  0.7546771E-02  0.1172022E+00
          2   -1    0    0  503    0  0.00000000000E+00  0.00000000000E+00  0.31638286906E+04  0.31638286906E+04  0.00000000000E+00 0. -1.
         -2   -1    0    0    0  501 -0.00000000000E+00 -0.00000000000E+00 -0.11333521665E+03  0.11333521665E+03  0.00000000000E+00 0.  1.
         25    2    1    2    0    0 -0.29983929815E+03  0.12788295868E+03  0.70233339041E+03  0.78432015932E+03  0.12501306015E+03 0.  0.
          4    1    3    3  502    0 -0.25396329353E+03  0.61554305009E+02  0.59670653610E+03  0.65141890520E+03  0.12700000000E+01 0.  1.
         -4    1    3    3    0  502 -0.45876004621E+02  0.66328653670E+02  0.10562685431E+03  0.13290125413E+03  0.12700000000E+01 0.  1.
          1    1    1    2  503    0  0.13732760350E+03 -0.11463793623E+03  0.23205947959E+04  0.23274795238E+04  0.00000000000E+00 0. -1.
         -1    1    1    2    0  501  0.16251169465E+03 -0.13245022450E+02  0.27565287598E+02  0.16536422405E+03  0.00000000000E+00 0.  1.
<mgrwt>
<rscale>  0 0.17570877E+03</rscale>
<asrwt>0</asrwt>
<pdfrwt beam="1">  1        2 0.48674281E+00 0.18934969E+03</pdfrwt>
<pdfrwt beam="2">  1       -2 0.17436190E-01 0.16305055E+03</pdfrwt>
<totfact> 0.46117367E+01</totfact>
</mgrwt>
</event>
<event>
 7    1  0.7037933E-004  0.8094600E+02  0.7546771E-02  0.1443823E+00
          2   -1    0    0  503    0  0.00000000000E+00  0.00000000000E+00  0.11937582568E+04  0.11937582568E+04  0.00000000000E+00 0. -1.
          1   -1    0    0  502    0 -0.00000000000E+00 -0.00000000000E+00 -0.94843328403E+02  0.94843328403E+02  0.00000000000E+00 0. -1.
         25    2    1    2    0    0 -0.51021495207E+02 -0.84593839678E+01  0.94445988598E+03  0.95409867878E+03  0.12500023388E+03 0.  0.
          4    1    3    3  501    0  0.21485987882E+02  0.30406525115E+02  0.12271374300E+03  0.12824383052E+03  0.12700000000E+01 0. -1.
         -4    1    3    3    0  501 -0.72507483089E+02 -0.38865909082E+02  0.82174614298E+03  0.82585484826E+03  0.12700000000E+01 0. -1.
          2    1    1    2  502    0  0.81514099499E+02  0.16903921770E+01 -0.70259424915E+02  0.10762802903E+03  0.00000000000E+00 0. -1.
          1    1    1    2  503    0 -0.30492604292E+02  0.67689917908E+01  0.22471446736E+03  0.22687487743E+03  0.00000000000E+00 0. -1.
<mgrwt>
<rscale>  0 0.50282592E+02</rscale>
<asrwt>0</asrwt>
<pdfrwt beam="1">  1        2 0.18365510E+00 0.31234887E+02</pdfrwt>
<pdfrwt beam="2">  1        1 0.14591282E-01 0.80945997E+02</pdfrwt>
<totfact> 0.11526265E+03</totfact>
</mgrwt>
</event>
<event>
 7    1  0.7037933E-004  0.1116813E+03  0.7546771E-02  0.1368816E+00
          1   -1    0    0  502    0 -0.00000000000E+00  0.00000000000E+00  0.45332428225E+03  0.45332428225E+03  0.00000000000E+00 0. -1.
          2   -1    0    0  503    0  0.00000000000E+00 -0.00000000000E+00 -0.30890934165E+03  0.30890934165E+03  0.00000000000E+00 0. -1.
         25    2    1    2    0    0 -0.62599386695E+02  0.12411597565E+03  0.62232037039E+02  0.19704448169E+03  0.12502096905E+03 0.  0.
          4    1    3    3  501    0 -0.81008952101E+02  0.24099438950E+02  0.19623391033E+02  0.86775132692E+02  0.12700000000E+01 0. -1.
         -4    1    3    3    0  501  0.18409565406E+02  0.10001653670E+03  0.42608646006E+02  0.11026934899E+03  0.12700000000E+01 0. -1.
          2    1    1    2  502    0  0.36671702438E+02 -0.17869381786E+02  0.30989900358E+03  0.31257242518E+03  0.00000000000E+00 0. -1.
          1    1    1    2  503    0  0.25927684257E+02 -0.10624659387E+03 -0.22771610002E+03  0.25261671704E+03  0.00000000000E+00 0. -1.
<mgrwt>
<rscale>  0 0.67497375E+02</rscale>
<asrwt>0</asrwt>
<pdfrwt beam="2">  1        2 0.47524514E-01 0.11168127E+03</pdfrwt>
<pdfrwt beam="1">  1        1 0.69742197E-01 0.40793732E+02</pdfrwt>
<totfact> 0.76547094E+02</totfact>
</mgrwt>
</event>
<event>
 7    1  0.7037933E-004  0.1695534E+03  0.7546771E-02  0.1227502E+00
          2   -1    0    0  503    0  0.00000000000E+00  0.00000000000E+00  0.14979197547E+04  0.14979197547E+04  0.00000000000E+00 0. -1.
          1   -1    0    0  502    0 -0.00000000000E+00 -0.00000000000E+00 -0.20648456663E+03  0.20648456663E+03  0.00000000000E+00 0. -1.
         25    2    1    2    0    0  0.15779145690E+03  0.19227771840E+03  0.49924995461E+03  0.57161347374E+03  0.12499032491E+03 0.  0.
          4    1    3    3  501    0  0.17295452393E+03  0.19334962467E+03  0.44336589463E+03  0.51368499504E+03  0.12700000000E+01 0. -1.
         -4    1    3    3    0  501 -0.15163067023E+02 -0.10719062781E+01  0.55884059982E+02  0.57928478702E+02  0.12700000000E+01 0. -1.
          2    1    1    2  502    0 -0.67807251749E+02 -0.14952200570E+03 -0.12740857639E+03  0.20781626239E+03  0.00000000000E+00 0. -1.
          1    1    1    2  503    0 -0.89984205155E+02 -0.42755712699E+02  0.91959380989E+03  0.92497458524E+03  0.00000000000E+00 0. -1.
<mgrwt>
<rscale>  0 0.12996852E+03</rscale>
<asrwt>0</asrwt>
<pdfrwt beam="1">  1        2 0.23044919E+00 0.99625339E+02</pdfrwt>
<pdfrwt beam="2">  1        1 0.31766857E-01 0.16955342E+03</pdfrwt>
<totfact> 0.28275483E+02</totfact>
</mgrwt>
</event>
<event>
 7    1  0.7037933E-004  0.1086825E+03  0.7546771E-02  0.1380307E+00
          2   -1    0    0  503    0  0.00000000000E+00  0.00000000000E+00  0.69927056754E+03  0.69927056754E+03  0.00000000000E+00 0. -1.
          1   -1    0    0  502    0 -0.00000000000E+00 -0.00000000000E+00 -0.13528010760E+03  0.13528010760E+03  0.00000000000E+00 0. -1.
         25    2    1    2    0    0  0.81742148669E+02 -0.48553261178E+02  0.31383112560E+03  0.35092623452E+03  0.12498019300E+03 0.  0.
          4    1    3    3  501    0 -0.85017059296E+01  0.31642600640E+02  0.40443922411E+02  0.52065890360E+02  0.12700000000E+01 0.  1.
         -4    1    3    3    0  501  0.90243854599E+02 -0.80195861819E+02  0.27338720319E+03  0.29886034416E+03  0.12700000000E+01 0.  1.
          2    1    1    2  502    0 -0.10814335536E+03  0.21027576764E+02 -0.89431598606E+02  0.14189839718E+03  0.00000000000E+00 0. -1.
          1    1    1    2  503    0  0.26401206694E+02  0.27525684414E+02  0.33959093295E+03  0.34172604343E+03  0.00000000000E+00 0. -1.
<mgrwt>
<rscale>  0 0.64383155E+02</rscale>
<asrwt>0</asrwt>
<pdfrwt beam="1">  1        2 0.10758009E+00 0.38140359E+02</pdfrwt>
<pdfrwt beam="2">  1        1 0.20812325E-01 0.10868253E+03</pdfrwt>
<totfact> 0.14281979E+03</totfact>
</mgrwt>
</event>
<event>
 7    1  0.7037933E-004  0.5043135E+02  0.7546771E-02  0.1468492E+00
          2   -1    0    0  503    0  0.00000000000E+00  0.00000000000E+00  0.40565871760E+03  0.40565871760E+03  0.00000000000E+00 0. -1.
         -2   -1    0    0    0  501 -0.00000000000E+00 -0.00000000000E+00 -0.54817856577E+02  0.54817856577E+02  0.00000000000E+00 0.  1.
         25    2    1    2    0    0 -0.72110120528E+02 -0.29280428231E+02  0.29104439517E+03  0.32617415033E+03  0.12500209369E+03 0.  0.
          4    1    3    3  502    0 -0.79602785390E+02 -0.56842295588E+02  0.13044408846E+03  0.16304883662E+03  0.12700000000E+01 0. -1.
         -4    1    3    3    0  502  0.74926648619E+01  0.27561867357E+02  0.16060030671E+03  0.16312531371E+03  0.12700000000E+01 0. -1.
          1    1    1    2  503    0  0.40920220342E+02 -0.88592279585E+01  0.72231280637E+02  0.83488371977E+02  0.00000000000E+00 0. -1.
         -1    1    1    2    0  501  0.31189900185E+02  0.38139656190E+02 -0.12434814787E+02  0.50814051862E+02  0.00000000000E+00 0.  1.
<mgrwt>
<rscale>  0 0.45950761E+02</rscale>
<asrwt>0</asrwt>
<pdfrwt beam="1">  1        2 0.62409031E-01 0.41868250E+02</pdfrwt>
<pdfrwt beam="2">  1       -2 0.84335167E-02 0.50431352E+02</pdfrwt>
<totfact> 0.60863601E+03</totfact>
</mgrwt>
</event>
<event>
 7    1  0.7037933E-004  0.1175044E+03  0.7546771E-02  0.1363897E+00
          1   -1    0    0  503    0  0.00000000000E+00  0.00000000000E+00  0.10072525292E+04  0.10072525292E+04  0.00000000000E+00 0. -1.
         -1   -1    0    0    0  501 -0.00000000000E+00 -0.00000000000E+00 -0.89839237071E+02  0.89839237071E+02  0.00000000000E+00 0.  1.
         25    2    1    2    0    0 -0.19700740822E+02  0.82131554985E+02  0.37842110203E+03  0.40738359009E+03  0.12500059000E+03 0.  0.
          4    1    3    3  502    0  0.46120521513E+02  0.16285319576E+02  0.71414072669E+02  0.86567296443E+02  0.12700000000E+01 0. -1.
         -4    1    3    3    0  502 -0.65821262334E+02  0.65846235410E+02  0.30700702936E+03  0.32081629365E+03  0.12700000000E+01 0. -1.
          2    1    1    2  503    0 -0.26329133246E+02  0.30632390435E+02  0.56393822081E+03  0.56538295296E+03  0.00000000000E+00 0. -1.
         -2    1    1    2    0  501  0.46029874068E+02 -0.11276394542E+03 -0.24946030672E+02  0.12432522326E+03  0.00000000000E+00 0.  1.
<mgrwt>
<rscale>  0 0.68893507E+02</rscale>
<asrwt>0</asrwt>
<pdfrwt beam="1">  1        1 0.15496192E+00 0.40392655E+02</pdfrwt>
<pdfrwt beam="2">  1       -1 0.13821422E-01 0.11750441E+03</pdfrwt>
<totfact> 0.63297537E+02</totfact>
</mgrwt>
</event>
<event>
 7    1  0.7037933E-004  0.5727132E+02  0.7546771E-02  0.1451621E+00
          1   -1    0    0  502    0 -0.00000000000E+00  0.00000000000E+00  0.13089239652E+04  0.13089239652E+04  0.00000000000E+00 0. -1.
          2   -1    0    0  503    0  0.00000000000E+00 -0.00000000000E+00 -0.62954008032E+03  0.62954008032E+03  0.00000000000E+00 0. -1.
         25    2    1    2    0    0 -0.66046200052E+02  0.63778323660E+02  0.66930032120E+03  0.68703554318E+03  0.12500057010E+03 0.  0.
          4    1    3    3  501    0 -0.55134895305E+02  0.41150205446E+02  0.12947017401E+03  0.14661969495E+03  0.12700000000E+01 0. -1.
         -4    1    3    3    0  501 -0.10911304747E+02  0.22628118214E+02  0.53983014719E+03  0.54041584823E+03  0.12700000000E+01 0. -1.
          2    1    1    2  502    0  0.39575958085E+02 -0.13056727037E+02  0.62874629743E+03  0.63012589307E+03  0.00000000000E+00 0. -1.
          1    1    1    2  503    0  0.26470241967E+02 -0.50721596623E+02 -0.61866273379E+03  0.62130260924E+03  0.00000000000E+00 0. -1.
<mgrwt>
<rscale>  0 0.48854204E+02</rscale>
<asrwt>0</asrwt>
<pdfrwt beam="2">  1        2 0.96852320E-01 0.57271315E+02</pdfrwt>
<pdfrwt beam="1">  1        1 0.20137292E+00 0.41674148E+02</pdfrwt>
<totfact> 0.76713264E+01</totfact>
</mgrwt>
</event>
<event>
 7    1  0.7037933E-004  0.7082592E+02  0.7546771E-02  0.1505459E+00
          2   -1    0    0  503    0  0.00000000000E+00  0.00000000000E+00  0.18656804109E+04  0.18656804109E+04  0.00000000000E+00 0. -1.
          1   -1    0    0  502    0 -0.00000000000E+00 -0.00000000000E+00 -0.11173870760E+04  0.11173870760E+04  0.00000000000E+00 0. -1.
         25    2    1    2    0    0 -0.34230642239E+02 -0.85560518433E+02  0.13234585323E+04  0.13325389242E+04  0.12500063438E+03 0.  0.
          4    1    3    3  501    0 -0.37704349380E+02 -0.39735260186E+02  0.11922622116E+04  0.11935205498E+04  0.12700000000E+01 0.  1.
         -4    1    3    3    0  501  0.34737071411E+01 -0.45825258247E+02  0.13119632078E+03  0.13901837440E+03  0.12700000000E+01 0.  1.
          2    1    1    2  502    0  0.19152291332E+02  0.68168914605E+02 -0.11114734182E+04  0.11137266139E+04  0.00000000000E+00 0. -1.
          1    1    1    2  503    0  0.15078350907E+02  0.17391603828E+02  0.53630822077E+03  0.53680194878E+03  0.00000000000E+00 0. -1.
<mgrwt>
<rscale>  0 0.40376543E+02</rscale>
<asrwt>0</asrwt>
<pdfrwt beam="1">  1        2 0.28702776E+00 0.23017918E+02</pdfrwt>
<pdfrwt beam="2">  1        1 0.17190570E+00 0.70825920E+02</pdfrwt>
<totfact> 0.22517370E+01</totfact>
</mgrwt>
</event>
<event>
 7    1  0.7037933E-004  0.1876563E+03  0.7546771E-02  0.1257387E+00
          1   -1    0    0  502    0 -0.00000000000E+00  0.00000000000E+00  0.50471996904E+03  0.50471996904E+03  0.00000000000E+00 0. -1.
          2   -1    0    0  503    0  0.00000000000E+00 -0.00000000000E+00 -0.21581009475E+03  0.21581009475E+03  0.00000000000E+00 0. -1.
         25    2    1    2    0    0  0.14940801495E+03 -0.87779586040E+02  0.13648257211E+03  0.25353539128E+03  0.12499876593E+03 0.  0.
          4    1    3    3  501    0 -0.77387599529E+01 -0.69640747513E+01  0.60119970415E+02  0.61027948396E+02  0.12700000000E+01 0. -1.
         -4    1    3    3    0  501  0.15714677490E+03 -0.80815511289E+02  0.76362601697E+02  0.19250744288E+03  0.12700000000E+01 0. -1.
          2    1    1    2  502    0  0.41973015919E+02  0.51621202674E+02  0.24318372961E+03  0.25212062386E+03  0.00000000000E+00 0. -1.
          1    1    1    2  503    0 -0.19138103087E+03  0.36158383366E+02 -0.90756427431E+02  0.21487404865E+03  0.00000000000E+00 0. -1.
<mgrwt>
<rscale>  0 0.11173681E+03</rscale>
<asrwt>0</asrwt>
<pdfrwt beam="2">  1        2 0.33201553E-01 0.18765629E+03</pdfrwt>
<pdfrwt beam="1">  1        1 0.77649226E-01 0.66531817E+02</pdfrwt>
<totfact> 0.97710669E+02</totfact>
</mgrwt>
</event>
<event>
 7    1  0.7037933E-004  0.1456403E+03  0.7546771E-02  0.1250849E+00
          2   -1    0    0  503    0  0.00000000000E+00  0.00000000000E+00  0.19848203804E+04  0.19848203804E+04  0.00000000000E+00 0. -1.
          1   -1    0    0  502    0 -0.00000000000E+00 -0.00000000000E+00 -0.12395311374E+04  0.12395311374E+04  0.00000000000E+00 0. -1.
         25    2    1    2    0    0  0.49235858901E+02 -0.29350748613E+02 -0.22633194322E+02  0.13936216592E+03  0.12499566216E+03 0.  0.
          4    1    3    3  501    0 -0.67886817129E+01 -0.48615304448E+01 -0.64626749010E+02  0.65176301409E+02  0.12700000000E+01 0.  1.
         -4    1    3    3    0  501  0.56024540614E+02 -0.24489218169E+02  0.41993554688E+02  0.74185864508E+02  0.12700000000E+01 0.  1.
          2    1    1    2  502    0  0.77134397919E+02 -0.49165152850E+02 -0.11538483669E+04  0.11574683500E+04  0.00000000000E+00 0. -1.
          1    1    1    2  503    0 -0.12637025682E+03  0.78515901463E+02  0.19217708043E+04  0.19275210019E+04  0.00000000000E+00 0. -1.
<mgrwt>
<rscale>  0 0.11542032E+03</rscale>
<asrwt>0</asrwt>
<pdfrwt beam="1">  1        2 0.30535698E+00 0.14564029E+03</pdfrwt>
<pdfrwt beam="2">  1        1 0.19069710E+00 0.91470911E+02</pdfrwt>
<totfact> 0.12989316E+01</totfact>
</mgrwt>
</event>
<event>
 7    1  0.7037933E-004  0.4827199E+02  0.7546771E-02  0.1537739E+00
          2   -1    0    0  503    0  0.00000000000E+00  0.00000000000E+00  0.93038274852E+03  0.93038274852E+03  0.00000000000E+00 0. -1.
         -2   -1    0    0    0  501 -0.00000000000E+00 -0.00000000000E+00 -0.14739954026E+02  0.14739954026E+02  0.00000000000E+00 0.  1.
         25    2    1    2    0    0  0.30099228757E+02 -0.26221083146E+02  0.45018490855E+03  0.46891960688E+03  0.12500254820E+03 0.  0.
          4    1    3    3  502    0 -0.48076274149E+02  0.14650075831E+01  0.15414798080E+03  0.16148277700E+03  0.12700000000E+01 0. -1.
         -4    1    3    3    0  502  0.78175502906E+02 -0.27686090729E+02  0.29603692775E+03  0.30743682988E+03  0.12700000000E+01 0. -1.
          1    1    1    2  503    0 -0.62477362013E+01 -0.26501487441E+02  0.51826546161E+02  0.58543607091E+02  0.00000000000E+00 0. -1.
         -1    1    1    2    0  501 -0.23851492556E+02  0.52722570587E+02  0.41363133978E+03  0.41765948857E+03  0.00000000000E+00 0.  1.
<mgrwt>
<rscale>  0 0.36253952E+02</rscale>
<asrwt>0</asrwt>
<pdfrwt beam="1">  1        2 0.14313576E+00 0.27227983E+02</pdfrwt>
<pdfrwt beam="2">  1       -2 0.22676860E-02 0.48271994E+02</pdfrwt>
<totfact> 0.16718613E+04</totfact>
</mgrwt>
</event>
<event>
 7    1  0.7037933E-004  0.5024158E+02  0.7546771E-02  0.1486079E+00
          1   -1    0    0  502    0 -0.00000000000E+00  0.00000000000E+00  0.15689960464E+03  0.15689960464E+03  0.00000000000E+00 0. -1.
          2   -1    0    0  503    0  0.00000000000E+00 -0.00000000000E+00 -0.74032576957E+03  0.74032576957E+03  0.00000000000E+00 0. -1.
         25    2    1    2    0    0  0.67925637213E+02 -0.45781268682E+02 -0.28537389706E+03  0.32213657746E+03  0.12499558656E+03 0.  0.
          4    1    3    3  501    0  0.10045716180E+03 -0.10524526702E+02 -0.20472155839E+03  0.22828696062E+03  0.12700000000E+01 0. -1.
         -4    1    3    3    0  501 -0.32531524592E+02 -0.35256741980E+02 -0.80652338673E+02  0.93849616838E+02  0.12700000000E+01 0. -1.
          2    1    1    2  502    0 -0.35708794053E+02  0.10061858986E+02  0.13467741541E+03  0.13969382664E+03  0.00000000000E+00 0. -1.
          1    1    1    2  503    0 -0.32216843160E+02  0.35719409696E+02 -0.43272968328E+03  0.43539497012E+03  0.00000000000E+00 0. -1.
<mgrwt>
<rscale>  0 0.43173232E+02</rscale>
<asrwt>0</asrwt>
<pdfrwt beam="2">  1        2 0.11389627E+00 0.50241577E+02</pdfrwt>
<pdfrwt beam="1">  1        1 0.24138401E-01 0.37099312E+02</pdfrwt>
<totfact> 0.10648196E+03</totfact>
</mgrwt>
</event>
<event>
 7    1  0.7037933E-004  0.1378401E+03  0.7546771E-02  0.1378667E+00
          2   -1    0    0  503    0  0.00000000000E+00  0.00000000000E+00  0.15240908348E+04  0.15240908348E+04  0.00000000000E+00 0. -1.
          1   -1    0    0  502    0 -0.00000000000E+00 -0.00000000000E+00 -0.50370677976E+02  0.50370677976E+02  0.00000000000E+00 0. -1.
         25    2    1    2    0    0 -0.11174974086E+03  0.37406846760E+02  0.23712857331E+03  0.29281740738E+03  0.12499918805E+03 0.  0.
          4    1    3    3  501    0  0.11783290460E+02 -0.28917560924E+02  0.50420227399E+02  0.59320177805E+02  0.12700000000E+01 0.  1.
         -4    1    3    3    0  501 -0.12353303132E+03  0.66324407684E+02  0.18670834591E+03  0.23349722957E+03  0.12700000000E+01 0.  1.
          2    1    1    2  502    0 -0.13335293751E+02  0.27405367368E+02 -0.60247215823E+01  0.31067370184E+02  0.00000000000E+00 0. -1.
          1    1    1    2  503    0  0.12508503461E+03 -0.64812214128E+02  0.12426163051E+04  0.12505767352E+04  0.00000000000E+00 0. -1.
<mgrwt>
<rscale>  0 0.64815398E+02</rscale>
<asrwt>0</asrwt>
<pdfrwt beam="1">  1        2 0.23447548E+00 0.13784010E+03</pdfrwt>
<pdfrwt beam="2">  1        1 0.77493362E-02 0.30477602E+02</pdfrwt>
<totfact> 0.14553112E+03</totfact>
</mgrwt>
</event>
<event>
 7    1  0.7037933E-004  0.1101055E+03  0.7546771E-02  0.1377285E+00
          1   -1    0    0  502    0 -0.00000000000E+00  0.00000000000E+00  0.75526837976E+02  0.75526837976E+02  0.00000000000E+00 0. -1.
          2   -1    0    0  503    0  0.00000000000E+00 -0.00000000000E+00 -0.10482481122E+04  0.10482481122E+04  0.00000000000E+00 0. -1.
         25    2    1    2    0    0  0.81654792877E+02  0.87820776013E+02 -0.20717911771E+03  0.27004995473E+03  0.12499518925E+03 0.  0.
          4    1    3    3  501    0 -0.15847612143E+01 -0.23378460065E+02 -0.73924452033E+02  0.77559663301E+02  0.12700000000E+01 0.  1.
         -4    1    3    3    0  501  0.83239554091E+02  0.11119923608E+03 -0.13325466567E+03  0.19249029143E+03  0.12700000000E+01 0.  1.
          2    1    1    2  502    0 -0.36638854165E+02  0.12110276300E+02  0.31111009157E+02  0.49567724553E+02  0.00000000000E+00 0. -1.
          1    1    1    2  503    0 -0.45015938712E+02 -0.99931052313E+02 -0.79665316567E+03  0.80415727090E+03  0.00000000000E+00 0. -1.
<mgrwt>
<rscale>  0 0.65182795E+02</rscale>
<asrwt>0</asrwt>
<pdfrwt beam="2">  1        2 0.16126894E+00 0.11010555E+03</pdfrwt>
<pdfrwt beam="1">  1        1 0.11619514E-01 0.38588398E+02</pdfrwt>
<totfact> 0.16340921E+03</totfact>
</mgrwt>
</event>
<event>
 7    1  0.7037933E-004  0.5050110E+02  0.7546771E-02  0.1533444E+00
          1   -1    0    0  503    0  0.00000000000E+00  0.00000000000E+00  0.69067104857E+03  0.69067104857E+03  0.00000000000E+00 0. -1.
         -1   -1    0    0    0  501 -0.00000000000E+00 -0.00000000000E+00 -0.19303867653E+02  0.19303867653E+02  0.00000000000E+00 0.  1.
         25    2    1    2    0    0  0.37577572404E+02  0.10230526052E+00  0.35388710034E+03  0.37719207619E+03  0.12500279254E+03 0.  0.
          4    1    3    3  502    0 -0.19893131741E+02 -0.21748621243E+02  0.15622818609E+02  0.33382998334E+02  0.12700000000E+01 0.  1.
         -4    1    3    3    0  502  0.57470704146E+02  0.21850926504E+02  0.33826428173E+03  0.34380907786E+03  0.12700000000E+01 0.  1.
          2    1    1    2  503    0  0.12466169021E+02  0.23688496654E+02  0.21153754010E+03  0.21322448527E+03  0.00000000000E+00 0. -1.
         -2    1    1    2    0  501 -0.50043741425E+02 -0.23790801914E+02  0.10594254048E+03  0.11955835477E+03  0.00000000000E+00 0.  1.
<mgrwt>
<rscale>  0 0.36767327E+02</rscale>
<asrwt>0</asrwt>
<pdfrwt beam="1">  1        1 0.10625707E+00 0.26768456E+02</pdfrwt>
<pdfrwt beam="2">  1       -1 0.29698263E-02 0.50501096E+02</pdfrwt>
<totfact> 0.99950966E+03</totfact>
</mgrwt>
</event>
<event>
 7    1  0.7037933E-004  0.1265267E+03  0.7546771E-02  0.1242499E+00
          2   -1    0    0  503    0  0.00000000000E+00  0.00000000000E+00  0.31478883255E+03  0.31478883255E+03  0.00000000000E+00 0. -1.
          1   -1    0    0  502    0 -0.00000000000E+00 -0.00000000000E+00 -0.59268065570E+03  0.59268065570E+03  0.00000000000E+00 0. -1.
         25    2    1    2    0    0 -0.16271221819E+02  0.11224582665E+03  0.83480265505E+02  0.18829710821E+03  0.12499187163E+03 0.  0.
          4    1    3    3  501    0 -0.47674066285E+02  0.11932922043E+03  0.88021724943E+02  0.15576172960E+03  0.12700000000E+01 0. -1.
         -4    1    3    3    0  501  0.31402844466E+02 -0.70833937815E+01 -0.45414594379E+01  0.32535378619E+02  0.12700000000E+01 0. -1.
          2    1    1    2  502    0  0.12355384217E+03 -0.27266272510E+02 -0.50510000322E+03  0.52070626536E+03  0.00000000000E+00 0. -1.
          1    1    1    2  503    0 -0.10728262035E+03 -0.84979554139E+02  0.14372791456E+03  0.19846611467E+03  0.00000000000E+00 0. -1.
<mgrwt>
<rscale>  0 0.12036322E+03</rscale>
<asrwt>0</asrwt>
<pdfrwt beam="1">  1        2 0.48429052E-01 0.11450000E+03</pdfrwt>
<pdfrwt beam="2">  1        1 0.91181638E-01 0.12652668E+03</pdfrwt>
<totfact> 0.51753960E+02</totfact>
</mgrwt>
</event>
<event>
 7    1  0.7037933E-004  0.8215575E+02  0.7546771E-02  0.1431223E+00
          2   -1    0    0  503    0  0.00000000000E+00  0.00000000000E+00  0.10372228709E+04  0.10372228709E+04  0.00000000000E+00 0. -1.
          1   -1    0    0  502    0 -0.00000000000E+00 -0.00000000000E+00 -0.13821593474E+03  0.13821593474E+03  0.00000000000E+00 0. -1.
         25    2    1    2    0    0  0.46793272954E+02  0.10105696446E+03  0.46385488201E+03  0.49314182328E+03  0.12500154335E+03 0.  0.
          4    1    3    3  501    0  0.26922523203E+02  0.10278491843E+03  0.46083705811E+03  0.47292913712E+03  0.12700000000E+01 0. -1.
         -4    1    3    3    0  501  0.19870749751E+02 -0.17279539688E+01  0.30178239044E+01  0.20212686157E+02  0.12700000000E+01 0. -1.
          2    1    1    2  502    0 -0.45824542835E+02 -0.67246075258E+02 -0.10959394698E+03  0.13650185559E+03  0.00000000000E+00 0. -1.
          1    1    1    2  503    0 -0.96873011917E+00 -0.33810889206E+02  0.54474600111E+03  0.54579512676E+03  0.00000000000E+00 0. -1.
<mgrwt>
<rscale>  0 0.52715262E+02</rscale>
<asrwt>0</asrwt>
<pdfrwt beam="1">  1        2 0.15957274E+00 0.33824764E+02</pdfrwt>
<pdfrwt beam="2">  1        1 0.21263991E-01 0.82155749E+02</pdfrwt>
<totfact> 0.86325244E+02</totfact>
</mgrwt>
</event>
<event>
 7    1  0.7037933E-004  0.2458874E+03  0.7546771E-02  0.1218878E+00
          2   -1    0    0  503    0  0.00000000000E+00  0.00000000000E+00  0.13090528593E+04  0.13090528593E+04  0.00000000000E+00 0. -1.
         -2   -1    0    0    0  501 -0.00000000000E+00 -0.00000000000E+00 -0.15542730169E+03  0.15542730169E+03  0.00000000000E+00 0.  1.
         25    2    1    2    0    0 -0.21142749654E+03 -0.20326492304E+02  0.85987960379E+02  0.26104993877E+03  0.12505354300E+03 0.  0.
          4    1    3    3  502    0 -0.45096759548E+02  0.47970820786E+02  0.32603503716E+02  0.73481417537E+02  0.12700000000E+01 0.  1.
         -4    1    3    3    0  502 -0.16633073700E+03 -0.68297313090E+02  0.53384456663E+02  0.18756852123E+03  0.12700000000E+01 0.  1.
          1    1    1    2  503    0  0.23534941598E+03  0.91589830752E+02  0.10947633222E+04  0.11235144754E+04  0.00000000000E+00 0. -1.
         -1    1    1    2    0  501 -0.23921919434E+02 -0.71263338448E+02 -0.27125724991E+02  0.79915746837E+02  0.00000000000E+00 0.  1.
<mgrwt>
<rscale>  0 0.13595466E+03</rscale>
<asrwt>0</asrwt>
<pdfrwt beam="1">  1        2 0.20139274E+00 0.24588738E+03</pdfrwt>
<pdfrwt beam="2">  1       -2 0.23911893E-01 0.75171282E+02</pdfrwt>
<totfact> 0.26154005E+02</totfact>
</mgrwt>
</event>
<event>
 7    1  0.7037933E-004  0.6752092E+02  0.7546771E-02  0.1496848E+00
          2   -1    0    0  503    0  0.00000000000E+00  0.00000000000E+00  0.80104056702E+03  0.80104056702E+03  0.00000000000E+00 0. -1.
         -2   -1    0    0    0  501 -0.00000000000E+00 -0.00000000000E+00 -0.96966437027E+02  0.96966437027E+02  0.00000000000E+00 0.  1.
         25    2    1    2    0    0 -0.31539344169E+02  0.30110995460E+02  0.12579979139E+03  0.18262771733E+03  0.12500357332E+03 0.  0.
          4    1    3    3  502    0  0.31836075767E+02 -0.30872410617E+02  0.44904818589E+02  0.63124457146E+02  0.12700000000E+01 0. -1.
         -4    1    3    3    0  502 -0.63375419936E+02  0.60983406077E+02  0.80894972804E+02  0.11950326018E+03  0.12700000000E+01 0. -1.
          1    1    1    2  503    0  0.52202531260E+02 -0.45247023652E+02  0.64251624394E+03  0.64621940636E+03  0.00000000000E+00 0. -1.
         -1    1    1    2    0  501 -0.20663187091E+02  0.15136028192E+02 -0.64241905342E+02  0.69159880365E+02  0.00000000000E+00 0.  1.
<mgrwt>
<rscale>  0 0.41586864E+02</rscale>
<asrwt>0</asrwt>
<pdfrwt beam="1">  1        2 0.12323701E+00 0.67520921E+02</pdfrwt>
<pdfrwt beam="2">  1       -2 0.14917914E-01 0.25613798E+02</pdfrwt>
<totfact> 0.11327119E+03</totfact>
</mgrwt>
</event>
<event>
 7    1  0.7037933E-004  0.8220856E+02  0.7546771E-02  0.1359325E+00
          1   -1    0    0  502    0 -0.00000000000E+00  0.00000000000E+00  0.56965271872E+03  0.56965271872E+03  0.00000000000E+00 0. -1.
          2   -1    0    0  503    0  0.00000000000E+00 -0.00000000000E+00 -0.46371693605E+03  0.46371693605E+03  0.00000000000E+00 0. -1.
         25    2    1    2    0    0  0.40590504688E+02  0.10317137628E+03  0.12940233058E+02  0.16758373024E+03  0.12499974022E+03 0.  0.
          4    1    3    3  501    0  0.25929496785E+02  0.10081939597E+03 -0.40798484273E+02  0.11181689776E+03  0.12700000000E+01 0.  1.
         -4    1    3    3    0  501  0.14661007903E+02  0.23519803179E+01  0.53738717332E+02  0.55766832478E+02  0.12700000000E+01 0.  1.
          2    1    1    2  502    0 -0.55431885994E+02 -0.22938620401E+02  0.47316814086E+03  0.47695593488E+03  0.00000000000E+00 0. -1.
          1    1    1    2  503    0  0.14841381306E+02 -0.80232755883E+02 -0.38017259125E+03  0.38882998965E+03  0.00000000000E+00 0. -1.
<mgrwt>
<rscale>  0 0.70226365E+02</rscale>
<asrwt>0</asrwt>
<pdfrwt beam="2">  1        2 0.71341067E-01 0.82208560E+02</pdfrwt>
<pdfrwt beam="1">  1        1 0.87638879E-01 0.59990618E+02</pdfrwt>
<totfact> 0.37128896E+02</totfact>
</mgrwt>
</event>
<event>
 7    1  0.7037933E-004  0.6536948E+02  0.7546771E-02  0.1396077E+00
          1   -1    0    0  502    0 -0.00000000000E+00  0.00000000000E+00  0.32919785822E+02  0.32919785822E+02  0.00000000000E+00 0. -1.
          2   -1    0    0  503    0  0.00000000000E+00 -0.00000000000E+00 -0.50169154575E+04  0.50169154575E+04  0.00000000000E+00 0. -1.
         25    2    1    2    0    0 -0.10175278107E+03 -0.32084928658E+02 -0.36920490805E+03  0.40412614787E+03  0.12499043228E+03 0.  0.
          4    1    3    3  501    0 -0.10675529388E+03 -0.46475067460E+02 -0.37089689562E+03  0.38874508968E+03  0.12700000000E+01 0. -1.
         -4    1    3    3    0  501  0.50025128166E+01  0.14390138802E+02  0.16919875692E+01  0.15381058194E+02  0.12700000000E+01 0. -1.
          2    1    1    2  502    0  0.54444076173E+02 -0.12433104508E+02 -0.35969379407E+02  0.66426920544E+02  0.00000000000E+00 0. -1.
          1    1    1    2  503    0  0.47308704893E+02  0.44518033166E+02 -0.45788213842E+04  0.45792821749E+04  0.00000000000E+00 0. -1.
<mgrwt>
<rscale>  0 0.60420218E+02</rscale>
<asrwt>0</asrwt>
<pdfrwt beam="2">  1        2 0.77183312E+00 0.65369479E+02</pdfrwt>
<pdfrwt beam="1">  1        1 0.50645826E-02 0.55845676E+02</pdfrwt>
<totfact> 0.13896069E+01</totfact>
</mgrwt>
</event>
<event>
 7    1  0.7037933E-004  0.9468730E+02  0.7546771E-02  0.1296062E+00
          2   -1    0    0  503    0  0.00000000000E+00  0.00000000000E+00  0.60821396219E+03  0.60821396219E+03  0.00000000000E+00 0. -1.
          1   -1    0    0  502    0 -0.00000000000E+00 -0.00000000000E+00 -0.20283018648E+03  0.20283018648E+03  0.00000000000E+00 0. -1.
         25    2    1    2    0    0 -0.94231136969E+02  0.15003810968E+03 -0.22152912729E+02  0.21795956587E+03  0.12499871711E+03 0.  0.
          4    1    3    3  501    0 -0.11383086475E+03  0.97806723510E+02 -0.46434844796E+02  0.15710324199E+03  0.12700000000E+01 0. -1.
         -4    1    3    3    0  501  0.19599727782E+02  0.52231386172E+02  0.24281932067E+02  0.60856323874E+02  0.12700000000E+01 0. -1.
          2    1    1    2  502    0  0.27578725771E+02 -0.86798782839E+02 -0.51966811671E+02  0.10485782914E+03  0.00000000000E+00 0. -1.
          1    1    1    2  503    0  0.66652411198E+02 -0.63239326843E+02  0.47950350011E+03  0.48822675367E+03  0.00000000000E+00 0. -1.
<mgrwt>
<rscale>  0 0.92863473E+02</rscale>
<asrwt>0</asrwt>
<pdfrwt beam="1">  1        2 0.93571377E-01 0.94687299E+02</pdfrwt>
<pdfrwt beam="2">  1        1 0.31204645E-01 0.91074776E+02</pdfrwt>
<totfact> 0.98189622E+02</totfact>
</mgrwt>
</event>
<event>
 7    1  0.7037933E-004  0.7841976E+02  0.7546771E-02  0.1387531E+00
          2   -1    0    0  503    0  0.00000000000E+00  0.00000000000E+00  0.17549408425E+04  0.17549408425E+04  0.00000000000E+00 0. -1.
          1   -1    0    0  502    0 -0.00000000000E+00 -0.00000000000E+00 -0.13697082380E+04  0.13697082380E+04  0.00000000000E+00 0. -1.
         25    2    1    2    0    0 -0.72876738868E+02  0.28910892122E+01 -0.20207021745E+03  0.24854956572E+03  0.12500054549E+03 0.  0.
          4    1    3    3  501    0 -0.23438422602E+02 -0.57167706918E+02 -0.57686942340E+02  0.84539355243E+02  0.12700000000E+01 0.  1.
         -4    1    3    3    0  501 -0.49438316266E+02  0.60058796131E+02 -0.14438327511E+03  0.16401021047E+03  0.12700000000E+01 0.  1.
          2    1    1    2  502    0  0.60901264645E+02 -0.51283374347E+02 -0.11426540632E+04  0.11454244875E+04  0.00000000000E+00 0. -1.
          1    1    1    2  503    0  0.11975474223E+02  0.48392285135E+02  0.17299568852E+04  0.17306750272E+04  0.00000000000E+00 0. -1.
<mgrwt>
<rscale>  0 0.62525072E+02</rscale>
<asrwt>0</asrwt>
<pdfrwt beam="1">  1        2 0.26999090E+00 0.49852033E+02</pdfrwt>
<pdfrwt beam="2">  1        1 0.21072434E+00 0.78419761E+02</pdfrwt>
<totfact> 0.15738287E+01</totfact>
</mgrwt>
</event>
<event>
 7    1  0.7037933E-004  0.8375187E+02  0.7546771E-02  0.1388471E+00
          1   -1    0    0  502    0 -0.00000000000E+00  0.00000000000E+00  0.21123481738E+04  0.21123481738E+04  0.00000000000E+00 0. -1.
          2   -1    0    0  503    0  0.00000000000E+00 -0.00000000000E+00 -0.11342734333E+03  0.11342734333E+03  0.00000000000E+00 0. -1.
         25    2    1    2    0    0  0.35662016551E+02  0.24527507176E+02  0.79666548076E+02  0.15441717010E+03  0.12499810202E+03 0.  0.
          4    1    3    3  501    0 -0.15521107118E+02 -0.33562761878E+02  0.66177492293E+02  0.75818448528E+02  0.12700000000E+01 0.  1.
         -4    1    3    3    0  501  0.51183123669E+02  0.58090269054E+02  0.13489055783E+02  0.78598721575E+02  0.12700000000E+01 0.  1.
          2    1    1    2  502    0 -0.81913339439E+02 -0.21900084523E+02  0.19872627519E+04  0.19890708016E+04  0.00000000000E+00 0. -1.
          1    1    1    2  503    0  0.46251322887E+02 -0.26274226538E+01 -0.68008469447E+02  0.82287545444E+02  0.00000000000E+00 0. -1.
<mgrwt>
<rscale>  0 0.62288685E+02</rscale>
<asrwt>0</asrwt>
<pdfrwt beam="2">  1        2 0.17450362E-01 0.46325891E+02</pdfrwt>
<pdfrwt beam="1">  1        1 0.32497661E+00 0.83751875E+02</pdfrwt>
<totfact> 0.13578575E+02</totfact>
</mgrwt>
</event>
<event>
 7    1  0.7037933E-004  0.8571661E+02  0.7546771E-02  0.1320502E+00
         -2   -1    0    0    0  501  0.00000000000E+00  0.00000000000E+00  0.11085372145E+03  0.11085372145E+03  0.00000000000E+00 0.  1.
         -1   -1    0    0    0  502 -0.00000000000E+00 -0.00000000000E+00 -0.36792875675E+03  0.36792875675E+03  0.00000000000E+00 0.  1.
         25    2    1    2    0    0  0.32626634893E+02 -0.18601031526E+02 -0.16527222659E+03  0.21059540253E+03  0.12500007603E+03 0.  0.
          4    1    3    3  503    0  0.75288300017E+01 -0.58250960487E+02 -0.15021821558E+03  0.16129780802E+03  0.12700000000E+01 0. -1.
         -4    1    3    3    0  503  0.25097804891E+02  0.39649928961E+02 -0.15054011004E+02  0.49297594508E+02  0.12700000000E+01 0. -1.
         -2    1    1    2    0  502 -0.24353089275E+02 -0.76775829962E+02 -0.13961028854E+03  0.16117888723E+03  0.00000000000E+00 0.  1.
         -1    1    1    2    0  501 -0.82735456186E+01  0.95376861488E+02  0.47807479827E+02  0.10700818843E+03  0.00000000000E+00 0.  1.
<mgrwt>
<rscale>  0 0.83090914E+02</rscale>
<asrwt>0</asrwt>
<pdfrwt beam="1">  1       -2 0.17054418E-01 0.85716614E+02</pdfrwt>
<pdfrwt beam="2">  1       -1 0.56604425E-01 0.80545646E+02</pdfrwt>
<totfact> 0.64536269E+02</totfact>
</mgrwt>
</event>
<event>
 7    1  0.7037933E-004  0.1126918E+03  0.7546771E-02  0.1256555E+00
          2   -1    0    0  503    0  0.00000000000E+00  0.00000000000E+00  0.10156137787E+04  0.10156137787E+04  0.00000000000E+00 0. -1.
          1   -1    0    0  502    0 -0.00000000000E+00 -0.00000000000E+00 -0.96515520177E+03  0.96515520177E+03  0.00000000000E+00 0. -1.
         25    2    1    2    0    0  0.40365350217E+02  0.34636259053E+02 -0.18321682235E+03  0.22808420528E+03  0.12499987508E+03 0.  0.
          4    1    3    3  501    0  0.29001241360E+02 -0.22851070947E+02 -0.13097826970E+01  0.36967172932E+02  0.12700000000E+01 0. -1.
         -4    1    3    3    0  501  0.11364108857E+02  0.57487329999E+02 -0.18190703965E+03  0.19111703235E+03  0.12700000000E+01 0. -1.
          2    1    1    2  502    0  0.55357700248E+02 -0.97021898139E+02 -0.75207974000E+03  0.76032996719E+03  0.00000000000E+00 0. -1.
          1    1    1    2  503    0 -0.95723050465E+02  0.62385639086E+02  0.98575513926E+03  0.99235480798E+03  0.00000000000E+00 0. -1.
<mgrwt>
<rscale>  0 0.11219667E+03</rscale>
<asrwt>0</asrwt>
<pdfrwt beam="1">  1        2 0.15624827E+00 0.11269178E+03</pdfrwt>
<pdfrwt beam="2">  1        1 0.14848542E+00 0.11170373E+03</pdfrwt>
<totfact> 0.66174995E+01</totfact>
</mgrwt>
</event>
<event>
 7    1  0.7037933E-004  0.5579152E+02  0.7546771E-02  0.1490500E+00
         -1   -1    0    0    0  501 -0.00000000000E+00  0.00000000000E+00  0.29578013465E+02  0.29578013465E+02  0.00000000000E+00 0.  1.
          1   -1    0    0  503    0  0.00000000000E+00 -0.00000000000E+00 -0.45589202912E+03  0.45589202912E+03  0.00000000000E+00 0. -1.
         25    2    1    2    0    0 -0.30043832476E+02  0.43146691886E+01 -0.18251738156E+03  0.22328925334E+03  0.12499699134E+03 0.  0.
          4    1    3    3  502    0 -0.78470612771E+02  0.12131673354E+02 -0.10759013498E+03  0.13372383711E+03  0.12700000000E+01 0. -1.
         -4    1    3    3    0  502  0.48426780295E+02 -0.78170041653E+01 -0.74927246577E+02  0.89565416225E+02  0.12700000000E+01 0. -1.
          2    1    1    2  503    0  0.62276735854E+02 -0.10951674609E+01 -0.18273629497E+03  0.19305995111E+03  0.00000000000E+00 0. -1.
         -2    1    1    2    0  501 -0.32232903379E+02 -0.32195017276E+01 -0.61060339120E+02  0.69120838139E+02  0.00000000000E+00 0.  1.
<mgrwt>
<rscale>  0 0.42512008E+02</rscale>
<asrwt>0</asrwt>
<pdfrwt beam="2">  1        1 0.70137232E-01 0.55791517E+02</pdfrwt>
<pdfrwt beam="1">  1       -1 0.45504638E-02 0.32393290E+02</pdfrwt>
<totfact> 0.85547864E+03</totfact>
</mgrwt>
</event>
<event>
 7    1  0.7037933E-004  0.2160957E+03  0.7546771E-02  0.1200861E+00
          2   -1    0    0  503    0  0.00000000000E+00  0.00000000000E+00  0.17420975020E+04  0.17420975020E+04  0.00000000000E+00 0. -1.
         -2   -1    0    0    0  501 -0.00000000000E+00 -0.00000000000E+00 -0.19180076899E+03  0.19180076899E+03  0.00000000000E+00 0.  1.
         25    2    1    2    0    0 -0.13794520621E+03 -0.53763590051E+02  0.50027601595E+03  0.53648881915E+03  0.12499902961E+03 0.  0.
          4    1    3    3  502    0 -0.14012074229E+03 -0.23461023557E+02  0.27858948429E+03  0.31272664693E+03  0.12700000000E+01 0.  1.
         -4    1    3    3    0  502  0.21755360778E+01 -0.30302566494E+02  0.22168653167E+03  0.22376217222E+03  0.12700000000E+01 0.  1.
          1    1    1    2  503    0 -0.30193065288E+02 -0.99189175545E+02  0.11459971009E+04  0.11506778302E+04  0.00000000000E+00 0. -1.
         -1    1    1    2    0  501  0.16813827150E+03  0.15295276560E+03 -0.95976383841E+02  0.24673162161E+03  0.00000000000E+00 0.  1.
<mgrwt>
<rscale>  0 0.14968433E+03</rscale>
<asrwt>0</asrwt>
<pdfrwt beam="1">  1        2 0.26801499E+00 0.10368276E+03</pdfrwt>
<pdfrwt beam="2">  1       -2 0.29507812E-01 0.21609572E+03</pdfrwt>
<totfact> 0.11750786E+02</totfact>
</mgrwt>
</event>
<event>
 7    1  0.7037933E-004  0.1637987E+03  0.7546771E-02  0.1347581E+00
          2   -1    0    0  503    0  0.00000000000E+00  0.00000000000E+00  0.81336912916E+03  0.81336912916E+03  0.00000000000E+00 0. -1.
          1   -1    0    0  502    0 -0.00000000000E+00 -0.00000000000E+00 -0.12003683351E+04  0.12003683351E+04  0.00000000000E+00 0. -1.
         25    2    1    2    0    0 -0.16513895855E+03  0.79160327801E+02 -0.46417121366E+03  0.51440968223E+03  0.12500068980E+03 0.  0.
          4    1    3    3  501    0 -0.89024034014E+02  0.99224208357E+02 -0.21384433215E+03  0.25199550284E+03  0.12700000000E+01 0. -1.
         -4    1    3    3    0  501 -0.76114924534E+02 -0.20063880556E+02 -0.25032688151E+03  0.26241417939E+03  0.12700000000E+01 0. -1.
          2    1    1    2  502    0  0.30412467813E+02  0.13475277594E+02 -0.70220147020E+03  0.70298890892E+03  0.00000000000E+00 0. -1.
          1    1    1    2  503    0  0.13472649074E+03 -0.92635605395E+02  0.77937347794E+03  0.79633887310E+03  0.00000000000E+00 0. -1.
<mgrwt>
<rscale>  0 0.73814755E+02</rscale>
<asrwt>0</asrwt>
<pdfrwt beam="1">  1        2 0.12513371E+00 0.16379868E+03</pdfrwt>
<pdfrwt beam="2">  1        1 0.18467205E+00 0.33264114E+02</pdfrwt>
<totfact> 0.65666482E+01</totfact>
</mgrwt>
</event>
<event>
 7    1  0.7037933E-004  0.4434675E+02  0.7546771E-02  0.1505750E+00
          2   -1    0    0  503    0  0.00000000000E+00  0.00000000000E+00  0.42914976415E+03  0.42914976415E+03  0.00000000000E+00 0. -1.
         -2   -1    0    0    0  501 -0.00000000000E+00 -0.00000000000E+00 -0.12876916640E+03  0.12876916640E+03  0.00000000000E+00 0.  1.
         25    2    1    2    0    0 -0.56930400687E+02  0.58746741478E+01  0.11917006303E+03  0.18194196309E+03  0.12500316673E+03 0.  0.
          4    1    3    3  502    0  0.61033422662E+01  0.41110320124E+02  0.98346459339E+02  0.10677522265E+03  0.12700000000E+01 0.  1.
         -4    1    3    3    0  502 -0.63033742954E+02 -0.35235645977E+02  0.20823603686E+02  0.75166740441E+02  0.12700000000E+01 0.  1.
          1    1    1    2  503    0  0.36756860290E+02  0.24770083602E+02  0.27328805647E+03  0.27685914402E+03  0.00000000000E+00 0. -1.
         -1    1    1    2    0  501  0.20173540398E+02 -0.30644757750E+02 -0.92077521748E+02  0.99117823427E+02  0.00000000000E+00 0.  1.
<mgrwt>
<rscale>  0 0.40336482E+02</rscale>
<asrwt>0</asrwt>
<pdfrwt beam="1">  1        2 0.66023040E-01 0.44346745E+02</pdfrwt>
<pdfrwt beam="2">  1       -2 0.19810641E-01 0.36688866E+02</pdfrwt>
<totfact> 0.14774919E+03</totfact>
</mgrwt>
</event>
<event>
 7    1  0.7037933E-004  0.8416488E+02  0.7546771E-02  0.1360123E+00
          1   -1    0    0  502    0 -0.00000000000E+00  0.00000000000E+00  0.62317859955E+03  0.62317859955E+03  0.00000000000E+00 0. -1.
          2   -1    0    0  503    0  0.00000000000E+00 -0.00000000000E+00 -0.11309694696E+04  0.11309694696E+04  0.00000000000E+00 0. -1.
         25    2    1    2    0    0 -0.12407675822E+03  0.45135451406E+02 -0.19746048270E+03  0.26841766072E+03  0.12500058981E+03 0.  0.
          4    1    3    3  501    0 -0.65136333638E+02 -0.39942982086E+02 -0.65086133584E+02  0.10037928802E+03  0.12700000000E+01 0.  1.
         -4    1    3    3    0  501 -0.58940424586E+02  0.85078433493E+02 -0.13237434912E+03  0.16803837270E+03  0.12700000000E+01 0.  1.
          2    1    1    2  502    0  0.42340565597E+02 -0.39937809714E+02  0.58438392225E+03  0.58727533639E+03  0.00000000000E+00 0. -1.
          1    1    1    2  503    0  0.81736192627E+02 -0.51976416926E+01 -0.89471430959E+03  0.89845507203E+03  0.00000000000E+00 0. -1.
<mgrwt>
<rscale>  0 0.69991186E+02</rscale>
<asrwt>0</asrwt>
<pdfrwt beam="2">  1        2 0.17399530E+00 0.84164878E+02</pdfrwt>
<pdfrwt beam="1">  1        1 0.95873631E-01 0.58204400E+02</pdfrwt>
<totfact> 0.11321954E+02</totfact>
</mgrwt>
</event>
<event>
 7    1  0.7037933E-004  0.1269011E+03  0.7546771E-02  0.1378263E+00
          1   -1    0    0  502    0 -0.00000000000E+00  0.00000000000E+00  0.54677178690E+03  0.54677178690E+03  0.00000000000E+00 0. -1.
          2   -1    0    0  503    0  0.00000000000E+00 -0.00000000000E+00 -0.66709409358E+03  0.66709409358E+03  0.00000000000E+00 0. -1.
         25    2    1    2    0    0  0.15696673750E+03  0.24201169776E+02 -0.26277781670E+03  0.33151323757E+03  0.12499836972E+03 0.  0.
          4    1    3    3  501    0 -0.28031795220E+01 -0.83100888989E+01  0.10222425191E+02  0.13528720181E+02  0.12700000000E+01 0.  1.
         -4    1    3    3    0  501  0.15976991702E+03  0.32511258675E+02 -0.27300024189E+03  0.31798451738E+03  0.12700000000E+01 0.  1.
          2    1    1    2  502    0 -0.12375271394E+03 -0.24060364155E+02  0.50387660284E+03  0.51940857349E+03  0.00000000000E+00 0. -1.
          1    1    1    2  503    0 -0.33214023562E+02 -0.14080562115E+00 -0.36142109283E+03  0.36294406942E+03  0.00000000000E+00 0. -1.
<mgrwt>
<rscale>  0 0.64922535E+02</rscale>
<asrwt>0</asrwt>
<pdfrwt beam="2">  1        2 0.10262986E+00 0.33214322E+02</pdfrwt>
<pdfrwt beam="1">  1        1 0.84118736E-01 0.12690114E+03</pdfrwt>
<totfact> 0.26350390E+02</totfact>
</mgrwt>
</event>
<event>
 7    1  0.7037933E-004  0.1361030E+03  0.7546771E-02  0.1252756E+00
         -2   -1    0    0    0  501 -0.00000000000E+00  0.00000000000E+00  0.54737871706E+02  0.54737871706E+02  0.00000000000E+00 0.  1.
          2   -1    0    0  503    0  0.00000000000E+00 -0.00000000000E+00 -0.15681265961E+04  0.15681265961E+04  0.00000000000E+00 0. -1.
         25    2    1    2    0    0  0.11187474511E+03  0.88818533568E+02 -0.21044190353E+03  0.28340329046E+03  0.12500775890E+03 0.  0.
          4    1    3    3  502    0  0.19647021932E+02  0.17619102540E+02  0.14453126246E+02  0.30115511009E+02  0.12700000000E+01 0.  1.
         -4    1    3    3    0  502  0.92227723177E+02  0.71199431029E+02 -0.22489502978E+03  0.25328777945E+03  0.12700000000E+01 0.  1.
          1    1    1    2  503    0  0.34008905531E+02 -0.89816217390E+02 -0.98466873928E+03  0.98934123773E+03  0.00000000000E+00 0. -1.
         -1    1    1    2    0  501 -0.14588365064E+03  0.99768382137E+00 -0.31827808156E+03  0.35011993959E+03  0.00000000000E+00 0.  1.
<mgrwt>
<rscale>  0 0.11432955E+03</rscale>
<asrwt>0</asrwt>
<pdfrwt beam="2">  1        2 0.24125025E+00 0.96039359E+02</pdfrwt>
<pdfrwt beam="1">  1       -2 0.84212107E-02 0.13610300E+03</pdfrwt>
<totfact> 0.11422359E+03</totfact>
</mgrwt>
</event>
<event>
 7    1  0.7037933E-004  0.1867829E+03  0.7546771E-02  0.1235832E+00
          1   -1    0    0  502    0 -0.00000000000E+00  0.00000000000E+00  0.34265664930E+04  0.34265664930E+04  0.00000000000E+00 0. -1.
          2   -1    0    0  503    0  0.00000000000E+00 -0.00000000000E+00 -0.16093725596E+04  0.16093725596E+04  0.00000000000E+00 0. -1.
         25    2    1    2    0    0 -0.10094221042E+03  0.13716172622E+03 -0.28702681037E+03  0.35638554720E+03  0.12499439747E+03 0.  0.
          4    1    3    3  501    0 -0.50118505900E+02  0.13305142465E+03 -0.26519079686E+03  0.30090250559E+03  0.12700000000E+01 0.  1.
         -4    1    3    3    0  501 -0.50823704517E+02  0.41103015655E+01 -0.21836013514E+02  0.55483041608E+02  0.12700000000E+01 0.  1.
          2    1    1    2  502    0  0.64302600091E+02  0.52484868717E+02  0.33841319897E+04  0.33851497470E+04  0.00000000000E+00 0. -1.
          1    1    1    2  503    0  0.36639610326E+02 -0.18964659493E+03 -0.12799112460E+04  0.12944037584E+04  0.00000000000E+00 0. -1.
<mgrwt>
<rscale>  0 0.12451315E+03</rscale>
<asrwt>0</asrwt>
<pdfrwt beam="2">  1        2 0.24759578E+00 0.18678286E+03</pdfrwt>
<pdfrwt beam="1">  1        1 0.52716408E+00 0.83002927E+02</pdfrwt>
<totfact> 0.75089595E-01</totfact>
</mgrwt>
</event>
<event>
 7    1  0.7037933E-004  0.1381740E+03  0.7546771E-02  0.1315984E+00
          2   -1    0    0  503    0  0.00000000000E+00  0.00000000000E+00  0.59642876500E+03  0.59642876500E+03  0.00000000000E+00 0. -1.
          1   -1    0    0  502    0 -0.00000000000E+00 -0.00000000000E+00 -0.10973512645E+04  0.10973512645E+04  0.00000000000E+00 0. -1.
         25    2    1    2    0    0  0.34500229298E+02 -0.13854393228E+03 -0.38855358063E+02  0.19369866905E+03  0.12499899418E+03 0.  0.
          4    1    3    3  501    0  0.42675880632E+02 -0.15835480944E+03 -0.20185054682E+02  0.16524686318E+03  0.12700000000E+01 0.  1.
         -4    1    3    3    0  501 -0.81756513346E+01  0.19810877156E+02 -0.18670303381E+02  0.28451805861E+02  0.12700000000E+01 0.  1.
          2    1    1    2  502    0 -0.52017946687E+02  0.11325008105E+01 -0.97112239895E+03  0.97251522511E+03  0.00000000000E+00 0. -1.
          1    1    1    2  503    0  0.17517717389E+02  0.13741143147E+03  0.50905525753E+03  0.52756613532E+03  0.00000000000E+00 0. -1.
<mgrwt>
<rscale>  0 0.84789345E+02</rscale>
<asrwt>0</asrwt>
<pdfrwt beam="1">  1        2 0.91758273E-01 0.13817404E+03</pdfrwt>
<pdfrwt beam="2">  1        1 0.16882327E+00 0.52030273E+02</pdfrwt>
<totfact> 0.10775616E+02</totfact>
</mgrwt>
</event>
<event>
 7    1  0.7037933E-004  0.8774552E+02  0.7546771E-02  0.1355331E+00
         -2   -1    0    0    0  501 -0.00000000000E+00  0.00000000000E+00  0.67693428841E+03  0.67693428841E+03  0.00000000000E+00 0.  1.
          2   -1    0    0  503    0  0.00000000000E+00 -0.00000000000E+00 -0.39583959357E+03  0.39583959357E+03  0.00000000000E+00 0. -1.
         25    2    1    2    0    0  0.62056514309E+01  0.59396596659E+02 -0.41262364760E+02  0.14454263317E+03  0.12499409688E+03 0.  0.
          4    1    3    3  502    0 -0.48643141047E+01 -0.38813087528E+02 -0.17584983826E+02  0.42906431585E+02  0.12700000000E+01 0.  1.
         -4    1    3    3    0  502  0.11069965536E+02  0.98209684187E+02 -0.23677380934E+02  0.10163620159E+03  0.12700000000E+01 0.  1.
          1    1    1    2  503    0 -0.63686047904E+02 -0.68070139153E+02 -0.29436678578E+03  0.30877380250E+03  0.00000000000E+00 0. -1.
         -1    1    1    2    0  501  0.57480396473E+02  0.86735424942E+01  0.61672384538E+03  0.61945744630E+03  0.00000000000E+00 0.  1.
<mgrwt>
<rscale>  0 0.71419496E+02</rscale>
<asrwt>0</asrwt>
<pdfrwt beam="2">  1        2 0.60898399E-01 0.87745515E+02</pdfrwt>
<pdfrwt beam="1">  1       -2 0.10414374E+00 0.58131113E+02</pdfrwt>
<totfact> 0.67037575E+01</totfact>
</mgrwt>
</event>
<event>
 7    1  0.7037933E-004  0.9481989E+02  0.7546771E-02  0.1324551E+00
          2   -1    0    0  503    0  0.00000000000E+00  0.00000000000E+00  0.12865270715E+03  0.12865270715E+03  0.00000000000E+00 0. -1.
          1   -1    0    0  502    0 -0.00000000000E+00 -0.00000000000E+00 -0.28645273827E+04  0.28645273827E+04  0.00000000000E+00 0. -1.
         25    2    1    2    0    0 -0.11602851314E+03  0.63777007860E+02  0.16930429074E+02  0.18287202106E+03  0.12500165624E+03 0.  0.
          4    1    3    3  501    0 -0.19370915808E+02  0.57700952665E+02 -0.37762864051E+02  0.71639926850E+02  0.12700000000E+01 0. -1.
         -4    1    3    3    0  501 -0.96657597337E+02  0.60760551956E+01  0.54693293125E+02  0.11123209421E+03  0.12700000000E+01 0. -1.
          2    1    1    2  502    0  0.94611015827E+02  0.31139706387E+01 -0.27365870782E+04  0.27382238363E+04  0.00000000000E+00 0. -1.
          1    1    1    2  503    0  0.21417497317E+02 -0.66890978499E+02 -0.16218026451E+02  0.72084232519E+02  0.00000000000E+00 0. -1.
<mgrwt>
<rscale>  0 0.81607480E+02</rscale>
<asrwt>0</asrwt>
<pdfrwt beam="1">  1        2 0.19792725E-01 0.70236117E+02</pdfrwt>
<pdfrwt beam="2">  1        1 0.44069650E+00 0.94819887E+02</pdfrwt>
<totfact> 0.38708847E+01</totfact>
</mgrwt>
</event>
<event>
 7    1  0.7037933E-004  0.1222157E+03  0.7546771E-02  0.1303822E+00
          2   -1    0    0  503    0  0.00000000000E+00  0.00000000000E+00  0.19251225161E+04  0.19251225161E+04  0.00000000000E+00 0. -1.
         -2   -1    0    0    0  501 -0.00000000000E+00 -0.00000000000E+00 -0.13727973778E+03  0.13727973778E+03  0.00000000000E+00 0.  1.
         25    2    1    2    0    0  0.62852371697E+01  0.91423513456E+02  0.12007273697E+03  0.19606020110E+03  0.12499750907E+03 0.  0.
          4    1    3    3  502    0  0.81663457345E+01 -0.22175730664E+02 -0.78778318357E+01  0.24942441091E+02  0.12700000000E+01 0. -1.
         -4    1    3    3    0  502 -0.18811085648E+01  0.11359924412E+03  0.12795056881E+03  0.17111776001E+03  0.12700000000E+01 0. -1.
          1    1    1    2  503    0  0.61399657018E+02  0.23348024781E+02  0.17214422122E+04  0.17226950798E+04  0.00000000000E+00 0. -1.
         -1    1    1    2    0  501 -0.67684894188E+02 -0.11477153824E+03 -0.53672170909E+02  0.14364697289E+03  0.00000000000E+00 0.  1.
<mgrwt>
<rscale>  0 0.89600407E+02</rscale>
<asrwt>0</asrwt>
<pdfrwt beam="1">  1        2 0.29617268E+00 0.65689026E+02</pdfrwt>
<pdfrwt beam="2">  1       -2 0.21119961E-01 0.12221574E+03</pdfrwt>
<totfact> 0.17693273E+02</totfact>
</mgrwt>
</event>
<event>
 7    1  0.7037933E-004  0.1198503E+03  0.7546771E-02  0.1385208E+00
          2   -1    0    0  503    0  0.00000000000E+00  0.00000000000E+00  0.14515470489E+04  0.14515470489E+04  0.00000000000E+00 0. -1.
          1   -1    0    0  502    0 -0.00000000000E+00 -0.00000000000E+00 -0.43305775299E+03  0.43305775299E+03  0.00000000000E+00 0. -1.
         25    2    1    2    0    0  0.14997671649E+03  0.19741045232E+02 -0.23879653327E+03  0.30907955744E+03  0.12499465654E+03 0.  0.
          4    1    3    3  501    0  0.44688938492E+02  0.73980676779E+01 -0.18446985828E+03  0.18995413695E+03  0.12700000000E+01 0. -1.
         -4    1    3    3    0  501  0.10528777800E+03  0.12342977554E+02 -0.54326674994E+02  0.11912542049E+03  0.12700000000E+01 0. -1.
          2    1    1    2  502    0 -0.30604684823E+02 -0.12962553811E+02 -0.15482973471E+03  0.15835694264E+03  0.00000000000E+00 0. -1.
          1    1    1    2  503    0 -0.11937203167E+03 -0.67784914214E+01  0.14121155639E+04  0.14171683018E+04  0.00000000000E+00 0. -1.
<mgrwt>
<rscale>  0 0.63114358E+02</rscale>
<asrwt>0</asrwt>
<pdfrwt beam="1">  1        2 0.22331493E+00 0.11985031E+03</pdfrwt>
<pdfrwt beam="2">  1        1 0.66624271E-01 0.33236644E+02</pdfrwt>
<totfact> 0.11934742E+02</totfact>
</mgrwt>
</event>
<event>
 7    1  0.7037933E-004  0.1114894E+03  0.7546771E-02  0.1308563E+00
          2   -1    0    0  503    0  0.00000000000E+00  0.00000000000E+00  0.13404253753E+04  0.13404253753E+04  0.00000000000E+00 0. -1.
          1   -1    0    0  502    0 -0.00000000000E+00 -0.00000000000E+00 -0.20714623658E+03  0.20714623658E+03  0.00000000000E+00 0. -1.
         25    2    1    2    0    0 -0.13785283649E+03 -0.25647338078E+02  0.36134466428E+03  0.40725775015E+03  0.12501087224E+03 0.  0.
          4    1    3    3  501    0 -0.10851784335E+03  0.27499278130E+02  0.30311881016E+03  0.32313303545E+03  0.12700000000E+01 0.  1.
         -4    1    3    3    0  501 -0.29334993138E+02 -0.53146616208E+02  0.58225854116E+02  0.84124714706E+02  0.12700000000E+01 0.  1.
          2    1    1    2  502    0  0.53170786372E+02 -0.43912126538E+02 -0.17446057282E+03  0.18759503951E+03  0.00000000000E+00 0. -1.
          1    1    1    2  503    0  0.84682050114E+02  0.69559464616E+02  0.94639504725E+03  0.95271882221E+03  0.00000000000E+00 0. -1.
<mgrwt>
<rscale>  0 0.87682643E+02</rscale>
<asrwt>0</asrwt>
<pdfrwt beam="1">  1        2 0.20621928E+00 0.11148935E+03</pdfrwt>
<pdfrwt beam="2">  1        1 0.31868653E-01 0.68959462E+02</pdfrwt>
<totfact> 0.33285420E+02</totfact>
</mgrwt>
</event>
<event>
 7    1  0.7037933E-004  0.1778622E+03  0.7546771E-02  0.1234061E+00
          2   -1    0    0  503    0  0.00000000000E+00  0.00000000000E+00  0.17969895892E+04  0.17969895892E+04  0.00000000000E+00 0. -1.
          1   -1    0    0  502    0 -0.00000000000E+00 -0.00000000000E+00 -0.10198450502E+04  0.10198450502E+04  0.00000000000E+00 0. -1.
         25    2    1    2    0    0 -0.18217479135E+03  0.96337283501E+01  0.12023583888E+03  0.25172182015E+03  0.12500701766E+03 0.  0.
          4    1    3    3  501    0 -0.18599197488E+02  0.49373854875E+02  0.30619467803E+02  0.61015345619E+02  0.12700000000E+01 0. -1.
         -4    1    3    3    0  501 -0.16357559386E+03 -0.39740126525E+02  0.89616371079E+02  0.19070647453E+03  0.12700000000E+01 0. -1.
          2    1    1    2  502    0  0.16132527943E+03  0.76644308419E+02 -0.94450358010E+03  0.96124253372E+03  0.00000000000E+00 0. -1.
          1    1    1    2  503    0  0.20849511916E+02 -0.86278036770E+02  0.16014122802E+04  0.16038702855E+04  0.00000000000E+00 0. -1.
<mgrwt>
<rscale>  0 0.12564758E+03</rscale>
<asrwt>0</asrwt>
<pdfrwt beam="1">  1        2 0.27645994E+00 0.88761488E+02</pdfrwt>
<pdfrwt beam="2">  1        1 0.15689924E+00 0.17786220E+03</pdfrwt>
<totfact> 0.23079243E+01</totfact>
</mgrwt>
</event>
<event>
 7    1  0.7037933E-004  0.7814045E+02  0.7546771E-02  0.1446936E+00
          3   -1    0    0  502    0 -0.00000000000E+00  0.00000000000E+00  0.20707743800E+04  0.20707743800E+04  0.00000000000E+00 0. -1.
          2   -1    0    0  503    0  0.00000000000E+00 -0.00000000000E+00 -0.13025417889E+02  0.13025417889E+02  0.00000000000E+00 0. -1.
         25    2    1    2    0    0 -0.54749453000E+02 -0.17907589584E+02  0.70947858953E+03  0.72270628322E+03  0.12500527363E+03 0.  0.
          4    1    3    3  501    0 -0.44865412594E+02 -0.64512117536E+02  0.28760212804E+03  0.29814646654E+03  0.12700000000E+01 0. -1.
         -4    1    3    3    0  501 -0.98840404067E+01  0.46604527953E+02  0.42187646149E+03  0.42455981668E+03  0.12700000000E+01 0. -1.
          2    1    1    2  502    0  0.82542417803E+02  0.28330128807E+01  0.13044246348E+04  0.13070366883E+04  0.00000000000E+00 0. -1.
          1    1    1    2  503    0 -0.27792964803E+02  0.15074576703E+02  0.43845737780E+02  0.54056826366E+02  0.00000000000E+00 0. -1.
<mgrwt>
<rscale>  0 0.49705505E+02</rscale>
<asrwt>0</asrwt>
<pdfrwt beam="2">  1        2 0.20039121E-02 0.31617902E+02</pdfrwt>
<pdfrwt beam="1">  1        3 0.31858041E+00 0.78140453E+02</pdfrwt>
<totfact> 0.98912690E+01</totfact>
</mgrwt>
</event>
<event>
 7    1  0.7037933E-004  0.6076365E+02  0.7546771E-02  0.1458495E+00
          1   -1    0    0  502    0 -0.00000000000E+00  0.00000000000E+00  0.62050367935E+03  0.62050367935E+03  0.00000000000E+00 0. -1.
          2   -1    0    0  503    0  0.00000000000E+00 -0.00000000000E+00 -0.49956336944E+03  0.49956336944E+03  0.00000000000E+00 0. -1.
         25    2    1    2    0    0  0.38967274428E+01  0.29507861639E+02  0.48523212305E+02  0.13734972967E+03  0.12499819088E+03 0.  0.
          4    1    3    3  501    0  0.35766657706E+02 -0.37684387869E+02  0.32402679985E+02  0.61244701507E+02  0.12700000000E+01 0. -1.
         -4    1    3    3    0  501 -0.31869930263E+02  0.67192249507E+02  0.16120532320E+02  0.76105028159E+02  0.12700000000E+01 0. -1.
          2    1    1    2  502    0 -0.33395094002E+02 -0.52422813045E+02  0.52496431318E+03  0.52863116986E+03  0.00000000000E+00 0. -1.
          1    1    1    2  503    0  0.29498366559E+02  0.22914951406E+02 -0.45254721558E+03  0.45408614927E+03  0.00000000000E+00 0. -1.
<mgrwt>
<rscale>  0 0.47641435E+02</rscale>
<asrwt>0</asrwt>
<pdfrwt beam="2">  1        2 0.76855902E-01 0.37353027E+02</pdfrwt>
<pdfrwt beam="1">  1        1 0.95462105E-01 0.60763653E+02</pdfrwt>
<totfact> 0.30921156E+02</totfact>
</mgrwt>
</event>
<event>
 7    1  0.7037933E-004  0.1070714E+03  0.7546771E-02  0.1441184E+00
          2   -1    0    0  503    0  0.00000000000E+00  0.00000000000E+00  0.20338898966E+03  0.20338898966E+03  0.00000000000E+00 0. -1.
          1   -1    0    0  502    0 -0.00000000000E+00 -0.00000000000E+00 -0.16855636141E+03  0.16855636141E+03  0.00000000000E+00 0. -1.
         25    2    1    2    0    0  0.11297858472E+03  0.17813085564E+02 -0.35205555256E+02  0.17304712581E+03  0.12499764001E+03 0.  0.
          4    1    3    3  501    0  0.12182321280E+03  0.53130765842E+02 -0.29893001373E+02  0.13623133959E+03  0.12700000000E+01 0. -1.
         -4    1    3    3    0  501 -0.88446280833E+01 -0.35317680278E+02 -0.53125538829E+01  0.36815786218E+02  0.12700000000E+01 0. -1.
          2    1    1    2  502    0 -0.96981287674E+02 -0.35814237491E+02 -0.20341506878E+02  0.10536511125E+03  0.00000000000E+00 0. -1.
          1    1    1    2  503    0 -0.15997297043E+02  0.18001151927E+02  0.90379690385E+02  0.93533114016E+02  0.00000000000E+00 0. -1.
<mgrwt>
<rscale>  0 0.50779139E+02</rscale>
<asrwt>0</asrwt>
<pdfrwt beam="1">  1        2 0.31290614E-01 0.24082255E+02</pdfrwt>
<pdfrwt beam="2">  1        1 0.25931748E-01 0.10707141E+03</pdfrwt>
<totfact> 0.38171595E+03</totfact>
</mgrwt>
</event>
<event>
 7    1  0.7037933E-004  0.8692132E+02  0.7546771E-02  0.1449256E+00
          2   -1    0    0  503    0  0.00000000000E+00  0.00000000000E+00  0.73027709471E+03  0.73027709471E+03  0.00000000000E+00 0. -1.
         -2   -1    0    0    0  501 -0.00000000000E+00 -0.00000000000E+00 -0.10157195846E+03  0.10157195846E+03  0.00000000000E+00 0.  1.
         25    2    1    2    0    0 -0.16316372896E+02  0.86790223382E+02 -0.26596902526E+01  0.15307139372E+03  0.12500004290E+03 0.  0.
          4    1    3    3  502    0  0.73761445914E+01  0.83009001269E+02  0.48585798415E+02  0.96473283910E+02  0.12700000000E+01 0.  1.
         -4    1    3    3    0  502 -0.23692517488E+02  0.37812221128E+01 -0.51245488667E+02  0.56598109812E+02  0.12700000000E+01 0.  1.
          1    1    1    2  503    0  0.42149603855E+02 -0.76143903039E+02  0.64274315216E+03  0.64860869770E+03  0.00000000000E+00 0. -1.
         -1    1    1    2    0  501 -0.25833230959E+02 -0.10646320343E+02 -0.11378325658E+02  0.30168961756E+02  0.00000000000E+00 0.  1.
<mgrwt>
<rscale>  0 0.49281530E+02</rscale>
<asrwt>0</asrwt>
<pdfrwt beam="1">  1        2 0.11235032E+00 0.86921316E+02</pdfrwt>
<pdfrwt beam="2">  1       -2 0.15626456E-01 0.27941009E+02</pdfrwt>
<totfact> 0.11737848E+03</totfact>
</mgrwt>
</event>
<event>
 7    1  0.7037933E-004  0.7123034E+02  0.7546771E-02  0.1516844E+00
          1   -1    0    0  502    0 -0.00000000000E+00  0.00000000000E+00  0.17546060096E+03  0.17546060096E+03  0.00000000000E+00 0. -1.
          2   -1    0    0  503    0  0.00000000000E+00 -0.00000000000E+00 -0.20882857912E+04  0.20882857912E+04  0.00000000000E+00 0. -1.
         25    2    1    2    0    0  0.15302705683E+02 -0.49031379998E+02 -0.99240232329E+02  0.16766368075E+03  0.12499694839E+03 0.  0.
          4    1    3    3  501    0 -0.27430630415E+02 -0.43443444974E+02  0.80621891283E+01  0.52022919850E+02  0.12700000000E+01 0.  1.
         -4    1    3    3    0  501  0.42733336099E+02 -0.55879350240E+01 -0.10730242146E+03  0.11564076090E+03  0.12700000000E+01 0.  1.
          2    1    1    2  502    0 -0.10952817583E+01 -0.21161745752E+02  0.13979424039E+03  0.14139111984E+03  0.00000000000E+00 0. -1.
          1    1    1    2  503    0 -0.14207423925E+02  0.70193125751E+02 -0.19533791983E+04  0.19546915916E+04  0.00000000000E+00 0. -1.
<mgrwt>
<rscale>  0 0.38850688E+02</rscale>
<asrwt>0</asrwt>
<pdfrwt beam="2">  1        2 0.32127474E+00 0.71230339E+02</pdfrwt>
<pdfrwt beam="1">  1        1 0.26993939E-01 0.21190071E+02</pdfrwt>
<totfact> 0.17085059E+02</totfact>
</mgrwt>
</event>
<event>
 7    1  0.7037933E-004  0.1140378E+03  0.7546771E-02  0.1354792E+00
          1   -1    0    0  502    0 -0.00000000000E+00  0.00000000000E+00  0.96799753415E+03  0.96799753415E+03  0.00000000000E+00 0. -1.
          2   -1    0    0  503    0  0.00000000000E+00 -0.00000000000E+00 -0.54646710191E+03  0.54646710191E+03  0.00000000000E+00 0. -1.
         25    2    1    2    0    0  0.83452768662E+02  0.10952169872E+03  0.46718950348E+03  0.50283622720E+03  0.12497548614E+03 0.  0.
          4    1    3    3  501    0  0.87631396885E+02  0.12924652266E+03  0.44995045697E+03  0.47627822957E+03  0.12700000000E+01 0.  1.
         -4    1    3    3    0  501 -0.41786282234E+01 -0.19724823940E+02  0.17239046511E+02  0.26557997626E+02  0.12700000000E+01 0.  1.
          2    1    1    2  502    0 -0.85657666983E+02 -0.64642651208E+02  0.47604621418E+03  0.48799170721E+03  0.00000000000E+00 0. -1.
          1    1    1    2  503    0  0.22048983213E+01 -0.44879047514E+02 -0.52170528541E+03  0.52363670165E+03  0.00000000000E+00 0. -1.
<mgrwt>
<rscale>  0 0.71582695E+02</rscale>
<asrwt>0</asrwt>
<pdfrwt beam="2">  1        2 0.84071862E-01 0.44933178E+02</pdfrwt>
<pdfrwt beam="1">  1        1 0.14892270E+00 0.11403783E+03</pdfrwt>
<totfact> 0.14187912E+02</totfact>
</mgrwt>
</event>
<event>
 7    1  0.7037933E-004  0.4737148E+02  0.7546771E-02  0.1461875E+00
         -2   -1    0    0    0  501  0.00000000000E+00  0.00000000000E+00  0.10210858736E+03  0.10210858736E+03  0.00000000000E+00 0.  1.
         -1   -1    0    0    0  502 -0.00000000000E+00 -0.00000000000E+00 -0.15725396761E+04  0.15725396761E+04  0.00000000000E+00 0.  1.
         25    2    1    2    0    0 -0.48193958837E+02 -0.29030840739E+02 -0.68453696373E+02  0.15321778028E+03  0.12499732903E+03 0.  0.
          4    1    3    3  503    0 -0.78257854633E+02 -0.47278901841E+02 -0.73949315296E+02  0.11759974704E+03  0.12700000000E+01 0.  1.
         -4    1    3    3    0  503  0.30063895795E+02  0.18248061102E+02  0.54956189235E+01  0.35618033238E+02  0.12700000000E+01 0.  1.
         -2    1    1    2    0  502  0.43611747989E+02 -0.18495210501E+02 -0.14517131309E+04  0.14524858250E+04  0.00000000000E+00 0.  1.
         -1    1    1    2    0  501  0.45822108482E+01  0.47526051240E+02  0.49735738546E+02  0.68944658179E+02  0.00000000000E+00 0.  1.
<mgrwt>
<rscale>  0 0.47060310E+02</rscale>
<asrwt>0</asrwt>
<pdfrwt beam="1">  1       -2 0.15709015E-01 0.46751181E+02</pdfrwt>
<pdfrwt beam="2">  1       -1 0.24192916E+00 0.47371483E+02</pdfrwt>
<totfact> 0.23127445E+01</totfact>
</mgrwt>
</event>
<event>
 7    1  0.7037933E-004  0.7450088E+02  0.7546771E-02  0.1365573E+00
          1   -1    0    0  502    0 -0.00000000000E+00  0.00000000000E+00  0.12603370049E+03  0.12603370049E+03  0.00000000000E+00 0. -1.
          2   -1    0    0  503    0  0.00000000000E+00 -0.00000000000E+00 -0.97671816965E+03  0.97671816965E+03  0.00000000000E+00 0. -1.
         25    2    1    2    0    0  0.10532133338E+03  0.58846085996E+02 -0.33617307469E+03  0.37840871762E+03  0.12500150528E+03 0.  0.
          4    1    3    3  501    0  0.12509471960E+03  0.23303592534E+02 -0.29101634351E+03  0.31762221489E+03  0.12700000000E+01 0.  1.
         -4    1    3    3    0  501 -0.19773386220E+02  0.35542493462E+02 -0.45156731175E+02  0.60786502733E+02  0.12700000000E+01 0.  1.
          2    1    1    2  502    0 -0.73056286104E+02 -0.49409109895E+01  0.90311590699E+02  0.11626614707E+03  0.00000000000E+00 0. -1.
          1    1    1    2  503    0 -0.32265047279E+02 -0.53905175006E+02 -0.60482298517E+03  0.60807700545E+03  0.00000000000E+00 0. -1.
<mgrwt>
<rscale>  0 0.68413531E+02</rscale>
<asrwt>0</asrwt>
<pdfrwt beam="2">  1        2 0.15026433E+00 0.62823572E+02</pdfrwt>
<pdfrwt beam="1">  1        1 0.19389800E-01 0.74500877E+02</pdfrwt>
<totfact> 0.10098237E+03</totfact>
</mgrwt>
</event>
<event>
 7    1  0.7037933E-004  0.9708516E+02  0.7546771E-02  0.1286931E+00
          1   -1    0    0  502    0 -0.00000000000E+00  0.00000000000E+00  0.23316088683E+04  0.23316088683E+04  0.00000000000E+00 0. -1.
          2   -1    0    0  503    0  0.00000000000E+00 -0.00000000000E+00 -0.67496624206E+03  0.67496624206E+03  0.00000000000E+00 0. -1.
         25    2    1    2    0    0 -0.80220795288E+02 -0.97798901039E+02 -0.86401123397E+02  0.19771219816E+03  0.12499983254E+03 0.  0.
          4    1    3    3  501    0 -0.16790020814E+02 -0.10989666694E+03 -0.68895653673E+02  0.13079528355E+03  0.12700000000E+01 0. -1.
         -4    1    3    3    0  501 -0.63430774474E+02  0.12097765901E+02 -0.17505469724E+02  0.66916914606E+02  0.12700000000E+01 0. -1.
          2    1    1    2  502    0 -0.17349650483E+02  0.95522338440E+02  0.22704387604E+04  0.22725135186E+04  0.00000000000E+00 0. -1.
          1    1    1    2  503    0  0.97570445771E+02  0.22765625995E+01 -0.52739501076E+03  0.53634939359E+03  0.00000000000E+00 0. -1.
<mgrwt>
<rscale>  0 0.96910103E+02</rscale>
<asrwt>0</asrwt>
<pdfrwt beam="2">  1        2 0.10384096E+00 0.96735365E+02</pdfrwt>
<pdfrwt beam="1">  1        1 0.35870905E+00 0.97085156E+02</pdfrwt>
<totfact> 0.14567452E+01</totfact>
</mgrwt>
</event>
<event>
 7    1  0.7037933E-004  0.2269834E+03  0.7546771E-02  0.1347636E+00
          1   -1    0    0  502    0 -0.00000000000E+00  0.00000000000E+00  0.35306701531E+03  0.35306701531E+03  0.00000000000E+00 0. -1.
          2   -1    0    0  503    0  0.00000000000E+00 -0.00000000000E+00 -0.66663292498E+03  0.66663292498E+03  0.00000000000E+00 0. -1.
         25    2    1    2    0    0 -0.24489891400E+03  0.32959227461E+02 -0.16613893378E+03  0.32293998097E+03  0.12500518885E+03 0.  0.
          4    1    3    3  501    0 -0.17990706543E+03  0.34797578836E+02 -0.50181964976E+02  0.18999280563E+03  0.12700000000E+01 0.  1.
         -4    1    3    3    0  501 -0.64991848576E+02 -0.18383513751E+01 -0.11595696880E+03  0.13294717534E+03  0.12700000000E+01 0.  1.
          2    1    1    2  502    0  0.22156048482E+03 -0.27392494390E+02  0.22885765937E+03  0.31971115938E+03  0.00000000000E+00 0. -1.
          1    1    1    2  503    0  0.23338429185E+02 -0.55667330708E+01 -0.37628463527E+03  0.37704879994E+03  0.00000000000E+00 0. -1.
<mgrwt>
<rscale>  0 0.73797322E+02</rscale>
<asrwt>0</asrwt>
<pdfrwt beam="2">  1        2 0.10255891E+00 0.23993141E+02</pdfrwt>
<pdfrwt beam="1">  1        1 0.54318003E-01 0.22698340E+03</pdfrwt>
<totfact> 0.46245465E+02</totfact>
</mgrwt>
</event>
<event>
 7    1  0.7037933E-004  0.6457470E+02  0.7546771E-02  0.1426534E+00
         -2   -1    0    0    0  501 -0.00000000000E+00  0.00000000000E+00  0.36965681958E+03  0.36965681958E+03  0.00000000000E+00 0.  1.
          2   -1    0    0  503    0  0.00000000000E+00 -0.00000000000E+00 -0.13116192296E+04  0.13116192296E+04  0.00000000000E+00 0. -1.
         25    2    1    2    0    0 -0.71099838801E+02  0.35480460177E+01  0.59581768164E+02  0.15570334232E+03  0.12500307197E+03 0.  0.
          4    1    3    3  502    0 -0.60340350446E+02 -0.22512248948E+02 -0.23026108292E+02  0.68407410474E+02  0.12700000000E+01 0. -1.
         -4    1    3    3    0  502 -0.10759488355E+02  0.26060294966E+02  0.82607876457E+02  0.87295931841E+02  0.12700000000E+01 0. -1.
          1    1    1    2  503    0  0.17700350368E+02 -0.40930462855E+02 -0.12591034827E+04  0.12598929262E+04  0.00000000000E+00 0. -1.
         -1    1    1    2    0  501  0.53399488433E+02  0.37382416838E+02  0.25755930461E+03  0.26567978064E+03  0.00000000000E+00 0.  1.
<mgrwt>
<rscale>  0 0.53662184E+02</rscale>
<asrwt>0</asrwt>
<pdfrwt beam="2">  1        2 0.20178757E+00 0.44593780E+02</pdfrwt>
<pdfrwt beam="1">  1       -2 0.56870281E-01 0.64574702E+02</pdfrwt>
<totfact> 0.59312480E+01</totfact>
</mgrwt>
</event>
<event>
 7    1  0.7037933E-004  0.5466595E+02  0.7546771E-02  0.1490620E+00
          1   -1    0    0  502    0 -0.00000000000E+00  0.00000000000E+00  0.11042726650E+03  0.11042726650E+03  0.00000000000E+00 0. -1.
          2   -1    0    0  503    0  0.00000000000E+00 -0.00000000000E+00 -0.39958453132E+03  0.39958453132E+03  0.00000000000E+00 0. -1.
         25    2    1    2    0    0  0.24611087102E+02 -0.72298883378E+02 -0.13439687989E+03  0.19880101886E+03  0.12500595838E+03 0.  0.
          4    1    3    3  501    0 -0.12530824308E+02 -0.44092808778E+02 -0.14403681086E+03  0.15116022336E+03  0.12700000000E+01 0. -1.
         -4    1    3    3    0  501  0.37141911411E+02 -0.28206074599E+02  0.96399309666E+01  0.47640795507E+02  0.12700000000E+01 0. -1.
          2    1    1    2  502    0  0.94509686389E+01  0.31651607543E+02  0.71530206926E+02  0.78789057433E+02  0.00000000000E+00 0. -1.
          1    1    1    2  503    0 -0.34062055741E+02  0.40647275834E+02 -0.22629059186E+03  0.23242172153E+03  0.00000000000E+00 0. -1.
<mgrwt>
<rscale>  0 0.42494143E+02</rscale>
<asrwt>0</asrwt>
<pdfrwt beam="2">  1        2 0.61474542E-01 0.54665951E+02</pdfrwt>
<pdfrwt beam="1">  1        1 0.16988811E-01 0.33032485E+02</pdfrwt>
<totfact> 0.31441879E+03</totfact>
</mgrwt>
</event>
<event>
 7    1  0.7037933E-004  0.5042778E+02  0.7546771E-02  0.1530210E+00
         -1   -1    0    0    0  502 -0.00000000000E+00  0.00000000000E+00  0.62573533752E+01  0.62573533752E+01  0.00000000000E+00 0.  1.
         -2   -1    0    0    0  501  0.00000000000E+00 -0.00000000000E+00 -0.39787648141E+04  0.39787648141E+04  0.00000000000E+00 0.  1.
         25    2    1    2    0    0 -0.44978701176E+02  0.19109275113E+02 -0.15174068502E+04  0.15233307188E+04  0.12499872634E+03 0.  0.
          4    1    3    3  503    0 -0.70127132190E+02  0.16267982806E+02 -0.45834450005E+03  0.46396525254E+03  0.12700000000E+01 0.  1.
         -4    1    3    3    0  503  0.25148431015E+02  0.28412923066E+01 -0.10590623502E+04  0.10593654662E+04  0.12700000000E+01 0.  1.
         -2    1    1    2    0  502 -0.56324171221E+01 -0.26798414174E+02 -0.59012473513E+02  0.65056522771E+02  0.00000000000E+00 0.  1.
         -1    1    1    2    0  501  0.50611118298E+02  0.76891390613E+01 -0.23960881369E+04  0.23966349259E+04  0.00000000000E+00 0.  1.
<mgrwt>
<rscale>  0 0.37160601E+02</rscale>
<asrwt>0</asrwt>
<pdfrwt beam="2">  1       -2 0.61211975E+00 0.50427778E+02</pdfrwt>
<pdfrwt beam="1">  1       -1 0.96266646E-03 0.27383921E+02</pdfrwt>
<totfact> 0.67826986E+00</totfact>
</mgrwt>
</event>
<event>
 7    1  0.7037933E-004  0.1195892E+03  0.7546771E-02  0.1296324E+00
          2   -1    0    0  503    0  0.00000000000E+00  0.00000000000E+00  0.23971296139E+04  0.23971296139E+04  0.00000000000E+00 0. -1.
         -2   -1    0    0    0  501 -0.00000000000E+00 -0.00000000000E+00 -0.48924479041E+02  0.48924479041E+02  0.00000000000E+00 0.  1.
         25    2    1    2    0    0  0.22345132752E+02  0.13897009847E+03  0.11641566642E+04  0.11792787328E+04  0.12500239086E+03 0.  0.
          4    1    3    3  502    0  0.31146571869E+01 -0.23009052928E+02  0.20943955676E+03  0.21072650152E+03  0.12700000000E+01 0.  1.
         -4    1    3    3    0  502  0.19230475565E+02  0.16197915139E+03  0.95471710741E+03  0.96855223130E+03  0.12700000000E+01 0.  1.
          1    1    1    2  503    0 -0.74765144363E+02 -0.89707099408E+02  0.11889518471E+04  0.11946730454E+04  0.00000000000E+00 0. -1.
         -1    1    1    2    0  501  0.52420011611E+02 -0.49262999057E+02 -0.49033764511E+01  0.72102314762E+02  0.00000000000E+00 0.  1.
<mgrwt>
<rscale>  0 0.92750729E+02</rscale>
<asrwt>0</asrwt>
<pdfrwt beam="1">  1        2 0.36878908E+00 0.11958922E+03</pdfrwt>
<pdfrwt beam="2">  1       -2 0.75268448E-02 0.71935392E+02</pdfrwt>
<totfact> 0.47720042E+02</totfact>
</mgrwt>
</event>
<event>
 7    1  0.7037933E-004  0.9721361E+02  0.7546771E-02  0.1404533E+00
          2   -1    0    0  503    0  0.00000000000E+00  0.00000000000E+00  0.21941042686E+04  0.21941042686E+04  0.00000000000E+00 0. -1.
          1   -1    0    0  502    0 -0.00000000000E+00 -0.00000000000E+00 -0.12704804710E+04  0.12704804710E+04  0.00000000000E+00 0. -1.
         25    2    1    2    0    0  0.12927257127E+03  0.23207500528E+02 -0.68124617131E+03  0.70496059261E+03  0.12499242155E+03 0.  0.
          4    1    3    3  501    0  0.12316235593E+03  0.12273150985E+02 -0.68121641607E+03  0.69237057605E+03  0.12700000000E+01 0. -1.
         -4    1    3    3    0  501  0.61102153429E+01  0.10934349543E+02 -0.29755230838E-01  0.12590016554E+02  0.12700000000E+01 0. -1.
          2    1    1    2  502    0 -0.32657579368E+02 -0.12922607851E+02 -0.57576023891E+03  0.57683044649E+03  0.00000000000E+00 0. -1.
          3    1    1    2  503    0 -0.96614991903E+02 -0.10284892677E+02  0.21806302078E+04  0.21827937005E+04  0.00000000000E+00 0. -1.
<mgrwt>
<rscale>  0 0.58431808E+02</rscale>
<asrwt>0</asrwt>
<pdfrwt beam="1">  1        2 0.33755450E+00 0.97213612E+02</pdfrwt>
<pdfrwt beam="2">  1        1 0.19545853E+00 0.35121379E+02</pdfrwt>
<totfact> 0.11007490E+01</totfact>
</mgrwt>
</event>
<event>
 7    1  0.7037933E-004  0.9363234E+02  0.7546771E-02  0.1300803E+00
         -1   -1    0    0    0  501 -0.00000000000E+00  0.00000000000E+00  0.11955650357E+03  0.11955650357E+03  0.00000000000E+00 0.  1.
          1   -1    0    0  503    0  0.00000000000E+00 -0.00000000000E+00 -0.11427056641E+04  0.11427056641E+04  0.00000000000E+00 0. -1.
         25    2    1    2    0    0 -0.71171668170E+01 -0.53559335813E+02 -0.55224719917E+02  0.14694668270E+03  0.12499720538E+03 0.  0.
          4    1    3    3  502    0  0.51293615304E+02 -0.46344053071E+01 -0.47977523242E+02  0.70398638623E+02  0.12700000000E+01 0.  1.
         -4    1    3    3    0  502 -0.58410782121E+02 -0.48924930506E+02 -0.72471966750E+01  0.76548044082E+02  0.12700000000E+01 0.  1.
          2    1    1    2  503    0  0.77075620991E+02 -0.42782769482E+02 -0.99025970373E+03  0.99417568747E+03  0.00000000000E+00 0. -1.
         -2    1    1    2    0  501 -0.69958454174E+02  0.96342105296E+02  0.22335263101E+02  0.12113979751E+03  0.00000000000E+00 0.  1.
<mgrwt>
<rscale>  0 0.90851564E+02</rscale>
<asrwt>0</asrwt>
<pdfrwt beam="2">  1        1 0.17580088E+00 0.88153370E+02</pdfrwt>
<pdfrwt beam="1">  1       -1 0.18393308E-01 0.93632344E+02</pdfrwt>
<totfact> 0.30573310E+02</totfact>
</mgrwt>
</event>
<event>
 7    1  0.7037933E-004  0.3186973E+02  0.7546771E-02  0.1642327E+00
          1   -1    0    0  502    0 -0.00000000000E+00  0.00000000000E+00  0.98784217387E+03  0.98784217387E+03  0.00000000000E+00 0. -1.
          2   -1    0    0  503    0  0.00000000000E+00 -0.00000000000E+00 -0.31502470683E+03  0.31502470683E+03  0.00000000000E+00 0. -1.
         25    2    1    2    0    0  0.31292062885E+02 -0.34782353408E+02  0.19496963072E+03  0.23627802578E+03  0.12500057302E+03 0.  0.
          4    1    3    3  501    0  0.18095425907E+02 -0.46685077226E+02  0.20816583996E+03  0.21410644712E+03  0.12700000000E+01 0.  1.
         -4    1    3    3    0  501  0.13196636979E+02  0.11902723818E+02 -0.13196209240E+02  0.22171578656E+02  0.12700000000E+01 0.  1.
          2    1    1    2  502    0 -0.22946656731E+01  0.21666163332E+02  0.77120383615E+03  0.77151153265E+03  0.00000000000E+00 0. -1.
          1    1    1    2  503    0 -0.28997397212E+02  0.13116190076E+02 -0.29335599983E+03  0.29507732228E+03  0.00000000000E+00 0. -1.
<mgrwt>
<rscale>  0 0.26350647E+02</rscale>
<asrwt>0</asrwt>
<pdfrwt beam="2">  1        2 0.48465340E-01 0.31869729E+02</pdfrwt>
<pdfrwt beam="1">  1        1 0.15197572E+00 0.21787339E+02</pdfrwt>
<totfact> 0.26929116E+02</totfact>
</mgrwt>
</event>
<event>
 7    1  0.7037933E-004  0.1001676E+03  0.7546771E-02  0.1329314E+00
          1   -1    0    0  502    0 -0.00000000000E+00  0.00000000000E+00  0.11547454295E+04  0.11547454295E+04  0.00000000000E+00 0. -1.
          2   -1    0    0  503    0  0.00000000000E+00 -0.00000000000E+00 -0.35332556104E+03  0.35332556104E+03  0.00000000000E+00 0. -1.
         25    2    1    2    0    0  0.83443887932E+02  0.30719407021E+02 -0.26189115928E+03  0.30350944662E+03  0.12499776190E+03 0.  0.
          4    1    3    3  501    0  0.50217599003E+02  0.73252677669E+02 -0.10467325064E+03  0.13728024014E+03  0.12700000000E+01 0. -1.
         -4    1    3    3    0  501  0.33226288928E+02 -0.42533270648E+02 -0.15721790864E+03  0.16622920648E+03  0.12700000000E+01 0. -1.
          2    1    1    2  502    0 -0.95199368238E+02  0.31932644645E+02  0.11168260783E+04  0.11213309514E+04  0.00000000000E+00 0. -1.
          1    1    1    2  503    0  0.11755480306E+02 -0.62652051666E+02 -0.53515050523E+02  0.83230592499E+02  0.00000000000E+00 0. -1.
<mgrwt>
<rscale>  0 0.79907567E+02</rscale>
<asrwt>0</asrwt>
<pdfrwt beam="2">  1        2 0.54357779E-01 0.63745360E+02</pdfrwt>
<pdfrwt beam="1">  1        1 0.17765314E+00 0.10016759E+03</pdfrwt>
<totfact> 0.16587517E+02</totfact>
</mgrwt>
</event>
<event>
 7    1  0.7037933E-004  0.4393029E+02  0.7546771E-02  0.1507396E+00
          2   -1    0    0  503    0  0.00000000000E+00  0.00000000000E+00  0.14512398004E+03  0.14512398004E+03  0.00000000000E+00 0. -1.
          1   -1    0    0  502    0 -0.00000000000E+00 -0.00000000000E+00 -0.10495161714E+04  0.10495161714E+04  0.00000000000E+00 0. -1.
         25    2    1    2    0    0  0.74631990787E+02 -0.25390762234E+02 -0.10405365453E+03  0.18073966883E+03  0.12500016004E+03 0.  0.
          4    1    3    3  501    0  0.10641682022E+03 -0.18013695207E+02 -0.10120180786E+03  0.14796098018E+03  0.12700000000E+01 0. -1.
         -4    1    3    3    0  501 -0.31784829434E+02 -0.73770670273E+01 -0.28518466706E+01  0.32778688648E+02  0.12700000000E+01 0. -1.
          2    1    1    2  502    0 -0.35989487706E+02  0.67869363996E+01 -0.90242669697E+03  0.90316955725E+03  0.00000000000E+00 0. -1.
          1    1    1    2  503    0 -0.38642503081E+02  0.18603825835E+02  0.10208816017E+03  0.11073092534E+03  0.00000000000E+00 0. -1.
<mgrwt>
<rscale>  0 0.40111046E+02</rscale>
<asrwt>0</asrwt>
<pdfrwt beam="1">  1        2 0.22326767E-01 0.43930293E+02</pdfrwt>
<pdfrwt beam="2">  1        1 0.16146402E+00 0.36623841E+02</pdfrwt>
<totfact> 0.52821639E+02</totfact>
</mgrwt>
</event>
<event>
 7    1  0.7037933E-004  0.5773564E+02  0.7546771E-02  0.1528875E+00
          2   -1    0    0  503    0  0.00000000000E+00  0.00000000000E+00  0.75947238477E+02  0.75947238477E+02  0.00000000000E+00 0. -1.
          1   -1    0    0  502    0 -0.00000000000E+00 -0.00000000000E+00 -0.10178722078E+04  0.10178722078E+04  0.00000000000E+00 0. -1.
         25    2    1    2    0    0 -0.19071580703E+01  0.37264586249E+02 -0.14475010158E+03  0.19485847360E+03  0.12499978474E+03 0.  0.
          4    1    3    3  501    0  0.24292876626E+02 -0.39657093360E+02 -0.34637684037E+02  0.58001818627E+02  0.12700000000E+01 0.  1.
         -4    1    3    3    0  501 -0.26200034697E+02  0.76921679609E+02 -0.11011241755E+03  0.13685665497E+03  0.12700000000E+01 0.  1.
          2    1    1    2  502    0  0.95197196528E+01  0.22172303471E+02 -0.83019322863E+03  0.83054381761E+03  0.00000000000E+00 0. -1.
          1    1    1    2  503    0 -0.76125615825E+01 -0.59436889720E+02  0.33018360884E+02  0.68417155077E+02  0.00000000000E+00 0. -1.
<mgrwt>
<rscale>  0 0.37324739E+02</rscale>
<asrwt>0</asrwt>
<pdfrwt beam="1">  1        2 0.11684191E-01 0.57735640E+02</pdfrwt>
<pdfrwt beam="2">  1        1 0.15659571E+00 0.24129569E+02</pdfrwt>
<totfact> 0.12019552E+03</totfact>
</mgrwt>
</event>
<event>
 7    1  0.7037933E-004  0.7057707E+02  0.7546771E-02  0.1380040E+00
          1   -1    0    0  502    0 -0.00000000000E+00  0.00000000000E+00  0.77307457186E+03  0.77307457186E+03  0.00000000000E+00 0. -1.
          2   -1    0    0  503    0  0.00000000000E+00 -0.00000000000E+00 -0.70013414100E+03  0.70013414100E+03  0.00000000000E+00 0. -1.
         25    2    1    2    0    0  0.13630419974E+02 -0.48035895211E+02  0.11053030434E+03  0.17416952529E+03  0.12499935914E+03 0.  0.
          4    1    3    3  501    0 -0.49602278110E+01  0.21296518166E+02  0.99076512995E+02  0.10146878275E+03  0.12700000000E+01 0.  1.
         -4    1    3    3    0  501  0.18590647786E+02 -0.69332413377E+02  0.11453791348E+02  0.72700742541E+02  0.12700000000E+01 0.  1.
          2    1    1    2  502    0  0.53505964171E+02  0.24529885514E+02  0.62745058645E+03  0.63020539661E+03  0.00000000000E+00 0. -1.
          1    1    1    2  503    0 -0.67136384145E+02  0.23506009697E+02 -0.66504045993E+03  0.66883379095E+03  0.00000000000E+00 0. -1.
<mgrwt>
<rscale>  0 0.64453306E+02</rscale>
<asrwt>0</asrwt>
<pdfrwt beam="2">  1        2 0.10771294E+00 0.70577070E+02</pdfrwt>
<pdfrwt beam="1">  1        1 0.11893455E+00 0.58860882E+02</pdfrwt>
<totfact> 0.15631530E+02</totfact>
</mgrwt>
</event>
<event>
 7    1  0.7037933E-004  0.1959769E+03  0.7546771E-02  0.1307920E+00
          1   -1    0    0  503    0  0.00000000000E+00  0.00000000000E+00  0.10786722793E+04  0.10786722793E+04  0.00000000000E+00 0. -1.
         -1   -1    0    0    0  501 -0.00000000000E+00 -0.00000000000E+00 -0.65135927590E+02  0.65135927590E+02  0.00000000000E+00 0.  1.
         25    2    1    2    0    0 -0.17650673548E+03  0.89352752735E+02  0.59114426138E+03  0.63578440666E+03  0.12502692470E+03 0.  0.
          4    1    3    3  502    0 -0.52884351573E+02 -0.21994599993E+02  0.81140076405E+02  0.99326944829E+02  0.12700000000E+01 0.  1.
         -4    1    3    3    0  502 -0.12362238391E+03  0.11134735273E+03  0.51000418498E+03  0.53645746183E+03  0.12700000000E+01 0.  1.
          2    1    1    2  503    0 -0.12834109300E+02 -0.37315093500E+02  0.22915269299E+03  0.23252545510E+03  0.00000000000E+00 0. -1.
         -2    1    1    2    0  501  0.18934084478E+03 -0.52037659235E+02  0.19323939732E+03  0.27549834511E+03  0.00000000000E+00 0.  1.
<mgrwt>
<rscale>  0 0.87939435E+02</rscale>
<asrwt>0</asrwt>
<pdfrwt beam="1">  1        1 0.16594957E+00 0.39460494E+02</pdfrwt>
<pdfrwt beam="2">  1       -1 0.10020913E-01 0.19597688E+03</pdfrwt>
<totfact> 0.95667252E+02</totfact>
</mgrwt>
</event>
<event>
 7    1  0.7037933E-004  0.6144287E+02  0.7546771E-02  0.1449540E+00
          2   -1    0    0  503    0  0.00000000000E+00  0.00000000000E+00  0.12863290379E+03  0.12863290379E+03  0.00000000000E+00 0. -1.
          1   -1    0    0  502    0 -0.00000000000E+00 -0.00000000000E+00 -0.98667545287E+03  0.98667545287E+03  0.00000000000E+00 0. -1.
         25    2    1    2    0    0  0.34281765067E+02  0.47888529980E+02 -0.21760334655E+03  0.25777136766E+03  0.12500524324E+03 0.  0.
          4    1    3    3  501    0 -0.62527197959E+01  0.11166624250E+02  0.14456719800E+02  0.19349409536E+02  0.12700000000E+01 0.  1.
         -4    1    3    3    0  501  0.40534484863E+02  0.36721905730E+02 -0.23206006635E+03  0.23842195812E+03  0.12700000000E+01 0.  1.
          2    1    1    2  502    0 -0.59778691768E+02 -0.17792382818E+02 -0.74405640069E+03  0.74666591478E+03  0.00000000000E+00 0. -1.
          1    1    1    2  503    0  0.25496926701E+02 -0.30096147162E+02  0.10361719816E+03  0.11087107422E+03  0.00000000000E+00 0. -1.
<mgrwt>
<rscale>  0 0.49229925E+02</rscale>
<asrwt>0</asrwt>
<pdfrwt beam="1">  1        2 0.19789677E-01 0.39444535E+02</pdfrwt>
<pdfrwt beam="2">  1        1 0.15179623E+00 0.61442872E+02</pdfrwt>
<totfact> 0.63836833E+02</totfact>
</mgrwt>
</event>
<event>
 7    1  0.7037933E-004  0.6644440E+02  0.7546771E-02  0.1437317E+00
          1   -1    0    0  503    0  0.00000000000E+00  0.00000000000E+00  0.58016856976E+03  0.58016856976E+03  0.00000000000E+00 0. -1.
         -1   -1    0    0    0  501 -0.00000000000E+00 -0.00000000000E+00 -0.38370523299E+02  0.38370523299E+02  0.00000000000E+00 0.  1.
         25    2    1    2    0    0  0.86157454181E+02  0.43229379317E+02  0.35701440783E+03  0.39035379697E+03  0.12499965305E+03 0.  0.
          4    1    3    3  502    0  0.42125504214E+02  0.84502554803E+02  0.25360673830E+03  0.27061638991E+03  0.12700000000E+01 0. -1.
         -4    1    3    3    0  502  0.44031949968E+02 -0.41273175486E+02  0.10340766953E+03  0.11973740707E+03  0.12700000000E+01 0. -1.
          2    1    1    2  503    0 -0.55679098656E+02 -0.17407762586E+02  0.17844600819E+03  0.18773963370E+03  0.00000000000E+00 0. -1.
         -2    1    1    2    0  501 -0.30478355525E+02 -0.25821616731E+02  0.63376304411E+01  0.40445662385E+02  0.00000000000E+00 0.  1.
<mgrwt>
<rscale>  0 0.51518836E+02</rscale>
<asrwt>0</asrwt>
<pdfrwt beam="1">  1        1 0.89256697E-01 0.66444397E+02</pdfrwt>
<pdfrwt beam="2">  1       -1 0.59031578E-02 0.39946039E+02</pdfrwt>
<totfact> 0.44417262E+03</totfact>
</mgrwt>
</event>
<event>
 7    1  0.7037933E-004  0.5815093E+02  0.7546771E-02  0.1546935E+00
          2   -1    0    0  503    0  0.00000000000E+00  0.00000000000E+00  0.19887640566E+04  0.19887640566E+04  0.00000000000E+00 0. -1.
         -2   -1    0    0    0  501 -0.00000000000E+00 -0.00000000000E+00 -0.72857564424E+01  0.72857564424E+01  0.00000000000E+00 0.  1.
         25    2    1    2    0    0  0.44748122603E+02 -0.49098488490E+02  0.11949256171E+04  0.12032811583E+04  0.12500103857E+03 0.  0.
          4    1    3    3  502    0 -0.26244430943E+02  0.17854646948E+02  0.55986934969E+03  0.56076988168E+03  0.12700000000E+01 0.  1.
         -4    1    3    3    0  502  0.70992553546E+02 -0.66953135438E+02  0.63505626738E+03  0.64251127667E+03  0.12700000000E+01 0.  1.
          3    1    1    2  503    0  0.15599821082E+01  0.21235862342E+02  0.51451421987E+02  0.55683428577E+02  0.00000000000E+00 0. -1.
         -3    1    1    2    0  501 -0.46308104711E+02  0.27862626148E+02  0.73510126114E+03  0.73708522616E+03  0.00000000000E+00 0.  1.
<mgrwt>
<rscale>  0 0.35188244E+02</rscale>
<asrwt>0</asrwt>
<pdfrwt beam="1">  1        2 0.30596327E+00 0.21293083E+02</pdfrwt>
<pdfrwt beam="2">  1       -2 0.11208872E-02 0.58150927E+02</pdfrwt>
<totfact> 0.14443612E+04</totfact>
</mgrwt>
</event>
<event>
 7    1  0.7037933E-004  0.4680980E+02  0.7546771E-02  0.1463607E+00
         -1   -1    0    0    0  501 -0.00000000000E+00  0.00000000000E+00  0.16589336431E+03  0.16589336431E+03  0.00000000000E+00 0.  1.
          1   -1    0    0  503    0  0.00000000000E+00 -0.00000000000E+00 -0.70325646811E+03  0.70325646811E+03  0.00000000000E+00 0. -1.
         25    2    1    2    0    0  0.19778470159E+02  0.14175056867E+02 -0.73032055696E+02  0.14679954283E+03  0.12499721796E+03 0.  0.
          4    1    3    3  502    0 -0.15509409899E+02  0.54591987921E+02 -0.73822420390E+02  0.93124591772E+02  0.12700000000E+01 0. -1.
         -4    1    3    3    0  502  0.35287880058E+02 -0.40416931053E+02  0.79036469435E+00  0.53674951058E+02  0.12700000000E+01 0. -1.
          2    1    1    2  503    0  0.15210079761E+02 -0.45271023688E+02 -0.58809447147E+03  0.59003043946E+03  0.00000000000E+00 0. -1.
         -2    1    1    2    0  501 -0.34988549921E+02  0.31095966820E+02  0.12376342336E+03  0.13231985014E+03  0.00000000000E+00 0.  1.
<mgrwt>
<rscale>  0 0.46766311E+02</rscale>
<asrwt>0</asrwt>
<pdfrwt beam="2">  1        1 0.10819330E+00 0.46722859E+02</pdfrwt>
<pdfrwt beam="1">  1       -1 0.25522057E-01 0.46809804E+02</pdfrwt>
<totfact> 0.39068485E+02</totfact>
</mgrwt>
</event>
<event>
 7    1  0.7037933E-004  0.1436307E+03  0.7546771E-02  0.1329614E+00
         -2   -1    0    0    0  501 -0.00000000000E+00  0.00000000000E+00  0.45278078753E+02  0.45278078753E+02  0.00000000000E+00 0.  1.
          2   -1    0    0  503    0  0.00000000000E+00 -0.00000000000E+00 -0.13691654893E+04  0.13691654893E+04  0.00000000000E+00 0. -1.
         25    2    1    2    0    0  0.39359759364E+02 -0.16656188347E+03 -0.80260048471E+03  0.83010865106E+03  0.12498313020E+03 0.  0.
          4    1    3    3  502    0  0.44855758037E+02 -0.50683551471E+02 -0.12050342390E+03  0.13821559062E+03  0.12700000000E+01 0. -1.
         -4    1    3    3    0  502 -0.54959986726E+01 -0.11587833200E+03 -0.68209706080E+03  0.69189306044E+03  0.12700000000E+01 0. -1.
          1    1    1    2  503    0 -0.39075266766E+02  0.12222437410E+03 -0.52441539015E+03  0.53988626166E+03  0.00000000000E+00 0. -1.
         -1    1    1    2    0  501 -0.28449259854E+00  0.44337509371E+02  0.31284642978E+01  0.44448655346E+02  0.00000000000E+00 0.  1.
<mgrwt>
<rscale>  0 0.79801994E+02</rscale>
<asrwt>0</asrwt>
<pdfrwt beam="2">  1        2 0.21064083E+00 0.14363069E+03</pdfrwt>
<pdfrwt beam="1">  1       -2 0.69658588E-02 0.44338422E+02</pdfrwt>
<totfact> 0.17053520E+03</totfact>
</mgrwt>
</event>
<event>
 7    1  0.7037933E-004  0.7559601E+02  0.7546771E-02  0.1384057E+00
          2   -1    0    0  503    0  0.00000000000E+00  0.00000000000E+00  0.14245400253E+03  0.14245400253E+03  0.00000000000E+00 0. -1.
          1   -1    0    0  502    0 -0.00000000000E+00 -0.00000000000E+00 -0.94258283821E+03  0.94258283821E+03  0.00000000000E+00 0. -1.
         25    2    1    2    0    0 -0.43465555380E+02  0.49270192551E+02 -0.12809017204E+03  0.19065193568E+03  0.12499704807E+03 0.  0.
          4    1    3    3  501    0 -0.74292737398E+01  0.86879287496E+02 -0.64636594467E+02  0.10854817801E+03  0.12700000000E+01 0. -1.
         -4    1    3    3    0  501 -0.36036281640E+02 -0.37609094945E+02 -0.63453577574E+02  0.82103757673E+02  0.12700000000E+01 0. -1.
          2    1    1    2  502    0  0.44867630933E+02  0.28562066607E+02 -0.76855207813E+03  0.77039028599E+03  0.00000000000E+00 0. -1.
          1    1    1    2  503    0 -0.14020755533E+01 -0.77832259158E+02  0.96513414486E+02  0.12399461907E+03  0.00000000000E+00 0. -1.
<mgrwt>
<rscale>  0 0.63409406E+02</rscale>
<asrwt>0</asrwt>
<pdfrwt beam="1">  1        2 0.21916000E-01 0.75596011E+02</pdfrwt>
<pdfrwt beam="2">  1        1 0.14501275E+00 0.53187366E+02</pdfrwt>
<totfact> 0.63751370E+02</totfact>
</mgrwt>
</event>
<event>
 7    1  0.7037933E-004  0.5536739E+02  0.7546771E-02  0.1513793E+00
         -2   -1    0    0    0  501  0.00000000000E+00  0.00000000000E+00  0.21972700159E+03  0.21972700159E+03  0.00000000000E+00 0.  1.
         -1   -1    0    0    0  502 -0.00000000000E+00 -0.00000000000E+00 -0.22834818425E+03  0.22834818425E+03  0.00000000000E+00 0.  1.
         25    2    1    2    0    0  0.67624816532E+01  0.27668212411E+02 -0.97691259136E+02  0.16113247827E+03  0.12493531249E+03 0.  0.
          4    1    3    3  503    0 -0.31686131161E+02 -0.30208654112E+02 -0.77064442984E+02  0.88640368702E+02  0.12700000000E+01 0. -1.
         -4    1    3    3    0  503  0.38448612814E+02  0.57876866522E+02 -0.20626816152E+02  0.72492109573E+02  0.12700000000E+01 0. -1.
         -2    1    1    2    0  502  0.41494550167E+01  0.27515311374E+02 -0.92637869301E+02  0.96726858554E+02  0.00000000000E+00 0.  1.
         -1    1    1    2    0  501 -0.10911936670E+02 -0.55183523785E+02  0.18170794577E+03  0.19021584901E+03  0.00000000000E+00 0.  1.
<mgrwt>
<rscale>  0 0.39251456E+02</rscale>
<asrwt>0</asrwt>
<pdfrwt beam="1">  1       -2 0.33804154E-01 0.55367386E+02</pdfrwt>
<pdfrwt beam="2">  1       -1 0.35130490E-01 0.27826432E+02</pdfrwt>
<totfact> 0.44787289E+02</totfact>
</mgrwt>
</event>
<event>
 7    1  0.7037933E-004  0.4167917E+02  0.7546771E-02  0.1578197E+00
         -1   -1    0    0    0  501 -0.00000000000E+00  0.00000000000E+00  0.98850940380E+03  0.98850940380E+03  0.00000000000E+00 0.  1.
          1   -1    0    0  503    0  0.00000000000E+00 -0.00000000000E+00 -0.20569417335E+03  0.20569417335E+03  0.00000000000E+00 0. -1.
         25    2    1    2    0    0 -0.28601427188E+02 -0.26898222370E+02  0.13078383737E+03  0.18512080617E+03  0.12499497892E+03 0.  0.
          4    1    3    3  502    0 -0.41948134402E+01  0.96234997996E+01 -0.22928868334E+02  0.25249833886E+02  0.12700000000E+01 0. -1.
         -4    1    3    3    0  502 -0.24406613748E+02 -0.36521722169E+02  0.15371270570E+03  0.15987097228E+03  0.12700000000E+01 0. -1.
          2    1    1    2  503    0 -0.12805101894E+02  0.20751006500E+02 -0.17716262641E+03  0.17883280208E+03  0.00000000000E+00 0. -1.
         -2    1    1    2    0  501  0.41406529082E+02  0.61472158695E+01  0.82919401949E+03  0.83024996890E+03  0.00000000000E+00 0.  1.
<mgrwt>
<rscale>  0 0.31879477E+02</rscale>
<asrwt>0</asrwt>
<pdfrwt beam="2">  1        1 0.31645258E-01 0.24383907E+02</pdfrwt>
<pdfrwt beam="1">  1       -1 0.15207837E+00 0.41679173E+02</pdfrwt>
<totfact> 0.56395608E+01</totfact>
</mgrwt>
</event>
<event>
 7    1  0.7037933E-004  0.5251251E+02  0.7546771E-02  0.1449397E+00
          1   -1    0    0  502    0 -0.00000000000E+00  0.00000000000E+00  0.10639851484E+03  0.10639851484E+03  0.00000000000E+00 0. -1.
          2   -1    0    0  503    0  0.00000000000E+00 -0.00000000000E+00 -0.56644716530E+03  0.56644716530E+03  0.00000000000E+00 0. -1.
         25    2    1    2    0    0 -0.28992849218E+02  0.14248748985E+02  0.38144855701E+02  0.13462414700E+03  0.12500007514E+03 0.  0.
          4    1    3    3  501    0 -0.40053634960E+02 -0.46632401095E+02  0.38846835024E+02  0.72729388810E+02  0.12700000000E+01 0.  1.
         -4    1    3    3    0  501  0.11060785742E+02  0.60881150080E+02 -0.70197932324E+00  0.61894758189E+02  0.12700000000E+01 0.  1.
          2    1    1    2  502    0  0.32309268025E+02 -0.66656433142E+02 -0.55843918968E+02  0.92765899798E+02  0.00000000000E+00 0. -1.
          1    1    1    2  503    0 -0.33164188069E+01  0.52407684157E+02 -0.44234958719E+03  0.44545563335E+03  0.00000000000E+00 0. -1.
<mgrwt>
<rscale>  0 0.49255793E+02</rscale>
<asrwt>0</asrwt>
<pdfrwt beam="2">  1        2 0.87145718E-01 0.52512513E+02</pdfrwt>
<pdfrwt beam="1">  1        1 0.16369002E-01 0.46201049E+02</pdfrwt>
<totfact> 0.23260633E+03</totfact>
</mgrwt>
</event>
<event>
 7    1  0.7037933E-004  0.9664549E+02  0.7546771E-02  0.1323995E+00
          1   -1    0    0  502    0 -0.00000000000E+00  0.00000000000E+00  0.15825983034E+04  0.15825983034E+04  0.00000000000E+00 0. -1.
          2   -1    0    0  503    0  0.00000000000E+00 -0.00000000000E+00 -0.12831470830E+03  0.12831470830E+03  0.00000000000E+00 0. -1.
         25    2    1    2    0    0  0.93204669245E+02  0.10922097527E+03  0.28384927733E+03  0.34176361617E+03  0.12496249552E+03 0.  0.
          4    1    3    3  501    0  0.54331207527E+01  0.98421626242E+02  0.18110472115E+03  0.20619618871E+03  0.12700000000E+01 0. -1.
         -4    1    3    3    0  501  0.87771548492E+02  0.10799349025E+02  0.10274455618E+03  0.13556742746E+03  0.12700000000E+01 0. -1.
          2    1    1    2  502    0 -0.26479216155E+02 -0.90692288316E+02  0.12557313107E+04  0.12592804949E+04  0.00000000000E+00 0. -1.
          1    1    1    2  503    0 -0.66725453090E+02 -0.18528686952E+02 -0.85296992934E+02  0.10986890067E+03  0.00000000000E+00 0. -1.
<mgrwt>
<rscale>  0 0.81809076E+02</rscale>
<asrwt>0</asrwt>
<pdfrwt beam="2">  1        2 0.19740725E-01 0.69250259E+02</pdfrwt>
<pdfrwt beam="1">  1        1 0.24347665E+00 0.96645487E+02</pdfrwt>
<totfact> 0.25521535E+02</totfact>
</mgrwt>
</event>
<event>
 7    1  0.7037933E-004  0.5450117E+02  0.7546771E-02  0.1467816E+00
          1   -1    0    0  503    0  0.00000000000E+00  0.00000000000E+00  0.18767660490E+02  0.18767660490E+02  0.00000000000E+00 0. -1.
         -1   -1    0    0    0  501 -0.00000000000E+00 -0.00000000000E+00 -0.10061763518E+04  0.10061763518E+04  0.00000000000E+00 0.  1.
         25    2    1    2    0    0  0.14567307308E+02  0.76529727093E+02 -0.42909830330E+03  0.45367334277E+03  0.12500056990E+03 0.  0.
          4    1    3    3  502    0  0.16481907147E+02  0.66162343492E+02 -0.43580850256E+03  0.44111197304E+03  0.12700000000E+01 0.  1.
         -4    1    3    3    0  502 -0.19145998391E+01  0.10367383602E+02  0.67101992604E+01  0.12561369726E+02  0.12700000000E+01 0.  1.
          2    1    1    2  503    0 -0.29041898366E+02 -0.25925513846E+02 -0.69713096035E+02  0.79846602230E+02  0.00000000000E+00 0. -1.
         -2    1    1    2    0  501  0.14474591059E+02 -0.50604213247E+02 -0.48859729200E+03  0.49142406731E+03  0.00000000000E+00 0.  1.
<mgrwt>
<rscale>  0 0.46062394E+02</rscale>
<asrwt>0</asrwt>
<pdfrwt beam="1">  1        1 0.28873327E-02 0.38930247E+02</pdfrwt>
<pdfrwt beam="2">  1       -1 0.15479634E+00 0.54501174E+02</pdfrwt>
<totfact> 0.11171275E+03</totfact>
</mgrwt>
</event>
<event>
 7    1  0.6685401E-003  0.5843113E+02  0.7546771E-02  0.1524108E+00
         -2   -1    0    0    0  501 -0.00000000000E+00  0.00000000000E+00  0.58947592153E+01  0.58947592153E+01  0.00000000000E+00 0. -1.
          2   -1    0    0  503    0  0.00000000000E+00 -0.00000000000E+00 -0.27608115605E+04  0.27608115605E+04  0.00000000000E+00 0.  1.
         25    2    1    2    0    0 -0.18745474007E+02 -0.57118693385E+02 -0.12003683719E+04  0.12083557853E+04  0.12500215161E+03 0.  0.
          4    1    3    3  502    0  0.26264841406E+02 -0.60590667439E+02 -0.31570609847E+03  0.32254150801E+03  0.12700000000E+01 0. -1.
         -4    1    3    3    0  502 -0.45010315413E+02  0.34719740539E+01 -0.88466227338E+03  0.88581427734E+03  0.12700000000E+01 0. -1.
          3    1    1    2  503    0 -0.20836636236E+02  0.13091114390E+02 -0.11585950478E+03  0.11844394257E+03  0.00000000000E+00 0. -1.
         -3    1    1    2    0  501  0.39582110242E+02  0.44027578996E+02 -0.14386889246E+04  0.14399065918E+04  0.00000000000E+00 0.  1.
<mgrwt>
<rscale>  0 0.37919128E+02</rscale>
<asrwt>0</asrwt>
<pdfrwt beam="2">  1        2 0.42474041E+00 0.24607777E+02</pdfrwt>
<pdfrwt beam="1">  1       -2 0.90688566E-03 0.58431133E+02</pdfrwt>
<totfact> 0.80491231E+03</totfact>
</mgrwt>
</event>
<event>
 7    1  0.7037933E-004  0.2095638E+03  0.7546771E-02  0.1287745E+00
          2   -1    0    0  503    0  0.00000000000E+00  0.00000000000E+00  0.14183400211E+04  0.14183400211E+04  0.00000000000E+00 0. -1.
          1   -1    0    0  502    0 -0.00000000000E+00 -0.00000000000E+00 -0.16623365988E+04  0.16623365988E+04  0.00000000000E+00 0. -1.
         25    2    1    2    0    0 -0.14727953207E+03 -0.12686090824E+03 -0.34646058879E+03  0.41646825357E+03  0.12500366409E+03 0.  0.
          4    1    3    3  501    0 -0.62098333980E+02  0.11875698013E+02 -0.61099751324E+02  0.87931949815E+02  0.12700000000E+01 0.  1.
         -4    1    3    3    0  501 -0.85181198095E+02 -0.13873660626E+03 -0.28536083746E+03  0.32853630375E+03  0.12700000000E+01 0.  1.
          2    1    1    2  502    0 -0.36527557063E+02  0.25369490148E+02 -0.12725142300E+04  0.12732911446E+04  0.00000000000E+00 0. -1.
          1    1    1    2  503    0  0.18380708914E+03  0.10149141810E+03  0.13749782411E+04  0.13909172217E+04  0.00000000000E+00 0. -1.
<mgrwt>
<rscale>  0 0.96540094E+02</rscale>
<asrwt>0</asrwt>
<pdfrwt beam="1">  1        2 0.21820616E+00 0.20956376E+03</pdfrwt>
<pdfrwt beam="2">  1        1 0.25574409E+00 0.44473289E+02</pdfrwt>
<totfact> 0.14351874E+01</totfact>
</mgrwt>
</event>
<event>
 7    1  0.7037933E-004  0.5408750E+02  0.7546771E-02  0.1535476E+00
          1   -1    0    0  502    0 -0.00000000000E+00  0.00000000000E+00  0.14138570741E+04  0.14138570741E+04  0.00000000000E+00 0. -1.
          2   -1    0    0  503    0  0.00000000000E+00 -0.00000000000E+00 -0.14135280129E+03  0.14135280129E+03  0.00000000000E+00 0. -1.
         25    2    1    2    0    0  0.10957260813E+02 -0.57687808221E+02  0.48613277205E+03  0.50536793389E+03  0.12499492692E+03 0.  0.
          4    1    3    3  501    0 -0.88359623762E+01  0.35047066088E+02  0.21753246966E+03  0.22051838774E+03  0.12700000000E+01 0. -1.
         -4    1    3    3    0  501  0.19793223189E+02 -0.92734874309E+02  0.26860030239E+03  0.28484954615E+03  0.12700000000E+01 0. -1.
          2    1    1    2  502    0  0.13152488442E+02  0.52494935349E+02  0.91614689019E+03  0.91774388071E+03  0.00000000000E+00 0. -1.
          1    1    1    2  503    0 -0.24109749255E+02  0.51928728725E+01 -0.12977538948E+03  0.13209806074E+03  0.00000000000E+00 0. -1.
<mgrwt>
<rscale>  0 0.36523152E+02</rscale>
<asrwt>0</asrwt>
<pdfrwt beam="2">  1        2 0.21746586E-01 0.24662643E+02</pdfrwt>
<pdfrwt beam="1">  1        1 0.21751646E+00 0.54087498E+02</pdfrwt>
<totfact> 0.29629131E+02</totfact>
</mgrwt>
</event>
<event>
 7    1  0.7037933E-004  0.5168402E+02  0.7546771E-02  0.1523998E+00
         -2   -1    0    0    0  501  0.00000000000E+00  0.00000000000E+00  0.19152512070E+03  0.19152512070E+03  0.00000000000E+00 0.  1.
         -3   -1    0    0    0  502 -0.00000000000E+00 -0.00000000000E+00 -0.39648739961E+03  0.39648739961E+03  0.00000000000E+00 0.  1.
         25    2    1    2    0    0 -0.27579657665E+02  0.11053121091E+01 -0.14976552157E+03  0.19701742958E+03  0.12499718746E+03 0.  0.
          4    1    3    3  503    0 -0.68044816088E+01 -0.57448337996E+02 -0.38273398688E+02  0.69376353721E+02  0.12700000000E+01 0.  1.
         -4    1    3    3    0  503 -0.20775176056E+02  0.58553650105E+02 -0.11149212288E+03  0.12764107585E+03  0.12700000000E+01 0.  1.
         -2    1    1    2    0  502  0.54703803990E+02 -0.73800051578E+01 -0.21848518977E+03  0.22535028022E+03  0.00000000000E+00 0.  1.
         -1    1    1    2    0  501 -0.27124146325E+02  0.62746930487E+01  0.16328843243E+03  0.16564481052E+03  0.00000000000E+00 0.  1.
<mgrwt>
<rscale>  0 0.37932923E+02</rscale>
<asrwt>0</asrwt>
<pdfrwt beam="1">  1       -2 0.29465404E-01 0.27840458E+02</pdfrwt>
<pdfrwt beam="2">  1       -3 0.60998061E-01 0.51684015E+02</pdfrwt>
<totfact> 0.99980960E+01</totfact>
</mgrwt>
</event>
<event>
 7    1  0.7037933E-004  0.8392908E+02  0.7546771E-02  0.1357158E+00
          2   -1    0    0  503    0  0.00000000000E+00  0.00000000000E+00  0.62220239775E+02  0.62220239775E+02  0.00000000000E+00 0. -1.
          1   -1    0    0  502    0 -0.00000000000E+00 -0.00000000000E+00 -0.23571684543E+04  0.23571684543E+04  0.00000000000E+00 0. -1.
         25    2    1    2    0    0 -0.83211453489E+02 -0.93562644320E+02 -0.52819463261E+03  0.55704006013E+03  0.12500377703E+03 0.  0.
          4    1    3    3  501    0 -0.80403149071E+02 -0.98712136665E+02 -0.26727236653E+03  0.29604878502E+03  0.12700000000E+01 0. -1.
         -4    1    3    3    0  501 -0.28083044179E+01  0.51494923446E+01 -0.26092226608E+03  0.26099127511E+03  0.12700000000E+01 0. -1.
          2    1    1    2  502    0  0.74300783962E+02  0.34386298658E+02 -0.17945134193E+04  0.17963800923E+04  0.00000000000E+00 0. -1.
          1    1    1    2  503    0  0.89106695268E+01  0.59176345662E+02  0.27759837357E+02  0.65968541650E+02  0.00000000000E+00 0. -1.
<mgrwt>
<rscale>  0 0.70870351E+02</rscale>
<asrwt>0</asrwt>
<pdfrwt beam="1">  1        2 0.95723451E-02 0.59843462E+02</pdfrwt>
<pdfrwt beam="2">  1        1 0.36264128E+00 0.83929080E+02</pdfrwt>
<totfact> 0.19347827E+02</totfact>
</mgrwt>
</event>
<event>
 7    1  0.7037933E-004  0.7491785E+02  0.7546771E-02  0.1353167E+00
         -1   -1    0    0    0  501 -0.00000000000E+00  0.00000000000E+00  0.57122786604E+03  0.57122786604E+03  0.00000000000E+00 0.  1.
          1   -1    0    0  503    0  0.00000000000E+00 -0.00000000000E+00 -0.69293988797E+02  0.69293988797E+02  0.00000000000E+00 0. -1.
         25    2    1    2    0    0 -0.46180220217E+02 -0.11585028869E+03  0.29780147226E+03  0.34621331771E+03  0.12499616935E+03 0.  0.
          4    1    3    3  502    0 -0.65742660825E+01 -0.12186831964E+03  0.15164656529E+03  0.19466227671E+03  0.12700000000E+01 0.  1.
         -4    1    3    3    0  502 -0.39605954134E+02  0.60180309550E+01  0.14615490697E+03  0.15155104100E+03  0.12700000000E+01 0.  1.
          2    1    1    2  503    0  0.53488438227E+02  0.46891288205E+02 -0.75739091916E+01  0.71534397557E+02  0.00000000000E+00 0. -1.
         -2    1    1    2    0  501 -0.73082180103E+01  0.68959000484E+02  0.21170631417E+03  0.22277413957E+03  0.00000000000E+00 0.  1.
<mgrwt>
<rscale>  0 0.72077678E+02</rscale>
<asrwt>0</asrwt>
<pdfrwt beam="2">  1        1 0.10660614E-01 0.74917849E+02</pdfrwt>
<pdfrwt beam="1">  1       -1 0.87881207E-01 0.69345179E+02</pdfrwt>
<totfact> 0.77021759E+02</totfact>
</mgrwt>
</event>
<event>
 7    1  0.7037933E-004  0.6487269E+02  0.7546771E-02  0.1380251E+00
         -1   -1    0    0    0  501 -0.00000000000E+00  0.00000000000E+00  0.74274154382E+02  0.74274154382E+02  0.00000000000E+00 0.  1.
          1   -1    0    0  503    0  0.00000000000E+00 -0.00000000000E+00 -0.14202691284E+04  0.14202691284E+04  0.00000000000E+00 0. -1.
         25    2    1    2    0    0 -0.77449226293E+02  0.26004433364E+02 -0.29037559473E+03  0.32652011010E+03  0.12499113197E+03 0.  0.
          4    1    3    3  502    0 -0.11163838873E+03  0.27647387644E+02 -0.22734874145E+03  0.25478730545E+03  0.12700000000E+01 0. -1.
         -4    1    3    3    0  502  0.34189162436E+02 -0.16429542797E+01 -0.63026853285E+02  0.71732804642E+02  0.12700000000E+01 0. -1.
          2    1    1    2  503    0  0.23910741326E+02 -0.60936040126E+02 -0.10923407961E+04  0.10943003881E+04  0.00000000000E+00 0. -1.
         -2    1    1    2    0  501  0.53538484968E+02  0.34931606762E+02  0.36721416784E+02  0.73722784634E+02  0.00000000000E+00 0.  1.
<mgrwt>
<rscale>  0 0.64397814E+02</rscale>
<asrwt>0</asrwt>
<pdfrwt beam="2">  1        1 0.21850293E+00 0.64872688E+02</pdfrwt>
<pdfrwt beam="1">  1       -1 0.11426794E-01 0.63926415E+02</pdfrwt>
<totfact> 0.42059511E+02</totfact>
</mgrwt>
</event>
<event>
 7    1  0.7037933E-004  0.5342388E+02  0.7546771E-02  0.1559918E+00
          2   -1    0    0  503    0  0.00000000000E+00  0.00000000000E+00  0.12064476617E+04  0.12064476617E+04  0.00000000000E+00 0. -1.
         -2   -1    0    0    0  501 -0.00000000000E+00 -0.00000000000E+00 -0.15214527591E+03  0.15214527591E+03  0.00000000000E+00 0.  1.
         25    2    1    2    0    0  0.23429110733E+02 -0.32216106287E+02  0.91271921334E+03  0.92210199270E+03  0.12501568624E+03 0.  0.
          4    1    3    3  502    0  0.72609064572E+01  0.27135307661E+02  0.70253229546E+03  0.70309479073E+03  0.12700000000E+01 0.  1.
         -4    1    3    3    0  502  0.16168204275E+02 -0.59351413948E+02  0.21018691788E+03  0.21900720197E+03  0.12700000000E+01 0.  1.
          1    1    1    2  503    0  0.21166323175E+02  0.26444270001E+01  0.28376908781E+03  0.28456967763E+03  0.00000000000E+00 0. -1.
         -1    1    1    2    0  501 -0.44595433908E+02  0.29571679287E+02 -0.14218591534E+03  0.15192126731E+03  0.00000000000E+00 0.  1.
<mgrwt>
<rscale>  0 0.33757639E+02</rscale>
<asrwt>0</asrwt>
<pdfrwt beam="1">  1        2 0.18560733E+00 0.21330875E+02</pdfrwt>
<pdfrwt beam="2">  1       -2 0.23406966E-01 0.53423883E+02</pdfrwt>
<totfact> 0.35871508E+02</totfact>
</mgrwt>
</event>
<event>
 7    1  0.7037933E-004  0.5542107E+03  0.7546771E-02  0.1000524E+00
          2   -1    0    0  503    0  0.00000000000E+00  0.00000000000E+00  0.76744534871E+03  0.76744534871E+03  0.00000000000E+00 0. -1.
         -2   -1    0    0    0  501 -0.00000000000E+00 -0.00000000000E+00 -0.10005582143E+03  0.10005582143E+03  0.00000000000E+00 0.  1.
         25    2    1    2    0    0 -0.16071472095E+02  0.17833699567E+03  0.55710861939E+02  0.22537289639E+03  0.12500746398E+03 0.  0.
          4    1    3    3  502    0  0.73618856343E+01  0.17438521889E+03  0.79434109760E+02  0.19177015571E+03  0.12700000000E+01 0. -1.
         -4    1    3    3    0  502 -0.23433357729E+02  0.39517767808E+01 -0.23723247821E+02  0.33602740682E+02  0.12700000000E+01 0. -1.
          3    1    1    2  503    0  0.25270069986E+02 -0.10612031255E+03  0.47395935072E+03  0.48635127563E+03  0.00000000000E+00 0. -1.
         -3    1    1    2    0  501 -0.91985978915E+01 -0.72216683120E+02  0.13771931462E+03  0.15577699812E+03  0.00000000000E+00 0.  1.
<mgrwt>
<rscale>  0 0.55421070E+03</rscale>
<asrwt>0</asrwt>
<pdfrwt beam="1">  1        2 0.11806851E+00 0.55421070E+03</pdfrwt>
<pdfrwt beam="2">  1       -2 0.15393204E-01 0.55421070E+03</pdfrwt>
<totfact> 0.12251860E+03</totfact>
</mgrwt>
</event>
<event>
 7    1  0.7037933E-004  0.1485629E+03  0.7546771E-02  0.1285968E+00
          2   -1    0    0  503    0  0.00000000000E+00  0.00000000000E+00  0.18725672210E+04  0.18725672210E+04  0.00000000000E+00 0. -1.
          1   -1    0    0  502    0 -0.00000000000E+00 -0.00000000000E+00 -0.20748661436E+04  0.20748661436E+04  0.00000000000E+00 0. -1.
         25    2    1    2    0    0  0.22172464272E+02  0.19534259694E+03 -0.19785438347E+03  0.30564958266E+03  0.12499984789E+03 0.  0.
          4    1    3    3  501    0  0.43554388495E+02  0.13194091118E+03 -0.57923998510E+02  0.15053966687E+03  0.12700000000E+01 0. -1.
         -4    1    3    3    0  501 -0.21381924224E+02  0.63401685764E+02 -0.13993038496E+03  0.15510991579E+03  0.12700000000E+01 0. -1.
          2    1    1    2  502    0 -0.41393033788E+02 -0.48539511466E+02 -0.18195410012E+04  0.18206589254E+04  0.00000000000E+00 0. -1.
          1    1    1    2  503    0  0.19220569516E+02 -0.14680308548E+03  0.18150964622E+04  0.18211248566E+04  0.00000000000E+00 0. -1.
<mgrwt>
<rscale>  0 0.97350809E+02</rscale>
<asrwt>0</asrwt>
<pdfrwt beam="1">  1        2 0.28808726E+00 0.14856289E+03</pdfrwt>
<pdfrwt beam="2">  1        1 0.31921018E+00 0.63792377E+02</pdfrwt>
<totfact> 0.45681540E+00</totfact>
</mgrwt>
</event>
<event>
 7    1  0.7037933E-004  0.1342594E+03  0.7546771E-02  0.1332381E+00
          1   -1    0    0  502    0 -0.00000000000E+00  0.00000000000E+00  0.12883893869E+03  0.12883893869E+03  0.00000000000E+00 0. -1.
          2   -1    0    0  503    0  0.00000000000E+00 -0.00000000000E+00 -0.36217680312E+03  0.36217680312E+03  0.00000000000E+00 0. -1.
         25    2    1    2    0    0 -0.14093865968E+03 -0.44666730804E+02 -0.60795415365E+02  0.20292985838E+03  0.12500248901E+03 0.  0.
          4    1    3    3  501    0  0.10871830999E+02 -0.72862516383E+01 -0.43714818607E+02  0.45649583109E+02  0.12700000000E+01 0. -1.
         -4    1    3    3    0  501 -0.15181049068E+03 -0.37380479165E+02 -0.17080596758E+02  0.15728027527E+03  0.12700000000E+01 0. -1.
          2    1    1    2  502    0  0.33503207090E+02 -0.31948602152E+02  0.23385314615E+02  0.51865701619E+02  0.00000000000E+00 0. -1.
          1    1    1    2  503    0  0.10743545259E+03  0.76615332956E+02 -0.19592776367E+03  0.23622018181E+03  0.00000000000E+00 0. -1.
<mgrwt>
<rscale>  0 0.78838228E+02</rscale>
<asrwt>0</asrwt>
<pdfrwt beam="2">  1        2 0.55719508E-01 0.13425936E+03</pdfrwt>
<pdfrwt beam="1">  1        1 0.19821375E-01 0.46294471E+02</pdfrwt>
<totfact> 0.29312589E+03</totfact>
</mgrwt>
</event>
<event>
 7    1  0.7037933E-004  0.1714244E+03  0.7546771E-02  0.1197792E+00
          2   -1    0    0  503    0  0.00000000000E+00  0.00000000000E+00  0.25405746977E+03  0.25405746977E+03  0.00000000000E+00 0. -1.
          1   -1    0    0  502    0 -0.00000000000E+00 -0.00000000000E+00 -0.24124167444E+04  0.24124167444E+04  0.00000000000E+00 0. -1.
         25    2    1    2    0    0 -0.43788841458E+02  0.46123095517E+02  0.19469429351E+02  0.14158716877E+03  0.12499226018E+03 0.  0.
          4    1    3    3  501    0  0.39728511798E+02  0.62847050300E+01 -0.14838661690E+02  0.42891152325E+02  0.12700000000E+01 0.  1.
         -4    1    3    3    0  501 -0.83517353256E+02  0.39838390487E+02  0.34308091041E+02  0.98696016446E+02  0.12700000000E+01 0.  1.
          2    1    1    2  502    0  0.78057133015E+01 -0.17638096261E+03 -0.23211776202E+04  0.23278824535E+04  0.00000000000E+00 0. -1.
          1    1    1    2  503    0  0.35983128156E+02  0.13025786709E+03  0.14334891617E+03  0.19700459187E+03  0.00000000000E+00 0. -1.
<mgrwt>
<rscale>  0 0.15220287E+03</rscale>
<asrwt>0</asrwt>
<pdfrwt beam="1">  1        2 0.39085765E-01 0.13513659E+03</pdfrwt>
<pdfrwt beam="2">  1        1 0.37114103E+00 0.17142443E+03</pdfrwt>
<totfact> 0.34263583E+01</totfact>
</mgrwt>
</event>
<event>
 7    1  0.7037933E-004  0.3108082E+02  0.7546771E-02  0.1619868E+00
         -1   -1    0    0    0  501 -0.00000000000E+00  0.00000000000E+00  0.38043811291E+03  0.38043811291E+03  0.00000000000E+00 0.  1.
          1   -1    0    0  503    0  0.00000000000E+00 -0.00000000000E+00 -0.20022687852E+03  0.20022687852E+03  0.00000000000E+00 0. -1.
         25    2    1    2    0    0  0.16034246446E+02  0.43449515276E+02  0.16378519480E+03  0.21117074249E+03  0.12499013966E+03 0.  0.
          4    1    3    3  502    0 -0.52226252121E+02  0.14819323248E+02  0.42003399930E+02  0.68651964705E+02  0.12700000000E+01 0. -1.
         -4    1    3    3    0  502  0.68260498568E+02  0.28630192028E+02  0.12178179487E+03  0.14251877779E+03  0.12700000000E+01 0. -1.
          2    1    1    2  503    0  0.58398320536E+01 -0.30463026583E+02 -0.17432066426E+03  0.17705872928E+03  0.00000000000E+00 0. -1.
         -2    1    1    2    0  501 -0.21874078500E+02 -0.12986488693E+02  0.19074670384E+03  0.19243551966E+03  0.00000000000E+00 0.  1.
<mgrwt>
<rscale>  0 0.28118565E+02</rscale>
<asrwt>0</asrwt>
<pdfrwt beam="2">  1        1 0.30804135E-01 0.31080820E+02</pdfrwt>
<pdfrwt beam="1">  1       -1 0.58528940E-01 0.25438636E+02</pdfrwt>
<totfact> 0.44366643E+02</totfact>
</mgrwt>
</event>
<event>
 7    1  0.7037933E-004  0.9721631E+02  0.7546771E-02  0.1292763E+00
         -2   -1    0    0    0  501 -0.00000000000E+00  0.00000000000E+00  0.46054092971E+03  0.46054092971E+03  0.00000000000E+00 0.  1.
          2   -1    0    0  503    0  0.00000000000E+00 -0.00000000000E+00 -0.32724826435E+04  0.32724826435E+04  0.00000000000E+00 0. -1.
         25    2    1    2    0    0  0.12474946735E+03  0.20799113356E+02  0.32224070069E+03  0.36806118016E+03  0.12503971544E+03 0.  0.
          4    1    3    3  502    0  0.78212852522E+01 -0.43122232371E+02  0.65966490125E+02  0.79207891950E+02  0.12700000000E+01 0. -1.
         -4    1    3    3    0  502  0.11692818210E+03  0.63921345728E+02  0.25627421056E+03  0.28885328821E+03  0.12700000000E+01 0. -1.
          1    1    1    2  503    0 -0.55114121038E+02 -0.80107866788E+02 -0.32305984511E+04  0.32320614457E+04  0.00000000000E+00 0. -1.
         -1    1    1    2    0  501 -0.69635346310E+02  0.59308753432E+02  0.96416036614E+02  0.13290094735E+03  0.00000000000E+00 0.  1.
<mgrwt>
<rscale>  0 0.94298970E+02</rscale>
<asrwt>0</asrwt>
<pdfrwt beam="2">  1        2 0.50345889E+00 0.97216313E+02</pdfrwt>
<pdfrwt beam="1">  1       -2 0.70852448E-01 0.91469173E+02</pdfrwt>
<totfact> 0.32396142E+00</totfact>
</mgrwt>
</event>
<event>
 7    1  0.7037933E-004  0.5340100E+02  0.7546771E-02  0.1436914E+00
         -1   -1    0    0    0  501 -0.00000000000E+00  0.00000000000E+00  0.30580089602E+03  0.30580089602E+03  0.00000000000E+00 0.  1.
          1   -1    0    0  503    0  0.00000000000E+00 -0.00000000000E+00 -0.18805448245E+04  0.18805448245E+04  0.00000000000E+00 0. -1.
         25    2    1    2    0    0 -0.11787353270E+02  0.12610349709E+02 -0.39871647754E+03  0.41821026157E+03  0.12500812295E+03 0.  0.
          4    1    3    3  502    0 -0.28569841329E+02  0.62322294174E+02 -0.16514758523E+03  0.17881734254E+03  0.12700000000E+01 0.  1.
         -4    1    3    3    0  502  0.16782488060E+02 -0.49711944466E+02 -0.23356889230E+03  0.23939291902E+03  0.12700000000E+01 0.  1.
          2    1    1    2  503    0  0.34416188390E+02  0.36067955644E+02 -0.14692218155E+04  0.14700673844E+04  0.00000000000E+00 0. -1.
         -2    1    1    2    0  501 -0.22628835121E+02 -0.48678305353E+02  0.29319436463E+03  0.29806807451E+03  0.00000000000E+00 0.  1.
<mgrwt>
<rscale>  0 0.51596771E+02</rscale>
<asrwt>0</asrwt>
<pdfrwt beam="2">  1        1 0.28931459E+00 0.49853500E+02</pdfrwt>
<pdfrwt beam="1">  1       -1 0.47046292E-01 0.53401001E+02</pdfrwt>
<totfact> 0.23026923E+01</totfact>
</mgrwt>
</event>
<event>
 7    1  0.7037933E-004  0.7373780E+02  0.7546771E-02  0.1356966E+00
          1   -1    0    0  502    0 -0.00000000000E+00  0.00000000000E+00  0.95778399392E+02  0.95778399392E+02  0.00000000000E+00 0. -1.
          2   -1    0    0  503    0  0.00000000000E+00 -0.00000000000E+00 -0.17712801177E+04  0.17712801177E+04  0.00000000000E+00 0. -1.
         25    2    1    2    0    0 -0.99784562398E+02 -0.49549653993E+02 -0.14328935929E+03  0.22039194302E+03  0.12501456299E+03 0.  0.
          4    1    3    3  501    0 -0.85459491380E+02 -0.50558981032E+02 -0.26584780936E+02  0.10280028554E+03  0.12700000000E+01 0. -1.
         -4    1    3    3    0  501 -0.14325071017E+02  0.10093270395E+01 -0.11670457835E+03  0.11759165748E+03  0.12700000000E+01 0. -1.
          2    1    1    2  502    0  0.27549876332E+02  0.62415399358E+02  0.35725522140E+02  0.77012925506E+02  0.00000000000E+00 0. -1.
          1    1    1    2  503    0  0.72234686065E+02 -0.12865745365E+02 -0.15679378811E+04  0.15696536485E+04  0.00000000000E+00 0. -1.
<mgrwt>
<rscale>  0 0.70927964E+02</rscale>
<asrwt>0</asrwt>
<pdfrwt beam="2">  1        2 0.27250463E+00 0.73737801E+02</pdfrwt>
<pdfrwt beam="1">  1        1 0.14735139E-01 0.68225199E+02</pdfrwt>
<totfact> 0.54054125E+02</totfact>
</mgrwt>
</event>
<event>
 7    1  0.7037933E-004  0.3314079E+03  0.7546771E-02  0.1188216E+00
          2   -1    0    0  503    0  0.00000000000E+00  0.00000000000E+00  0.16242750986E+04  0.16242750986E+04  0.00000000000E+00 0. -1.
         -2   -1    0    0    0  501 -0.00000000000E+00 -0.00000000000E+00 -0.19310008672E+03  0.19310008672E+03  0.00000000000E+00 0.  1.
         25    2    1    2    0    0 -0.29790772086E+03 -0.38504739663E+02  0.16045474939E+03  0.36276945912E+03  0.12499731495E+03 0.  0.
          4    1    3    3  502    0 -0.20886458955E+03 -0.11942666774E+02  0.16969910051E+03  0.26938159119E+03  0.12700000000E+01 0. -1.
         -4    1    3    3    0  502 -0.89043131308E+02 -0.26562072889E+02 -0.92443511155E+01  0.93387867932E+02  0.12700000000E+01 0. -1.
          1    1    1    2  503    0  0.33801906334E+03 -0.27992909925E+02  0.13198347518E+04  0.13627194364E+04  0.00000000000E+00 0. -1.
         -1    1    1    2    0  501 -0.40111342486E+02  0.66497649588E+02 -0.49114489324E+02  0.91886289828E+02  0.00000000000E+00 0.  1.
<mgrwt>
<rscale>  0 0.16042653E+03</rscale>
<asrwt>0</asrwt>
<pdfrwt beam="1">  1        2 0.24988847E+00 0.33140789E+03</pdfrwt>
<pdfrwt beam="2">  1       -2 0.29707707E-01 0.77658594E+02</pdfrwt>
<totfact> 0.11858577E+02</totfact>
</mgrwt>
</event>
<event>
 7    1  0.7037933E-004  0.4888546E+02  0.7546771E-02  0.1519057E+00
          1   -1    0    0  502    0 -0.00000000000E+00  0.00000000000E+00  0.83237066543E+03  0.83237066543E+03  0.00000000000E+00 0. -1.
          2   -1    0    0  503    0  0.00000000000E+00 -0.00000000000E+00 -0.41646560414E+03  0.41646560414E+03  0.00000000000E+00 0. -1.
         25    2    1    2    0    0  0.14851009460E+02 -0.51378329651E+02  0.17893849587E+03  0.22473100592E+03  0.12499901790E+03 0.  0.
          4    1    3    3  501    0  0.26831306873E+02  0.31882422211E+02  0.23168426348E+02  0.47694829426E+02  0.12700000000E+01 0. -1.
         -4    1    3    3    0  501 -0.11980297413E+02 -0.83260751862E+02  0.15577006952E+03  0.17703617649E+03  0.12700000000E+01 0. -1.
          2    1    1    2  502    0 -0.37744739405E+02  0.31345781780E+02  0.62899131422E+03  0.63090197080E+03  0.00000000000E+00 0. -1.
          1    1    1    2  503    0  0.22893729945E+02  0.20032547871E+02 -0.39202474880E+03  0.39320329286E+03  0.00000000000E+00 0. -1.
<mgrwt>
<rscale>  0 0.38563396E+02</rscale>
<asrwt>0</asrwt>
<pdfrwt beam="2">  1        2 0.64071631E-01 0.30420813E+02</pdfrwt>
<pdfrwt beam="1">  1        1 0.12805703E+00 0.48885462E+02</pdfrwt>
<totfact> 0.25003532E+02</totfact>
</mgrwt>
</event>
<event>
 7    1  0.7037933E-004  0.8524776E+02  0.7546771E-02  0.1421207E+00
         -1   -1    0    0    0  501 -0.00000000000E+00  0.00000000000E+00  0.14303366798E+02  0.14303366798E+02  0.00000000000E+00 0.  1.
          1   -1    0    0  503    0  0.00000000000E+00 -0.00000000000E+00 -0.18440169201E+04  0.18440169201E+04  0.00000000000E+00 0. -1.
         25    2    1    2    0    0  0.11366455305E+03  0.50006686650E+01 -0.91537126820E+03  0.93084601839E+03  0.12500045595E+03 0.  0.
          4    1    3    3  502    0 -0.51039612776E+01 -0.30517584913E+02 -0.71515267404E+02  0.77932148575E+02  0.12700000000E+01 0.  1.
         -4    1    3    3    0  502  0.11876851433E+03  0.35518253578E+02 -0.84385600080E+03  0.85291386981E+03  0.12700000000E+01 0.  1.
          2    1    1    2  503    0 -0.78495919508E+02 -0.39639092656E+01 -0.85411087008E+03  0.85771947649E+03  0.00000000000E+00 0. -1.
         -2    1    1    2    0  501 -0.35168633542E+02 -0.10367593994E+01 -0.60231415018E+02  0.69754792024E+02  0.00000000000E+00 0.  1.
<mgrwt>
<rscale>  0 0.54766320E+02</rscale>
<asrwt>0</asrwt>
<pdfrwt beam="2">  1        1 0.28369478E+00 0.85247765E+02</pdfrwt>
<pdfrwt beam="1">  1       -1 0.22005190E-02 0.35183912E+02</pdfrwt>
<totfact> 0.22105610E+03</totfact>
</mgrwt>
</event>
<event>
 7    1  0.7037933E-004  0.2025236E+03  0.7546771E-02  0.1324436E+00
          2   -1    0    0  503    0  0.00000000000E+00  0.00000000000E+00  0.19690208356E+04  0.19690208356E+04  0.00000000000E+00 0. -1.
          1   -1    0    0  502    0 -0.00000000000E+00 -0.00000000000E+00 -0.82971759632E+03  0.82971759632E+03  0.00000000000E+00 0. -1.
         25    2    1    2    0    0  0.22247421758E+03  0.66938174374E+02  0.23543367794E+03  0.35359904280E+03  0.12501107824E+03 0.  0.
          4    1    3    3  501    0  0.36471884979E+02  0.21419073826E+02 -0.88230286459E+01  0.43225384347E+02  0.12700000000E+01 0. -1.
         -4    1    3    3    0  501  0.18600233260E+03  0.45519100548E+02  0.24425670659E+03  0.31037365845E+03  0.12700000000E+01 0. -1.
          2    1    1    2  502    0 -0.30681841927E+02 -0.11924206173E+02 -0.76433573082E+03  0.76504422847E+03  0.00000000000E+00 0. -1.
          1    1    1    2  503    0 -0.19179237565E+03 -0.55013968201E+02  0.16682052922E+04  0.16800951607E+04  0.00000000000E+00 0. -1.
<mgrwt>
<rscale>  0 0.81649073E+02</rscale>
<asrwt>0</asrwt>
<pdfrwt beam="1">  1        2 0.30292628E+00 0.20252359E+03</pdfrwt>
<pdfrwt beam="2">  1        1 0.12764886E+00 0.32917505E+02</pdfrwt>
<totfact> 0.26574276E+01</totfact>
</mgrwt>
</event>
<event>
 7    1  0.7037933E-004  0.1105957E+03  0.7546771E-02  0.1328329E+00
          2   -1    0    0  503    0  0.00000000000E+00  0.00000000000E+00  0.84055967545E+03  0.84055967545E+03  0.00000000000E+00 0. -1.
          1   -1    0    0  502    0 -0.00000000000E+00 -0.00000000000E+00 -0.83895164096E+03  0.83895164096E+03  0.00000000000E+00 0. -1.
         25    2    1    2    0    0  0.14308586162E+03 -0.62393939559E+02  0.61754571168E+02  0.20929527354E+03  0.12499726788E+03 0.  0.
          4    1    3    3  501    0  0.14997056390E+03 -0.17622252076E+02  0.29994011227E+02  0.15395768059E+03  0.12700000000E+01 0.  1.
         -4    1    3    3    0  501 -0.68847022750E+01 -0.44771687483E+02  0.31760559941E+02  0.55337592947E+02  0.12700000000E+01 0.  1.
          2    1    1    2  502    0 -0.36084850915E+02  0.45711555837E+02 -0.75990202943E+03  0.76213040691E+03  0.00000000000E+00 0. -1.
          1    1    1    2  503    0 -0.10700101071E+03  0.16682383722E+02  0.69975549275E+03  0.70808563596E+03  0.00000000000E+00 0. -1.
<mgrwt>
<rscale>  0 0.80255036E+02</rscale>
<asrwt>0</asrwt>
<pdfrwt beam="1">  1        2 0.12931687E+00 0.11059570E+03</pdfrwt>
<pdfrwt beam="2">  1        1 0.12906948E+00 0.58237984E+02</pdfrwt>
<totfact> 0.10968281E+02</totfact>
</mgrwt>
</event>
<event>
 7    1  0.7037933E-004  0.7506298E+02  0.7546771E-02  0.1432249E+00
          1   -1    0    0  502    0 -0.00000000000E+00  0.00000000000E+00  0.70110441390E+03  0.70110441390E+03  0.00000000000E+00 0. -1.
          2   -1    0    0  503    0  0.00000000000E+00 -0.00000000000E+00 -0.12451394496E+04  0.12451394496E+04  0.00000000000E+00 0. -1.
         25    2    1    2    0    0  0.10445333039E+02 -0.49596241485E+02 -0.63597828867E+02  0.14913022301E+03  0.12500498961E+03 0.  0.
          4    1    3    3  501    0  0.18233458346E+02 -0.78723405791E+02 -0.23497922317E+01  0.80851518515E+02  0.12700000000E+01 0.  1.
         -4    1    3    3    0  501 -0.77881253073E+01  0.29127164306E+02 -0.61248036635E+02  0.68278704498E+02  0.12700000000E+01 0.  1.
          2    1    1    2  502    0 -0.27467805040E+02 -0.24391801771E+02  0.65655882358E+03  0.65758568196E+03  0.00000000000E+00 0. -1.
          1    1    1    2  503    0  0.17022472001E+02  0.73988043256E+02 -0.11369960304E+04  0.11395279585E+04  0.00000000000E+00 0. -1.
<mgrwt>
<rscale>  0 0.52511125E+02</rscale>
<asrwt>0</asrwt>
<pdfrwt beam="2">  1        2 0.19155992E+00 0.75062979E+02</pdfrwt>
<pdfrwt beam="1">  1        1 0.10786222E+00 0.36734729E+02</pdfrwt>
<totfact> 0.86001994E+01</totfact>
</mgrwt>
</event>
<event>
 7    1  0.7037933E-004  0.4427912E+02  0.7546771E-02  0.1479584E+00
          1   -1    0    0  502    0 -0.00000000000E+00  0.00000000000E+00  0.11891065548E+03  0.11891065548E+03  0.00000000000E+00 0. -1.
          2   -1    0    0  503    0  0.00000000000E+00 -0.00000000000E+00 -0.48364408525E+03  0.48364408525E+03  0.00000000000E+00 0. -1.
         25    2    1    2    0    0 -0.49036757688E+01  0.20948289124E+02 -0.98672944307E+02  0.16069895798E+03  0.12499971321E+03 0.  0.
          4    1    3    3  501    0  0.93330707453E+01 -0.24862185685E+02 -0.10850401718E+03  0.11171378219E+03  0.12700000000E+01 0.  1.
         -4    1    3    3    0  501 -0.14236746514E+02  0.45810474809E+02  0.98310728708E+01  0.48985175792E+02  0.12700000000E+01 0.  1.
          2    1    1    2  502    0 -0.39299880141E+02 -0.23534014223E+02  0.80423378170E+02  0.92554039139E+02  0.00000000000E+00 0. -1.
          1    1    1    2  503    0  0.44203555909E+02  0.25857250990E+01 -0.34648386364E+03  0.34930174362E+03  0.00000000000E+00 0. -1.
<mgrwt>
<rscale>  0 0.44171063E+02</rscale>
<asrwt>0</asrwt>
<pdfrwt beam="2">  1        2 0.74406782E-01 0.44279118E+02</pdfrwt>
<pdfrwt beam="1">  1        1 0.18293947E-01 0.44063271E+02</pdfrwt>
<totfact> 0.23962631E+03</totfact>
</mgrwt>
</event>
<event>
 7    1  0.7037933E-004  0.1259197E+03  0.7546771E-02  0.1308695E+00
          2   -1    0    0  503    0  0.00000000000E+00  0.00000000000E+00  0.25618426259E+04  0.25618426259E+04  0.00000000000E+00 0. -1.
         -2   -1    0    0    0  501 -0.00000000000E+00 -0.00000000000E+00 -0.13983622496E+04  0.13983622496E+04  0.00000000000E+00 0.  1.
         25    2    1    2    0    0 -0.82950367486E+02 -0.12949692261E+03 -0.32205436862E+03  0.37814523059E+03  0.12499833054E+03 0.  0.
          4    1    3    3  502    0  0.98646725434E+01 -0.66457846414E+02 -0.20614989860E+03  0.21682562281E+03  0.12700000000E+01 0.  1.
         -4    1    3    3    0  502 -0.92815040029E+02 -0.63039076201E+02 -0.11590447003E+03  0.16131960779E+03  0.12700000000E+01 0.  1.
          1    1    1    2  503    0 -0.18024382132E+02  0.58258644653E+02  0.25297865255E+04  0.25305214508E+04  0.00000000000E+00 0. -1.
         -1    1    1    2    0  501  0.10097474962E+03  0.71238277961E+02 -0.10442517807E+04  0.10515381941E+04  0.00000000000E+00 0.  1.
<mgrwt>
<rscale>  0 0.87629792E+02</rscale>
<asrwt>0</asrwt>
<pdfrwt beam="1">  1        2 0.39412963E+00 0.60983178E+02</pdfrwt>
<pdfrwt beam="2">  1       -2 0.21513265E+00 0.12591965E+03</pdfrwt>
<totfact> 0.56722028E-01</totfact>
</mgrwt>
</event>
<event>
 7    1  0.7037933E-004  0.1615545E+03  0.7546771E-02  0.1289219E+00
         -2   -1    0    0    0  501 -0.00000000000E+00  0.00000000000E+00  0.13788001982E+04  0.13788001982E+04  0.00000000000E+00 0.  1.
          2   -1    0    0  503    0  0.00000000000E+00 -0.00000000000E+00 -0.36390910736E+03  0.36390910736E+03  0.00000000000E+00 0. -1.
         25    2    1    2    0    0 -0.15217696508E+03  0.69862546200E+01  0.87863798988E+03  0.90046456582E+03  0.12500032234E+03 0.  0.
          4    1    3    3  502    0 -0.12451368259E+03  0.39188067740E+02  0.80450614925E+03  0.81502829331E+03  0.12700000000E+01 0.  1.
         -4    1    3    3    0  502 -0.27663282493E+02 -0.32201813120E+02  0.74131840627E+02  0.85436272515E+02  0.12700000000E+01 0.  1.
          1    1    1    2  503    0 -0.22230822525E+02 -0.52373565135E+02 -0.33391154591E+03  0.33872425406E+03  0.00000000000E+00 0. -1.
         -1    1    1    2    0  501  0.17440778760E+03  0.45387310515E+02  0.47016464688E+03  0.50352048569E+03  0.00000000000E+00 0.  1.
<mgrwt>
<rscale>  0 0.95874224E+02</rscale>
<asrwt>0</asrwt>
<pdfrwt beam="2">  1        2 0.55986017E-01 0.56896395E+02</pdfrwt>
<pdfrwt beam="1">  1       -2 0.21212310E+00 0.16155447E+03</pdfrwt>
<totfact> 0.11276224E+01</totfact>
</mgrwt>
</event>
<event>
 7    1  0.7037933E-004  0.1242138E+03  0.7546771E-02  0.1254625E+00
          1   -1    0    0  503    0  0.00000000000E+00  0.00000000000E+00  0.26946475698E+04  0.26946475698E+04  0.00000000000E+00 0. -1.
         -1   -1    0    0    0  501 -0.00000000000E+00 -0.00000000000E+00 -0.47324648033E+03  0.47324648033E+03  0.00000000000E+00 0.  1.
         25    2    1    2    0    0  0.14902417122E+03 -0.88147603429E+02  0.43504953808E+03  0.48463514404E+03  0.12499967463E+03 0.  0.
          4    1    3    3  502    0  0.14031370358E+03 -0.37642820625E+02  0.22059187664E+03  0.26413501528E+03  0.12700000000E+01 0.  1.
         -4    1    3    3    0  502  0.87104676380E+01 -0.50504782804E+02  0.21445766145E+03  0.22050012876E+03  0.12700000000E+01 0.  1.
          2    1    1    2  503    0 -0.12239746776E+03 -0.11659096606E+02  0.22271386090E+04  0.22305298604E+04  0.00000000000E+00 0. -1.
         -2    1    1    2    0  501 -0.26626703457E+02  0.99806700035E+02 -0.44078705756E+03  0.45272904570E+03  0.00000000000E+00 0.  1.
<mgrwt>
<rscale>  0 0.11327385E+03</rscale>
<asrwt>0</asrwt>
<pdfrwt beam="1">  1        1 0.41456116E+00 0.12421379E+03</pdfrwt>
<pdfrwt beam="2">  1       -1 0.72807152E-01 0.10329743E+03</pdfrwt>
<totfact> 0.27193976E+00</totfact>
</mgrwt>
</event>
<event>
 7    1  0.7037933E-004  0.1705759E+03  0.7546771E-02  0.1349776E+00
          1   -1    0    0  502    0 -0.00000000000E+00  0.00000000000E+00  0.25268122703E+03  0.25268122703E+03  0.00000000000E+00 0. -1.
          2   -1    0    0  503    0  0.00000000000E+00 -0.00000000000E+00 -0.13081665487E+04  0.13081665487E+04  0.00000000000E+00 0. -1.
         25    2    1    2    0    0  0.90663836369E+02  0.15159095411E+03 -0.26190544158E+03  0.33973489155E+03  0.12500235044E+03 0.  0.
          4    1    3    3  501    0 -0.23326863066E+02 -0.33848893132E+01 -0.35449137820E+02  0.42589368255E+02  0.12700000000E+01 0. -1.
         -4    1    3    3    0  501  0.11399069944E+03  0.15497584342E+03 -0.22645630376E+03  0.29714552330E+03  0.12700000000E+01 0. -1.
          2    1    1    2  502    0 -0.11171844212E+03 -0.12836504809E+03  0.17960699224E+03  0.24742123503E+03  0.00000000000E+00 0. -1.
          1    1    1    2  503    0  0.21054605751E+02 -0.23225906021E+02 -0.97318687232E+03  0.97369164913E+03  0.00000000000E+00 0. -1.
<mgrwt>
<rscale>  0 0.73125435E+02</rscale>
<asrwt>0</asrwt>
<pdfrwt beam="2">  1        2 0.20125639E+00 0.31348670E+02</pdfrwt>
<pdfrwt beam="1">  1        1 0.38874035E-01 0.17057595E+03</pdfrwt>
<totfact> 0.30059754E+02</totfact>
</mgrwt>
</event>
<event>
 7    1  0.7037933E-004  0.8130545E+02  0.7546771E-02  0.1362553E+00
          1   -1    0    0  502    0 -0.00000000000E+00  0.00000000000E+00  0.65100112029E+03  0.65100112029E+03  0.00000000000E+00 0. -1.
          2   -1    0    0  503    0  0.00000000000E+00 -0.00000000000E+00 -0.24101468838E+04  0.24101468838E+04  0.00000000000E+00 0. -1.
         25    2    1    2    0    0 -0.96331779980E+00 -0.34452557636E+02  0.10734750431E+03  0.16833722047E+03  0.12500410556E+03 0.  0.
          4    1    3    3  501    0  0.44017790837E+02 -0.10520961443E+02 -0.44266794120E+01  0.45491372044E+02  0.12700000000E+01 0. -1.
         -4    1    3    3    0  501 -0.44981108636E+02 -0.23931596193E+02  0.11177418372E+03  0.12284584843E+03  0.12700000000E+01 0. -1.
          2    1    1    2  502    0  0.50732149136E+02 -0.30190846712E+02  0.51075877478E+03  0.51415927901E+03  0.00000000000E+00 0. -1.
          1    1    1    2  503    0 -0.49768831336E+02  0.64643404348E+02 -0.23772520426E+04  0.23786515046E+04  0.00000000000E+00 0. -1.
<mgrwt>
<rscale>  0 0.69281606E+02</rscale>
<asrwt>0</asrwt>
<pdfrwt beam="2">  1        2 0.37079182E+00 0.81305451E+02</pdfrwt>
<pdfrwt beam="1">  1        1 0.10015402E+00 0.59035906E+02</pdfrwt>
<totfact> 0.23810101E+01</totfact>
</mgrwt>
</event>
<event>
 7    1  0.7037933E-004  0.6302530E+02  0.7546771E-02  0.1448343E+00
          2   -1    0    0  503    0  0.00000000000E+00  0.00000000000E+00  0.28207646334E+03  0.28207646334E+03  0.00000000000E+00 0. -1.
          1   -1    0    0  502    0 -0.00000000000E+00 -0.00000000000E+00 -0.25132782427E+04  0.25132782427E+04  0.00000000000E+00 0. -1.
         25    2    1    2    0    0  0.66440133532E+01 -0.32881340574E+02 -0.16446150755E+04  0.16496995053E+04  0.12499754347E+03 0.  0.
          4    1    3    3  501    0  0.28517026489E+02  0.42345372933E+02 -0.64954165386E+03  0.65154610305E+03  0.12700000000E+01 0. -1.
         -4    1    3    3    0  501 -0.21873013136E+02 -0.75226713507E+02 -0.99507342162E+03  0.99815340226E+03  0.12700000000E+01 0. -1.
          2    1    1    2  502    0  0.36490092857E+02 -0.13173548036E+02 -0.86211823555E+03  0.86299068437E+03  0.00000000000E+00 0. -1.
          1    1    1    2  503    0 -0.43134106210E+02  0.46054888610E+02  0.27553153165E+03  0.28266451637E+03  0.00000000000E+00 0. -1.
<mgrwt>
<rscale>  0 0.49447754E+02</rscale>
<asrwt>0</asrwt>
<pdfrwt beam="1">  1        2 0.43396379E-01 0.63025296E+02</pdfrwt>
<pdfrwt beam="2">  1        1 0.38665819E+00 0.38795222E+02</pdfrwt>
<totfact> 0.32849932E+01</totfact>
</mgrwt>
</event>
<event>
 7    1  0.7037933E-004  0.1968477E+03  0.7546771E-02  0.1336826E+00
          2   -1    0    0  503    0  0.00000000000E+00  0.00000000000E+00  0.87258500242E+03  0.87258500242E+03  0.00000000000E+00 0. -1.
          1   -1    0    0  502    0 -0.00000000000E+00 -0.00000000000E+00 -0.10523938414E+04  0.10523938414E+04  0.00000000000E+00 0. -1.
         25    2    1    2    0    0 -0.89933402201E+02 -0.20652159148E+03 -0.12176203170E+03  0.28494115335E+03  0.12500513561E+03 0.  0.
          4    1    3    3  501    0 -0.18228119076E+02  0.82936190768E+01 -0.38931376842E+02  0.43798555288E+02  0.12700000000E+01 0. -1.
         -4    1    3    3    0  501 -0.71705283125E+02 -0.21481521056E+03 -0.82830654861E+02  0.24114259806E+03  0.12700000000E+01 0. -1.
          2    1    1    2  502    0  0.15581012491E+02  0.26071533192E+02 -0.83672373143E+03  0.83727480287E+03  0.00000000000E+00 0. -1.
          1    1    1    2  503    0  0.74352389710E+02  0.18045005829E+03  0.77867692418E+03  0.80276288756E+03  0.00000000000E+00 0. -1.
<mgrwt>
<rscale>  0 0.77322503E+02</rscale>
<asrwt>0</asrwt>
<pdfrwt beam="1">  1        2 0.13424385E+00 0.19684769E+03</pdfrwt>
<pdfrwt beam="2">  1        1 0.16190674E+00 0.30372566E+02</pdfrwt>
<totfact> 0.74989095E+01</totfact>
</mgrwt>
</event>
<event>
 7    1  0.7037933E-004  0.9383629E+02  0.7546771E-02  0.1320126E+00
          2   -1    0    0  503    0  0.00000000000E+00  0.00000000000E+00  0.24743175828E+04  0.24743175828E+04  0.00000000000E+00 0. -1.
         -2   -1    0    0    0  501 -0.00000000000E+00 -0.00000000000E+00 -0.22118380677E+02  0.22118380677E+02  0.00000000000E+00 0.  1.
         25    2    1    2    0    0  0.90961214134E+02  0.12259877812E+03  0.14869915178E+04  0.15000246204E+04  0.12500273903E+03 0.  0.
          4    1    3    3  502    0 -0.95138930350E+01 -0.33096960109E+01  0.99192196257E+01  0.14194085612E+02  0.12700000000E+01 0. -1.
         -4    1    3    3    0  502  0.10047510717E+03  0.12590847413E+03  0.14770722982E+04  0.14858305347E+04  0.12700000000E+01 0. -1.
          1    1    1    2  503    0 -0.18171460055E+02 -0.71551837911E+02  0.83782689971E+03  0.84107299406E+03  0.00000000000E+00 0. -1.
         -1    1    1    2    0  501 -0.72789754079E+02 -0.51046940212E+02  0.12738078466E+03  0.15533834911E+03  0.00000000000E+00 0.  1.
<mgrwt>
<rscale>  0 0.83230383E+02</rscale>
<asrwt>0</asrwt>
<pdfrwt beam="1">  1        2 0.38066402E+00 0.73823218E+02</pdfrwt>
<pdfrwt beam="2">  1       -2 0.34028298E-02 0.93836287E+02</pdfrwt>
<totfact> 0.15461552E+03</totfact>
</mgrwt>
</event>
<event>
 7    1  0.7037933E-004  0.1223980E+03  0.7546771E-02  0.1387121E+00
          2   -1    0    0  503    0  0.00000000000E+00  0.00000000000E+00  0.72755925057E+03  0.72755925057E+03  0.00000000000E+00 0. -1.
          1   -1    0    0  502    0 -0.00000000000E+00 -0.00000000000E+00 -0.15320528066E+03  0.15320528066E+03  0.00000000000E+00 0. -1.
         25    2    1    2    0    0 -0.50396914167E+02  0.91972647675E+02 -0.23928837458E+02  0.16492883267E+03  0.12502045315E+03 0.  0.
          4    1    3    3  501    0 -0.34894506022E+02 -0.16787212611E+02 -0.37874853600E+02  0.54180757589E+02  0.12700000000E+01 0.  1.
         -4    1    3    3    0  501 -0.15502408146E+02  0.10875986029E+03  0.13946016142E+02  0.11074807508E+03  0.12700000000E+01 0.  1.
          2    1    1    2  502    0 -0.32045187216E+02  0.17792192692E+00 -0.48064522711E+02  0.57767845930E+02  0.00000000000E+00 0. -1.
          1    1    1    2  503    0  0.82442101383E+02 -0.92150569602E+02  0.64634733008E+03  0.65806785263E+03  0.00000000000E+00 0. -1.
<mgrwt>
<rscale>  0 0.62628485E+02</rscale>
<asrwt>0</asrwt>
<pdfrwt beam="1">  1        2 0.11193219E+00 0.12239800E+03</pdfrwt>
<pdfrwt beam="2">  1        1 0.23570044E-01 0.32045681E+02</pdfrwt>
<totfact> 0.10796972E+03</totfact>
</mgrwt>
</event>
<event>
 7    1  0.7037933E-004  0.6802170E+02  0.7546771E-02  0.1483409E+00
          2   -1    0    0  503    0  0.00000000000E+00  0.00000000000E+00  0.24659900181E+04  0.24659900181E+04  0.00000000000E+00 0. -1.
         -2   -1    0    0    0  501 -0.00000000000E+00 -0.00000000000E+00 -0.27007636046E+03  0.27007636046E+03  0.00000000000E+00 0.  1.
         25    2    1    2    0    0 -0.73172274126E+02  0.36339806976E+02  0.18224633952E+03  0.23561191769E+03  0.12499793686E+03 0.  0.
          4    1    3    3  502    0 -0.90217302207E+02  0.61128849584E+01  0.17923486483E+03  0.20075676489E+03  0.12700000000E+01 0. -1.
         -4    1    3    3    0  502  0.17045028081E+02  0.30226922018E+02  0.30114746886E+01  0.34855152801E+02  0.12700000000E+01 0. -1.
          3    1    1    2  503    0  0.67233737565E+02 -0.90585611914E+01  0.22557485540E+04  0.22567684799E+04  0.00000000000E+00 0. -1.
         -1    1    1    2    0  501  0.59385365612E+01 -0.27281245785E+02 -0.24208123585E+03  0.24368598100E+03  0.00000000000E+00 0.  1.
<mgrwt>
<rscale>  0 0.43579507E+02</rscale>
<asrwt>0</asrwt>
<pdfrwt beam="1">  1        2 0.37938306E+00 0.68021701E+02</pdfrwt>
<pdfrwt beam="2">  1       -2 0.41550211E-01 0.27920111E+02</pdfrwt>
<totfact> 0.27394454E+01</totfact>
</mgrwt>
</event>
<event>
 7    1  0.7037933E-004  0.4794717E+02  0.7546771E-02  0.1470202E+00
         -2   -1    0    0    0  501 -0.00000000000E+00  0.00000000000E+00  0.47246706875E+01  0.47246706875E+01  0.00000000000E+00 0.  1.
          2   -1    0    0  503    0  0.00000000000E+00 -0.00000000000E+00 -0.28522854084E+04  0.28522854084E+04  0.00000000000E+00 0. -1.
         25    2    1    2    0    0  0.10701527597E+02  0.44273093206E+02 -0.14884076801E+04  0.14943424739E+04  0.12500950966E+03 0.  0.
          4    1    3    3  502    0 -0.35956813646E+02  0.31379477024E+01 -0.14276568029E+03  0.14726300123E+03  0.12700000000E+01 0. -1.
         -4    1    3    3    0  502  0.46658341243E+02  0.41135145504E+02 -0.13456419998E+04  0.13470794726E+04  0.12700000000E+01 0. -1.
          1    1    1    2  503    0  0.32763859076E+02 -0.42512023702E+02 -0.67287251704E+03  0.67500975312E+03  0.00000000000E+00 0. -1.
         -1    1    1    2    0  501 -0.43465386673E+02 -0.17610695037E+01 -0.68628054058E+03  0.68765785212E+03  0.00000000000E+00 0.  1.
<mgrwt>
<rscale>  0 0.45670035E+02</rscale>
<asrwt>0</asrwt>
<pdfrwt beam="2">  1        2 0.43881375E+00 0.47947168E+02</pdfrwt>
<pdfrwt beam="1">  1       -2 0.72687140E-03 0.43501048E+02</pdfrwt>
<totfact> 0.82205910E+03</totfact>
</mgrwt>
</event>
<event>
 7    1  0.7037933E-004  0.4408648E+02  0.7546771E-02  0.1537747E+00
          1   -1    0    0  503    0  0.00000000000E+00  0.00000000000E+00  0.20020987451E+03  0.20020987451E+03  0.00000000000E+00 0. -1.
         -1   -1    0    0    0  501 -0.00000000000E+00 -0.00000000000E+00 -0.67760748456E+02  0.67760748456E+02  0.00000000000E+00 0.  1.
         25    2    1    2    0    0 -0.10145129971E+02 -0.26763296509E+02  0.39463260983E+02  0.13417123569E+03  0.12500149526E+03 0.  0.
          4    1    3    3  502    0  0.23667850731E+02  0.21239421294E+02 -0.29634444526E+02  0.43486703457E+02  0.12700000000E+01 0.  1.
         -4    1    3    3    0  502 -0.33812980702E+02 -0.48002717804E+02  0.69097705510E+02  0.90684532238E+02  0.12700000000E+01 0.  1.
          2    1    1    2  503    0 -0.28670889414E+02 -0.81670923057E+01  0.71253915285E+02  0.77238861591E+02  0.00000000000E+00 0. -1.
         -2    1    1    2    0  501  0.38816019385E+02  0.34930388815E+02  0.21731949786E+02  0.56560525680E+02  0.00000000000E+00 0.  1.
<mgrwt>
<rscale>  0 0.36253015E+02</rscale>
<asrwt>0</asrwt>
<pdfrwt beam="1">  1        1 0.30801519E-01 0.29811429E+02</pdfrwt>
<pdfrwt beam="2">  1       -1 0.10424731E-01 0.44086483E+02</pdfrwt>
<totfact> 0.70992788E+03</totfact>
</mgrwt>
</event>
<event>
 7    1  0.7037933E-004  0.5567329E+02  0.7546771E-02  0.1502994E+00
          1   -1    0    0  502    0 -0.00000000000E+00  0.00000000000E+00  0.60822194485E+03  0.60822194485E+03  0.00000000000E+00 0. -1.
          2   -1    0    0  503    0  0.00000000000E+00 -0.00000000000E+00 -0.19377760987E+04  0.19377760987E+04  0.00000000000E+00 0. -1.
         25    2    1    2    0    0 -0.20455552003E+02 -0.16376922653E+02 -0.11359489678E+03  0.17092607382E+03  0.12500115573E+03 0.  0.
          4    1    3    3  501    0  0.16336071911E+02 -0.18876527348E+02  0.20199102821E+02  0.32137317638E+02  0.12700000000E+01 0. -1.
         -4    1    3    3    0  501 -0.36791623914E+02  0.24996046949E+01 -0.13379399960E+03  0.13878875619E+03  0.12700000000E+01 0. -1.
          2    1    1    2  502    0  0.44880709595E+02  0.33413912042E+02  0.57808199267E+03  0.58078357231E+03  0.00000000000E+00 0. -1.
          1    1    1    2  503    0 -0.24425157592E+02 -0.17036989389E+02 -0.17940412497E+04  0.17942883974E+04  0.00000000000E+00 0. -1.
<mgrwt>
<rscale>  0 0.40717927E+02</rscale>
<asrwt>0</asrwt>
<pdfrwt beam="2">  1        2 0.29811940E+00 0.29779982E+02</pdfrwt>
<pdfrwt beam="1">  1        1 0.93572605E-01 0.55673290E+02</pdfrwt>
<totfact> 0.50819365E+01</totfact>
</mgrwt>
</event>
<event>
 7    1  0.7037933E-004  0.6310075E+02  0.7546771E-02  0.1385326E+00
         -1   -1    0    0    0  501 -0.00000000000E+00  0.00000000000E+00  0.12211328079E+03  0.12211328079E+03  0.00000000000E+00 0.  1.
          1   -1    0    0  503    0  0.00000000000E+00 -0.00000000000E+00 -0.33832256443E+04  0.33832256443E+04  0.00000000000E+00 0. -1.
         25    2    1    2    0    0 -0.79502392265E+01 -0.18813774600E+02 -0.81265528521E+02  0.15049051306E+03  0.12500457583E+03 0.  0.
          4    1    3    3  502    0  0.26443269003E+02 -0.27687513398E+02  0.19967699491E+02  0.43199152731E+02  0.12700000000E+01 0. -1.
         -4    1    3    3    0  502 -0.34393508230E+02  0.88737387978E+01 -0.10123322801E+03  0.10729136033E+03  0.12700000000E+01 0. -1.
          2    1    1    2  503    0  0.53228108380E+02 -0.33889124599E+02 -0.32532000199E+04  0.32538119297E+04  0.00000000000E+00 0. -1.
         -2    1    1    2    0  501 -0.45277869153E+02  0.52702899200E+02  0.73353184929E+02  0.10103648231E+03  0.00000000000E+00 0.  1.
<mgrwt>
<rscale>  0 0.63084201E+02</rscale>
<asrwt>0</asrwt>
<pdfrwt beam="2">  1        1 0.52049621E+00 0.63100747E+02</pdfrwt>
<pdfrwt beam="1">  1       -1 0.18786660E-01 0.63067660E+02</pdfrwt>
<totfact> 0.10717701E+01</totfact>
</mgrwt>
</event>
<event>
 7    1  0.7037933E-004  0.1155860E+03  0.7546771E-02  0.1397577E+00
         -1   -1    0    0    0  501 -0.00000000000E+00  0.00000000000E+00  0.10312492457E+03  0.10312492457E+03  0.00000000000E+00 0.  1.
          1   -1    0    0  503    0  0.00000000000E+00 -0.00000000000E+00 -0.13563439296E+04  0.13563439296E+04  0.00000000000E+00 0. -1.
         25    2    1    2    0    0 -0.26542221758E+02 -0.12470035563E+03 -0.15434820731E+03  0.23601601890E+03  0.12500209538E+03 0.  0.
          4    1    3    3  502    0  0.27686535163E+02 -0.12705143576E+02  0.79438116051E+01  0.31506855531E+02  0.12700000000E+01 0. -1.
         -4    1    3    3    0  502 -0.54228756921E+02 -0.11199521205E+03 -0.16229201891E+03  0.20450916337E+03  0.12700000000E+01 0. -1.
          2    1    1    2  503    0  0.49642597162E+02  0.10371557408E+03 -0.11542082616E+04  0.11599215572E+04  0.00000000000E+00 0. -1.
         -2    1    1    2    0  501 -0.23100375405E+02  0.20984781544E+02  0.55337463803E+02  0.63531278127E+02  0.00000000000E+00 0.  1.
<mgrwt>
<rscale>  0 0.60060790E+02</rscale>
<asrwt>0</asrwt>
<pdfrwt beam="2">  1        1 0.20866829E+00 0.11558599E+03</pdfrwt>
<pdfrwt beam="1">  1       -1 0.15865373E-01 0.31208787E+02</pdfrwt>
<totfact> 0.25498769E+02</totfact>
</mgrwt>
</event>
<event>
 7    1  0.7037933E-004  0.1236589E+03  0.7546771E-02  0.1272986E+00
          2   -1    0    0  503    0  0.00000000000E+00  0.00000000000E+00  0.13218737123E+04  0.13218737123E+04  0.00000000000E+00 0. -1.
          1   -1    0    0  502    0 -0.00000000000E+00 -0.00000000000E+00 -0.20840320244E+04  0.20840320244E+04  0.00000000000E+00 0. -1.
         25    2    1    2    0    0  0.81252530725E+02 -0.29459371855E+02 -0.65428100290E+02  0.16545591956E+03  0.12499998668E+03 0.  0.
          4    1    3    3  501    0  0.88747748635E+02 -0.67712145126E+02 -0.57814627002E+02  0.12571889866E+03  0.12700000000E+01 0. -1.
         -4    1    3    3    0  501 -0.74952179106E+01  0.38252773271E+02 -0.76134732886E+01  0.39737020899E+02  0.12700000000E+01 0. -1.
          2    1    1    2  502    0 -0.25690888730E+02 -0.82832906836E+02 -0.19645456528E+04  0.19664589836E+04  0.00000000000E+00 0. -1.
          1    1    1    2  503    0 -0.55561641995E+02  0.11229227869E+03  0.12678154409E+04  0.12739908336E+04  0.00000000000E+00 0. -1.
<mgrwt>
<rscale>  0 0.10355857E+03</rscale>
<asrwt>0</asrwt>
<pdfrwt beam="1">  1        2 0.20336519E+00 0.12365887E+03</pdfrwt>
<pdfrwt beam="2">  1        1 0.32062031E+00 0.86725499E+02</pdfrwt>
<totfact> 0.84809148E+00</totfact>
</mgrwt>
</event>
<event>
 7    1  0.7037933E-004  0.1891392E+03  0.7546771E-02  0.1273421E+00
          1   -1    0    0  502    0 -0.00000000000E+00  0.00000000000E+00  0.84120034408E+03  0.84120034408E+03  0.00000000000E+00 0. -1.
          2   -1    0    0  503    0  0.00000000000E+00 -0.00000000000E+00 -0.26190780976E+04  0.26190780976E+04  0.00000000000E+00 0. -1.
         25    2    1    2    0    0  0.90698521128E+02  0.22680130954E+03 -0.80778696060E+03  0.85311753522E+03  0.12499879773E+03 0.  0.
          4    1    3    3  501    0  0.71893345756E+02  0.22046678888E+03 -0.79789179444E+03  0.83090744773E+03  0.12700000000E+01 0. -1.
         -4    1    3    3    0  501  0.18805175372E+02  0.63345206659E+01 -0.98951661639E+01  0.22210087489E+02  0.12700000000E+01 0. -1.
          2    1    1    2  502    0 -0.76721876513E+02 -0.17209408309E+03  0.80723742817E+03  0.82893599585E+03  0.00000000000E+00 0. -1.
          1    1    1    2  503    0 -0.13976644615E+02 -0.54707226450E+02 -0.17773282211E+04  0.17782249106E+04  0.00000000000E+00 0. -1.
<mgrwt>
<rscale>  0 0.10334229E+03</rscale>
<asrwt>0</asrwt>
<pdfrwt beam="2">  1        2 0.40293509E+00 0.56464389E+02</pdfrwt>
<pdfrwt beam="1">  1        1 0.12941544E+00 0.18913918E+03</pdfrwt>
<totfact> 0.12805639E+01</totfact>
</mgrwt>
</event>
<event>
 7    1  0.7037933E-004  0.4971895E+02  0.7546771E-02  0.1511375E+00
          2   -1    0    0  503    0  0.00000000000E+00  0.00000000000E+00  0.65597960403E+02  0.65597960403E+02  0.00000000000E+00 0. -1.
         -2   -1    0    0    0  501 -0.00000000000E+00 -0.00000000000E+00 -0.82474976620E+03  0.82474976620E+03  0.00000000000E+00 0.  1.
         25    2    1    2    0    0 -0.30130898419E+02  0.14701043715E+01 -0.27606569815E+03  0.30454493051E+03  0.12500125103E+03 0.  0.
          4    1    3    3  502    0 -0.54037080698E+02 -0.48823564578E+02 -0.16067950083E+03  0.17641786031E+03  0.12700000000E+01 0. -1.
         -4    1    3    3    0  502  0.23906182279E+02  0.50293668950E+02 -0.11538619732E+03  0.12812707020E+03  0.12700000000E+01 0. -1.
          1    1    1    2  503    0 -0.14484105012E+02 -0.27970189357E+02  0.45134968758E+02  0.55038951620E+02  0.00000000000E+00 0. -1.
         -1    1    1    2    0  501  0.44615003431E+02  0.26500084985E+02 -0.52822107641E+03  0.53076384448E+03  0.00000000000E+00 0.  1.
<mgrwt>
<rscale>  0 0.39573287E+02</rscale>
<asrwt>0</asrwt>
<pdfrwt beam="1">  1        2 0.10091994E-01 0.31497949E+02</pdfrwt>
<pdfrwt beam="2">  1       -2 0.12688458E+00 0.49718953E+02</pdfrwt>
<totfact> 0.28540957E+02</totfact>
</mgrwt>
</event>
<event>
 7    1  0.7037933E-004  0.7965888E+02  0.7546771E-02  0.1333683E+00
          1   -1    0    0  502    0 -0.00000000000E+00  0.00000000000E+00  0.22623845189E+04  0.22623845189E+04  0.00000000000E+00 0. -1.
          2   -1    0    0  503    0  0.00000000000E+00 -0.00000000000E+00 -0.36440125611E+03  0.36440125611E+03  0.00000000000E+00 0. -1.
         25    2    1    2    0    0 -0.66706658944E+01 -0.10727798537E+01  0.92038329455E+03  0.92885748876E+03  0.12500070759E+03 0.  0.
          4    1    3    3  501    0 -0.62602674783E+01 -0.56207024265E+02  0.67436063298E+03  0.67672911622E+03  0.12700000000E+01 0.  1.
         -4    1    3    3    0  501 -0.41039841609E+00  0.55134244411E+02  0.24602266157E+03  0.25212837254E+03  0.12700000000E+01 0.  1.
          2    1    1    2  502    0 -0.41079535410E+02  0.65294291474E+02  0.13321889680E+04  0.13344205930E+04  0.00000000000E+00 0. -1.
          1    1    1    2  503    0  0.47750201304E+02 -0.64221511621E+02 -0.35458899974E+03  0.36350769320E+03  0.00000000000E+00 0. -1.
<mgrwt>
<rscale>  0 0.78390291E+02</rscale>
<asrwt>0</asrwt>
<pdfrwt beam="2">  1        2 0.56061733E-01 0.79658885E+02</pdfrwt>
<pdfrwt beam="1">  1        1 0.34805915E+00 0.77141900E+02</pdfrwt>
<totfact> 0.32568409E+01</totfact>
</mgrwt>
</event>
<event>
 7    1  0.7037933E-004  0.1136972E+03  0.7546771E-02  0.1339417E+00
          1   -1    0    0  502    0 -0.00000000000E+00  0.00000000000E+00  0.84502223739E+03  0.84502223739E+03  0.00000000000E+00 0. -1.
          2   -1    0    0  503    0  0.00000000000E+00 -0.00000000000E+00 -0.30230182392E+03  0.30230182392E+03  0.00000000000E+00 0. -1.
         25    2    1    2    0    0 -0.31458136614E+02  0.86785310749E+02  0.48959010294E+03  0.51365806039E+03  0.12499931835E+03 0.  0.
          4    1    3    3  501    0 -0.33866062873E+02  0.25455850414E+02  0.41452576540E+03  0.41668709317E+03  0.12700000000E+01 0. -1.
         -4    1    3    3    0  501  0.24079262587E+01  0.61329460335E+02  0.75064337543E+02  0.96970967225E+02  0.12700000000E+01 0. -1.
          2    1    1    2  502    0 -0.50882332208E+02 -0.73797485775E+01  0.33006015140E+03  0.33404068010E+03  0.00000000000E+00 0. -1.
          1    1    1    2  503    0  0.82340468822E+02 -0.79405562172E+02 -0.27692984087E+03  0.29962532082E+03  0.00000000000E+00 0. -1.
<mgrwt>
<rscale>  0 0.76457231E+02</rscale>
<asrwt>0</asrwt>
<pdfrwt beam="2">  1        2 0.46507973E-01 0.11369719E+03</pdfrwt>
<pdfrwt beam="1">  1        1 0.13000342E+00 0.51414710E+02</pdfrwt>
<totfact> 0.34051206E+02</totfact>
</mgrwt>
</event>
<event>
 7    1  0.7037933E-004  0.3605072E+02  0.7546771E-02  0.1616802E+00
         -2   -1    0    0    0  501 -0.00000000000E+00  0.00000000000E+00  0.32916743290E+02  0.32916743290E+02  0.00000000000E+00 0.  1.
          2   -1    0    0  503    0  0.00000000000E+00 -0.00000000000E+00 -0.21962063807E+04  0.21962063807E+04  0.00000000000E+00 0. -1.
         25    2    1    2    0    0 -0.10282381407E+02  0.57081820026E+02 -0.70061026139E+03  0.71403351419E+03  0.12500023792E+03 0.  0.
          4    1    3    3  502    0  0.68583613589E+00 -0.35141178358E+02 -0.33374770318E+03  0.33559576140E+03  0.12700000000E+01 0.  1.
         -4    1    3    3    0  502 -0.10968217542E+02  0.92222998384E+02 -0.36686255821E+03  0.37843775279E+03  0.12700000000E+01 0.  1.
          1    1    1    2  503    0  0.42240470194E+01 -0.21927243184E+02 -0.14766205788E+04  0.14767894164E+04  0.00000000000E+00 0. -1.
         -1    1    1    2    0  501  0.60583343872E+01 -0.35154576842E+02  0.13941202713E+02  0.38300193493E+02  0.00000000000E+00 0.  1.
<mgrwt>
<rscale>  0 0.28372993E+02</rscale>
<asrwt>0</asrwt>
<pdfrwt beam="2">  1        2 0.33787782E+00 0.22330396E+02</pdfrwt>
<pdfrwt beam="1">  1       -2 0.50641156E-02 0.36050716E+02</pdfrwt>
<totfact> 0.12615118E+03</totfact>
</mgrwt>
</event>
<event>
 7    1  0.7037933E-004  0.1117192E+03  0.7546771E-02  0.1367713E+00
          1   -1    0    0  502    0 -0.00000000000E+00  0.00000000000E+00  0.12331391910E+04  0.12331391910E+04  0.00000000000E+00 0. -1.
          2   -1    0    0  503    0  0.00000000000E+00 -0.00000000000E+00 -0.74831891888E+02  0.74831891888E+02  0.00000000000E+00 0. -1.
         25    2    1    2    0    0 -0.89688807833E+02  0.35428081848E+02  0.70897052061E+03  0.72633509152E+03  0.12499693933E+03 0.  0.
          4    1    3    3  501    0 -0.74928179858E+02  0.73004819796E+02  0.61810302513E+03  0.62689464699E+03  0.12700000000E+01 0. -1.
         -4    1    3    3    0  501 -0.14760627975E+02 -0.37576737948E+02  0.90867495474E+02  0.99440444522E+02  0.12700000000E+01 0. -1.
          2    1    1    2  502    0  0.10348853620E+03 -0.74200645165E+02  0.50023057501E+03  0.51618430918E+03  0.00000000000E+00 0. -1.
          1    1    1    2  503    0 -0.13799728362E+02  0.38772563317E+02 -0.50893796549E+02  0.65451682150E+02  0.00000000000E+00 0. -1.
<mgrwt>
<rscale>  0 0.67807208E+02</rscale>
<asrwt>0</asrwt>
<pdfrwt beam="2">  1        2 0.11512600E-01 0.41155123E+02</pdfrwt>
<pdfrwt beam="1">  1        1 0.18971371E+00 0.11171920E+03</pdfrwt>
<totfact> 0.76137205E+02</totfact>
</mgrwt>
</event>
<event>
 7    1  0.7037933E-004  0.3567554E+02  0.7546771E-02  0.1621275E+00
         -2   -1    0    0    0  501 -0.00000000000E+00  0.00000000000E+00  0.12700224340E+03  0.12700224340E+03  0.00000000000E+00 0.  1.
          2   -1    0    0  503    0  0.00000000000E+00 -0.00000000000E+00 -0.12125553109E+03  0.12125553109E+03  0.00000000000E+00 0. -1.
         25    2    1    2    0    0 -0.18134966325E+02 -0.19785425258E+02  0.46667977129E+02  0.13610303750E+03  0.12500318664E+03 0.  0.
          4    1    3    3  502    0  0.43051164201E+02 -0.44427454029E+02  0.22771395442E+02  0.65934442904E+02  0.12700000000E+01 0. -1.
         -4    1    3    3    0  502 -0.61186130526E+02  0.24642028771E+02  0.23896581686E+02  0.70168594592E+02  0.12700000000E+01 0. -1.
          1    1    1    2  503    0  0.35221032296E+01  0.36204868605E+02 -0.68096362307E+02  0.77203058756E+02  0.00000000000E+00 0. -1.
         -1    1    1    2    0  501  0.14612863095E+02 -0.16419443347E+02  0.27175097494E+02  0.34951678235E+02  0.00000000000E+00 0.  1.
<mgrwt>
<rscale>  0 0.28002843E+02</rscale>
<asrwt>0</asrwt>
<pdfrwt beam="2">  1        2 0.18654697E-01 0.35675535E+02</pdfrwt>
<pdfrwt beam="1">  1       -2 0.19538807E-01 0.21980307E+02</pdfrwt>
<totfact> 0.53818373E+03</totfact>
</mgrwt>
</event>
<event>
 7    1  0.7037933E-004  0.4661682E+02  0.7546771E-02  0.1508232E+00
          1   -1    0    0  502    0 -0.00000000000E+00  0.00000000000E+00  0.50516215933E+02  0.50516215933E+02  0.00000000000E+00 0. -1.
          2   -1    0    0  503    0  0.00000000000E+00 -0.00000000000E+00 -0.40561144510E+03  0.40561144510E+03  0.00000000000E+00 0. -1.
         25    2    1    2    0    0  0.78462103404E+02  0.32588034406E+01 -0.23436295904E+03  0.27698075088E+03  0.12500167327E+03 0.  0.
          4    1    3    3  501    0  0.11223197063E+03  0.29968416175E+01 -0.16188429304E+03  0.19701049090E+03  0.12700000000E+01 0.  1.
         -4    1    3    3    0  501 -0.33769867229E+02  0.26196182306E+00 -0.72478665997E+02  0.79970259981E+02  0.12700000000E+01 0.  1.
          2    1    1    2  502    0 -0.44155574841E+02 -0.41272474633E+01  0.87423419336E+01  0.45201521033E+02  0.00000000000E+00 0. -1.
          1    1    1    2  503    0 -0.34306528563E+02  0.86844402274E+00 -0.12947461207E+03  0.13394538912E+03  0.00000000000E+00 0. -1.
<mgrwt>
<rscale>  0 0.39997169E+02</rscale>
<asrwt>0</asrwt>
<pdfrwt beam="2">  1        2 0.62401759E-01 0.34317519E+02</pdfrwt>
<pdfrwt beam="1">  1        1 0.77717257E-02 0.46616818E+02</pdfrwt>
<totfact> 0.85188608E+03</totfact>
</mgrwt>
</event>
<event>
 7    1  0.7037933E-004  0.5102839E+02  0.7546771E-02  0.1472498E+00
          1   -1    0    0  502    0 -0.00000000000E+00  0.00000000000E+00  0.14444349301E+04  0.14444349301E+04  0.00000000000E+00 0. -1.
          2   -1    0    0  503    0  0.00000000000E+00 -0.00000000000E+00 -0.13753908057E+04  0.13753908057E+04  0.00000000000E+00 0. -1.
         25    2    1    2    0    0 -0.10468098048E-01  0.68897598131E+02  0.43194413568E+03  0.45491863750E+03  0.12501340431E+03 0.  0.
          4    1    3    3  501    0 -0.41552989068E+02 -0.31645319309E+01  0.55631885752E+02  0.69521110284E+02  0.12700000000E+01 0. -1.
         -4    1    3    3    0  501  0.41542520970E+02  0.72062130062E+02  0.37631224993E+03  0.38539752722E+03  0.12700000000E+01 0. -1.
          2    1    1    2  502    0 -0.29296820597E+02 -0.41369087802E+02  0.10000650880E+04  0.10013490327E+04  0.00000000000E+00 0. -1.
          1    1    1    2  503    0  0.29307288695E+02 -0.27528510329E+02 -0.13629650993E+04  0.13635580655E+04  0.00000000000E+00 0. -1.
<mgrwt>
<rscale>  0 0.45296613E+02</rscale>
<asrwt>0</asrwt>
<pdfrwt beam="2">  1        2 0.21159859E+00 0.40208656E+02</pdfrwt>
<pdfrwt beam="1">  1        1 0.22222076E+00 0.51028393E+02</pdfrwt>
<totfact> 0.22996662E+01</totfact>
</mgrwt>
</event>
<event>
 7    1  0.7037933E-004  0.5883139E+02  0.7546771E-02  0.1485714E+00
          1   -1    0    0  503    0  0.00000000000E+00  0.00000000000E+00  0.96136612174E+03  0.96136612174E+03  0.00000000000E+00 0. -1.
         -1   -1    0    0    0  501 -0.00000000000E+00 -0.00000000000E+00 -0.21327958468E+02  0.21327958468E+02  0.00000000000E+00 0.  1.
         25    2    1    2    0    0  0.48344956558E+02 -0.20374198408E+02  0.24792496725E+03  0.28256172716E+03  0.12498798936E+03 0.  0.
          4    1    3    3  502    0  0.23078830321E+02 -0.55191392673E+02  0.44330886126E+02  0.74468534287E+02  0.12700000000E+01 0.  1.
         -4    1    3    3    0  502  0.25266126236E+02  0.34817194265E+02  0.20359408113E+03  0.20809319288E+03  0.12700000000E+01 0.  1.
          2    1    1    2  503    0  0.23778416585E+02  0.21059958954E+02  0.27508981014E+03  0.27691756645E+03  0.00000000000E+00 0. -1.
         -2    1    1    2    0  501 -0.72123373143E+02 -0.68576054600E+00  0.41702338589E+03  0.42321478660E+03  0.00000000000E+00 0.  1.
<mgrwt>
<rscale>  0 0.43228520E+02</rscale>
<asrwt>0</asrwt>
<pdfrwt beam="1">  1        1 0.14790245E+00 0.31763737E+02</pdfrwt>
<pdfrwt beam="2">  1       -1 0.32812251E-02 0.58831394E+02</pdfrwt>
<totfact> 0.54838563E+03</totfact>
</mgrwt>
</event>
<event>
 7    1  0.7037933E-004  0.1307968E+03  0.7546771E-02  0.1392965E+00
          2   -1    0    0  503    0  0.00000000000E+00  0.00000000000E+00  0.24957062716E+03  0.24957062716E+03  0.00000000000E+00 0. -1.
         -2   -1    0    0    0  501 -0.00000000000E+00 -0.00000000000E+00 -0.12458501455E+03  0.12458501455E+03  0.00000000000E+00 0.  1.
         25    2    1    2    0    0 -0.13845488459E+03  0.84412439755E+00  0.73079475945E+02  0.20034200210E+03  0.12500336150E+03 0.  0.
          4    1    3    3  502    0 -0.79661984967E+02 -0.53466085853E+02  0.72551768722E+02  0.12029142210E+03  0.12700000000E+01 0.  1.
         -4    1    3    3    0  502 -0.58792899624E+02  0.54310210251E+02  0.52770722311E+00  0.80050580002E+02  0.12700000000E+01 0.  1.
          1    1    1    2  503    0  0.13505737493E+02  0.25224329196E+02  0.34769654662E+02  0.45028886439E+02  0.00000000000E+00 0. -1.
         -1    1    1    2    0  501  0.12494914710E+03 -0.26068453594E+02  0.17136482009E+02  0.12878475317E+03  0.00000000000E+00 0.  1.
<mgrwt>
<rscale>  0 0.61175279E+02</rscale>
<asrwt>0</asrwt>
<pdfrwt beam="1">  1        2 0.38395481E-01 0.28612440E+02</pdfrwt>
<pdfrwt beam="2">  1       -2 0.19166925E-01 0.13079677E+03</pdfrwt>
<totfact> 0.28424110E+03</totfact>
</mgrwt>
</event>
<event>
 7    1  0.7037933E-004  0.1340608E+03  0.7546771E-02  0.1318231E+00
          2   -1    0    0  503    0  0.00000000000E+00  0.00000000000E+00  0.54166408214E+03  0.54166408214E+03  0.00000000000E+00 0. -1.
         -2   -1    0    0    0  501 -0.00000000000E+00 -0.00000000000E+00 -0.75744396689E+02  0.75744396689E+02  0.00000000000E+00 0.  1.
         25    2    1    2    0    0 -0.14801531377E+03 -0.10877088440E+02  0.11345476419E+03  0.22477341062E+03  0.12499703372E+03 0.  0.
          4    1    3    3  502    0 -0.11862129024E+03 -0.49933966116E+02  0.11933974201E+03  0.17552207381E+03  0.12700000000E+01 0.  1.
         -4    1    3    3    0  502 -0.29394023535E+02  0.39056877676E+02 -0.58849778239E+01  0.49251336808E+02  0.12700000000E+01 0.  1.
          1    1    1    2  503    0  0.38912979869E+02 -0.35325912510E+02  0.13713109732E+03  0.14685733876E+03  0.00000000000E+00 0. -1.
         -1    1    1    2    0  501  0.10910233390E+03  0.46203000950E+02  0.21533382394E+03  0.24577772945E+03  0.00000000000E+00 0.  1.
<mgrwt>
<rscale>  0 0.83938707E+02</rscale>
<asrwt>0</asrwt>
<pdfrwt beam="1">  1        2 0.83332933E-01 0.52556066E+02</pdfrwt>
<pdfrwt beam="2">  1       -2 0.11652984E-01 0.13406077E+03</pdfrwt>
<totfact> 0.29200104E+03</totfact>
</mgrwt>
</event>
<event>
 7    1  0.7037933E-004  0.7720754E+02  0.7546771E-02  0.1397075E+00
          1   -1    0    0  502    0 -0.00000000000E+00  0.00000000000E+00  0.11848606707E+04  0.11848606707E+04  0.00000000000E+00 0. -1.
          2   -1    0    0  503    0  0.00000000000E+00 -0.00000000000E+00 -0.10642565686E+03  0.10642565686E+03  0.00000000000E+00 0. -1.
         25    2    1    2    0    0 -0.48848322079E+02  0.13090881340E+02  0.59324516366E+03  0.60836714907E+03  0.12495292760E+03 0.  0.
          4    1    3    3  501    0 -0.40292904239E+02 -0.27246687166E+02  0.53377881177E+03  0.53599191494E+03  0.12700000000E+01 0.  1.
         -4    1    3    3    0  501 -0.85554178400E+01  0.40337568505E+02  0.59466351896E+02  0.72375234128E+02  0.12700000000E+01 0.  1.
          2    1    1    2  502    0  0.74335974321E+02 -0.52471539895E+02  0.57470200379E+03  0.58186037220E+03  0.00000000000E+00 0. -1.
          1    1    1    2  503    0 -0.25487652242E+02  0.39380658555E+02 -0.89512153607E+02  0.10105880629E+03  0.00000000000E+00 0. -1.
<mgrwt>
<rscale>  0 0.60180814E+02</rscale>
<asrwt>0</asrwt>
<pdfrwt beam="2">  1        2 0.16373179E-01 0.46909026E+02</pdfrwt>
<pdfrwt beam="1">  1        1 0.18228625E+00 0.77207539E+02</pdfrwt>
<totfact> 0.57013946E+02</totfact>
</mgrwt>
</event>
<event>
 7    1  0.7037933E-004  0.4824680E+02  0.7546771E-02  0.1493274E+00
          1   -1    0    0  502    0 -0.00000000000E+00  0.00000000000E+00  0.19134047856E+04  0.19134047856E+04  0.00000000000E+00 0. -1.
          2   -1    0    0  503    0  0.00000000000E+00 -0.00000000000E+00 -0.16156423650E+03  0.16156423650E+03  0.00000000000E+00 0. -1.
         25    2    1    2    0    0  0.11479003106E+02  0.60705869253E+01  0.42440401409E+02  0.13265226058E+03  0.12500725990E+03 0.  0.
          4    1    3    3  501    0 -0.84445437076E+00  0.28506889479E+02  0.81263690135E+02  0.86132201210E+02  0.12700000000E+01 0.  1.
         -4    1    3    3    0  501  0.12323457477E+02 -0.22436302553E+02 -0.38823288726E+02  0.46520059372E+02  0.12700000000E+01 0.  1.
          2    1    1    2  502    0 -0.31523709422E+02 -0.36865206228E+02  0.18226294956E+04  0.18232748191E+04  0.00000000000E+00 0. -1.
          1    1    1    2  503    0  0.20044706316E+02  0.30794619302E+02 -0.11322934791E+03  0.11904194243E+03  0.00000000000E+00 0. -1.
<mgrwt>
<rscale>  0 0.42104220E+02</rscale>
<asrwt>0</asrwt>
<pdfrwt beam="2">  1        2 0.24856038E-01 0.36743691E+02</pdfrwt>
<pdfrwt beam="1">  1        1 0.29436995E+00 0.48246795E+02</pdfrwt>
<totfact> 0.13076853E+02</totfact>
</mgrwt>
</event>
<event>
 7    1  0.7037933E-004  0.1143607E+03  0.7546771E-02  0.1363027E+00
          2   -1    0    0  503    0  0.00000000000E+00  0.00000000000E+00  0.89851286032E+03  0.89851286032E+03  0.00000000000E+00 0. -1.
         -2   -1    0    0    0  501 -0.00000000000E+00 -0.00000000000E+00 -0.36816491146E+02  0.36816491146E+02  0.00000000000E+00 0.  1.
         25    2    1    2    0    0 -0.11724649487E+03 -0.29226627056E+02  0.24326034847E+03  0.29900277317E+03  0.12500449966E+03 0.  0.
          4    1    3    3  502    0 -0.53858635999E+02  0.48382510014E+02  0.84756142633E+02  0.11147572185E+03  0.12700000000E+01 0.  1.
         -4    1    3    3    0  502 -0.63387858873E+02 -0.77609137070E+02  0.15850420584E+03  0.18752705133E+03  0.12700000000E+01 0.  1.
          1    1    1    2  503    0  0.98645013706E+01  0.40625514680E+02  0.17897881428E+03  0.18379650919E+03  0.00000000000E+00 0. -1.
         -1    1    1    2    0  501  0.10738199350E+03 -0.11398887624E+02  0.43945720643E+03  0.45253006911E+03  0.00000000000E+00 0.  1.
<mgrwt>
<rscale>  0 0.69144517E+02</rscale>
<asrwt>0</asrwt>
<pdfrwt beam="1">  1        2 0.13823273E+00 0.41805990E+02</pdfrwt>
<pdfrwt beam="2">  1       -2 0.56640763E-02 0.11436074E+03</pdfrwt>
<totfact> 0.49865860E+03</totfact>
</mgrwt>
</event>
<event>
 7    1  0.7037933E-004  0.3639193E+02  0.7546771E-02  0.1577140E+00
          1   -1    0    0  502    0 -0.00000000000E+00  0.00000000000E+00  0.87021686634E+02  0.87021686634E+02  0.00000000000E+00 0. -1.
          2   -1    0    0  503    0  0.00000000000E+00 -0.00000000000E+00 -0.26827514308E+04  0.26827514308E+04  0.00000000000E+00 0. -1.
         25    2    1    2    0    0  0.21671696316E+02 -0.80105358053E+01 -0.24516508806E+04  0.24549443972E+04  0.12500448801E+03 0.  0.
          4    1    3    3  501    0  0.49132995481E+02  0.32979643387E+02 -0.19437847282E+04  0.19446856791E+04  0.12700000000E+01 0. -1.
         -4    1    3    3    0  501 -0.27461299165E+02 -0.40990179192E+02 -0.50786615241E+03  0.51025871811E+03  0.12700000000E+01 0. -1.
          2    1    1    2  502    0  0.12264484368E+02  0.34263029282E+02  0.79360799706E+02  0.87306983010E+02  0.00000000000E+00 0. -1.
          1    1    1    2  503    0 -0.33936180684E+02 -0.26252493476E+02 -0.22343966321E+03  0.22752173713E+03  0.00000000000E+00 0. -1.
<mgrwt>
<rscale>  0 0.31983952E+02</rscale>
<asrwt>0</asrwt>
<pdfrwt beam="2">  1        2 0.41273097E+00 0.28109889E+02</pdfrwt>
<pdfrwt beam="1">  1        1 0.13387953E-01 0.36391933E+02</pdfrwt>
<totfact> 0.23613370E+02</totfact>
</mgrwt>
</event>
<event>
 7    1  0.7037933E-004  0.8038828E+02  0.7546771E-02  0.1459258E+00
          2   -1    0    0  503    0  0.00000000000E+00  0.00000000000E+00  0.18052146973E+04  0.18052146973E+04  0.00000000000E+00 0. -1.
          1   -1    0    0  502    0 -0.00000000000E+00 -0.00000000000E+00 -0.33692539078E+02  0.33692539078E+02  0.00000000000E+00 0. -1.
         25    2    1    2    0    0  0.60187487650E+02  0.90793826747E+01  0.26248748787E+03  0.29703559262E+03  0.12500197252E+03 0.  0.
          4    1    3    3  501    0  0.51582931480E+01 -0.54596441442E+02  0.10537129200E+03  0.11879436638E+03  0.12700000000E+01 0. -1.
         -4    1    3    3    0  501  0.55029194502E+02  0.63675824117E+02  0.15711619588E+03  0.17824122624E+03  0.12700000000E+01 0. -1.
          2    1    1    2  502    0 -0.87424703708E+02 -0.15898486566E+02  0.10498644949E+03  0.13754270344E+03  0.00000000000E+00 0. -1.
          1    1    1    2  503    0  0.27237216058E+02  0.68191038910E+01  0.14040482209E+04  0.14043289403E+04  0.00000000000E+00 0. -1.
<mgrwt>
<rscale>  0 0.47509271E+02</rscale>
<asrwt>0</asrwt>
<pdfrwt beam="1">  1        2 0.27772526E+00 0.28077858E+02</pdfrwt>
<pdfrwt beam="2">  1        1 0.51834690E-02 0.80388283E+02</pdfrwt>
<totfact> 0.22919303E+03</totfact>
</mgrwt>
</event>
<event>
 7    1  0.7037933E-004  0.2740449E+03  0.7546771E-02  0.1318903E+00
          1   -1    0    0  502    0 -0.00000000000E+00  0.00000000000E+00  0.98937847906E+03  0.98937847906E+03  0.00000000000E+00 0. -1.
          2   -1    0    0  503    0  0.00000000000E+00 -0.00000000000E+00 -0.72531844936E+03  0.72531844936E+03  0.00000000000E+00 0. -1.
         25    2    1    2    0    0 -0.15265331780E+03 -0.23028532506E+03 -0.31553256447E+03  0.43763433470E+03  0.12501458035E+03 0.  0.
          4    1    3    3  501    0 -0.45146892148E+02 -0.12191575041E+03 -0.22581509018E+03  0.26056814833E+03  0.12700000000E+01 0. -1.
         -4    1    3    3    0  501 -0.10750642565E+03 -0.10836957465E+03 -0.89717474285E+02  0.17706618637E+03  0.12700000000E+01 0. -1.
          2    1    1    2  502    0  0.17183674066E+03  0.21340050587E+03  0.90760391744E+03  0.94805723050E+03  0.00000000000E+00 0. -1.
          1    1    1    2  503    0 -0.19183422862E+02  0.16884819188E+02 -0.32801132327E+03  0.32900536322E+03  0.00000000000E+00 0. -1.
<mgrwt>
<rscale>  0 0.83686602E+02</rscale>
<asrwt>0</asrwt>
<pdfrwt beam="2">  1        2 0.11158745E+00 0.25555838E+02</pdfrwt>
<pdfrwt beam="1">  1        1 0.15221207E+00 0.27404492E+03</pdfrwt>
<totfact> 0.96871712E+01</totfact>
</mgrwt>
</event>
<event>
 7    1  0.7037933E-004  0.9289657E+02  0.7546771E-02  0.1324415E+00
          2   -1    0    0  503    0  0.00000000000E+00  0.00000000000E+00  0.59780186673E+03  0.59780186673E+03  0.00000000000E+00 0. -1.
          1   -1    0    0  502    0 -0.00000000000E+00 -0.00000000000E+00 -0.16879248782E+03  0.16879248782E+03  0.00000000000E+00 0. -1.
         25    2    1    2    0    0 -0.29304235822E+02 -0.16325508482E+02  0.80102631083E+02  0.15218547010E+03  0.12497489883E+03 0.  0.
          4    1    3    3  501    0 -0.68846510344E+02 -0.34820874595E+02  0.23435679770E+02  0.80642292133E+02  0.12700000000E+01 0. -1.
         -4    1    3    3    0  501  0.39542274522E+02  0.18495366112E+02  0.56666951313E+02  0.71543177963E+02  0.12700000000E+01 0. -1.
          2    1    1    2  502    0 -0.71775659149E+02  0.30416138559E+00 -0.11707235809E+03  0.13732361337E+03  0.00000000000E+00 0. -1.
          1    1    1    2  503    0  0.10107989497E+03  0.16021347097E+02  0.46597910592E+03  0.47708527108E+03  0.00000000000E+00 0. -1.
<mgrwt>
<rscale>  0 0.81656431E+02</rscale>
<asrwt>0</asrwt>
<pdfrwt beam="1">  1        2 0.91969517E-01 0.92896574E+02</pdfrwt>
<pdfrwt beam="2">  1        1 0.25968075E-01 0.71776304E+02</pdfrwt>
<totfact> 0.12480391E+03</totfact>
</mgrwt>
</event>
<event>
 7    1  0.7037933E-004  0.5056607E+02  0.7546771E-02  0.1444276E+00
          1   -1    0    0  503    0  0.00000000000E+00  0.00000000000E+00  0.26749491752E+04  0.26749491752E+04  0.00000000000E+00 0. -1.
         -3   -1    0    0    0  501 -0.00000000000E+00 -0.00000000000E+00 -0.16734115226E+03  0.16734115226E+03  0.00000000000E+00 0.  1.
         25    2    1    2    0    0 -0.17139237242E+02 -0.92327932409E+02  0.14768272986E+04  0.14850828069E+04  0.12503548756E+03 0.  0.
          4    1    3    3  502    0  0.48319735958E+02 -0.84820742389E+01  0.54410988193E+03  0.54631851422E+03  0.12700000000E+01 0.  1.
         -4    1    3    3    0  502 -0.65458973200E+02 -0.83845858170E+02  0.93271741664E+03  0.93876429273E+03  0.12700000000E+01 0.  1.
          2    1    1    2  503    0 -0.88161333675E+01  0.49046933184E+02  0.11895587202E+04  0.11906020640E+04  0.00000000000E+00 0. -1.
         -2    1    1    2    0  501  0.25955370609E+02  0.43280999224E+02 -0.15877799589E+03  0.16660545650E+03  0.00000000000E+00 0.  1.
<mgrwt>
<rscale>  0 0.50198187E+02</rscale>
<asrwt>0</asrwt>
<pdfrwt beam="1">  1        1 0.41153061E+00 0.49832980E+02</pdfrwt>
<pdfrwt beam="2">  1       -3 0.25744795E-01 0.50566070E+02</pdfrwt>
<totfact> 0.10909022E+01</totfact>
</mgrwt>
</event>
<event>
 7    1  0.7037933E-004  0.1691382E+03  0.7546771E-02  0.1241777E+00
          1   -1    0    0  502    0 -0.00000000000E+00  0.00000000000E+00  0.64440558138E+03  0.64440558138E+03  0.00000000000E+00 0. -1.
          2   -1    0    0  503    0  0.00000000000E+00 -0.00000000000E+00 -0.36750967781E+03  0.36750967781E+03  0.00000000000E+00 0. -1.
         25    2    1    2    0    0  0.90844993046E+02  0.13528321988E+03  0.45733071729E+02  0.21040605326E+03  0.12499932422E+03 0.  0.
          4    1    3    3  501    0  0.55440685181E+02  0.95530670146E+02 -0.33065899531E+02  0.11530284092E+03  0.12700000000E+01 0.  1.
         -4    1    3    3    0  501  0.35404307865E+02  0.39752549738E+02  0.78798971261E+02  0.95103212342E+02  0.12700000000E+01 0.  1.
          2    1    1    2  502    0 -0.77287973811E+02  0.38355481884E+02  0.48558077289E+03  0.49318684176E+03  0.00000000000E+00 0. -1.
          1    1    1    2  503    0 -0.13557019235E+02 -0.17363870177E+03 -0.25441794104E+03  0.30832236417E+03  0.00000000000E+00 0. -1.
<mgrwt>
<rscale>  0 0.12080387E+03</rscale>
<asrwt>0</asrwt>
<pdfrwt beam="2">  1        2 0.56539950E-01 0.16913822E+03</pdfrwt>
<pdfrwt beam="1">  1        1 0.99139320E-01 0.86281944E+02</pdfrwt>
<totfact> 0.39703406E+02</totfact>
</mgrwt>
</event>
<event>
 7    1  0.7037933E-004  0.5995249E+02  0.7546771E-02  0.1512693E+00
          1   -1    0    0  502    0 -0.00000000000E+00  0.00000000000E+00  0.38751149899E+04  0.38751149899E+04  0.00000000000E+00 0. -1.
          2   -1    0    0  503    0  0.00000000000E+00 -0.00000000000E+00 -0.20438287781E+03  0.20438287781E+03  0.00000000000E+00 0. -1.
         25    2    1    2    0    0 -0.70998735868E+02 -0.28405913903E+02  0.48532447872E+03  0.50696256546E+03  0.12499390663E+03 0.  0.
          4    1    3    3  501    0 -0.12876649217E+02 -0.26610517074E+01  0.40167423109E+03  0.40189139094E+03  0.12700000000E+01 0.  1.
         -4    1    3    3    0  501 -0.58122086651E+02 -0.25744862195E+02  0.83650247628E+02  0.10507117452E+03  0.12700000000E+01 0.  1.
          2    1    1    2  502    0  0.59394620128E+02  0.52622166735E+01  0.33778414504E+04  0.33783676940E+04  0.00000000000E+00 0. -1.
          1    1    1    2  503    0  0.11604115740E+02  0.23143697229E+02 -0.19243381694E+03  0.19416760833E+03  0.00000000000E+00 0. -1.
<mgrwt>
<rscale>  0 0.39397502E+02</rscale>
<asrwt>0</asrwt>
<pdfrwt beam="2">  1        2 0.31443523E-01 0.25889887E+02</pdfrwt>
<pdfrwt beam="1">  1        1 0.59617148E+00 0.59952489E+02</pdfrwt>
<totfact> 0.46932708E+00</totfact>
</mgrwt>
</event>
<event>
 7    1  0.7037933E-004  0.7621331E+02  0.7546771E-02  0.1464926E+00
         -2   -1    0    0    0  501 -0.00000000000E+00  0.00000000000E+00  0.52097027941E+01  0.52097027941E+01  0.00000000000E+00 0.  1.
          2   -1    0    0  503    0  0.00000000000E+00 -0.00000000000E+00 -0.41284886938E+04  0.41284886938E+04  0.00000000000E+00 0. -1.
         25    2    1    2    0    0  0.23284255164E+02  0.86959775711E+02 -0.17395497041E+04  0.17463566510E+04  0.12499688147E+03 0.  0.
          4    1    3    3  502    0 -0.43902513425E+02  0.85254479082E+00 -0.41851168299E+03  0.42081088296E+03  0.12700000000E+01 0.  1.
         -4    1    3    3    0  502  0.67186768588E+02  0.86107230920E+02 -0.13210380211E+04  0.13255457681E+04  0.12700000000E+01 0.  1.
          1    1    1    2  503    0 -0.38931582707E+02 -0.63229220316E+02 -0.22142958079E+04  0.22155404594E+04  0.00000000000E+00 0. -1.
         -1    1    1    2    0  501  0.15647327543E+02 -0.23730555395E+02 -0.16943347891E+03  0.17180128607E+03  0.00000000000E+00 0.  1.
<mgrwt>
<rscale>  0 0.46544173E+02</rscale>
<asrwt>0</asrwt>
<pdfrwt beam="2">  1        2 0.63515164E+00 0.76213312E+02</pdfrwt>
<pdfrwt beam="1">  1       -2 0.80149332E-03 0.28424956E+02</pdfrwt>
<totfact> 0.92336582E+02</totfact>
</mgrwt>
</event>
<event>
 7    1  0.7037933E-004  0.7188438E+02  0.7546771E-02  0.1402981E+00
          2   -1    0    0  503    0  0.00000000000E+00  0.00000000000E+00  0.22954613154E+04  0.22954613154E+04  0.00000000000E+00 0. -1.
         -2   -1    0    0    0  501 -0.00000000000E+00 -0.00000000000E+00 -0.14901363116E+02  0.14901363116E+02  0.00000000000E+00 0.  1.
         25    2    1    2    0    0 -0.11008731045E+02 -0.29887046782E+02  0.86143625787E+03  0.87104104537E+03  0.12500259447E+03 0.  0.
          4    1    3    3  502    0  0.40491143885E+02 -0.24368902001E+02  0.14039871470E+03  0.14814448389E+03  0.12700000000E+01 0. -1.
         -4    1    3    3    0  502 -0.51499874930E+02 -0.55181447812E+01  0.72103754317E+03  0.72289656148E+03  0.12700000000E+01 0. -1.
          1    1    1    2  503    0 -0.67874072046E+01 -0.47599365526E+02  0.12648812875E+04  0.12657947859E+04  0.00000000000E+00 0. -1.
         -1    1    1    2    0  501  0.17796138250E+02  0.77486412308E+02  0.15424240686E+03  0.17352684721E+03  0.00000000000E+00 0.  1.
<mgrwt>
<rscale>  0 0.58789984E+02</rscale>
<asrwt>0</asrwt>
<pdfrwt beam="1">  1        2 0.35314761E+00 0.48080854E+02</pdfrwt>
<pdfrwt beam="2">  1       -2 0.22925192E-02 0.71884378E+02</pdfrwt>
<totfact> 0.34637583E+03</totfact>
</mgrwt>
</event>
<event>
 7    1  0.7037933E-004  0.3696495E+02  0.7546771E-02  0.1550581E+00
         -1   -1    0    0    0  501 -0.00000000000E+00  0.00000000000E+00  0.14643492059E+02  0.14643492059E+02  0.00000000000E+00 0.  1.
          1   -1    0    0  503    0  0.00000000000E+00 -0.00000000000E+00 -0.14342386194E+04  0.14342386194E+04  0.00000000000E+00 0. -1.
         25    2    1    2    0    0 -0.47019622197E+02 -0.47072159009E+01 -0.10971786390E+04  0.11052866609E+04  0.12499853626E+03 0.  0.
          4    1    3    3  502    0  0.52454756609E+01  0.46940420698E+02 -0.68348640295E+03  0.68511764977E+03  0.12700000000E+01 0. -1.
         -4    1    3    3    0  502 -0.52265097858E+02 -0.51647636599E+02 -0.41369223610E+03  0.42016901115E+03  0.12700000000E+01 0. -1.
          2    1    1    2  503    0  0.29080342221E+02 -0.22657186397E+02 -0.30364130174E+03  0.30587097692E+03  0.00000000000E+00 0. -1.
         -2    1    1    2    0  501  0.17939279976E+02  0.27364402298E+02 -0.18775186531E+02  0.37724473601E+02  0.00000000000E+00 0.  1.
<mgrwt>
<rscale>  0 0.34778011E+02</rscale>
<asrwt>0</asrwt>
<pdfrwt beam="2">  1        1 0.22065211E+00 0.36964949E+02</pdfrwt>
<pdfrwt beam="1">  1       -1 0.22528448E-02 0.32720457E+02</pdfrwt>
<totfact> 0.41591183E+03</totfact>
</mgrwt>
</event>
<event>
 7    1  0.7037933E-004  0.4485726E+02  0.7546771E-02  0.1543903E+00
          1   -1    0    0  502    0 -0.00000000000E+00  0.00000000000E+00  0.85943710946E+02  0.85943710946E+02  0.00000000000E+00 0. -1.
          2   -1    0    0  503    0  0.00000000000E+00 -0.00000000000E+00 -0.24384955161E+03  0.24384955161E+03  0.00000000000E+00 0. -1.
         25    2    1    2    0    0 -0.30330838200E+02 -0.12913645655E+02 -0.53027953700E+02  0.13972583883E+03  0.12499849668E+03 0.  0.
          4    1    3    3  501    0 -0.40781807551E+02 -0.32187835948E+02  0.25710766939E+02  0.57981626803E+02  0.12700000000E+01 0. -1.
         -4    1    3    3    0  501  0.10450969351E+02  0.19274190293E+02 -0.78738720639E+02  0.81744212026E+02  0.12700000000E+01 0. -1.
          2    1    1    2  502    0  0.46198892851E+02 -0.10337357610E+02  0.27486964671E+02  0.54742413993E+02  0.00000000000E+00 0. -1.
          1    1    1    2  503    0 -0.15868054651E+02  0.23251003265E+02 -0.13236485163E+03  0.13532500973E+03  0.00000000000E+00 0. -1.
<mgrwt>
<rscale>  0 0.35534735E+02</rscale>
<asrwt>0</asrwt>
<pdfrwt beam="2">  1        2 0.37515315E-01 0.28149677E+02</pdfrwt>
<pdfrwt beam="1">  1        1 0.13222109E-01 0.44857261E+02</pdfrwt>
<totfact> 0.71504132E+03</totfact>
</mgrwt>
</event>
<event>
 7    1  0.7037933E-004  0.5585268E+02  0.7546771E-02  0.1478706E+00
          2   -1    0    0  503    0  0.00000000000E+00  0.00000000000E+00  0.11420938331E+03  0.11420938331E+03  0.00000000000E+00 0. -1.
          1   -1    0    0  502    0 -0.00000000000E+00 -0.00000000000E+00 -0.20115566118E+03  0.20115566118E+03  0.00000000000E+00 0. -1.
         25    2    1    2    0    0 -0.18089610947E+02 -0.18321644340E+02 -0.87148444035E+02  0.15453734266E+03  0.12499608915E+03 0.  0.
          4    1    3    3  501    0 -0.35291614100E+01  0.47521949614E+02 -0.45298274926E+01  0.47884474650E+02  0.12700000000E+01 0.  1.
         -4    1    3    3    0  501 -0.14560449537E+02 -0.65843593954E+02 -0.82618616542E+02  0.10665286801E+03  0.12700000000E+01 0.  1.
          2    1    1    2  502    0 -0.85376459670E+01 -0.34097658308E+02 -0.64466907657E+02  0.73426996967E+02  0.00000000000E+00 0. -1.
          1    1    1    2  503    0  0.26627256914E+02  0.52419302648E+02  0.64669073828E+02  0.87400704863E+02  0.00000000000E+00 0. -1.
<mgrwt>
<rscale>  0 0.44308428E+02</rscale>
<asrwt>0</asrwt>
<pdfrwt beam="1">  1        2 0.17570675E-01 0.55852676E+02</pdfrwt>
<pdfrwt beam="2">  1        1 0.30947024E-01 0.35150273E+02</pdfrwt>
<totfact> 0.57349713E+03</totfact>
</mgrwt>
</event>
<event>
 7    1  0.7037933E-004  0.1190504E+03  0.7546771E-02  0.1278698E+00
          2   -1    0    0  503    0  0.00000000000E+00  0.00000000000E+00  0.26508148398E+04  0.26508148398E+04  0.00000000000E+00 0. -1.
          1   -1    0    0  502    0 -0.00000000000E+00 -0.00000000000E+00 -0.11454244683E+03  0.11454244683E+03  0.00000000000E+00 0. -1.
         25    2    1    2    0    0 -0.10755104140E+02 -0.64162601439E+02  0.37614172582E+03  0.40167035620E+03  0.12499586176E+03 0.  0.
          4    1    3    3  501    0  0.30777409737E+02  0.26724865376E+02  0.99602387584E+02  0.10762767252E+03  0.12700000000E+01 0.  1.
         -4    1    3    3    0  501 -0.41532513878E+02 -0.90887466816E+02  0.27653933823E+03  0.29404268368E+03  0.12700000000E+01 0.  1.
          2    1    1    2  502    0 -0.81398142631E+02 -0.25455860880E+02 -0.81741416348E+02  0.11813262726E+03  0.00000000000E+00 0. -1.
          1    1    1    2  503    0  0.92153246771E+02  0.89618462319E+02  0.22418720835E+04  0.22455543032E+04  0.00000000000E+00 0. -1.
<mgrwt>
<rscale>  0 0.10076359E+03</rscale>
<asrwt>0</asrwt>
<pdfrwt beam="1">  1        2 0.40781762E+00 0.11905038E+03</pdfrwt>
<pdfrwt beam="2">  1        1 0.17621917E-01 0.85285746E+02</pdfrwt>
<totfact> 0.14547782E+02</totfact>
</mgrwt>
</event>
<event>
 7    1  0.7037933E-004  0.1256693E+03  0.7546771E-02  0.1345305E+00
          1   -1    0    0  502    0 -0.00000000000E+00  0.00000000000E+00  0.12902888912E+04  0.12902888912E+04  0.00000000000E+00 0. -1.
          2   -1    0    0  503    0  0.00000000000E+00 -0.00000000000E+00 -0.26955204806E+03  0.26955204806E+03  0.00000000000E+00 0. -1.
         25    2    1    2    0    0  0.86376682888E+02 -0.12095253447E+03 -0.15582022331E+03  0.24898742906E+03  0.12499740355E+03 0.  0.
          4    1    3    3  501    0 -0.15253534615E+02 -0.10584261060E+02 -0.77567843708E+02  0.79768917367E+02  0.12700000000E+01 0. -1.
         -4    1    3    3    0  501  0.10163021750E+03 -0.11036827341E+03 -0.78252379602E+02  0.16921851169E+03  0.12700000000E+01 0. -1.
          2    1    1    2  502    0 -0.31456227289E+02  0.31067182843E+02  0.12017369637E+04  0.12025499549E+04  0.00000000000E+00 0. -1.
          1    1    1    2  503    0 -0.54920455599E+02  0.89885351627E+02 -0.25179897205E+02  0.10830355536E+03  0.00000000000E+00 0. -1.
<mgrwt>
<rscale>  0 0.74538830E+02</rscale>
<asrwt>0</asrwt>
<pdfrwt beam="2">  1        2 0.41469547E-01 0.12566927E+03</pdfrwt>
<pdfrwt beam="1">  1        1 0.19850598E+00 0.44211583E+02</pdfrwt>
<totfact> 0.19230422E+02</totfact>
</mgrwt>
</event>
<event>
 7    1  0.7037933E-004  0.1322049E+03  0.7546771E-02  0.1395103E+00
          2   -1    0    0  503    0  0.00000000000E+00  0.00000000000E+00  0.83675804091E+03  0.83675804091E+03  0.00000000000E+00 0. -1.
         -2   -1    0    0    0  501 -0.00000000000E+00 -0.00000000000E+00 -0.36273992766E+03  0.36273992766E+03  0.00000000000E+00 0.  1.
         25    2    1    2    0    0 -0.96954885536E+02  0.70813729813E+02  0.51934859260E+03  0.54750160422E+03  0.12498084582E+03 0.  0.
          4    1    3    3  502    0 -0.12803051959E+02  0.61363049881E+02  0.88803798691E+02  0.10870634568E+03  0.12700000000E+01 0.  1.
         -4    1    3    3    0  502 -0.84151833577E+02  0.94506799323E+01  0.43054479391E+03  0.43879525853E+03  0.12700000000E+01 0.  1.
          1    1    1    2  503    0  0.11765421185E+03 -0.89413529511E+02  0.28471478166E+03  0.32077998647E+03  0.00000000000E+00 0. -1.
         -1    1    1    2    0  501 -0.20699326315E+02  0.18599799698E+02 -0.33004526101E+03  0.33121637788E+03  0.00000000000E+00 0.  1.
<mgrwt>
<rscale>  0 0.60655087E+02</rscale>
<asrwt>0</asrwt>
<pdfrwt beam="1">  1        2 0.12873201E+00 0.13220494E+03</pdfrwt>
<pdfrwt beam="2">  1       -2 0.55806143E-01 0.27828307E+02</pdfrwt>
<totfact> 0.10739758E+02</totfact>
</mgrwt>
</event>
<event>
 7    1  0.7037933E-004  0.1571875E+03  0.7546771E-02  0.1302849E+00
          2   -1    0    0  503    0  0.00000000000E+00  0.00000000000E+00  0.20200445552E+04  0.20200445552E+04  0.00000000000E+00 0. -1.
          1   -1    0    0  502    0 -0.00000000000E+00 -0.00000000000E+00 -0.24551221545E+03  0.24551221545E+03  0.00000000000E+00 0. -1.
         25    2    1    2    0    0  0.12552641964E+03  0.15980206822E+03  0.26821373973E+03  0.35896705625E+03  0.12500061703E+03 0.  0.
          4    1    3    3  501    0 -0.63009612540E+01  0.65601676025E+02  0.33996955956E+02  0.74166622710E+02  0.12700000000E+01 0. -1.
         -4    1    3    3    0  501  0.13182738090E+03  0.94200392194E+02  0.23421678377E+03  0.28480043354E+03  0.12700000000E+01 0. -1.
          2    1    1    2  502    0 -0.86579681271E+02 -0.12605723005E+03 -0.17046854394E+03  0.22901089697E+03  0.00000000000E+00 0. -1.
          1    1    1    2  503    0 -0.38946738372E+02 -0.33744838165E+02  0.16767871439E+04  0.16775788174E+04  0.00000000000E+00 0. -1.
<mgrwt>
<rscale>  0 0.90001152E+02</rscale>
<asrwt>0</asrwt>
<pdfrwt beam="1">  1        2 0.31077607E+00 0.51532150E+02</pdfrwt>
<pdfrwt beam="2">  1        1 0.37771111E-01 0.15718745E+03</pdfrwt>
<totfact> 0.13368476E+02</totfact>
</mgrwt>
</event>
<event>
 7    1  0.7037933E-004  0.1428015E+03  0.7546771E-02  0.1234734E+00
          1   -1    0    0  502    0 -0.00000000000E+00  0.00000000000E+00  0.50686652859E+03  0.50686652859E+03  0.00000000000E+00 0. -1.
          2   -1    0    0  503    0  0.00000000000E+00 -0.00000000000E+00 -0.98576817389E+03  0.98576817389E+03  0.00000000000E+00 0. -1.
         25    2    1    2    0    0  0.11948563038E+03  0.14881527345E+03 -0.10544353443E+03  0.25132658973E+03  0.12499565702E+03 0.  0.
          4    1    3    3  501    0  0.78296911054E+02  0.16923003334E+02 -0.45717692273E+01  0.80245300774E+02  0.12700000000E+01 0.  1.
         -4    1    3    3    0  501  0.41188719322E+02  0.13189227012E+03 -0.10087176521E+03  0.17108128896E+03  0.12700000000E+01 0.  1.
          2    1    1    2  502    0 -0.10951289136E+03 -0.78487871231E+01  0.42064024547E+03  0.43473312842E+03  0.00000000000E+00 0. -1.
          1    1    1    2  503    0 -0.99727390149E+01 -0.14096648633E+03 -0.79409835634E+03  0.80657498433E+03  0.00000000000E+00 0. -1.
<mgrwt>
<rscale>  0 0.12521469E+03</rscale>
<asrwt>0</asrwt>
<pdfrwt beam="2">  1        2 0.15165664E+00 0.14280150E+03</pdfrwt>
<pdfrwt beam="1">  1        1 0.77979466E-01 0.10979379E+03</pdfrwt>
<totfact> 0.17172012E+02</totfact>
</mgrwt>
</event>
<event>
 7    1  0.7037933E-004  0.8570848E+02  0.7546771E-02  0.1326358E+00
          2   -1    0    0  503    0  0.00000000000E+00  0.00000000000E+00  0.15788581866E+04  0.15788581866E+04  0.00000000000E+00 0. -1.
          1   -1    0    0  502    0 -0.00000000000E+00 -0.00000000000E+00 -0.86743128100E+02  0.86743128100E+02  0.00000000000E+00 0. -1.
         25    2    1    2    0    0 -0.11710530602E+03 -0.10033040785E+03  0.10199222697E+04  0.10390565791E+04  0.12496917608E+03 0.  0.
          4    1    3    3  501    0 -0.64715663901E+02  0.13926299263E+02  0.48870139153E+03  0.49316601865E+03  0.12700000000E+01 0.  1.
         -4    1    3    3    0  501 -0.52389642123E+02 -0.11425670712E+03  0.53122087813E+03  0.54589056045E+03  0.12700000000E+01 0.  1.
          2    1    1    2  502    0  0.76340217251E+02  0.35633954902E+02 -0.50542889480E+02  0.98245565747E+02  0.00000000000E+00 0. -1.
          1    1    1    2  503    0  0.40765088773E+02  0.64696452952E+02  0.52273567834E+03  0.52829916988E+03  0.00000000000E+00 0. -1.
<mgrwt>
<rscale>  0 0.80956745E+02</rscale>
<asrwt>0</asrwt>
<pdfrwt beam="1">  1        2 0.24290124E+00 0.76468448E+02</pdfrwt>
<pdfrwt beam="2">  1        1 0.13345098E-01 0.85708482E+02</pdfrwt>
<totfact> 0.77169339E+02</totfact>
</mgrwt>
</event>
<event>
 7    1  0.7037933E-004  0.8013557E+02  0.7546771E-02  0.1425486E+00
          2   -1    0    0  503    0  0.00000000000E+00  0.00000000000E+00  0.13098689644E+04  0.13098689644E+04  0.00000000000E+00 0. -1.
          1   -1    0    0  502    0 -0.00000000000E+00 -0.00000000000E+00 -0.36092851052E+02  0.36092851052E+02  0.00000000000E+00 0. -1.
         25    2    1    2    0    0 -0.24749359219E+02 -0.55061116974E+02  0.22599444208E+03  0.26522569286E+03  0.12500769142E+03 0.  0.
          4    1    3    3  501    0  0.10593702256E+02 -0.76298629995E+02  0.20487459181E+03  0.21888106070E+03  0.12700000000E+01 0. -1.
         -4    1    3    3    0  501 -0.35343061475E+02  0.21237513020E+02  0.21119850278E+02  0.46344632154E+02  0.12700000000E+01 0. -1.
          2    1    1    2  502    0  0.57198035009E+02  0.71159385972E+02  0.11309124558E+03  0.14534408570E+03  0.00000000000E+00 0. -1.
          1    1    1    2  503    0 -0.32448675790E+02 -0.16098268998E+02  0.93469042570E+03  0.93539203691E+03  0.00000000000E+00 0. -1.
<mgrwt>
<rscale>  0 0.53876823E+02</rscale>
<asrwt>0</asrwt>
<pdfrwt beam="1">  1        2 0.20151827E+00 0.36222518E+02</pdfrwt>
<pdfrwt beam="2">  1        1 0.55527473E-02 0.80135568E+02</pdfrwt>
<totfact> 0.35298686E+03</totfact>
</mgrwt>
</event>
<event>
 7    1  0.7037933E-004  0.3538912E+03  0.7546771E-02  0.1244881E+00
          1   -1    0    0  502    0 -0.00000000000E+00  0.00000000000E+00  0.80857421011E+03  0.80857421011E+03  0.00000000000E+00 0. -1.
          2   -1    0    0  503    0  0.00000000000E+00 -0.00000000000E+00 -0.43554134485E+04  0.43554134485E+04  0.00000000000E+00 0. -1.
         25    2    1    2    0    0  0.14721059656E+03 -0.31465361478E+03 -0.17130935703E+04  0.17524246685E+04  0.12499912435E+03 0.  0.
          4    1    3    3  501    0  0.45220631920E+02 -0.20453762745E+03 -0.79465986962E+03  0.82180683125E+03  0.12700000000E+01 0.  1.
         -4    1    3    3    0  501  0.10198996464E+03 -0.11011598734E+03 -0.91843370071E+03  0.93061783727E+03  0.12700000000E+01 0.  1.
          2    1    1    2  502    0 -0.18507588701E+03  0.30187131728E+03  0.74901437916E+03  0.82849376361E+03  0.00000000000E+00 0. -1.
          1    1    1    2  503    0  0.37865290448E+02  0.12782297507E+02 -0.25827600473E+04  0.25830692265E+04  0.00000000000E+00 0. -1.
<mgrwt>
<rscale>  0 0.11892481E+03</rscale>
<asrwt>0</asrwt>
<pdfrwt beam="2">  1        2 0.67006360E+00 0.39964576E+02</pdfrwt>
<pdfrwt beam="1">  1        1 0.12439603E+00 0.35389117E+03</pdfrwt>
<totfact> 0.11205757E+00</totfact>
</mgrwt>
</event>
<event>
 7    1  0.7037933E-004  0.1575807E+03  0.7546771E-02  0.1314377E+00
          1   -1    0    0  502    0 -0.00000000000E+00  0.00000000000E+00  0.74046266368E+03  0.74046266368E+03  0.00000000000E+00 0. -1.
          2   -1    0    0  503    0  0.00000000000E+00 -0.00000000000E+00 -0.11648008137E+04  0.11648008137E+04  0.00000000000E+00 0. -1.
         25    2    1    2    0    0  0.53820390082E+02 -0.17040604748E+03  0.16942987683E+02  0.21873678509E+03  0.12499544356E+03 0.  0.
          4    1    3    3  501    0  0.50676975043E+02 -0.26986951543E+02  0.44503597773E+02  0.72654211632E+02  0.12700000000E+01 0. -1.
         -4    1    3    3    0  501  0.31434150387E+01 -0.14341909594E+03 -0.27560610089E+02  0.14608257345E+03  0.12700000000E+01 0. -1.
          2    1    1    2  502    0 -0.81276947198E+02  0.13314144269E+03  0.61233647577E+03  0.63189282752E+03  0.00000000000E+00 0. -1.
          1    1    1    2  503    0  0.27456557116E+02  0.37264604795E+02 -0.10536176135E+04  0.10546338648E+04  0.00000000000E+00 0. -1.
<mgrwt>
<rscale>  0 0.85404826E+02</rscale>
<asrwt>0</asrwt>
<pdfrwt beam="2">  1        2 0.17920012E+00 0.46287291E+02</pdfrwt>
<pdfrwt beam="1">  1        1 0.11391733E+00 0.15758071E+03</pdfrwt>
<totfact> 0.85147616E+01</totfact>
</mgrwt>
</event>
<event>
 7    1  0.7037933E-004  0.3685884E+02  0.7546771E-02  0.1575865E+00
          1   -1    0    0  503    0  0.00000000000E+00  0.00000000000E+00  0.31450132084E+02  0.31450132084E+02  0.00000000000E+00 0. -1.
         -1   -1    0    0    0  501 -0.00000000000E+00 -0.00000000000E+00 -0.42614121593E+03  0.42614121593E+03  0.00000000000E+00 0.  1.
         25    2    1    2    0    0  0.20701629845E+02 -0.68441084630E+01 -0.15295476132E+03  0.19873786278E+03  0.12500471909E+03 0.  0.
          4    1    3    3  502    0 -0.40570566164E+02  0.34120020673E+02 -0.59247583094E+02  0.79511229723E+02  0.12700000000E+01 0. -1.
         -4    1    3    3    0  502  0.61272196009E+02 -0.40964129136E+02 -0.93707178227E+02  0.11922663306E+03  0.12700000000E+01 0. -1.
          2    1    1    2  503    0 -0.38993464320E+01 -0.27701136394E+02 -0.21472908979E+02  0.35265332554E+02  0.00000000000E+00 0. -1.
         -2    1    1    2    0  501 -0.16802283413E+02  0.34545244857E+02 -0.22026341354E+03  0.22358815267E+03  0.00000000000E+00 0.  1.
<mgrwt>
<rscale>  0 0.32110711E+02</rscale>
<asrwt>0</asrwt>
<pdfrwt beam="1">  1        1 0.48384821E-02 0.27974236E+02</pdfrwt>
<pdfrwt beam="2">  1       -1 0.65560184E-01 0.36858835E+02</pdfrwt>
<totfact> 0.35361148E+03</totfact>
</mgrwt>
</event>
<event>
 7    1  0.7037933E-004  0.2022371E+03  0.7546771E-02  0.1340538E+00
          2   -1    0    0  503    0  0.00000000000E+00  0.00000000000E+00  0.71528515626E+03  0.71528515626E+03  0.00000000000E+00 0. -1.
          1   -1    0    0  502    0 -0.00000000000E+00 -0.00000000000E+00 -0.10881223474E+03  0.10881223474E+03  0.00000000000E+00 0. -1.
         25    2    1    2    0    0 -0.14821607336E+03 -0.10557548807E+03  0.16247594828E+03  0.27412462644E+03  0.12502675302E+03 0.  0.
          4    1    3    3  501    0 -0.76987773991E+02 -0.54056714884E+02  0.16067300946E+03  0.18618988866E+03  0.12700000000E+01 0. -1.
         -4    1    3    3    0  501 -0.71228299367E+02 -0.51518773189E+02  0.18029388166E+01  0.87934737789E+02  0.12700000000E+01 0. -1.
          2    1    1    2  502    0 -0.25039413769E+02 -0.13873309180E+02 -0.23666858034E+02  0.37142443628E+02  0.00000000000E+00 0. -1.
          1    1    1    2  503    0  0.17325548713E+03  0.11944879725E+03  0.46766383128E+03  0.51283032093E+03  0.00000000000E+00 0. -1.
<mgrwt>
<rscale>  0 0.76086889E+02</rscale>
<asrwt>0</asrwt>
<pdfrwt beam="1">  1        2 0.11004387E+00 0.20223709E+03</pdfrwt>
<pdfrwt beam="2">  1        1 0.16740344E-01 0.28625879E+02</pdfrwt>
<totfact> 0.16292715E+03</totfact>
</mgrwt>
</event>
<event>
 7    1  0.7037933E-004  0.1585801E+03  0.7546771E-02  0.1290776E+00
          1   -1    0    0  502    0 -0.00000000000E+00  0.00000000000E+00  0.10839666687E+04  0.10839666687E+04  0.00000000000E+00 0. -1.
          2   -1    0    0  503    0  0.00000000000E+00 -0.00000000000E+00 -0.20173385656E+04  0.20173385656E+04  0.00000000000E+00 0. -1.
         25    2    1    2    0    0 -0.18010630950E+03 -0.78448631323E+02 -0.50443360086E+02  0.23824755358E+03  0.12499957492E+03 0.  0.
          4    1    3    3  501    0 -0.63445851629E+02 -0.36907484316E+02  0.41202333420E+02  0.84183036692E+02  0.12700000000E+01 0. -1.
         -4    1    3    3    0  501 -0.11666045787E+03 -0.41541147006E+02 -0.91645693506E+02  0.15406451689E+03  0.12700000000E+01 0. -1.
          2    1    1    2  502    0  0.12536790409E+03  0.94786806995E+02  0.98338741451E+03  0.99586769060E+03  0.00000000000E+00 0. -1.
          1    1    1    2  503    0  0.54738405415E+02 -0.16338175672E+02 -0.18663159514E+04  0.18671899901E+04  0.00000000000E+00 0. -1.
<mgrwt>
<rscale>  0 0.95177929E+02</rscale>
<asrwt>0</asrwt>
<pdfrwt beam="2">  1        2 0.31035978E+00 0.57124680E+02</pdfrwt>
<pdfrwt beam="1">  1        1 0.16676410E+00 0.15858011E+03</pdfrwt>
<totfact> 0.17041765E+01</totfact>
</mgrwt>
</event>
<event>
 7    1  0.2278639E-003  0.5976768E+02  0.7546771E-02  0.1412581E+00
         -2   -1    0    0    0  501 -0.00000000000E+00  0.00000000000E+00  0.78935974808E+03  0.78935974808E+03  0.00000000000E+00 0.  1.
          2   -1    0    0  503    0  0.00000000000E+00 -0.00000000000E+00 -0.29624867582E+02  0.29624867582E+02  0.00000000000E+00 0. -1.
         25    2    1    2    0    0 -0.39800056636E+01  0.96578159657E+02  0.53298345548E+03  0.55591422311E+03  0.12500431300E+03 0.  0.
          4    1    3    3  502    0  0.38716023670E+02  0.31706315217E+02  0.67725673176E+02  0.84217579047E+02  0.12700000000E+01 0. -1.
         -4    1    3    3    0  502 -0.42696029334E+02  0.64871844440E+02  0.46525778230E+03  0.47169664406E+03  0.12700000000E+01 0. -1.
          3    1    1    2  503    0  0.28898683915E+02 -0.49075528108E+02  0.42204459994E+02  0.70885526270E+02  0.00000000000E+00 0. -1.
         -3    1    1    2    0  501 -0.24918678252E+02 -0.47502631549E+02  0.18454696502E+03  0.19218486629E+03  0.00000000000E+00 0.  1.
<mgrwt>
<rscale>  0 0.56621948E+02</rscale>
<asrwt>0</asrwt>
<pdfrwt beam="2">  1        2 0.45576725E-02 0.59767685E+02</pdfrwt>
<pdfrwt beam="1">  1       -2 0.12143995E+00 0.53641780E+02</pdfrwt>
<totfact> 0.89006363E+02</totfact>
</mgrwt>
</event>
<event>
 7    1  0.7037933E-004  0.2966330E+03  0.7546771E-02  0.1214465E+00
          2   -1    0    0  503    0  0.00000000000E+00  0.00000000000E+00  0.17576099989E+04  0.17576099989E+04  0.00000000000E+00 0. -1.
          1   -1    0    0  502    0 -0.00000000000E+00 -0.00000000000E+00 -0.91369455025E+03  0.91369455025E+03  0.00000000000E+00 0. -1.
         25    2    1    2    0    0 -0.11136059845E+03  0.22318711279E+03  0.43728374051E+03  0.51872644538E+03  0.12508551162E+03 0.  0.
          4    1    3    3  501    0 -0.10150582412E+03  0.21193283069E+03  0.30220728128E+03  0.38281824776E+03  0.12700000000E+01 0.  1.
         -4    1    3    3    0  501 -0.98547743307E+01  0.11254282095E+02  0.13507645923E+03  0.13590819762E+03  0.12700000000E+01 0.  1.
          2    1    1    2  502    0  0.90906009814E+02 -0.28518338441E+03 -0.84644091537E+03  0.89780604174E+03  0.00000000000E+00 0. -1.
          1    1    1    2  503    0  0.20454588640E+02  0.61996271617E+02  0.12530726235E+04  0.12547720620E+04  0.00000000000E+00 0. -1.
<mgrwt>
<rscale>  0 0.13915900E+03</rscale>
<asrwt>0</asrwt>
<pdfrwt beam="1">  1        2 0.27040154E+00 0.65283443E+02</pdfrwt>
<pdfrwt beam="2">  1        1 0.14056839E+00 0.29663305E+03</pdfrwt>
<totfact> 0.29089992E+01</totfact>
</mgrwt>
</event>
<event>
 7    1  0.7037933E-004  0.9584321E+02  0.7546771E-02  0.1467500E+00
         -2   -1    0    0    0  501 -0.00000000000E+00  0.00000000000E+00  0.17824505201E+03  0.17824505201E+03  0.00000000000E+00 0.  1.
          2   -1    0    0  503    0  0.00000000000E+00 -0.00000000000E+00 -0.33416414069E+03  0.33416414069E+03  0.00000000000E+00 0. -1.
         25    2    1    2    0    0 -0.72989601175E+02 -0.56677496458E+02 -0.66106767979E+02  0.16892489800E+03  0.12500278360E+03 0.  0.
          4    1    3    3  502    0 -0.27405209011E+02 -0.67828804083E+02 -0.90210989747E+02  0.11615260529E+03  0.12700000000E+01 0. -1.
         -4    1    3    3    0  502 -0.45584392164E+02  0.11151307625E+02  0.24104221768E+02  0.52772292709E+02  0.12700000000E+01 0. -1.
          1    1    1    2  503    0  0.12186941331E+02 -0.18541422794E+02 -0.19749745573E+03  0.19873990771E+03  0.00000000000E+00 0. -1.
         -1    1    1    2    0  501  0.60802659844E+02  0.75218919252E+02  0.10768513503E+03  0.14474438699E+03  0.00000000000E+00 0.  1.
<mgrwt>
<rscale>  0 0.46114705E+02</rscale>
<asrwt>0</asrwt>
<pdfrwt beam="2">  1        2 0.51409867E-01 0.22187967E+02</pdfrwt>
<pdfrwt beam="1">  1       -2 0.27422316E-01 0.95843209E+02</pdfrwt>
<totfact> 0.11334564E+03</totfact>
</mgrwt>
</event>
<event>
 7    1  0.7037933E-004  0.6840790E+02  0.7546771E-02  0.1382581E+00
          2   -1    0    0  503    0  0.00000000000E+00  0.00000000000E+00  0.30573733221E+02  0.30573733221E+02  0.00000000000E+00 0. -1.
          1   -1    0    0  502    0 -0.00000000000E+00 -0.00000000000E+00 -0.14512053359E+04  0.14512053359E+04  0.00000000000E+00 0. -1.
         25    2    1    2    0    0 -0.19147945347E+02  0.44258656869E+02 -0.33514905684E+03  0.36093710158E+03  0.12500091391E+03 0.  0.
          4    1    3    3  501    0 -0.15259192264E+02 -0.41204170450E+02 -0.16117725067E+03  0.16706389690E+03  0.12700000000E+01 0.  1.
         -4    1    3    3    0  501 -0.38887530832E+01  0.85462827320E+02 -0.17397180617E+03  0.19387320469E+03  0.12700000000E+01 0.  1.
          2    1    1    2  502    0 -0.37758403090E+02 -0.61579515242E+02 -0.10481011442E+04  0.10505873320E+04  0.00000000000E+00 0. -1.
          1    1    1    2  503    0  0.56906348436E+02  0.17320858373E+02 -0.37381401663E+02  0.70254635558E+02  0.00000000000E+00 0. -1.
<mgrwt>
<rscale>  0 0.63790082E+02</rscale>
<asrwt>0</asrwt>
<pdfrwt beam="1">  1        2 0.47036508E-02 0.59483986E+02</pdfrwt>
<pdfrwt beam="2">  1        1 0.22326238E+00 0.68407900E+02</pdfrwt>
<totfact> 0.17672859E+03</totfact>
</mgrwt>
</event>
<event>
 7    1  0.7037933E-004  0.1542593E+03  0.7546771E-02  0.1349998E+00
          2   -1    0    0  503    0  0.00000000000E+00  0.00000000000E+00  0.10196455664E+04  0.10196455664E+04  0.00000000000E+00 0. -1.
          1   -1    0    0  502    0 -0.00000000000E+00 -0.00000000000E+00 -0.41503488829E+03  0.41503488829E+03  0.00000000000E+00 0. -1.
         25    2    1    2    0    0 -0.33685870269E+02  0.17478387411E+03  0.49918544093E+03  0.54451376933E+03  0.12500000019E+03 0.  0.
          4    1    3    3  501    0 -0.11462221785E+02  0.18802422489E+03  0.46434379605E+03  0.50110005538E+03  0.12700000000E+01 0. -1.
         -4    1    3    3    0  501 -0.22223648485E+02 -0.13240350780E+02  0.34841644887E+02  0.43413713952E+02  0.12700000000E+01 0. -1.
          2    1    1    2  502    0  0.54823155892E+01 -0.34161980579E+02 -0.38124053351E+03  0.38280731588E+03  0.00000000000E+00 0. -1.
          1    1    1    2  503    0  0.28203554680E+02 -0.14062189353E+03  0.48666577067E+03  0.50735936946E+03  0.00000000000E+00 0. -1.
<mgrwt>
<rscale>  0 0.73056349E+02</rscale>
<asrwt>0</asrwt>
<pdfrwt beam="1">  1        2 0.15686855E+00 0.15425928E+03</pdfrwt>
<pdfrwt beam="2">  1        1 0.63851521E-01 0.34599085E+02</pdfrwt>
<totfact> 0.21373764E+02</totfact>
</mgrwt>
</event>
<event>
 7    1  0.7037933E-004  0.6948086E+02  0.7546771E-02  0.1439000E+00
          1   -1    0    0  502    0 -0.00000000000E+00  0.00000000000E+00  0.16073513854E+04  0.16073513854E+04  0.00000000000E+00 0. -1.
          2   -1    0    0  503    0  0.00000000000E+00 -0.00000000000E+00 -0.28524229932E+03  0.28524229932E+03  0.00000000000E+00 0. -1.
         25    2    1    2    0    0 -0.42904555199E+02 -0.95988283785E+02  0.20632860426E+03  0.26315539284E+03  0.12499886544E+03 0.  0.
          4    1    3    3  501    0 -0.32649243051E+02  0.24514631266E+02  0.68787000099E+02  0.80001278118E+02  0.12700000000E+01 0. -1.
         -4    1    3    3    0  501 -0.10255312148E+02 -0.12050291505E+03  0.13754160416E+03  0.18315411472E+03  0.12700000000E+01 0. -1.
          2    1    1    2  502    0  0.22470506254E+02  0.30298670039E+02  0.13677378413E+04  0.13682579199E+04  0.00000000000E+00 0. -1.
          1    1    1    2  503    0  0.20434048945E+02  0.65689613745E+02 -0.25195735944E+03  0.26118037194E+03  0.00000000000E+00 0. -1.
<mgrwt>
<rscale>  0 0.51195136E+02</rscale>
<asrwt>0</asrwt>
<pdfrwt beam="2">  1        2 0.43883432E-01 0.69480857E+02</pdfrwt>
<pdfrwt beam="1">  1        1 0.24728482E+00 0.37721785E+02</pdfrwt>
<totfact> 0.11641622E+02</totfact>
</mgrwt>
</event>
<event>
 7    1  0.7037933E-004  0.1350911E+03  0.7546771E-02  0.1357041E+00
          2   -1    0    0  503    0  0.00000000000E+00  0.00000000000E+00  0.13049453264E+04  0.13049453264E+04  0.00000000000E+00 0. -1.
          1   -1    0    0  502    0 -0.00000000000E+00 -0.00000000000E+00 -0.47497540061E+03  0.47497540061E+03  0.00000000000E+00 0. -1.
         25    2    1    2    0    0 -0.20474673325E+02  0.12015873706E+03  0.29989654251E+01  0.17461387661E+03  0.12499471097E+03 0.  0.
          4    1    3    3  501    0 -0.27829627443E+02 -0.18433903894E+02 -0.10869774440E+02  0.35129216798E+02  0.12700000000E+01 0. -1.
         -4    1    3    3    0  501  0.73549541179E+01  0.13859264096E+03  0.13868739865E+02  0.13948465981E+03  0.12700000000E+01 0. -1.
          2    1    1    2  502    0  0.34049031234E+02  0.15023247601E+02 -0.38447215703E+03  0.38626917302E+03  0.00000000000E+00 0. -1.
          1    1    1    2  503    0 -0.13574357909E+02 -0.13518198466E+03  0.12114431174E+04  0.12190376774E+04  0.00000000000E+00 0. -1.
<mgrwt>
<rscale>  0 0.70905281E+02</rscale>
<asrwt>0</asrwt>
<pdfrwt beam="1">  1        2 0.20076082E+00 0.13509114E+03</pdfrwt>
<pdfrwt beam="2">  1        1 0.73073139E-01 0.37216052E+02</pdfrwt>
<totfact> 0.12624882E+02</totfact>
</mgrwt>
</event>
<event>
 7    1  0.7037933E-004  0.9057906E+02  0.7546771E-02  0.1364430E+00
          1   -1    0    0  502    0 -0.00000000000E+00  0.00000000000E+00  0.22132748030E+04  0.22132748030E+04  0.00000000000E+00 0. -1.
          2   -1    0    0  503    0  0.00000000000E+00 -0.00000000000E+00 -0.59514525917E+02  0.59514525917E+02  0.00000000000E+00 0. -1.
         25    2    1    2    0    0 -0.56840903814E+02 -0.17410519301E+02  0.73643335279E+03  0.74932556701E+03  0.12498282980E+03 0.  0.
          4    1    3    3  501    0  0.27717761517E+02  0.34493010603E+01  0.42563488102E+03  0.42655226739E+03  0.12700000000E+01 0.  1.
         -4    1    3    3    0  501 -0.84558665331E+02 -0.20859820361E+02  0.31079847177E+03  0.32277329961E+03  0.12700000000E+01 0.  1.
          2    1    1    2  502    0  0.75011058535E+02  0.66310585255E+02  0.14554261112E+04  0.14588656271E+04  0.00000000000E+00 0. -1.
          3    1    1    2  503    0 -0.18170154721E+02 -0.48900065954E+02 -0.38099186963E+02  0.64598134804E+02  0.00000000000E+00 0. -1.
<mgrwt>
<rscale>  0 0.68740207E+02</rscale>
<asrwt>0</asrwt>
<pdfrwt beam="2">  1        2 0.91560826E-02 0.52166761E+02</pdfrwt>
<pdfrwt beam="1">  1        1 0.34050375E+00 0.90579059E+02</pdfrwt>
<totfact> 0.24644842E+02</totfact>
</mgrwt>
</event>
<event>
 7    1  0.7037933E-004  0.7624755E+02  0.7546771E-02  0.1459773E+00
          1   -1    0    0  503    0  0.00000000000E+00  0.00000000000E+00  0.16067010883E+04  0.16067010883E+04  0.00000000000E+00 0. -1.
         -1   -1    0    0    0  501 -0.00000000000E+00 -0.00000000000E+00 -0.36917103068E+03  0.36917103068E+03  0.00000000000E+00 0.  1.
         25    2    1    2    0    0 -0.31434933965E+02  0.68704674168E+02  0.54495113419E+03  0.56418589043E+03  0.12500197190E+03 0.  0.
          4    1    3    3  502    0  0.41507445407E+02  0.59180348949E+02  0.25562222047E+03  0.26564923155E+03  0.12700000000E+01 0. -1.
         -4    1    3    3    0  502 -0.72942379372E+02  0.95243252194E+01  0.28932891372E+03  0.29853665888E+03  0.12700000000E+01 0. -1.
          2    1    1    2  503    0  0.56221260758E+02 -0.52722709982E+02  0.10501130674E+04  0.10529377801E+04  0.00000000000E+00 0. -1.
         -2    1    1    2    0  501 -0.24786326794E+02 -0.15981964186E+02 -0.35753414399E+03  0.35874844849E+03  0.00000000000E+00 0.  1.
<mgrwt>
<rscale>  0 0.47420480E+02</rscale>
<asrwt>0</asrwt>
<pdfrwt beam="1">  1        1 0.24718478E+00 0.76247551E+02</pdfrwt>
<pdfrwt beam="2">  1       -1 0.56795544E-01 0.29492121E+02</pdfrwt>
<totfact> 0.23184393E+01</totfact>
</mgrwt>
</event>
<event>
 7    1  0.7037933E-004  0.1148837E+03  0.7546771E-02  0.1397739E+00
          2   -1    0    0  503    0  0.00000000000E+00  0.00000000000E+00  0.98209722624E+03  0.98209722624E+03  0.00000000000E+00 0. -1.
          1   -1    0    0  502    0 -0.00000000000E+00 -0.00000000000E+00 -0.63784745787E+03  0.63784745787E+03  0.00000000000E+00 0. -1.
         25    2    1    2    0    0 -0.11871500484E+03 -0.52946956483E+02 -0.41905767980E+02  0.18514063552E+03  0.12499731579E+03 0.  0.
          4    1    3    3  501    0 -0.34645569693E+02 -0.54637846746E+02  0.32896412963E+02  0.72590610152E+02  0.12700000000E+01 0.  1.
         -4    1    3    3    0  501 -0.84069435148E+02  0.16908902624E+01 -0.74802180944E+02  0.11255002537E+03  0.12700000000E+01 0.  1.
          2    1    1    2  502    0  0.63928969371E+01  0.30700525847E+02 -0.52025019102E+03  0.52119444804E+03  0.00000000000E+00 0. -1.
          1    1    1    2  503    0  0.11232210790E+03  0.22246430636E+02  0.90640572737E+03  0.91360960054E+03  0.00000000000E+00 0. -1.
<mgrwt>
<rscale>  0 0.60022045E+02</rscale>
<asrwt>0</asrwt>
<pdfrwt beam="1">  1        2 0.15109188E+00 0.11488369E+03</pdfrwt>
<pdfrwt beam="2">  1        1 0.98130379E-01 0.31359072E+02</pdfrwt>
<totfact> 0.13439643E+02</totfact>
</mgrwt>
</event>
<event>
 7    1  0.7037933E-004  0.1096512E+03  0.7546771E-02  0.1303659E+00
          1   -1    0    0  502    0 -0.00000000000E+00  0.00000000000E+00  0.14548205396E+03  0.14548205396E+03  0.00000000000E+00 0. -1.
          2   -1    0    0  503    0  0.00000000000E+00 -0.00000000000E+00 -0.49131926345E+03  0.49131926345E+03  0.00000000000E+00 0. -1.
         25    2    1    2    0    0 -0.78849053492E+02 -0.30851452087E+02 -0.70314446001E+02  0.16654324971E+03  0.12499418937E+03 0.  0.
          4    1    3    3  501    0 -0.57823311753E+02  0.17419052648E+02 -0.91612602942E+02  0.10973349851E+03  0.12700000000E+01 0. -1.
         -4    1    3    3    0  501 -0.21025741739E+02 -0.48270504735E+02  0.21298156941E+02  0.56809751206E+02  0.12700000000E+01 0. -1.
          2    1    1    2  502    0 -0.34051563889E+02  0.64939593608E+02  0.72306003295E+02  0.10297969671E+03  0.00000000000E+00 0. -1.
          1    1    1    2  503    0  0.11290061738E+03 -0.34088141521E+02 -0.34782876678E+03  0.36727837099E+03  0.00000000000E+00 0. -1.
<mgrwt>
<rscale>  0 0.89667448E+02</rscale>
<asrwt>0</asrwt>
<pdfrwt beam="2">  1        2 0.75587580E-01 0.10965119E+03</pdfrwt>
<pdfrwt beam="1">  1        1 0.22381854E-01 0.73325711E+02</pdfrwt>
<totfact> 0.18560733E+03</totfact>
</mgrwt>
</event>
<event>
 7    1  0.7037933E-004  0.4011046E+02  0.7546771E-02  0.1525146E+00
          2   -1    0    0  503    0  0.00000000000E+00  0.00000000000E+00  0.16323857069E+04  0.16323857069E+04  0.00000000000E+00 0. -1.
          1   -1    0    0  502    0 -0.00000000000E+00 -0.00000000000E+00 -0.58112379365E+03  0.58112379365E+03  0.00000000000E+00 0. -1.
         25    2    1    2    0    0  0.51365231484E+02 -0.40058297795E+02  0.18946901171E+02  0.14222182738E+03  0.12500003557E+03 0.  0.
          4    1    3    3  501    0 -0.32864764469E+02 -0.45518361374E+02  0.24629826202E+01  0.56211147909E+02  0.12700000000E+01 0. -1.
         -4    1    3    3    0  501  0.84229995953E+02  0.54600635796E+01  0.16483918550E+02  0.86010679472E+02  0.12700000000E+01 0. -1.
          2    1    1    2  502    0 -0.35445930956E+02  0.33203936882E+01 -0.51861771321E+03  0.51983821665E+03  0.00000000000E+00 0. -1.
          1    1    1    2  503    0 -0.15919300527E+02  0.36737904107E+02  0.15509327253E+04  0.15514494565E+04  0.00000000000E+00 0. -1.
<mgrwt>
<rscale>  0 0.37788581E+02</rscale>
<asrwt>0</asrwt>
<pdfrwt beam="1">  1        2 0.25113626E+00 0.40110460E+02</pdfrwt>
<pdfrwt beam="2">  1        1 0.89403661E-01 0.35601110E+02</pdfrwt>
<totfact> 0.73993448E+01</totfact>
</mgrwt>
</event>
<event>
 7    1  0.7037933E-004  0.1413847E+03  0.7546771E-02  0.1274540E+00
          1   -1    0    0  503    0  0.00000000000E+00  0.00000000000E+00  0.17738844189E+04  0.17738844189E+04  0.00000000000E+00 0. -1.
         -1   -1    0    0    0  501 -0.00000000000E+00 -0.00000000000E+00 -0.27370803641E+03  0.27370803641E+03  0.00000000000E+00 0.  1.
         25    2    1    2    0    0  0.12603256902E+03 -0.44124834502E+02  0.33111803610E+03  0.37827928477E+03  0.12499941593E+03 0.  0.
          4    1    3    3  502    0  0.11313646184E+03 -0.83902979099E+02  0.24736431693E+03  0.28465819344E+03  0.12700000000E+01 0.  1.
         -4    1    3    3    0  502  0.12896107175E+02  0.39778144597E+02  0.83753719170E+02  0.93621091334E+02  0.12700000000E+01 0.  1.
          2    1    1    2  503    0 -0.93302898206E+02  0.11130368433E+03  0.14097891176E+04  0.14172506120E+04  0.00000000000E+00 0. -1.
         -2    1    1    2    0  501 -0.32729670810E+02 -0.67178849830E+02 -0.24073077123E+03  0.25206255857E+03  0.00000000000E+00 0.  1.
<mgrwt>
<rscale>  0 0.10278792E+03</rscale>
<asrwt>0</asrwt>
<pdfrwt beam="1">  1        1 0.27290529E+00 0.14138473E+03</pdfrwt>
<pdfrwt beam="2">  1       -1 0.42108930E-01 0.74727700E+02</pdfrwt>
<totfact> 0.28890437E+01</totfact>
</mgrwt>
</event>
<event>
 7    1  0.7037933E-004  0.7588158E+02  0.7546771E-02  0.1387267E+00
         -2   -1    0    0    0  501 -0.00000000000E+00  0.00000000000E+00  0.99889883430E+02  0.99889883430E+02  0.00000000000E+00 0.  1.
          2   -1    0    0  503    0  0.00000000000E+00 -0.00000000000E+00 -0.32152673649E+04  0.32152673649E+04  0.00000000000E+00 0. -1.
         25    2    1    2    0    0  0.25325998180E+02  0.67915317020E+01 -0.12291249927E+03  0.17724741923E+03  0.12498653552E+03 0.  0.
          4    1    3    3  502    0  0.68616084087E+00  0.39572190664E+01 -0.14436720319E+03  0.14442864210E+03  0.12700000000E+01 0. -1.
         -4    1    3    3    0  502  0.24639837339E+02  0.28343126355E+01  0.21454703928E+02  0.32818777138E+02  0.12700000000E+01 0. -1.
          3    1    1    2  503    0 -0.67521986851E+02 -0.36541521150E+02 -0.30554805400E+04  0.30564449663E+04  0.00000000000E+00 0. -1.
         -1    1    1    2    0  501  0.42195988672E+02  0.29749989448E+02  0.63015557866E+02  0.81464862765E+02  0.00000000000E+00 0.  1.
<mgrwt>
<rscale>  0 0.62591511E+02</rscale>
<asrwt>0</asrwt>
<pdfrwt beam="2">  1        2 0.49465648E+00 0.75881582E+02</pdfrwt>
<pdfrwt beam="1">  1       -2 0.15367676E-01 0.51629094E+02</pdfrwt>
<totfact> 0.58232184E+01</totfact>
</mgrwt>
</event>
<event>
 7    1  0.7037933E-004  0.1374412E+03  0.7546771E-02  0.1259551E+00
          2   -1    0    0  503    0  0.00000000000E+00  0.00000000000E+00  0.65862984054E+03  0.65862984054E+03  0.00000000000E+00 0. -1.
         -2   -1    0    0    0  501 -0.00000000000E+00 -0.00000000000E+00 -0.95579412990E+03  0.95579412990E+03  0.00000000000E+00 0.  1.
         25    2    1    2    0    0 -0.29021777634E+02 -0.85371493973E+02  0.11573670774E+03  0.19274253114E+03  0.12499656887E+03 0.  0.
          4    1    3    3  502    0 -0.31643027538E+02  0.15996421501E+02 -0.41461864528E+01  0.35720728642E+02  0.12700000000E+01 0.  1.
         -4    1    3    3    0  502  0.26212499046E+01 -0.10136791547E+03  0.11988289420E+03  0.15702180250E+03  0.12700000000E+01 0.  1.
          1    1    1    2  503    0  0.75945158096E+02 -0.46256853552E+02  0.49508374591E+03  0.50300624151E+03  0.00000000000E+00 0. -1.
         -1    1    1    2    0  501 -0.46923380462E+02  0.13162834752E+03 -0.90798474300E+03  0.91867519779E+03  0.00000000000E+00 0.  1.
<mgrwt>
<rscale>  0 0.11055197E+03</rscale>
<asrwt>0</asrwt>
<pdfrwt beam="1">  1        2 0.10132767E+00 0.88923358E+02</pdfrwt>
<pdfrwt beam="2">  1       -2 0.14704525E+00 0.13744125E+03</pdfrwt>
<totfact> 0.16286726E+01</totfact>
</mgrwt>
</event>
<event>
 7    1  0.7037933E-004  0.2162603E+03  0.7546771E-02  0.1258896E+00
          1   -1    0    0  502    0 -0.00000000000E+00  0.00000000000E+00  0.13321028504E+04  0.13321028504E+04  0.00000000000E+00 0. -1.
          2   -1    0    0  503    0  0.00000000000E+00 -0.00000000000E+00 -0.41304881809E+03  0.41304881809E+03  0.00000000000E+00 0. -1.
         25    2    1    2    0    0  0.16608175405E+03 -0.23153418871E+02 -0.20460866317E+03  0.29259022754E+03  0.12500042548E+03 0.  0.
          4    1    3    3  501    0  0.16521053482E+03  0.12383840726E+02 -0.19472837567E+03  0.25567290337E+03  0.12700000000E+01 0.  1.
         -4    1    3    3    0  501  0.87121923621E+00 -0.35537259597E+02 -0.98802875026E+01  0.36917324169E+02  0.12700000000E+01 0.  1.
          2    1    1    2  502    0 -0.20986991197E+03  0.59456264948E+02  0.12736277598E+04  0.12921718531E+04  0.00000000000E+00 0. -1.
          1    1    1    2  503    0  0.43788157919E+02 -0.36302846076E+02 -0.14996506427E+03  0.16038958791E+03  0.00000000000E+00 0. -1.
<mgrwt>
<rscale>  0 0.11090907E+03</rscale>
<asrwt>0</asrwt>
<pdfrwt beam="2">  1        2 0.63545973E-01 0.56879692E+02</pdfrwt>
<pdfrwt beam="1">  1        1 0.20493890E+00 0.21626034E+03</pdfrwt>
<totfact> 0.10083242E+02</totfact>
</mgrwt>
</event>
<event>
 7    1  0.7037933E-004  0.9525036E+02  0.7546771E-02  0.1348185E+00
          1   -1    0    0  502    0 -0.00000000000E+00  0.00000000000E+00  0.62214855375E+03  0.62214855375E+03  0.00000000000E+00 0. -1.
          2   -1    0    0  503    0  0.00000000000E+00 -0.00000000000E+00 -0.12832841390E+04  0.12832841390E+04  0.00000000000E+00 0. -1.
         25    2    1    2    0    0 -0.35906612157E+02 -0.57757432604E+02  0.53975096137E+02  0.15220562122E+03  0.12501213665E+03 0.  0.
          4    1    3    3  501    0 -0.74288579295E+02 -0.42009285733E+01  0.15908763268E+02  0.76099556262E+02  0.12700000000E+01 0. -1.
         -4    1    3    3    0  501  0.38381967138E+02 -0.53556504031E+02  0.38066332869E+02  0.76106064958E+02  0.12700000000E+01 0. -1.
          2    1    1    2  502    0  0.90178986605E+02  0.40638197994E+02  0.51368142849E+03  0.52311788608E+03  0.00000000000E+00 0. -1.
          1    1    1    2  503    0 -0.54272374448E+02  0.17119234610E+02 -0.12287921099E+04  0.12301091854E+04  0.00000000000E+00 0. -1.
<mgrwt>
<rscale>  0 0.73624313E+02</rscale>
<asrwt>0</asrwt>
<pdfrwt beam="2">  1        2 0.19742833E+00 0.56908337E+02</pdfrwt>
<pdfrwt beam="1">  1        1 0.95715162E-01 0.95250357E+02</pdfrwt>
<totfact> 0.94874366E+01</totfact>
</mgrwt>
</event>
<event>
 7    1  0.7037933E-004  0.9361008E+02  0.7546771E-02  0.1339392E+00
         -2   -1    0    0    0  501 -0.00000000000E+00  0.00000000000E+00  0.49862054792E+03  0.49862054792E+03  0.00000000000E+00 0.  1.
          2   -1    0    0  503    0  0.00000000000E+00 -0.00000000000E+00 -0.57617229789E+03  0.57617229789E+03  0.00000000000E+00 0. -1.
         25    2    1    2    0    0  0.44300522471E+02  0.14502595527E+03  0.50442558669E+02  0.20289367504E+03  0.12500531050E+03 0.  0.
          4    1    3    3  502    0  0.65554566396E+02  0.31189704370E+02 -0.82239285642E+01  0.73071504261E+02  0.12700000000E+01 0.  1.
         -4    1    3    3    0  502 -0.21254043924E+02  0.11383625090E+03  0.58666487233E+02  0.12982217078E+03  0.12700000000E+01 0.  1.
          3    1    1    2  503    0 -0.39588645841E+02 -0.82743023434E+02 -0.49306463438E+03  0.50152407966E+03  0.00000000000E+00 0. -1.
         -1    1    1    2    0  501 -0.47118766307E+01 -0.62282931836E+02  0.36507032574E+03  0.37037509111E+03  0.00000000000E+00 0.  1.
<mgrwt>
<rscale>  0 0.76465490E+02</rscale>
<asrwt>0</asrwt>
<pdfrwt beam="2">  1        2 0.88641893E-01 0.93610084E+02</pdfrwt>
<pdfrwt beam="1">  1       -2 0.76710853E-01 0.62460911E+02</pdfrwt>
<totfact> 0.87772335E+01</totfact>
</mgrwt>
</event>
<event>
 7    1  0.7037933E-004  0.9743408E+02  0.7546771E-02  0.1345059E+00
          1   -1    0    0  502    0 -0.00000000000E+00  0.00000000000E+00  0.16110713205E+04  0.16110713205E+04  0.00000000000E+00 0. -1.
          2   -1    0    0  503    0  0.00000000000E+00 -0.00000000000E+00 -0.93471047027E+03  0.93471047027E+03  0.00000000000E+00 0. -1.
         25    2    1    2    0    0  0.29952236801E+02 -0.11501579839E+03 -0.17167348806E+03  0.24335248757E+03  0.12499150504E+03 0.  0.
          4    1    3    3  501    0 -0.49238369062E+02 -0.46935930396E+02 -0.68217286096E+02  0.96346300252E+02  0.12700000000E+01 0. -1.
         -4    1    3    3    0  501  0.79190605863E+02 -0.68079867995E+02 -0.10345620197E+03  0.14700618731E+03  0.12700000000E+01 0. -1.
          2    1    1    2  502    0  0.36029585399E+02  0.44354378026E+02  0.15714969776E+04  0.15725355934E+04  0.00000000000E+00 0. -1.
          1    1    1    2  503    0 -0.65981822200E+02  0.70661420365E+02 -0.72346263930E+03  0.72989370983E+03  0.00000000000E+00 0. -1.
<mgrwt>
<rscale>  0 0.74617542E+02</rscale>
<asrwt>0</asrwt>
<pdfrwt beam="2">  1        2 0.14380161E+00 0.97434082E+02</pdfrwt>
<pdfrwt beam="1">  1        1 0.24785713E+00 0.57144045E+02</pdfrwt>
<totfact> 0.29410287E+01</totfact>
</mgrwt>
</event>
<event>
 7    1  0.7037933E-004  0.8799142E+02  0.7546771E-02  0.1308314E+00
          2   -1    0    0  503    0  0.00000000000E+00  0.00000000000E+00  0.26650712217E+04  0.26650712217E+04  0.00000000000E+00 0. -1.
          1   -1    0    0  502    0 -0.00000000000E+00 -0.00000000000E+00 -0.58746115214E+03  0.58746115214E+03  0.00000000000E+00 0. -1.
         25    2    1    2    0    0 -0.92603637179E+02  0.33280948389E+02 -0.43555451249E+03  0.46369654269E+03  0.12499478072E+03 0.  0.
          4    1    3    3  501    0 -0.55531331653E+02  0.76465712926E+02 -0.19777303291E+03  0.21919516303E+03  0.12700000000E+01 0. -1.
         -4    1    3    3    0  501 -0.37072305526E+02 -0.43184764536E+02 -0.23778147958E+03  0.24450137966E+03  0.12700000000E+01 0. -1.
          2    1    1    2  502    0  0.70503005247E+02  0.51944606277E+02 -0.12311662752E+03  0.15108481010E+03  0.00000000000E+00 0. -1.
          1    1    1    2  503    0  0.22100631933E+02 -0.85225554667E+02  0.26362812096E+04  0.26377510210E+04  0.00000000000E+00 0. -1.
<mgrwt>
<rscale>  0 0.87781635E+02</rscale>
<asrwt>0</asrwt>
<pdfrwt beam="1">  1        2 0.41001095E+00 0.87991424E+02</pdfrwt>
<pdfrwt beam="2">  1        1 0.90378640E-01 0.87572346E+02</pdfrwt>
<totfact> 0.19570158E+01</totfact>
</mgrwt>
</event>
<event>
 7    1  0.7037933E-004  0.3435865E+02  0.7546771E-02  0.1559913E+00
          1   -1    0    0  502    0 -0.00000000000E+00  0.00000000000E+00  0.34028817747E+03  0.34028817747E+03  0.00000000000E+00 0. -1.
          2   -1    0    0  503    0  0.00000000000E+00 -0.00000000000E+00 -0.66277793094E+02  0.66277793094E+02  0.00000000000E+00 0. -1.
         25    2    1    2    0    0 -0.29083374509E+01  0.11467723796E+02  0.16623573386E+03  0.20832583021E+03  0.12500146081E+03 0.  0.
          4    1    3    3  501    0  0.43728410430E+02  0.46535914635E+02  0.11045872008E+03  0.12759508992E+03  0.12700000000E+01 0. -1.
         -4    1    3    3    0  501 -0.46636747881E+02 -0.35068190839E+02  0.55777013778E+02  0.80730740289E+02  0.12700000000E+01 0. -1.
          2    1    1    2  502    0  0.31909059416E+02  0.90525526754E+01  0.14384063282E+03  0.14761525813E+03  0.00000000000E+00 0. -1.
          1    1    1    2  503    0 -0.29000721965E+02 -0.20520276471E+02 -0.36065982303E+02  0.50624882226E+02  0.00000000000E+00 0. -1.
<mgrwt>
<rscale>  0 0.33758234E+02</rscale>
<asrwt>0</asrwt>
<pdfrwt beam="2">  1        2 0.10196584E-01 0.34358650E+02</pdfrwt>
<pdfrwt beam="1">  1        1 0.52352026E-01 0.33168310E+02</pdfrwt>
<totfact> 0.55681232E+03</totfact>
</mgrwt>
</event>
<event>
 7    1  0.7037933E-004  0.6556710E+02  0.7546771E-02  0.1393495E+00
          2   -1    0    0  503    0  0.00000000000E+00  0.00000000000E+00  0.13431747627E+03  0.13431747627E+03  0.00000000000E+00 0. -1.
          1   -1    0    0  502    0 -0.00000000000E+00 -0.00000000000E+00 -0.22845804107E+03  0.22845804107E+03  0.00000000000E+00 0. -1.
         25    2    1    2    0    0 -0.13013282309E+02 -0.18586539159E+02 -0.86710196996E+02  0.15381229614E+03  0.12499903690E+03 0.  0.
          4    1    3    3  501    0 -0.40020083883E+02 -0.36428760478E+02  0.70731215320E+01  0.54592157424E+02  0.12700000000E+01 0.  1.
         -4    1    3    3    0  501  0.27006801574E+02  0.17842221319E+02 -0.93783318528E+02  0.99220138717E+02  0.12700000000E+01 0.  1.
          2    1    1    2  502    0  0.76105545133E+02  0.74246895827E+00 -0.80504002449E+02  0.11078582793E+03  0.00000000000E+00 0. -1.
          1    1    1    2  503    0 -0.63092262824E+02  0.17844070201E+02  0.73073634642E+02  0.98177393270E+02  0.00000000000E+00 0. -1.
<mgrwt>
<rscale>  0 0.61045689E+02</rscale>
<asrwt>0</asrwt>
<pdfrwt beam="1">  1        2 0.20664227E-01 0.65567099E+02</pdfrwt>
<pdfrwt beam="2">  1        1 0.35147390E-01 0.56836069E+02</pdfrwt>
<totfact> 0.41902892E+03</totfact>
</mgrwt>
</event>
<event>
 7    1  0.7037933E-004  0.7150823E+02  0.7546771E-02  0.1476595E+00
          2   -1    0    0  503    0  0.00000000000E+00  0.00000000000E+00  0.86399730447E+03  0.86399730447E+03  0.00000000000E+00 0. -1.
         -2   -1    0    0    0  501 -0.00000000000E+00 -0.00000000000E+00 -0.10042284578E+03  0.10042284578E+03  0.00000000000E+00 0.  1.
         25    2    1    2    0    0 -0.36672289932E+02 -0.45455884416E+02  0.41208243796E+03  0.43456669388E+03  0.12500072593E+03 0.  0.
          4    1    3    3  502    0 -0.73596581991E+02 -0.12726692573E+02  0.14659497924E+03  0.16453001679E+03  0.12700000000E+01 0.  1.
         -4    1    3    3    0  502  0.36924292059E+02 -0.32729191843E+02  0.26548745871E+03  0.27003667709E+03  0.12700000000E+01 0.  1.
          1    1    1    2  503    0  0.26401286360E+02  0.71362674784E+02  0.43511034877E+03  0.44171334017E+03  0.00000000000E+00 0. -1.
         -1    1    1    2    0  501  0.10271003572E+02 -0.25906790369E+02 -0.83618328033E+02  0.88140116205E+02  0.00000000000E+00 0.  1.
<mgrwt>
<rscale>  0 0.44641120E+02</rscale>
<asrwt>0</asrwt>
<pdfrwt beam="1">  1        2 0.13292266E+00 0.71508227E+02</pdfrwt>
<pdfrwt beam="2">  1       -2 0.15449669E-01 0.27868536E+02</pdfrwt>
<totfact> 0.98170657E+02</totfact>
</mgrwt>
</event>
<event>
 7    1  0.7037933E-004  0.4064579E+02  0.7546771E-02  0.1529705E+00
         -2   -1    0    0    0  501 -0.00000000000E+00  0.00000000000E+00  0.27729991472E+03  0.27729991472E+03  0.00000000000E+00 0.  1.
          2   -1    0    0  503    0  0.00000000000E+00 -0.00000000000E+00 -0.13585097635E+04  0.13585097635E+04  0.00000000000E+00 0. -1.
         25    2    1    2    0    0  0.27782297479E+02  0.46354378244E+02 -0.25048435091E+02  0.13846879699E+03  0.12500239680E+03 0.  0.
          4    1    3    3  502    0  0.25304276506E+02 -0.41315130587E+02 -0.95173644782E+01  0.49390682841E+02  0.12700000000E+01 0.  1.
         -4    1    3    3    0  502  0.24780209731E+01  0.87669508831E+02 -0.15531070612E+02  0.89078114153E+02  0.12700000000E+01 0.  1.
          1    1    1    2  503    0 -0.38188869645E+02 -0.13894060414E+02 -0.12751086219E+04  0.12757560239E+04  0.00000000000E+00 0. -1.
         -1    1    1    2    0  501  0.10406572166E+02 -0.32460317830E+02  0.21894720829E+03  0.22158485732E+03  0.00000000000E+00 0.  1.
<mgrwt>
<rscale>  0 0.37222576E+02</rscale>
<asrwt>0</asrwt>
<pdfrwt beam="2">  1        2 0.20900150E+00 0.40645792E+02</pdfrwt>
<pdfrwt beam="1">  1       -2 0.42661526E-01 0.34087666E+02</pdfrwt>
<totfact> 0.97888045E+01</totfact>
</mgrwt>
</event>
<event>
 7    1  0.7037933E-004  0.7010458E+02  0.7546771E-02  0.1425504E+00
         -1   -1    0    0    0  501 -0.00000000000E+00  0.00000000000E+00  0.28631578486E+03  0.28631578486E+03  0.00000000000E+00 0.  1.
          1   -1    0    0  503    0  0.00000000000E+00 -0.00000000000E+00 -0.17768472113E+04  0.17768472113E+04  0.00000000000E+00 0. -1.
         25    2    1    2    0    0  0.48773705792E+02  0.10157979796E+02 -0.41097012594E+03  0.43243733262E+03  0.12499417307E+03 0.  0.
          4    1    3    3  502    0  0.75755506630E+02  0.35088062777E+00 -0.13365209646E+03  0.15363435713E+03  0.12700000000E+01 0. -1.
         -4    1    3    3    0  502 -0.26981800838E+02  0.98070991682E+01 -0.27731802948E+03  0.27880297550E+03  0.12700000000E+01 0. -1.
          2    1    1    2  503    0 -0.67552930975E+02  0.26737621625E+02 -0.13526082470E+04  0.13545579975E+04  0.00000000000E+00 0. -1.
         -2    1    1    2    0  501  0.18779225183E+02 -0.36895601421E+02  0.27304694653E+03  0.27616766594E+03  0.00000000000E+00 0.  1.
<mgrwt>
<rscale>  0 0.53873154E+02</rscale>
<asrwt>0</asrwt>
<pdfrwt beam="2">  1        1 0.27336110E+00 0.70104583E+02</pdfrwt>
<pdfrwt beam="1">  1       -1 0.44048583E-01 0.41399815E+02</pdfrwt>
<totfact> 0.28660985E+01</totfact>
</mgrwt>
</event>
<event>
 7    1  0.7037933E-004  0.1274253E+03  0.7546771E-02  0.1329269E+00
         -1   -1    0    0    0  502 -0.00000000000E+00  0.00000000000E+00  0.91275263725E+03  0.91275263725E+03  0.00000000000E+00 0.  1.
         -2   -1    0    0    0  501  0.00000000000E+00 -0.00000000000E+00 -0.43094013628E+03  0.43094013628E+03  0.00000000000E+00 0.  1.
         25    2    1    2    0    0  0.13470543463E+03 -0.11349630040E+03 -0.21522556459E+03  0.30491716315E+03  0.12500187362E+03 0.  0.
          4    1    3    3  503    0  0.15880461822E+03 -0.92520778220E+02 -0.18809587531E+03  0.26298416754E+03  0.12700000000E+01 0. -1.
         -4    1    3    3    0  503 -0.24099183588E+02 -0.20975522176E+02 -0.27129689284E+02  0.41932995610E+02  0.12700000000E+01 0. -1.
         -2    1    1    2    0  502 -0.92640616398E+02  0.86228617713E+02  0.85949352529E+03  0.86876163494E+03  0.00000000000E+00 0.  1.
         -1    1    1    2    0  501 -0.42064818235E+02  0.27267682683E+02 -0.16245545973E+03  0.17001397545E+03  0.00000000000E+00 0.  1.
<mgrwt>
<rscale>  0 0.79923559E+02</rscale>
<asrwt>0</asrwt>
<pdfrwt beam="2">  1       -2 0.66298483E-01 0.50129587E+02</pdfrwt>
<pdfrwt beam="1">  1       -1 0.14042348E+00 0.12742525E+03</pdfrwt>
<totfact> 0.76966029E+00</totfact>
</mgrwt>
</event>
<event>
 7    1  0.7037933E-004  0.4378144E+02  0.7546771E-02  0.1550427E+00
          2   -1    0    0  503    0  0.00000000000E+00  0.00000000000E+00  0.10408098751E+03  0.10408098751E+03  0.00000000000E+00 0. -1.
         -2   -1    0    0    0  501 -0.00000000000E+00 -0.00000000000E+00 -0.32759369470E+03  0.32759369470E+03  0.00000000000E+00 0.  1.
         25    2    1    2    0    0  0.59070003577E+01 -0.20892354627E+02 -0.16719230199E+03  0.20988836695E+03  0.12501390964E+03 0.  0.
          4    1    3    3  502    0 -0.27525238322E+02  0.42636455051E+02 -0.96984433985E+02  0.10946734390E+03  0.12700000000E+01 0. -1.
         -4    1    3    3    0  502  0.33432238680E+02 -0.63528809678E+02 -0.70207868005E+02  0.10042102306E+03  0.12700000000E+01 0. -1.
          1    1    1    2  503    0 -0.39325312415E+01 -0.27372385649E+02  0.76026475435E+02  0.80899550463E+02  0.00000000000E+00 0. -1.
         -1    1    1    2    0  501 -0.19744691162E+01  0.48264740276E+02 -0.13234688063E+03  0.14088676480E+03  0.00000000000E+00 0.  1.
<mgrwt>
<rscale>  0 0.34795215E+02</rscale>
<asrwt>0</asrwt>
<pdfrwt beam="1">  1        2 0.16012460E-01 0.27653432E+02</pdfrwt>
<pdfrwt beam="2">  1       -2 0.50399029E-01 0.43781438E+02</pdfrwt>
<totfact> 0.12197838E+03</totfact>
</mgrwt>
</event>
<event>
 7    1  0.7037933E-004  0.6858714E+02  0.7546771E-02  0.1425382E+00
          1   -1    0    0  502    0 -0.00000000000E+00  0.00000000000E+00  0.25989677649E+03  0.25989677649E+03  0.00000000000E+00 0. -1.
          2   -1    0    0  503    0  0.00000000000E+00 -0.00000000000E+00 -0.56575198591E+03  0.56575198591E+03  0.00000000000E+00 0. -1.
         25    2    1    2    0    0 -0.28954958455E+02 -0.61360891947E+02  0.57148722295E+02  0.15329011674E+03  0.12501333829E+03 0.  0.
          4    1    3    3  501    0 -0.76431665418E+02 -0.55089955008E+02  0.35047402716E+02  0.10053176592E+03  0.12700000000E+01 0.  1.
         -4    1    3    3    0  501  0.47476706964E+02 -0.62709369392E+01  0.22101319578E+02  0.52758350821E+02  0.12700000000E+01 0.  1.
          2    1    1    2  502    0  0.61617151160E+02  0.34395042318E+02  0.14570267053E+03  0.16189181712E+03  0.00000000000E+00 0. -1.
          1    1    1    2  503    0 -0.32662192706E+02  0.26965849629E+02 -0.50870660223E+03  0.51046682854E+03  0.00000000000E+00 0. -1.
<mgrwt>
<rscale>  0 0.53898353E+02</rscale>
<asrwt>0</asrwt>
<pdfrwt beam="2">  1        2 0.87038768E-01 0.42355352E+02</pdfrwt>
<pdfrwt beam="1">  1        1 0.39984119E-01 0.68587138E+02</pdfrwt>
<totfact> 0.79623149E+02</totfact>
</mgrwt>
</event>
<event>
 7    1  0.7037933E-004  0.9864524E+02  0.7546771E-02  0.1388852E+00
          1   -1    0    0  502    0 -0.00000000000E+00  0.00000000000E+00  0.45478707190E+02  0.45478707190E+02  0.00000000000E+00 0. -1.
          2   -1    0    0  503    0  0.00000000000E+00 -0.00000000000E+00 -0.24123602316E+04  0.24123602316E+04  0.00000000000E+00 0. -1.
         25    2    1    2    0    0  0.49844935217E+02  0.57498770602E+02 -0.33969210685E+03  0.36987264577E+03  0.12499768174E+03 0.  0.
          4    1    3    3  501    0  0.46303931350E+02  0.33400799593E+02 -0.41278869284E+02  0.70464355679E+02  0.12700000000E+01 0.  1.
         -4    1    3    3    0  501  0.35410038666E+01  0.24097971009E+02 -0.29841323757E+03  0.29940829009E+03  0.12700000000E+01 0.  1.
          2    1    1    2  502    0 -0.42818495283E+02 -0.96075053520E+02 -0.61416618121E+02  0.12180246479E+03  0.00000000000E+00 0. -1.
          1    1    1    2  503    0 -0.70264399340E+01  0.38576282918E+02 -0.19657727995E+04  0.19661638283E+04  0.00000000000E+00 0. -1.
<mgrwt>
<rscale>  0 0.62193053E+02</rscale>
<asrwt>0</asrwt>
<pdfrwt beam="2">  1        2 0.37113233E+00 0.39210974E+02</pdfrwt>
<pdfrwt beam="1">  1        1 0.69967244E-02 0.98645239E+02</pdfrwt>
<totfact> 0.76211831E+02</totfact>
</mgrwt>
</event>
<event>
 7    1  0.7037933E-004  0.4862003E+02  0.7546771E-02  0.1516767E+00
         -2   -1    0    0    0  501 -0.00000000000E+00  0.00000000000E+00  0.67811116045E+02  0.67811116045E+02  0.00000000000E+00 0.  1.
          2   -1    0    0  503    0  0.00000000000E+00 -0.00000000000E+00 -0.19748450004E+04  0.19748450004E+04  0.00000000000E+00 0. -1.
         25    2    1    2    0    0  0.29556668926E+02  0.25544543272E+02 -0.21135470455E+03  0.24864177609E+03  0.12500320521E+03 0.  0.
          4    1    3    3  502    0 -0.13415848416E+02  0.48186868122E+02 -0.18834808504E+03  0.19488092079E+03  0.12700000000E+01 0.  1.
         -4    1    3    3    0  502  0.42972517343E+02 -0.22642324850E+02 -0.23006619508E+02  0.53760855300E+02  0.12700000000E+01 0.  1.
          1    1    1    2  503    0 -0.48941340532E+02 -0.12756265270E+01 -0.17395623634E+04  0.17402511595E+04  0.00000000000E+00 0. -1.
         -1    1    1    2    0  501  0.19384671606E+02 -0.24268916745E+02  0.43883183588E+02  0.53763180850E+02  0.00000000000E+00 0.  1.
<mgrwt>
<rscale>  0 0.38860720E+02</rscale>
<asrwt>0</asrwt>
<pdfrwt beam="2">  1        2 0.30382229E+00 0.48620032E+02</pdfrwt>
<pdfrwt beam="1">  1       -2 0.10432480E-01 0.31060358E+02</pdfrwt>
<totfact> 0.49287436E+02</totfact>
</mgrwt>
</event>
<event>
 7    1  0.7037933E-004  0.2868901E+03  0.7546771E-02  0.1160866E+00
          2   -1    0    0  503    0  0.00000000000E+00  0.00000000000E+00  0.83403494556E+03  0.83403494556E+03  0.00000000000E+00 0. -1.
          1   -1    0    0  502    0 -0.00000000000E+00 -0.00000000000E+00 -0.11645724626E+04  0.11645724626E+04  0.00000000000E+00 0. -1.
         25    2    1    2    0    0  0.16681594800E+03  0.19888443201E+03  0.29685050571E+03  0.41367601832E+03  0.12500019033E+03 0.  0.
          4    1    3    3  501    0  0.66573950395E+02  0.56192719347E+02  0.19034162240E+03  0.20933527820E+03  0.12700000000E+01 0. -1.
         -4    1    3    3    0  501  0.10024199761E+03  0.14269171267E+03  0.10650888331E+03  0.20434074012E+03  0.12700000000E+01 0. -1.
          2    1    1    2  502    0 -0.62353554667E+02  0.10527779505E+03 -0.10481901272E+04  0.10553075015E+04  0.00000000000E+00 0. -1.
          1    1    1    2  503    0 -0.10446239334E+03 -0.30416222706E+03  0.42080210446E+03  0.52962388835E+03  0.00000000000E+00 0. -1.
<mgrwt>
<rscale>  0 0.18735843E+03</rscale>
<asrwt>0</asrwt>
<pdfrwt beam="1">  1        2 0.12831307E+00 0.28689010E+03</pdfrwt>
<pdfrwt beam="2">  1        1 0.17916499E+00 0.12235759E+03</pdfrwt>
<totfact> 0.59266305E+01</totfact>
</mgrwt>
</event>
<event>
 7    1  0.7037933E-004  0.1124703E+03  0.7546771E-02  0.1416403E+00
          1   -1    0    0  502    0 -0.00000000000E+00  0.00000000000E+00  0.72504345813E+03  0.72504345813E+03  0.00000000000E+00 0. -1.
          2   -1    0    0  503    0  0.00000000000E+00 -0.00000000000E+00 -0.82847126450E+03  0.82847126450E+03  0.00000000000E+00 0. -1.
         25    2    1    2    0    0  0.10913358109E+02 -0.10951457461E+03  0.37416402647E+03  0.40955642808E+03  0.12500082256E+03 0.  0.
          4    1    3    3  501    0  0.43226300993E+02 -0.37744654927E+02  0.28453383784E+03  0.29026589508E+03  0.12700000000E+01 0.  1.
         -4    1    3    3    0  501 -0.32312942884E+02 -0.71769919681E+02  0.89630188634E+02  0.11929053300E+03  0.12700000000E+01 0.  1.
          2    1    1    2  502    0  0.27422484523E+02  0.37182809274E+01  0.32869454709E+03  0.32985742914E+03  0.00000000000E+00 0. -1.
          3    1    1    2  503    0 -0.38335842632E+02  0.10579629368E+03 -0.80628637994E+03  0.81410086541E+03  0.00000000000E+00 0. -1.
<mgrwt>
<rscale>  0 0.55789238E+02</rscale>
<asrwt>0</asrwt>
<pdfrwt beam="2">  1        2 0.12745712E+00 0.11247034E+03</pdfrwt>
<pdfrwt beam="1">  1        1 0.11154515E+00 0.27673422E+02</pdfrwt>
<totfact> 0.14239438E+02</totfact>
</mgrwt>
</event>
<event>
 7    1  0.7037933E-004  0.8862400E+02  0.7546771E-02  0.1360881E+00
         -2   -1    0    0    0  501 -0.00000000000E+00  0.00000000000E+00  0.20244582585E+02  0.20244582585E+02  0.00000000000E+00 0.  1.
          2   -1    0    0  503    0  0.00000000000E+00 -0.00000000000E+00 -0.14690826092E+04  0.14690826092E+04  0.00000000000E+00 0. -1.
         25    2    1    2    0    0  0.79572557652E+02  0.63260342827E+02 -0.11460883621E+04  0.11573562323E+04  0.12498500574E+03 0.  0.
          4    1    3    3  502    0  0.10750137129E+03  0.48423627471E+02 -0.10395557101E+04  0.10462213340E+04  0.12700000000E+01 0.  1.
         -4    1    3    3    0  502 -0.27928813633E+02  0.14836715356E+02 -0.10653265206E+03  0.11113489825E+03  0.12700000000E+01 0.  1.
          1    1    1    2  503    0 -0.78963322916E+02 -0.83385192826E+01 -0.20511141904E+03  0.21994415539E+03  0.00000000000E+00 0. -1.
         -1    1    1    2    0  501 -0.60923473632E+00 -0.54921823545E+02 -0.97638245429E+02  0.11202680411E+03  0.00000000000E+00 0.  1.
<mgrwt>
<rscale>  0 0.69768841E+02</rscale>
<asrwt>0</asrwt>
<pdfrwt beam="2">  1        2 0.22601275E+00 0.88624001E+02</pdfrwt>
<pdfrwt beam="1">  1       -2 0.31145506E-02 0.54925202E+02</pdfrwt>
<totfact> 0.51893563E+03</totfact>
</mgrwt>
</event>
<event>
 7    1  0.7037933E-004  0.8393512E+02  0.7546771E-02  0.1353143E+00
         -2   -1    0    0    0  501 -0.00000000000E+00  0.00000000000E+00  0.17592777976E+03  0.17592777976E+03  0.00000000000E+00 0.  1.
          2   -1    0    0  503    0  0.00000000000E+00 -0.00000000000E+00 -0.12280348564E+04  0.12280348564E+04  0.00000000000E+00 0. -1.
         25    2    1    2    0    0 -0.22753611386E+02 -0.29446762351E+02 -0.19059342150E+03  0.23093862090E+03  0.12498782204E+03 0.  0.
          4    1    3    3  502    0 -0.67383012331E+01 -0.24731871678E+02 -0.20635437731E+03  0.20794425242E+03  0.12700000000E+01 0.  1.
         -4    1    3    3    0  502 -0.16015310152E+02 -0.47148906725E+01  0.15760955811E+02  0.22994368472E+02  0.12700000000E+01 0.  1.
          1    1    1    2  503    0 -0.61475102506E+02  0.73090043011E+01 -0.10040666513E+04  0.10059733843E+04  0.00000000000E+00 0. -1.
         -1    1    1    2    0  501  0.84228713891E+02  0.22137758049E+02  0.14255299616E+03  0.16705063091E+03  0.00000000000E+00 0.  1.
<mgrwt>
<rscale>  0 0.72085102E+02</rscale>
<asrwt>0</asrwt>
<pdfrwt beam="2">  1        2 0.18892843E+00 0.61908075E+02</pdfrwt>
<pdfrwt beam="1">  1       -2 0.27065814E-01 0.83935122E+02</pdfrwt>
<totfact> 0.25668555E+02</totfact>
</mgrwt>
</event>
<event>
 7    1  0.7037933E-004  0.8578434E+02  0.7546771E-02  0.1361541E+00
          1   -1    0    0  502    0 -0.00000000000E+00  0.00000000000E+00  0.37411904044E+03  0.37411904044E+03  0.00000000000E+00 0. -1.
          2   -1    0    0  503    0  0.00000000000E+00 -0.00000000000E+00 -0.82530204486E+02  0.82530204486E+02  0.00000000000E+00 0. -1.
         25    2    1    2    0    0  0.15709449098E+01  0.10210541724E+03  0.12245672880E+03  0.20260287278E+03  0.12499715810E+03 0.  0.
          4    1    3    3  501    0  0.24219596875E+02  0.12603054456E+03  0.10018671003E+03  0.16281669694E+03  0.12700000000E+01 0.  1.
         -4    1    3    3    0  501 -0.22648651965E+02 -0.23925127314E+02  0.22270018761E+02  0.39786175846E+02  0.12700000000E+01 0.  1.
          2    1    1    2  502    0  0.46334709238E+02 -0.32209209419E+02  0.15898616227E+03  0.16870369956E+03  0.00000000000E+00 0. -1.
          1    1    1    2  503    0 -0.47905654147E+02 -0.69896207823E+02  0.10145944896E+02  0.85342672592E+02  0.00000000000E+00 0. -1.
<mgrwt>
<rscale>  0 0.69575898E+02</rscale>
<asrwt>0</asrwt>
<pdfrwt beam="2">  1        2 0.12696955E-01 0.85784344E+02</pdfrwt>
<pdfrwt beam="1">  1        1 0.57556774E-01 0.56429943E+02</pdfrwt>
<totfact> 0.40846925E+03</totfact>
</mgrwt>
</event>
<event>
 7    1  0.7037933E-004  0.7070587E+02  0.7546771E-02  0.1438712E+00
          1   -1    0    0  502    0 -0.00000000000E+00  0.00000000000E+00  0.27427581601E+02  0.27427581601E+02  0.00000000000E+00 0. -1.
          2   -1    0    0  503    0  0.00000000000E+00 -0.00000000000E+00 -0.18155070160E+04  0.18155070160E+04  0.00000000000E+00 0. -1.
         25    2    1    2    0    0 -0.45406577307E+02  0.24709405300E+01 -0.88352917754E+03  0.89348515268E+03  0.12499619070E+03 0.  0.
          4    1    3    3  501    0 -0.74936950434E+02 -0.33875532113E+02 -0.45216339738E+03  0.45958290769E+03  0.12700000000E+01 0.  1.
         -4    1    3    3    0  501  0.29530373127E+02  0.36346472643E+02 -0.43136578017E+03  0.43390224499E+03  0.12700000000E+01 0.  1.
          2    1    1    2  502    0 -0.31346350574E+02  0.19934766081E+02  0.40224607356E+01  0.37365342008E+02  0.00000000000E+00 0. -1.
          3    1    1    2  503    0  0.76752927881E+02 -0.22405706611E+02 -0.90857271760E+03  0.91208410291E+03  0.00000000000E+00 0. -1.
<mgrwt>
<rscale>  0 0.51250323E+02</rscale>
<asrwt>0</asrwt>
<pdfrwt beam="2">  1        2 0.27930876E+00 0.70705868E+02</pdfrwt>
<pdfrwt beam="1">  1        1 0.42196281E-02 0.37148198E+02</pdfrwt>
<totfact> 0.24773119E+03</totfact>
</mgrwt>
</event>
<event>
 7    1  0.7037933E-004  0.2626188E+02  0.7546771E-02  0.1660180E+00
          2   -1    0    0  503    0  0.00000000000E+00  0.00000000000E+00  0.30846433844E+04  0.30846433844E+04  0.00000000000E+00 0. -1.
          1   -1    0    0  502    0 -0.00000000000E+00 -0.00000000000E+00 -0.55133629247E+03  0.55133629247E+03  0.00000000000E+00 0. -1.
         25    2    1    2    0    0 -0.66324025963E+01 -0.32789961621E+01  0.17564004053E+04  0.17608562912E+04  0.12497101199E+03 0.  0.
          4    1    3    3  501    0 -0.62191430679E+02 -0.22640323774E+02  0.97178411386E+03  0.97403610568E+03  0.12700000000E+01 0. -1.
         -4    1    3    3    0  501  0.55559028083E+02  0.19361327612E+02  0.78461629148E+03  0.78682018554E+03  0.12700000000E+01 0. -1.
          2    1    1    2  502    0 -0.18177922474E+02  0.15529099835E+02 -0.54870367181E+03  0.54922427956E+03  0.00000000000E+00 0. -1.
          1    1    1    2  503    0  0.24810325070E+02 -0.12250103672E+02  0.13256103584E+04  0.13258991061E+04  0.00000000000E+00 0. -1.
<mgrwt>
<rscale>  0 0.25057285E+02</rscale>
<asrwt>0</asrwt>
<pdfrwt beam="1">  1        2 0.47456051E+00 0.26261878E+02</pdfrwt>
<pdfrwt beam="2">  1        1 0.84820970E-01 0.23907944E+02</pdfrwt>
<totfact> 0.16099440E+01</totfact>
</mgrwt>
</event>
<event>
 7    1  0.7037933E-004  0.7240725E+02  0.7546771E-02  0.1388444E+00
          2   -1    0    0  503    0  0.00000000000E+00  0.00000000000E+00  0.12879730170E+04  0.12879730170E+04  0.00000000000E+00 0. -1.
          1   -1    0    0  502    0 -0.00000000000E+00 -0.00000000000E+00 -0.94605742833E+02  0.94605742833E+02  0.00000000000E+00 0. -1.
         25    2    1    2    0    0 -0.55558957707E+02  0.76140684027E+02  0.30895033754E+03  0.34635458188E+03  0.12500793487E+03 0.  0.
          4    1    3    3  501    0 -0.93609977093E+02  0.49176273719E+02  0.17451948006E+03  0.20405831404E+03  0.12700000000E+01 0. -1.
         -4    1    3    3    0  501  0.38051019386E+02  0.26964410308E+02  0.13443085748E+03  0.14229626784E+03  0.12700000000E+01 0. -1.
          2    1    1    2  502    0  0.53426665268E+02 -0.42506790363E+01 -0.64909785512E+02  0.84176939177E+02  0.00000000000E+00 0. -1.
          1    1    1    2  503    0  0.21322924396E+01 -0.71890004990E+02  0.94932672213E+03  0.95204723877E+03  0.00000000000E+00 0. -1.
<mgrwt>
<rscale>  0 0.62295283E+02</rscale>
<asrwt>0</asrwt>
<pdfrwt beam="1">  1        2 0.19814968E+00 0.72407252E+02</pdfrwt>
<pdfrwt beam="2">  1        1 0.14554731E-01 0.53595493E+02</pdfrwt>
<totfact> 0.95299423E+02</totfact>
</mgrwt>
</event>
<event>
 7    1  0.7037933E-004  0.3459004E+02  0.7546771E-02  0.1563847E+00
          2   -1    0    0  503    0  0.00000000000E+00  0.00000000000E+00  0.20987417434E+04  0.20987417434E+04  0.00000000000E+00 0. -1.
          1   -1    0    0  502    0 -0.00000000000E+00 -0.00000000000E+00 -0.94646001966E+03  0.94646001966E+03  0.00000000000E+00 0. -1.
         25    2    1    2    0    0 -0.44473786522E+02 -0.34979899922E+02  0.98486268971E+03  0.99438050167E+03  0.12504620516E+03 0.  0.
          4    1    3    3  501    0 -0.25669228258E+02  0.17030453629E+02  0.81811743409E+03  0.81869817057E+03  0.12700000000E+01 0.  1.
         -4    1    3    3    0  501 -0.18804558265E+02 -0.52010353551E+02  0.16674525562E+03  0.17568233110E+03  0.12700000000E+01 0.  1.
          2    1    1    2  502    0  0.11036807394E+02  0.30182293910E+02 -0.94116959847E+03  0.94171810807E+03  0.00000000000E+00 0. -1.
          1    1    1    2  503    0  0.33436979129E+02  0.47976060126E+01  0.11085886325E+04  0.11091031533E+04  0.00000000000E+00 0. -1.
<mgrwt>
<rscale>  0 0.33340930E+02</rscale>
<asrwt>0</asrwt>
<pdfrwt beam="1">  1        2 0.32288334E+00 0.34590042E+02</pdfrwt>
<pdfrwt beam="2">  1        1 0.14560923E+00 0.32136926E+02</pdfrwt>
<totfact> 0.23040503E+01</totfact>
</mgrwt>
</event>
<event>
 7    1  0.7037933E-004  0.1898506E+03  0.7546771E-02  0.1246287E+00
          2   -1    0    0  503    0  0.00000000000E+00  0.00000000000E+00  0.81849287779E+03  0.81849287779E+03  0.00000000000E+00 0. -1.
         -2   -1    0    0    0  501 -0.00000000000E+00 -0.00000000000E+00 -0.83122836137E+03  0.83122836137E+03  0.00000000000E+00 0.  1.
         25    2    1    2    0    0  0.24932577307E+03  0.50016973921E+01  0.65594861424E+00  0.27895099312E+03  0.12499947279E+03 0.  0.
          4    1    3    3  502    0  0.84682528535E+02  0.61641860907E+02  0.35334097771E+01  0.10480910046E+03  0.12700000000E+01 0.  1.
         -4    1    3    3    0  502  0.16464324454E+03 -0.56640163515E+02 -0.28774611628E+01  0.17414189265E+03  0.12700000000E+01 0.  1.
          1    1    1    2  503    0 -0.66382202276E+02 -0.31436110558E+02  0.66428689032E+03  0.66833516927E+03  0.00000000000E+00 0. -1.
         -1    1    1    2    0  501 -0.18294357079E+03  0.26434413166E+02 -0.67767832250E+03  0.70243507678E+03  0.00000000000E+00 0.  1.
<mgrwt>
<rscale>  0 0.11808652E+03</rscale>
<asrwt>0</asrwt>
<pdfrwt beam="1">  1        2 0.12592198E+00 0.73449478E+02</pdfrwt>
<pdfrwt beam="2">  1       -2 0.12788129E+00 0.18985057E+03</pdfrwt>
<totfact> 0.17726437E+01</totfact>
</mgrwt>
</event>
<event>
 7    1  0.7037933E-004  0.6526976E+02  0.7546771E-02  0.1413347E+00
          1   -1    0    0  503    0  0.00000000000E+00  0.00000000000E+00  0.18544278579E+04  0.18544278579E+04  0.00000000000E+00 0. -1.
         -1   -1    0    0    0  501 -0.00000000000E+00 -0.00000000000E+00 -0.19974075249E+03  0.19974075249E+03  0.00000000000E+00 0.  1.
         25    2    1    2    0    0 -0.21577300309E+02  0.78133630952E+01  0.56373258320E+03  0.57788163402E+03  0.12500451608E+03 0.  0.
          4    1    3    3  502    0  0.45057035276E+02 -0.21548863416E+02  0.15952396672E+03  0.16716458596E+03  0.12700000000E+01 0. -1.
         -4    1    3    3    0  502 -0.66634335586E+02  0.29362226511E+02  0.40420861649E+03  0.41071704806E+03  0.12700000000E+01 0. -1.
          2    1    1    2  503    0  0.70222502097E+02 -0.12037423863E+02  0.12795200338E+04  0.12815020937E+04  0.00000000000E+00 0. -1.
         -2    1    1    2    0  501 -0.48645201788E+02  0.42240607682E+01 -0.18856551158E+03  0.19478488264E+03  0.00000000000E+00 0.  1.
<mgrwt>
<rscale>  0 0.56453596E+02</rscale>
<asrwt>0</asrwt>
<pdfrwt beam="1">  1        1 0.28529658E+00 0.65269762E+02</pdfrwt>
<pdfrwt beam="2">  1       -1 0.30729348E-01 0.48828254E+02</pdfrwt>
<totfact> 0.47462030E+01</totfact>
</mgrwt>
</event>
<event>
 7    1  0.7037933E-004  0.7122784E+02  0.7546771E-02  0.1436884E+00
         -2   -1    0    0    0  501  0.00000000000E+00  0.00000000000E+00  0.59046038697E+03  0.59046038697E+03  0.00000000000E+00 0.  1.
         -1   -1    0    0    0  502 -0.00000000000E+00 -0.00000000000E+00 -0.18486765433E+03  0.18486765433E+03  0.00000000000E+00 0.  1.
         25    2    1    2    0    0 -0.10653054812E+03  0.12243591789E+02  0.25198530975E+03  0.30103078790E+03  0.12499710282E+03 0.  0.
          4    1    3    3  503    0 -0.95416264479E+02  0.32642279977E+01  0.26499111711E+03  0.28166793172E+03  0.12700000000E+01 0.  1.
         -4    1    3    3    0  503 -0.11114283638E+02  0.89793637915E+01 -0.13005807353E+02  0.19362856189E+02  0.12700000000E+01 0.  1.
         -2    1    1    2    0  502  0.69145818684E+02 -0.12263254610E+02 -0.15145979458E+03  0.16694789915E+03  0.00000000000E+00 0.  1.
         -1    1    1    2    0  501  0.37384729434E+02  0.19662821048E-01  0.30506721747E+03  0.30734935425E+03  0.00000000000E+00 0.  1.
<mgrwt>
<rscale>  0 0.51602654E+02</rscale>
<asrwt>0</asrwt>
<pdfrwt beam="1">  1       -2 0.90840059E-01 0.37384735E+02</pdfrwt>
<pdfrwt beam="2">  1       -1 0.28441178E-01 0.71227840E+02</pdfrwt>
<totfact> 0.91231604E+01</totfact>
</mgrwt>
</event>
<event>
 7    1  0.7037933E-004  0.4985117E+02  0.7546771E-02  0.1493731E+00
          2   -1    0    0  503    0  0.00000000000E+00  0.00000000000E+00  0.15591723614E+04  0.15591723614E+04  0.00000000000E+00 0. -1.
          1   -1    0    0  502    0 -0.00000000000E+00 -0.00000000000E+00 -0.39159653860E+03  0.39159653860E+03  0.00000000000E+00 0. -1.
         25    2    1    2    0    0  0.79555162972E+02 -0.23225097199E+02  0.66158433650E+03  0.67837295694E+03  0.12501042083E+03 0.  0.
          4    1    3    3  501    0  0.21878554898E+02 -0.18398728943E+02  0.21794896984E+02  0.35969637553E+02  0.12700000000E+01 0. -1.
         -4    1    3    3    0  501  0.57676608074E+02 -0.48263682558E+01  0.63978943952E+03  0.64240331939E+03  0.12700000000E+01 0. -1.
          2    1    1    2  502    0 -0.44106961052E+02  0.23068530407E+02 -0.38123042602E+03  0.38446614784E+03  0.00000000000E+00 0. -1.
          1    1    1    2  503    0 -0.35448201920E+02  0.15656679106E+00  0.88722191229E+03  0.88792979519E+03  0.00000000000E+00 0. -1.
<mgrwt>
<rscale>  0 0.42037500E+02</rscale>
<asrwt>0</asrwt>
<pdfrwt beam="1">  1        2 0.23987267E+00 0.35448548E+02</pdfrwt>
<pdfrwt beam="2">  1        1 0.60245622E-01 0.49851166E+02</pdfrwt>
<totfact> 0.13143108E+02</totfact>
</mgrwt>
</event>
<event>
 7    1  0.7037933E-004  0.2682772E+02  0.7546771E-02  0.1686453E+00
         -1   -1    0    0    0  501 -0.00000000000E+00  0.00000000000E+00  0.26177634111E+03  0.26177634111E+03  0.00000000000E+00 0.  1.
          1   -1    0    0  503    0  0.00000000000E+00 -0.00000000000E+00 -0.14618740369E+04  0.14618740369E+04  0.00000000000E+00 0. -1.
         25    2    1    2    0    0  0.18425972700E+02 -0.14630976103E+02 -0.17507996520E+03  0.21640421362E+03  0.12499683006E+03 0.  0.
          4    1    3    3  502    0  0.45786166191E+02  0.41597221773E+02 -0.64613257430E+02  0.89460537722E+02  0.12700000000E+01 0. -1.
         -4    1    3    3    0  502 -0.27360193491E+02 -0.56228197876E+02 -0.11046670777E+03  0.12694367590E+03  0.12700000000E+01 0. -1.
          2    1    1    2  503    0 -0.22314765136E+01  0.26808903492E+02 -0.12655630575E+04  0.12658489442E+04  0.00000000000E+00 0. -1.
         -2    1    1    2    0  501 -0.16194496186E+02 -0.12177927389E+02  0.24054532695E+03  0.24139722024E+03  0.00000000000E+00 0.  1.
<mgrwt>
<rscale>  0 0.23315085E+02</rscale>
<asrwt>0</asrwt>
<pdfrwt beam="2">  1        1 0.22490370E+00 0.26827720E+02</pdfrwt>
<pdfrwt beam="1">  1       -1 0.40273282E-01 0.20262370E+02</pdfrwt>
<totfact> 0.57328278E+01</totfact>
</mgrwt>
</event>
<event>
 7    1  0.7037933E-004  0.4172465E+02  0.7546771E-02  0.1512627E+00
          1   -1    0    0  502    0 -0.00000000000E+00  0.00000000000E+00  0.63312507249E+03  0.63312507249E+03  0.00000000000E+00 0. -1.
          2   -1    0    0  503    0  0.00000000000E+00 -0.00000000000E+00 -0.44340061037E+03  0.44340061037E+03  0.00000000000E+00 0. -1.
         25    2    1    2    0    0 -0.52618209026E+02 -0.55818038777E+02 -0.18737709218E+02  0.14783893509E+03  0.12498367736E+03 0.  0.
          4    1    3    3  501    0  0.31606069656E+02  0.62194297202E+01  0.18048997658E+02  0.36945962724E+02  0.12700000000E+01 0.  1.
         -4    1    3    3    0  501 -0.84224278682E+02 -0.62037468498E+02 -0.36786706876E+02  0.11089297236E+03  0.12700000000E+01 0.  1.
          2    1    1    2  502    0  0.21498356362E+02  0.35406587651E+02  0.56685516749E+03  0.56836659533E+03  0.00000000000E+00 0. -1.
          1    1    1    2  503    0  0.31119852664E+02  0.20411451127E+02 -0.35839299615E+03  0.36032015245E+03  0.00000000000E+00 0. -1.
<mgrwt>
<rscale>  0 0.39406192E+02</rscale>
<asrwt>0</asrwt>
<pdfrwt beam="2">  1        2 0.68215478E-01 0.37216563E+02</pdfrwt>
<pdfrwt beam="1">  1        1 0.97403858E-01 0.41724648E+02</pdfrwt>
<totfact> 0.34498481E+02</totfact>
</mgrwt>
</event>
<event>
 7    1  0.7037933E-004  0.7811340E+02  0.7546771E-02  0.1340032E+00
          1   -1    0    0  503    0  0.00000000000E+00  0.00000000000E+00  0.11856625657E+04  0.11856625657E+04  0.00000000000E+00 0. -1.
         -1   -1    0    0    0  501 -0.00000000000E+00 -0.00000000000E+00 -0.27409245751E+02  0.27409245751E+02  0.00000000000E+00 0.  1.
         25    2    1    2    0    0 -0.16142536539E+02 -0.81394910891E+01  0.32008178380E+03  0.34409814217E+03  0.12499740128E+03 0.  0.
          4    1    3    3  502    0  0.16671449994E+02 -0.59706230668E+02  0.19935660056E+03  0.20877604823E+03  0.12700000000E+01 0. -1.
         -4    1    3    3    0  502 -0.32813986533E+02  0.51566739579E+02  0.12072518323E+03  0.13532209394E+03  0.12700000000E+01 0. -1.
          2    1    1    2  503    0  0.81778680531E+02  0.43253188268E+02  0.74005772675E+03  0.74581769207E+03  0.00000000000E+00 0. -1.
         -2    1    1    2    0  501 -0.65636143991E+02 -0.35113697178E+02  0.98113809429E+02  0.12315597723E+03  0.00000000000E+00 0.  1.
<mgrwt>
<rscale>  0 0.76253761E+02</rscale>
<asrwt>0</asrwt>
<pdfrwt beam="1">  1        1 0.18240959E+00 0.78113397E+02</pdfrwt>
<pdfrwt beam="2">  1       -1 0.42168079E-02 0.74438398E+02</pdfrwt>
<totfact> 0.25888937E+03</totfact>
</mgrwt>
</event>
<event>
 7    1  0.7037933E-004  0.7709852E+02  0.7546771E-02  0.1365540E+00
         -2   -1    0    0    0  501 -0.00000000000E+00  0.00000000000E+00  0.64197348134E+02  0.64197348134E+02  0.00000000000E+00 0.  1.
          2   -1    0    0  503    0  0.00000000000E+00 -0.00000000000E+00 -0.18918182381E+04  0.18918182381E+04  0.00000000000E+00 0. -1.
         25    2    1    2    0    0 -0.10816513758E+03  0.72929574812E+02 -0.78990213310E+03  0.81030206358E+03  0.12500253797E+03 0.  0.
          4    1    3    3  502    0  0.12187714645E+02 -0.20651404340E+02 -0.18181663405E+03  0.18339553486E+03  0.12700000000E+01 0.  1.
         -4    1    3    3    0  502 -0.12035285223E+03  0.93580979152E+02 -0.60808549905E+03  0.62690652872E+03  0.12700000000E+01 0.  1.
          1    1    1    2  503    0  0.63608795692E+02 -0.31673784667E+02 -0.10730896123E+04  0.10754397350E+04  0.00000000000E+00 0. -1.
         -1    1    1    2    0  501  0.44556341891E+02 -0.41255790144E+02  0.35370855425E+02  0.70273787692E+02  0.00000000000E+00 0.  1.
<mgrwt>
<rscale>  0 0.68422725E+02</rscale>
<asrwt>0</asrwt>
<pdfrwt beam="2">  1        2 0.29104891E+00 0.77098518E+02</pdfrwt>
<pdfrwt beam="1">  1       -2 0.98765167E-02 0.60723207E+02</pdfrwt>
<totfact> 0.59200400E+02</totfact>
</mgrwt>
</event>
<event>
 7    1  0.7037933E-004  0.8085093E+02  0.7546771E-02  0.1381154E+00
          2   -1    0    0  503    0  0.00000000000E+00  0.00000000000E+00  0.31860579195E+03  0.31860579195E+03  0.00000000000E+00 0. -1.
          1   -1    0    0  502    0 -0.00000000000E+00 -0.00000000000E+00 -0.41396923343E+03  0.41396923343E+03  0.00000000000E+00 0. -1.
         25    2    1    2    0    0  0.12350747922E+03  0.50814341618E+00 -0.17964558384E+03  0.25129957170E+03  0.12499833322E+03 0.  0.
          4    1    3    3  501    0  0.23908849644E+02  0.24178136216E+02 -0.13567376468E+03  0.13987565437E+03  0.12700000000E+01 0. -1.
         -4    1    3    3    0  501  0.99598629581E+02 -0.23669992800E+02 -0.43971819160E+02  0.11142391733E+03  0.12700000000E+01 0. -1.
          2    1    1    2  502    0 -0.72713482829E+02 -0.40438742514E+01 -0.18938883232E+03  0.20290818936E+03  0.00000000000E+00 0. -1.
          1    1    1    2  503    0 -0.50793996396E+02  0.35357308352E+01  0.27367097468E+03  0.27836726432E+03  0.00000000000E+00 0. -1.
<mgrwt>
<rscale>  0 0.64161355E+02</rscale>
<asrwt>0</asrwt>
<pdfrwt beam="1">  1        2 0.49016276E-01 0.50916907E+02</pdfrwt>
<pdfrwt beam="2">  1        1 0.63687575E-01 0.80850932E+02</pdfrwt>
<totfact> 0.81650277E+02</totfact>
</mgrwt>
</event>
<event>
 7    1  0.7037933E-004  0.1433688E+03  0.7546771E-02  0.1325252E+00
          1   -1    0    0  502    0 -0.00000000000E+00  0.00000000000E+00  0.14561883324E+04  0.14561883324E+04  0.00000000000E+00 0. -1.
          2   -1    0    0  503    0  0.00000000000E+00 -0.00000000000E+00 -0.47944085134E+03  0.47944085134E+03  0.00000000000E+00 0. -1.
         25    2    1    2    0    0 -0.58919849678E+01  0.12484519605E+03  0.27676316183E+03  0.32839745289E+03  0.12500400337E+03 0.  0.
          4    1    3    3  501    0 -0.75845679034E+01  0.11803438847E+03  0.29009203306E+03  0.31328045435E+03  0.12700000000E+01 0.  1.
         -4    1    3    3    0  501  0.16925829356E+01  0.68108075775E+01 -0.13328871228E+02  0.15116998546E+02  0.12700000000E+01 0.  1.
          2    1    1    2  502    0 -0.36547973304E+02 -0.14300998532E+03  0.11476946806E+04  0.11571476527E+04  0.00000000000E+00 0. -1.
          1    1    1    2  503    0  0.42439958272E+02  0.18164789272E+02 -0.44771036142E+03  0.45008407809E+03  0.00000000000E+00 0. -1.
<mgrwt>
<rscale>  0 0.81353975E+02</rscale>
<asrwt>0</asrwt>
<pdfrwt beam="2">  1        2 0.73760132E-01 0.46163943E+02</pdfrwt>
<pdfrwt beam="1">  1        1 0.22402897E+00 0.14336880E+03</pdfrwt>
<totfact> 0.74059571E+01</totfact>
</mgrwt>
</event>
<event>
 7    1  0.7037933E-004  0.6525214E+02  0.7546771E-02  0.1514950E+00
         -2   -1    0    0    0  501 -0.00000000000E+00  0.00000000000E+00  0.14002689658E+03  0.14002689658E+03  0.00000000000E+00 0.  1.
          2   -1    0    0  503    0  0.00000000000E+00 -0.00000000000E+00 -0.22322819713E+03  0.22322819713E+03  0.00000000000E+00 0. -1.
         25    2    1    2    0    0 -0.41592441593E+02  0.37193846632E+02  0.61021290815E+01  0.13698290819E+03  0.12495506285E+03 0.  0.
          4    1    3    3  502    0  0.34427801589E+02 -0.17731445561E+02 -0.13743073576E+02  0.41111587846E+02  0.12700000000E+01 0.  1.
         -4    1    3    3    0  502 -0.76020243181E+02  0.54925292192E+02  0.19845202658E+02  0.95871320343E+02  0.12700000000E+01 0.  1.
          1    1    1    2  503    0  0.61606219845E+02 -0.25015504637E+02 -0.14844676021E+03  0.16265774624E+03  0.00000000000E+00 0. -1.
         -1    1    1    2    0  501 -0.20013778253E+02 -0.12178341995E+02  0.59143330574E+02  0.63614439282E+02  0.00000000000E+00 0.  1.
<mgrwt>
<rscale>  0 0.39098800E+02</rscale>
<asrwt>0</asrwt>
<pdfrwt beam="2">  1        2 0.34342799E-01 0.65252139E+02</pdfrwt>
<pdfrwt beam="1">  1       -2 0.21542600E-01 0.23427832E+02</pdfrwt>
<totfact> 0.24652132E+03</totfact>
</mgrwt>
</event>
<event>
 7    1  0.7037933E-004  0.1745538E+03  0.7546771E-02  0.1182473E+00
          1   -1    0    0  502    0 -0.00000000000E+00  0.00000000000E+00  0.39088627265E+04  0.39088627265E+04  0.00000000000E+00 0. -1.
          2   -1    0    0  503    0  0.00000000000E+00 -0.00000000000E+00 -0.14202526508E+03  0.14202526508E+03  0.00000000000E+00 0. -1.
         25    2    1    2    0    0  0.67655097893E+02 -0.12743671518E+02  0.31731955060E+03  0.34792988007E+03  0.12499556318E+03 0.  0.
          4    1    3    3  501    0 -0.20773806908E+02 -0.39393585947E+02  0.61472293850E+02  0.75920099305E+02  0.12700000000E+01 0. -1.
         -4    1    3    3    0  501  0.88428904801E+02  0.26649914429E+02  0.25584725675E+03  0.27200978076E+03  0.12700000000E+01 0. -1.
          2    1    1    2  502    0  0.11290731579E+03  0.10935187033E+03  0.34905650303E+04  0.34941021915E+04  0.00000000000E+00 0. -1.
          1    1    1    2  503    0 -0.18056241368E+03 -0.96608198814E+02 -0.41047119517E+02  0.20885592003E+03  0.00000000000E+00 0. -1.
<mgrwt>
<rscale>  0 0.16563982E+03</rscale>
<asrwt>0</asrwt>
<pdfrwt beam="2">  1        2 0.21850044E-01 0.17455377E+03</pdfrwt>
<pdfrwt beam="1">  1        1 0.60136341E+00 0.15718109E+03</pdfrwt>
<totfact> 0.56138439E+00</totfact>
</mgrwt>
</event>
<event>
 7    1  0.7037933E-004  0.4509701E+02  0.7546771E-02  0.1499673E+00
         -1   -1    0    0    0  501 -0.00000000000E+00  0.00000000000E+00  0.33742832576E+03  0.33742832576E+03  0.00000000000E+00 0.  1.
          1   -1    0    0  503    0  0.00000000000E+00 -0.00000000000E+00 -0.86169142286E+03  0.86169142286E+03  0.00000000000E+00 0. -1.
         25    2    1    2    0    0 -0.58538489212E+01 -0.72944632682E+02  0.10716382873E+01  0.14484948268E+03  0.12500014896E+03 0.  0.
          4    1    3    3  502    0  0.46917058188E+02 -0.14972454243E+02 -0.33069686139E+02  0.59334659149E+02  0.12700000000E+01 0. -1.
         -4    1    3    3    0  502 -0.52770907109E+02 -0.57972178440E+02  0.34141324426E+02  0.85514823532E+02  0.12700000000E+01 0. -1.
          2    1    1    2  503    0 -0.15657384097E+02  0.42092334519E+02 -0.78782253745E+03  0.78910155798E+03  0.00000000000E+00 0. -1.
         -2    1    1    2    0  501  0.21511233018E+02  0.30852298164E+02  0.26248780206E+03  0.26516870796E+03  0.00000000000E+00 0.  1.
<mgrwt>
<rscale>  0 0.41184336E+02</rscale>
<asrwt>0</asrwt>
<pdfrwt beam="2">  1        1 0.13256791E+00 0.45097005E+02</pdfrwt>
<pdfrwt beam="1">  1       -1 0.51912051E-01 0.37611135E+02</pdfrwt>
<totfact> 0.88943149E+01</totfact>
</mgrwt>
</event>
<event>
 7    1  0.7037933E-004  0.6924285E+02  0.7546771E-02  0.1445214E+00
         -2   -1    0    0    0  501 -0.00000000000E+00  0.00000000000E+00  0.15582815364E+02  0.15582815364E+02  0.00000000000E+00 0.  1.
          2   -1    0    0  503    0  0.00000000000E+00 -0.00000000000E+00 -0.10831331081E+04  0.10831331081E+04  0.00000000000E+00 0. -1.
         25    2    1    2    0    0 -0.40952111017E+02 -0.32556780810E+02 -0.65414906685E+03  0.66804837635E+03  0.12506243283E+03 0.  0.
          4    1    3    3  502    0  0.12171841879E+02  0.37381364054E+02 -0.10924342534E+03  0.11610882392E+03  0.12700000000E+01 0.  1.
         -4    1    3    3    0  502 -0.53123952897E+02 -0.69938144864E+02 -0.54490564151E+03  0.55193955242E+03  0.12700000000E+01 0.  1.
          3    1    1    2  503    0  0.51222816572E+02  0.67205668403E+02 -0.29675585525E+03  0.30855212919E+03  0.00000000000E+00 0. -1.
         -3    1    1    2    0  501 -0.10270705555E+02 -0.34648887593E+02 -0.11664537062E+03  0.12211541791E+03  0.00000000000E+00 0.  1.
<mgrwt>
<rscale>  0 0.50023722E+02</rscale>
<asrwt>0</asrwt>
<pdfrwt beam="2">  1        2 0.16663589E+00 0.69242854E+02</pdfrwt>
<pdfrwt beam="1">  1       -2 0.23973558E-02 0.36139076E+02</pdfrwt>
<totfact> 0.11527782E+04</totfact>
</mgrwt>
</event>
<event>
 7    1  0.7037933E-004  0.1365159E+03  0.7546771E-02  0.1345877E+00
          1   -1    0    0  502    0 -0.00000000000E+00  0.00000000000E+00  0.37416677184E+03  0.37416677184E+03  0.00000000000E+00 0. -1.
          2   -1    0    0  503    0  0.00000000000E+00 -0.00000000000E+00 -0.53889460063E+03  0.53889460063E+03  0.00000000000E+00 0. -1.
         25    2    1    2    0    0  0.13242637082E+03 -0.10422942329E+03  0.91436254626E+02  0.22887374648E+03  0.12498834666E+03 0.  0.
          4    1    3    3  501    0  0.12720850213E+02 -0.36094820512E+02 -0.27292228768E+02  0.47022704612E+02  0.12700000000E+01 0. -1.
         -4    1    3    3    0  501  0.11970552061E+03 -0.68134602780E+02  0.11872848339E+03  0.18185104187E+03  0.12700000000E+01 0. -1.
          2    1    1    2  502    0 -0.40013856059E+02  0.62522231210E+01  0.20231846206E+03  0.20633215711E+03  0.00000000000E+00 0. -1.
          1    1    1    2  503    0 -0.92412514761E+02  0.97977200171E+02 -0.45848254547E+03  0.47785546888E+03  0.00000000000E+00 0. -1.
<mgrwt>
<rscale>  0 0.74355963E+02</rscale>
<asrwt>0</asrwt>
<pdfrwt beam="2">  1        2 0.82906862E-01 0.13651593E+03</pdfrwt>
<pdfrwt beam="1">  1        1 0.57564119E-01 0.40499370E+02</pdfrwt>
<totfact> 0.53056727E+02</totfact>
</mgrwt>
</event>
<event>
 7    1  0.7037933E-004  0.1436905E+03  0.7546771E-02  0.1425390E+00
         -1   -1    0    0    0  501 -0.00000000000E+00  0.00000000000E+00  0.19371182416E+02  0.19371182416E+02  0.00000000000E+00 0.  1.
          1   -1    0    0  503    0  0.00000000000E+00 -0.00000000000E+00 -0.18428758800E+04  0.18428758800E+04  0.00000000000E+00 0. -1.
         25    2    1    2    0    0  0.73226181759E+02 -0.12740057544E+03 -0.70438273653E+03  0.73032361353E+03  0.12499824256E+03 0.  0.
          4    1    3    3  502    0  0.10687077261E+03 -0.11092768755E+03 -0.52847556260E+03  0.55046738965E+03  0.12700000000E+01 0.  1.
         -4    1    3    3    0  502 -0.33644590853E+02 -0.16472887898E+02 -0.17590717392E+03  0.17985622387E+03  0.12700000000E+01 0.  1.
          2    1    1    2  503    0  0.12516654293E+02  0.15875053491E+02 -0.31038655504E+03  0.31104420507E+03  0.00000000000E+00 0. -1.
         -2    1    1    2    0  501 -0.85742836051E+02  0.11152552195E+03 -0.80873540599E+03  0.82087924379E+03  0.00000000000E+00 0.  1.
<mgrwt>
<rscale>  0 0.53896550E+02</rscale>
<asrwt>0</asrwt>
<pdfrwt beam="2">  1        1 0.28351927E+00 0.20215933E+02</pdfrwt>
<pdfrwt beam="1">  1       -1 0.29801829E-02 0.14369053E+03</pdfrwt>
<totfact> 0.20872378E+03</totfact>
</mgrwt>
</event>
<event>
 7    1  0.7037933E-004  0.1019206E+03  0.7546771E-02  0.1317014E+00
          2   -1    0    0  503    0  0.00000000000E+00  0.00000000000E+00  0.19324392288E+03  0.19324392288E+03  0.00000000000E+00 0. -1.
          1   -1    0    0  502    0 -0.00000000000E+00 -0.00000000000E+00 -0.39598634376E+03  0.39598634376E+03  0.00000000000E+00 0. -1.
         25    2    1    2    0    0  0.92220582072E+02 -0.58229302062E+02 -0.23236357851E+02  0.16750711000E+03  0.12499366463E+03 0.  0.
          4    1    3    3  501    0  0.10015231516E+03 -0.28496922415E+02 -0.59495877909E+02  0.11993303634E+03  0.12700000000E+01 0. -1.
         -4    1    3    3    0  501 -0.79317330859E+01 -0.29732379647E+02  0.36259520058E+02  0.47574073654E+02  0.12700000000E+01 0. -1.
          2    1    1    2  502    0 -0.10312035926E+03 -0.10803514167E+02 -0.28041818078E+03  0.29897304314E+03  0.00000000000E+00 0. -1.
          1    1    1    2  503    0  0.10899777192E+02  0.69032816229E+02  0.10091211774E+03  0.12275011351E+03  0.00000000000E+00 0. -1.
<mgrwt>
<rscale>  0 0.84398033E+02</rscale>
<asrwt>0</asrwt>
<pdfrwt beam="1">  1        2 0.29729834E-01 0.69888017E+02</pdfrwt>
<pdfrwt beam="2">  1        1 0.60920976E-01 0.10192059E+03</pdfrwt>
<totfact> 0.14529851E+03</totfact>
</mgrwt>
</event>
<event>
 7    1  0.7037933E-004  0.6623288E+02  0.7546771E-02  0.1493871E+00
         -2   -1    0    0    0  501 -0.00000000000E+00  0.00000000000E+00  0.54630700791E+02  0.54630700791E+02  0.00000000000E+00 0.  1.
          2   -1    0    0  503    0  0.00000000000E+00 -0.00000000000E+00 -0.84852589440E+03  0.84852589440E+03  0.00000000000E+00 0. -1.
         25    2    1    2    0    0  0.34967855304E+02  0.23472566762E+02 -0.36364388270E+03  0.38682719604E+03  0.12499877549E+03 0.  0.
          4    1    3    3  502    0 -0.20499187224E+01 -0.39635839716E+02 -0.45565846622E+02  0.60440559520E+02  0.12700000000E+01 0.  1.
         -4    1    3    3    0  502  0.37017774026E+02  0.63108406478E+02 -0.31807803608E+03  0.32638663652E+03  0.12700000000E+01 0.  1.
          1    1    1    2  503    0  0.25596646219E+02  0.74365063436E+01 -0.44578551683E+03  0.44658170243E+03  0.00000000000E+00 0. -1.
         -1    1    1    2    0  501 -0.60564501523E+02 -0.30909073106E+02  0.15534205923E+02  0.69747696727E+02  0.00000000000E+00 0.  1.
<mgrwt>
<rscale>  0 0.42017123E+02</rscale>
<asrwt>0</asrwt>
<pdfrwt beam="2">  1        2 0.13054243E+00 0.26655017E+02</pdfrwt>
<pdfrwt beam="1">  1       -2 0.84047240E-02 0.66232885E+02</pdfrwt>
<totfact> 0.28648325E+03</totfact>
</mgrwt>
</event>
<event>
 7    1  0.7037933E-004  0.1309344E+03  0.7546771E-02  0.1373834E+00
          2   -1    0    0  503    0  0.00000000000E+00  0.00000000000E+00  0.27284165650E+03  0.27284165650E+03  0.00000000000E+00 0. -1.
          1   -1    0    0  502    0 -0.00000000000E+00 -0.00000000000E+00 -0.96242712861E+03  0.96242712861E+03  0.00000000000E+00 0. -1.
         25    2    1    2    0    0  0.81593491524E+02 -0.97199301121E+02 -0.20756590607E+02  0.17933651992E+03  0.12500219729E+03 0.  0.
          4    1    3    3  501    0  0.95558475443E+02 -0.11874435537E+03 -0.17856131668E+02  0.15346692966E+03  0.12700000000E+01 0. -1.
         -4    1    3    3    0  501 -0.13964983920E+02  0.21545054246E+02 -0.29004589395E+01  0.25869590264E+02  0.12700000000E+01 0. -1.
          2    1    1    2  502    0 -0.56168627831E+02  0.11883154039E+03 -0.85588611045E+03  0.86591967515E+03  0.00000000000E+00 0. -1.
          1    1    1    2  503    0 -0.25424863692E+02 -0.21632239271E+02  0.18705722896E+03  0.19001259004E+03  0.00000000000E+00 0. -1.
<mgrwt>
<rscale>  0 0.66112715E+02</rscale>
<asrwt>0</asrwt>
<pdfrwt beam="1">  1        2 0.41975641E-01 0.33382293E+02</pdfrwt>
<pdfrwt beam="2">  1        1 0.14806571E+00 0.13093442E+03</pdfrwt>
<totfact> 0.28834467E+02</totfact>
</mgrwt>
</event>
<event>
 7    1  0.7037933E-004  0.3571567E+02  0.7546771E-02  0.1553199E+00
         -2   -1    0    0    0  501  0.00000000000E+00  0.00000000000E+00  0.44931378430E+03  0.44931378430E+03  0.00000000000E+00 0.  1.
         -1   -1    0    0    0  502 -0.00000000000E+00 -0.00000000000E+00 -0.30075292320E+02  0.30075292320E+02  0.00000000000E+00 0.  1.
         25    2    1    2    0    0 -0.27219486522E+02 -0.20181333879E+02  0.18037707787E+03  0.22205393897E+03  0.12499549955E+03 0.  0.
          4    1    3    3  503    0  0.24939556762E+02  0.38731328589E+02  0.97076621119E+02  0.10745966952E+03  0.12700000000E+01 0. -1.
         -4    1    3    3    0  503 -0.52159043284E+02 -0.58912662469E+02  0.83300456756E+02  0.11459426945E+03  0.12700000000E+01 0. -1.
         -2    1    1    2    0  502  0.28792842012E+02 -0.16732161978E+02  0.28734811511E+02  0.43985024590E+02  0.00000000000E+00 0.  1.
         -1    1    1    2    0  501 -0.15733554902E+01  0.36913495857E+02  0.21012660260E+03  0.21335011306E+03  0.00000000000E+00 0.  1.
<mgrwt>
<rscale>  0 0.34487489E+02</rscale>
<asrwt>0</asrwt>
<pdfrwt beam="1">  1       -2 0.69125193E-01 0.35715665E+02</pdfrwt>
<pdfrwt beam="2">  1       -1 0.46269684E-02 0.33301546E+02</pdfrwt>
<totfact> 0.23662828E+03</totfact>
</mgrwt>
</event>
<event>
 7    1  0.7037933E-004  0.8820252E+02  0.7546771E-02  0.1399969E+00
          2   -1    0    0  503    0  0.00000000000E+00  0.00000000000E+00  0.27707732522E+04  0.27707732522E+04  0.00000000000E+00 0. -1.
          1   -1    0    0  502    0 -0.00000000000E+00 -0.00000000000E+00 -0.68204444332E+02  0.68204444332E+02  0.00000000000E+00 0. -1.
         25    2    1    2    0    0  0.47562978898E+02 -0.90613037529E+02  0.21659572500E+03  0.27020758600E+03  0.12500188763E+03 0.  0.
          4    1    3    3  501    0  0.81408736333E+02 -0.59268318003E+02  0.88551230710E+02  0.13410089198E+03  0.12700000000E+01 0. -1.
         -4    1    3    3    0  501 -0.33845757435E+02 -0.31344719526E+02  0.12804449429E+03  0.13610669402E+03  0.12700000000E+01 0. -1.
          2    1    1    2  502    0  0.20330954419E+02  0.34597612671E+02 -0.30720370229E+02  0.50537942747E+02  0.00000000000E+00 0. -1.
          1    1    1    2  503    0 -0.67893933317E+02  0.56015424858E+02  0.25166934531E+04  0.25182321678E+04  0.00000000000E+00 0. -1.
<mgrwt>
<rscale>  0 0.59493575E+02</rscale>
<asrwt>0</asrwt>
<pdfrwt beam="1">  1        2 0.42627272E+00 0.88202521E+02</pdfrwt>
<pdfrwt beam="2">  1        1 0.10492994E-01 0.40129073E+02</pdfrwt>
<totfact> 0.24131201E+02</totfact>
</mgrwt>
</event>
<event>
 7    1  0.7037933E-004  0.1928783E+03  0.7546771E-02  0.1231458E+00
          1   -1    0    0  502    0 -0.00000000000E+00  0.00000000000E+00  0.49885983615E+03  0.49885983615E+03  0.00000000000E+00 0. -1.
          2   -1    0    0  503    0  0.00000000000E+00 -0.00000000000E+00 -0.66767106609E+03  0.66767106609E+03  0.00000000000E+00 0. -1.
         25    2    1    2    0    0 -0.11364844263E+03  0.93431897385E+02 -0.85889356275E+02  0.21129649751E+03  0.12499496141E+03 0.  0.
          4    1    3    3  501    0 -0.34052758378E+02  0.10456013810E+03 -0.66834003789E+02  0.12868880991E+03  0.12700000000E+01 0. -1.
         -4    1    3    3    0  501 -0.79595684254E+02 -0.11128240713E+02 -0.19055352486E+02  0.82607687606E+02  0.12700000000E+01 0. -1.
          2    1    1    2  502    0  0.19171018124E+03 -0.62221142388E+02  0.40911373175E+03  0.45606831688E+03  0.00000000000E+00 0. -1.
          1    1    1    2  503    0 -0.78061738608E+02 -0.31210754998E+02 -0.49203560542E+03  0.49916608785E+03  0.00000000000E+00 0. -1.
<mgrwt>
<rscale>  0 0.12733915E+03</rscale>
<asrwt>0</asrwt>
<pdfrwt beam="2">  1        2 0.10271863E+00 0.84069889E+02</pdfrwt>
<pdfrwt beam="1">  1        1 0.76747667E-01 0.19287832E+03</pdfrwt>
<totfact> 0.28669186E+02</totfact>
</mgrwt>
</event>
<event>
 7    1  0.7037933E-004  0.7012946E+02  0.7546771E-02  0.1404065E+00
          1   -1    0    0  502    0 -0.00000000000E+00  0.00000000000E+00  0.14828335537E+03  0.14828335537E+03  0.00000000000E+00 0. -1.
          2   -1    0    0  503    0  0.00000000000E+00 -0.00000000000E+00 -0.56014799894E+03  0.56014799894E+03  0.00000000000E+00 0. -1.
         25    2    1    2    0    0  0.17948220439E+02 -0.47359023184E+02 -0.18582669937E+02  0.13614649846E+03  0.12500215089E+03 0.  0.
          4    1    3    3  501    0 -0.67678783083E+01 -0.75984213497E+02 -0.46295968797E+02  0.89243120208E+02  0.12700000000E+01 0. -1.
         -4    1    3    3    0  501  0.24716098748E+02  0.28625190313E+02  0.27713298860E+02  0.46903378252E+02  0.12700000000E+01 0. -1.
          2    1    1    2  502    0 -0.45041722801E+02 -0.18948300823E+02  0.79929409250E+02  0.93683004649E+02  0.00000000000E+00 0. -1.
          1    1    1    2  503    0  0.27093502362E+02  0.66307324007E+02 -0.47321138288E+03  0.47860185120E+03  0.00000000000E+00 0. -1.
<mgrwt>
<rscale>  0 0.58539566E+02</rscale>
<asrwt>0</asrwt>
<pdfrwt beam="2">  1        2 0.86176616E-01 0.70129459E+02</pdfrwt>
<pdfrwt beam="1">  1        1 0.22812824E-01 0.48865068E+02</pdfrwt>
<totfact> 0.15607835E+03</totfact>
</mgrwt>
</event>
<event>
 7    1  0.7037933E-004  0.1071386E+03  0.7546771E-02  0.1351112E+00
          1   -1    0    0  502    0 -0.00000000000E+00  0.00000000000E+00  0.45365973953E+03  0.45365973953E+03  0.00000000000E+00 0. -1.
          2   -1    0    0  503    0  0.00000000000E+00 -0.00000000000E+00 -0.12755275906E+04  0.12755275906E+04  0.00000000000E+00 0. -1.
         25    2    1    2    0    0 -0.10541514605E+02  0.15151843783E+03  0.44528594782E+02  0.20168149386E+03  0.12499467460E+03 0.  0.
          4    1    3    3  501    0  0.46210342414E+02  0.15403822762E+02  0.17332305594E+02  0.51717455650E+02  0.12700000000E+01 0.  1.
         -4    1    3    3    0  501 -0.56751857019E+02  0.13611461507E+03  0.27196289189E+02  0.14996403821E+03  0.12700000000E+01 0.  1.
          2    1    1    2  502    0  0.51073464416E+01 -0.10247316009E+03  0.32206886505E+03  0.33801654894E+03  0.00000000000E+00 0. -1.
          1    1    1    2  503    0  0.54341681633E+01 -0.49045277743E+02 -0.11884653109E+04  0.11894892873E+04  0.00000000000E+00 0. -1.
<mgrwt>
<rscale>  0 0.72710355E+02</rscale>
<asrwt>0</asrwt>
<pdfrwt beam="2">  1        2 0.19623501E+00 0.49345410E+02</pdfrwt>
<pdfrwt beam="1">  1        1 0.69793807E-01 0.10713855E+03</pdfrwt>
<totfact> 0.14579974E+02</totfact>
</mgrwt>
</event>
<event>
 7    1  0.7037933E-004  0.1352639E+03  0.7546771E-02  0.1355083E+00
          1   -1    0    0  502    0 -0.00000000000E+00  0.00000000000E+00  0.22386335314E+03  0.22386335314E+03  0.00000000000E+00 0. -1.
          2   -1    0    0  503    0  0.00000000000E+00 -0.00000000000E+00 -0.10441422164E+04  0.10441422164E+04  0.00000000000E+00 0. -1.
         25    2    1    2    0    0 -0.16945319564E+02  0.16907216785E+03 -0.96336679020E+02  0.23189861132E+03  0.12499467353E+03 0.  0.
          4    1    3    3  501    0 -0.26726237622E+02  0.87045866195E+02  0.15992485959E+02  0.92458894143E+02  0.12700000000E+01 0.  1.
         -4    1    3    3    0  501  0.97809180579E+01  0.82026301659E+02 -0.11232916498E+03  0.13943971718E+03  0.12700000000E+01 0.  1.
          2    1    1    2  502    0 -0.20730078554E+01 -0.37731919583E+02  0.14870245505E+03  0.15342886057E+03  0.00000000000E+00 0. -1.
          1    1    1    2  503    0  0.19018327419E+02 -0.13134024827E+03 -0.87264463931E+03  0.88267809767E+03  0.00000000000E+00 0. -1.
<mgrwt>
<rscale>  0 0.71494512E+02</rscale>
<asrwt>0</asrwt>
<pdfrwt beam="2">  1        2 0.16063726E+00 0.13526395E+03</pdfrwt>
<pdfrwt beam="1">  1        1 0.34440516E-01 0.37788823E+02</pdfrwt>
<totfact> 0.43205625E+02</totfact>
</mgrwt>
</event>
<event>
 7    1  0.7037933E-004  0.1137820E+03  0.7546771E-02  0.1422023E+00
          1   -1    0    0  503    0  0.00000000000E+00  0.00000000000E+00  0.17445353814E+04  0.17445353814E+04  0.00000000000E+00 0. -1.
         -1   -1    0    0    0  501 -0.00000000000E+00 -0.00000000000E+00 -0.12184577070E+03  0.12184577070E+03  0.00000000000E+00 0.  1.
         25    2    1    2    0    0  0.81723603846E+02 -0.11011612794E+03  0.33195931289E+03  0.38029880880E+03  0.12500355798E+03 0.  0.
          4    1    3    3  502    0  0.32066746820E+02 -0.11062138069E+03  0.29968934894E+03  0.32106180851E+03  0.12700000000E+01 0. -1.
         -4    1    3    3    0  502  0.49656857027E+02  0.50525275156E+00  0.32269963945E+02  0.59237000288E+02  0.12700000000E+01 0. -1.
          2    1    1    2  503    0 -0.70780248036E+02  0.86315477333E+02  0.13843620597E+04  0.13888551103E+04  0.00000000000E+00 0. -1.
         -2    1    1    2    0  501 -0.10943355811E+02  0.23800650605E+02 -0.93631761869E+02  0.97227232997E+02  0.00000000000E+00 0.  1.
<mgrwt>
<rscale>  0 0.54595116E+02</rscale>
<asrwt>0</asrwt>
<pdfrwt beam="1">  1        1 0.26839004E+00 0.11378195E+03</pdfrwt>
<pdfrwt beam="2">  1       -1 0.18745504E-01 0.26195954E+02</pdfrwt>
<totfact> 0.11049009E+02</totfact>
</mgrwt>
</event>
<event>
 7    1  0.7037933E-004  0.1055105E+03  0.7546771E-02  0.1397964E+00
          1   -1    0    0  503    0  0.00000000000E+00  0.00000000000E+00  0.55374704295E+03  0.55374704295E+03  0.00000000000E+00 0. -1.
         -1   -1    0    0    0  501 -0.00000000000E+00 -0.00000000000E+00 -0.18795195818E+04  0.18795195818E+04  0.00000000000E+00 0.  1.
         25    2    1    2    0    0  0.99399102547E+02 -0.78892083929E+02  0.35720396971E+03  0.39914832358E+03  0.12498226172E+03 0.  0.
          4    1    3    3  502    0  0.12880632440E+03 -0.72955053271E+02  0.29338478923E+03  0.32861794908E+03  0.12700000000E+01 0.  1.
         -4    1    3    3    0  502 -0.29407221856E+02 -0.59370306578E+01  0.63819180481E+02  0.70530374504E+02  0.12700000000E+01 0.  1.
          2    1    1    2  503    0 -0.33880440960E+02 -0.37195373795E+01  0.17240568773E+03  0.17574254010E+03  0.00000000000E+00 0. -1.
         -2    1    1    2    0  501 -0.65518661587E+02  0.82611621308E+02 -0.18553821962E+04  0.18583757610E+04  0.00000000000E+00 0.  1.
<mgrwt>
<rscale>  0 0.59968502E+02</rscale>
<asrwt>0</asrwt>
<pdfrwt beam="1">  1        1 0.85191854E-01 0.34084003E+02</pdfrwt>
<pdfrwt beam="2">  1       -1 0.28915685E+00 0.10551053E+03</pdfrwt>
<totfact> 0.21352454E+00</totfact>
</mgrwt>
</event>
<event>
 7    1  0.7037933E-004  0.1389170E+03  0.7546771E-02  0.1348598E+00
          1   -1    0    0  502    0 -0.00000000000E+00  0.00000000000E+00  0.29436410818E+03  0.29436410818E+03  0.00000000000E+00 0. -1.
          2   -1    0    0  503    0  0.00000000000E+00 -0.00000000000E+00 -0.82676895885E+03  0.82676895885E+03  0.00000000000E+00 0. -1.
         25    2    1    2    0    0 -0.82253468746E+02 -0.14446626870E+03  0.13757723206E+03  0.24937607474E+03  0.12499918383E+03 0.  0.
          4    1    3    3  501    0 -0.74798366019E+02 -0.13227292742E+02  0.59349960140E+02  0.96404291922E+02  0.12700000000E+01 0.  1.
         -4    1    3    3    0  501 -0.74551027278E+01 -0.13123897595E+03  0.78227271920E+02  0.15297178282E+03  0.12700000000E+01 0.  1.
          2    1    1    2  502    0  0.36172780901E+02  0.14260443675E+02  0.90675968909E+02  0.98660841621E+02  0.00000000000E+00 0. -1.
          3    1    1    2  503    0  0.46080687846E+02  0.13020582502E+03 -0.76065805164E+03  0.77309615067E+03  0.00000000000E+00 0. -1.
<mgrwt>
<rscale>  0 0.73494259E+02</rscale>
<asrwt>0</asrwt>
<pdfrwt beam="2">  1        2 0.12719523E+00 0.13891697E+03</pdfrwt>
<pdfrwt beam="1">  1        1 0.45286786E-01 0.38882262E+02</pdfrwt>
<totfact> 0.42614534E+02</totfact>
</mgrwt>
</event>
<event>
 7    1  0.7037933E-004  0.1077029E+03  0.7546771E-02  0.1349911E+00
         -1   -1    0    0    0  501 -0.00000000000E+00  0.00000000000E+00  0.31344670378E+02  0.31344670378E+02  0.00000000000E+00 0.  1.
          1   -1    0    0  503    0  0.00000000000E+00 -0.00000000000E+00 -0.14238336233E+04  0.14238336233E+04  0.00000000000E+00 0. -1.
         25    2    1    2    0    0  0.80305415022E+01  0.72898907885E+01 -0.82105455166E+03  0.83058596268E+03  0.12499933003E+03 0.  0.
          4    1    3    3  502    0 -0.25204353068E+02  0.55135708461E+02 -0.28534215698E+03  0.29171384131E+03  0.12700000000E+01 0.  1.
         -4    1    3    3    0  502  0.33234894570E+02 -0.47845817673E+02 -0.53571239468E+03  0.53887212138E+03  0.12700000000E+01 0.  1.
          2    1    1    2  503    0  0.55017681583E+01 -0.11413923171E+03 -0.44035712332E+03  0.45494222680E+03  0.00000000000E+00 0. -1.
         -2    1    1    2    0  501 -0.13532309661E+02  0.10684934092E+03 -0.13107727797E+03  0.16965010422E+03  0.00000000000E+00 0.  1.
<mgrwt>
<rscale>  0 0.73083397E+02</rscale>
<asrwt>0</asrwt>
<pdfrwt beam="2">  1        1 0.21905134E+00 0.49591842E+02</pdfrwt>
<pdfrwt beam="1">  1       -1 0.48222568E-02 0.10770286E+03</pdfrwt>
<totfact> 0.16128800E+03</totfact>
</mgrwt>
</event>
<event>
 7    1  0.7037933E-004  0.7145649E+02  0.7546771E-02  0.1389415E+00
          1   -1    0    0  502    0 -0.00000000000E+00  0.00000000000E+00  0.42244414267E+03  0.42244414267E+03  0.00000000000E+00 0. -1.
          2   -1    0    0  503    0  0.00000000000E+00 -0.00000000000E+00 -0.83855279428E+03  0.83855279428E+03  0.00000000000E+00 0. -1.
         25    2    1    2    0    0  0.89079728340E+02  0.50466960892E+02 -0.47098224718E+03  0.49792670854E+03  0.12499847111E+03 0.  0.
          4    1    3    3  501    0  0.97346775621E+02  0.76611404614E+02 -0.43712051808E+03  0.45433650774E+03  0.12700000000E+01 0.  1.
         -4    1    3    3    0  501 -0.82670472811E+01 -0.26144443722E+02 -0.33861729104E+02  0.43590200805E+02  0.12700000000E+01 0.  1.
          2    1    1    2  502    0 -0.53592038577E+02  0.56228361861E+01  0.40405711108E+03  0.40763448321E+03  0.00000000000E+00 0. -1.
          1    1    1    2  503    0 -0.35487689763E+02 -0.56089797078E+02 -0.34918351551E+03  0.35543574520E+03  0.00000000000E+00 0. -1.
<mgrwt>
<rscale>  0 0.62052552E+02</rscale>
<asrwt>0</asrwt>
<pdfrwt beam="2">  1        2 0.12900812E+00 0.71456495E+02</pdfrwt>
<pdfrwt beam="1">  1        1 0.64991408E-01 0.53886203E+02</pdfrwt>
<totfact> 0.27849782E+02</totfact>
</mgrwt>
</event>
<event>
 7    1  0.7037933E-004  0.5383940E+02  0.7546771E-02  0.1431267E+00
          1   -1    0    0  502    0 -0.00000000000E+00  0.00000000000E+00  0.11367805276E+04  0.11367805276E+04  0.00000000000E+00 0. -1.
          2   -1    0    0  503    0  0.00000000000E+00 -0.00000000000E+00 -0.11424340031E+03  0.11424340031E+03  0.00000000000E+00 0. -1.
         25    2    1    2    0    0 -0.44079926142E+02 -0.14671858465E+02  0.37757228367E+03  0.40043099320E+03  0.12500339033E+03 0.  0.
          4    1    3    3  501    0  0.23820335701E+02 -0.45195007281E+02  0.91245470800E+02  0.10458176666E+03  0.12700000000E+01 0.  1.
         -4    1    3    3    0  501 -0.67900261843E+02  0.30523148815E+02  0.28632681287E+03  0.29584922654E+03  0.12700000000E+01 0.  1.
          2    1    1    2  502    0  0.39668429042E+01  0.51444822300E+02  0.73961593711E+03  0.74141354183E+03  0.00000000000E+00 0. -1.
          1    1    1    2  503    0  0.40113083238E+02 -0.36772963835E+02 -0.94651093531E+02  0.10917939285E+03  0.00000000000E+00 0. -1.
<mgrwt>
<rscale>  0 0.52706547E+02</rscale>
<asrwt>0</asrwt>
<pdfrwt beam="2">  1        2 0.17575908E-01 0.53839396E+02</pdfrwt>
<pdfrwt beam="1">  1        1 0.17488930E+00 0.51597535E+02</pdfrwt>
<totfact> 0.58971201E+02</totfact>
</mgrwt>
</event>
<event>
 7    1  0.7037933E-004  0.9062992E+02  0.7546771E-02  0.1422048E+00
          2   -1    0    0  503    0  0.00000000000E+00  0.00000000000E+00  0.13859263243E+04  0.13859263243E+04  0.00000000000E+00 0. -1.
          1   -1    0    0  502    0 -0.00000000000E+00 -0.00000000000E+00 -0.70963278338E+02  0.70963278338E+02  0.00000000000E+00 0. -1.
         25    2    1    2    0    0  0.30286295819E+02  0.10267655857E+03  0.63635693426E+02  0.17644609999E+03  0.12499595725E+03 0.  0.
          4    1    3    3  501    0 -0.14876573117E+02  0.10916766105E+03  0.69732592604E+02  0.13039608129E+03  0.12700000000E+01 0. -1.
         -4    1    3    3    0  501  0.45162868936E+02 -0.64911024779E+01 -0.60968991781E+01  0.46050018692E+02  0.12700000000E+01 0. -1.
          2    1    1    2  502    0 -0.32258872576E+02 -0.69853994659E+02  0.88989956907E+02  0.11764109767E+03  0.00000000000E+00 0. -1.
          1    1    1    2  503    0  0.19725767572E+01 -0.32822563908E+02  0.11623373956E+04  0.11628024050E+04  0.00000000000E+00 0. -1.
<mgrwt>
<rscale>  0 0.54590051E+02</rscale>
<asrwt>0</asrwt>
<pdfrwt beam="1">  1        2 0.21321941E+00 0.32881785E+02</pdfrwt>
<pdfrwt beam="2">  1        1 0.10917428E-01 0.90629924E+02</pdfrwt>
<totfact> 0.13457023E+03</totfact>
</mgrwt>
</event>
<event>
 7    1  0.7037933E-004  0.9380288E+02  0.7546771E-02  0.1368533E+00
          1   -1    0    0  502    0 -0.00000000000E+00  0.00000000000E+00  0.60592782479E+03  0.60592782479E+03  0.00000000000E+00 0. -1.
          2   -1    0    0  503    0  0.00000000000E+00 -0.00000000000E+00 -0.11086321825E+04  0.11086321825E+04  0.00000000000E+00 0. -1.
         25    2    1    2    0    0  0.54143957890E+01  0.11314759248E+03 -0.33966966400E+03  0.37925293115E+03  0.12500244708E+03 0.  0.
          4    1    3    3  501    0  0.22537328339E+02  0.11244124844E+03 -0.15006215923E+03  0.18886828757E+03  0.12700000000E+01 0. -1.
         -4    1    3    3    0  501 -0.17122932550E+02  0.70634403682E+00 -0.18960750478E+03  0.19038464357E+03  0.12700000000E+01 0. -1.
          2    1    1    2  502    0  0.35479427051E+02 -0.86732848571E+02  0.58159078628E+03  0.58909185994E+03  0.00000000000E+00 0. -1.
          3    1    1    2  503    0 -0.40893822840E+02 -0.26414743906E+02 -0.74462547996E+03  0.74621521617E+03  0.00000000000E+00 0. -1.
<mgrwt>
<rscale>  0 0.67576728E+02</rscale>
<asrwt>0</asrwt>
<pdfrwt beam="2">  1        2 0.17055880E+00 0.48683092E+02</pdfrwt>
<pdfrwt beam="1">  1        1 0.93219665E-01 0.93802879E+02</pdfrwt>
<totfact> 0.12295363E+02</totfact>
</mgrwt>
</event>
<event>
 7    1  0.7037933E-004  0.6480494E+02  0.7546771E-02  0.1451897E+00
          2   -1    0    0  503    0  0.00000000000E+00  0.00000000000E+00  0.37907375774E+03  0.37907375774E+03  0.00000000000E+00 0. -1.
          1   -1    0    0  502    0 -0.00000000000E+00 -0.00000000000E+00 -0.11428608241E+04  0.11428608241E+04  0.00000000000E+00 0. -1.
         25    2    1    2    0    0  0.46814744692E+02 -0.42453538016E+02 -0.40597366655E+03  0.42945123043E+03  0.12497927098E+03 0.  0.
          4    1    3    3  501    0  0.27660390821E+00  0.38220044585E+02 -0.19673667216E+03  0.20041900955E+03  0.12700000000E+01 0. -1.
         -4    1    3    3    0  501  0.46538140784E+02 -0.80673582602E+02 -0.20923699439E+03  0.22903222087E+03  0.12700000000E+01 0. -1.
          2    1    1    2  502    0 -0.30592313251E+02 -0.20372741040E+02 -0.72181168567E+03  0.72274687670E+03  0.00000000000E+00 0. -1.
          1    1    1    2  503    0 -0.16222431441E+02  0.62826279057E+02  0.36399828586E+03  0.36973647471E+03  0.00000000000E+00 0. -1.
<mgrwt>
<rscale>  0 0.48804842E+02</rscale>
<asrwt>0</asrwt>
<pdfrwt beam="1">  1        2 0.58319040E-01 0.64804935E+02</pdfrwt>
<pdfrwt beam="2">  1        1 0.17582474E+00 0.36755111E+02</pdfrwt>
<totfact> 0.16982589E+02</totfact>
</mgrwt>
</event>
<event>
 7    1  0.7037933E-004  0.8891658E+02  0.7546771E-02  0.1432304E+00
          1   -1    0    0  502    0 -0.00000000000E+00  0.00000000000E+00  0.34352411216E+03  0.34352411216E+03  0.00000000000E+00 0. -1.
          2   -1    0    0  503    0  0.00000000000E+00 -0.00000000000E+00 -0.88880442333E+03  0.88880442333E+03  0.00000000000E+00 0. -1.
         25    2    1    2    0    0  0.56807074289E+02  0.90184991043E+02 -0.16809294491E+02  0.16512422669E+03  0.12499232600E+03 0.  0.
          4    1    3    3  501    0  0.87897271375E+02  0.30648916471E+02 -0.27565513569E+02  0.97091486931E+02  0.12700000000E+01 0.  1.
         -4    1    3    3    0  501 -0.31090197087E+02  0.59536074572E+02  0.10756219078E+02  0.68032739760E+02  0.12700000000E+01 0.  1.
          2    1    1    2  502    0 -0.26498883027E+02 -0.83679399642E+02  0.26190424039E+03  0.27622140370E+03  0.00000000000E+00 0. -1.
          1    1    1    2  503    0 -0.30308191262E+02 -0.65055914013E+01 -0.79037525707E+03  0.79098290510E+03  0.00000000000E+00 0. -1.
<mgrwt>
<rscale>  0 0.52500322E+02</rscale>
<asrwt>0</asrwt>
<pdfrwt beam="2">  1        2 0.13673914E+00 0.30998535E+02</pdfrwt>
<pdfrwt beam="1">  1        1 0.52849864E-01 0.88916584E+02</pdfrwt>
<totfact> 0.34490138E+02</totfact>
</mgrwt>
</event>
<event>
 7    1  0.7037933E-004  0.4888372E+02  0.7546771E-02  0.1536295E+00
          1   -1    0    0  502    0 -0.00000000000E+00  0.00000000000E+00  0.25660504840E+03  0.25660504840E+03  0.00000000000E+00 0. -1.
          2   -1    0    0  503    0  0.00000000000E+00 -0.00000000000E+00 -0.63380496597E+02  0.63380496597E+02  0.00000000000E+00 0. -1.
         25    2    1    2    0    0 -0.22879057209E+02  0.29465724194E+02  0.17881519949E+03  0.22133704041E+03  0.12499411878E+03 0.  0.
          4    1    3    3  501    0 -0.58297320297E+01 -0.42257658091E+02  0.21913204589E+02  0.47973918729E+02  0.12700000000E+01 0.  1.
         -4    1    3    3    0  501 -0.17049325179E+02  0.71723382285E+02  0.15690199490E+03  0.17336312168E+03  0.12700000000E+01 0.  1.
          2    1    1    2  502    0  0.49708767103E+02 -0.33571991804E+02  0.30294432328E+02  0.67199648739E+02  0.00000000000E+00 0. -1.
          1    1    1    2  503    0 -0.26829709894E+02  0.41062676100E+01 -0.15885080017E+02  0.31448855843E+02  0.00000000000E+00 0. -1.
<mgrwt>
<rscale>  0 0.36425374E+02</rscale>
<asrwt>0</asrwt>
<pdfrwt beam="2">  1        2 0.97508458E-02 0.27142122E+02</pdfrwt>
<pdfrwt beam="1">  1        1 0.39477699E-01 0.48883719E+02</pdfrwt>
<totfact> 0.80455566E+03</totfact>
</mgrwt>
</event>
<event>
 7    1  0.7037933E-004  0.5991145E+02  0.7546771E-02  0.1434245E+00
          1   -1    0    0  502    0 -0.00000000000E+00  0.00000000000E+00  0.20070107398E+04  0.20070107398E+04  0.00000000000E+00 0. -1.
          2   -1    0    0  503    0  0.00000000000E+00 -0.00000000000E+00 -0.52628446209E+03  0.52628446209E+03  0.00000000000E+00 0. -1.
         25    2    1    2    0    0  0.88575966620E+02  0.47301636649E+01  0.16477096196E+03  0.22503406775E+03  0.12499114141E+03 0.  0.
          4    1    3    3  501    0 -0.39183928102E+01  0.15046175188E+02  0.12131310389E+03  0.12231199150E+03  0.12700000000E+01 0. -1.
         -4    1    3    3    0  501  0.92494359431E+02 -0.10316011523E+02  0.43457858073E+02  0.10272207625E+03  0.12700000000E+01 0. -1.
          2    1    1    2  502    0 -0.51239802280E+02 -0.30449041941E+02  0.18105810977E+04  0.18115619153E+04  0.00000000000E+00 0. -1.
          1    1    1    2  503    0 -0.37336164341E+02  0.25718878276E+02 -0.49462578195E+03  0.49669921888E+03  0.00000000000E+00 0. -1.
<mgrwt>
<rscale>  0 0.52117268E+02</rscale>
<asrwt>0</asrwt>
<pdfrwt beam="2">  1        2 0.80966841E-01 0.45337069E+02</pdfrwt>
<pdfrwt beam="1">  1        1 0.30877088E+00 0.59911450E+02</pdfrwt>
<totfact> 0.33230127E+01</totfact>
</mgrwt>
</event>
<event>
 7    1  0.7037933E-004  0.5021846E+02  0.7546771E-02  0.1478956E+00
          2   -1    0    0  503    0  0.00000000000E+00  0.00000000000E+00  0.17287334119E+04  0.17287334119E+04  0.00000000000E+00 0. -1.
          1   -1    0    0  502    0 -0.00000000000E+00 -0.00000000000E+00 -0.27913726901E+03  0.27913726901E+03  0.00000000000E+00 0. -1.
         25    2    1    2    0    0 -0.15367715402E+02 -0.14384063788E+02  0.28345886902E+03  0.31051326758E+03  0.12500596366E+03 0.  0.
          4    1    3    3  501    0 -0.47006144680E+02 -0.21136770421E+02  0.27093968431E+03  0.27580113512E+03  0.12700000000E+01 0.  1.
         -4    1    3    3    0  501  0.31638429278E+02  0.67527066337E+01  0.12519184710E+02  0.34712132459E+02  0.12700000000E+01 0.  1.
          2    1    1    2  502    0 -0.36040918703E+02  0.14966276215E+02 -0.26371214388E+03  0.26658400567E+03  0.00000000000E+00 0. -1.
          1    1    1    2  503    0  0.51408634105E+02 -0.58221242778E+00  0.14298494177E+04  0.14307734077E+04  0.00000000000E+00 0. -1.
<mgrwt>
<rscale>  0 0.44269251E+02</rscale>
<asrwt>0</asrwt>
<pdfrwt beam="1">  1        2 0.26595898E+00 0.50218455E+02</pdfrwt>
<pdfrwt beam="2">  1        1 0.42944196E-01 0.39024829E+02</pdfrwt>
<totfact> 0.15742442E+02</totfact>
</mgrwt>
</event>
<event>
 7    1  0.7037933E-004  0.1937821E+03  0.7546771E-02  0.1370780E+00
          1   -1    0    0  503    0  0.00000000000E+00  0.00000000000E+00  0.27856731230E+04  0.27856731230E+04  0.00000000000E+00 0. -1.
         -1   -1    0    0    0  501 -0.00000000000E+00 -0.00000000000E+00 -0.42413113320E+02  0.42413113320E+02  0.00000000000E+00 0.  1.
         25    2    1    2    0    0  0.14606179822E+03  0.15422353300E+03  0.21356856483E+04  0.21498594810E+04  0.12499461080E+03 0.  0.
          4    1    3    3  502    0  0.11413587113E+03  0.93869064217E+02  0.18592317700E+04  0.18650959187E+04  0.12700000000E+01 0. -1.
         -4    1    3    3    0  502  0.31925927091E+02  0.60354468781E+02  0.27645387828E+03  0.28476356234E+03  0.12700000000E+01 0. -1.
          2    1    1    2  503    0 -0.76618527415E+01 -0.21825431345E+02  0.38033338811E+03  0.38103613943E+03  0.00000000000E+00 0. -1.
         -2    1    1    2    0  501 -0.13839994547E+03 -0.13239810165E+03  0.22724097325E+03  0.29719061585E+03  0.00000000000E+00 0.  1.
<mgrwt>
<rscale>  0 0.66950857E+02</rscale>
<asrwt>0</asrwt>
<pdfrwt beam="1">  1        1 0.42856495E+00 0.23131222E+02</pdfrwt>
<pdfrwt beam="2">  1       -1 0.65250965E-02 0.19378212E+03</pdfrwt>
<totfact> 0.17756144E+02</totfact>
</mgrwt>
</event>
<event>
 7    1  0.7037933E-004  0.1051706E+03  0.7546771E-02  0.1392589E+00
          1   -1    0    0  502    0 -0.00000000000E+00  0.00000000000E+00  0.85087810487E+02  0.85087810487E+02  0.00000000000E+00 0. -1.
          2   -1    0    0  503    0  0.00000000000E+00 -0.00000000000E+00 -0.12222378632E+04  0.12222378632E+04  0.00000000000E+00 0. -1.
         25    2    1    2    0    0  0.81478042194E+02  0.36551166764E+02 -0.49487654410E+02  0.16137265023E+03  0.12496977695E+03 0.  0.
          4    1    3    3  501    0  0.86887056217E+02 -0.15264507753E+02  0.18138589248E+01  0.88245502544E+02  0.12700000000E+01 0. -1.
         -4    1    3    3    0  501 -0.54090140233E+01  0.51815674517E+02 -0.51301513335E+02  0.73127147687E+02  0.12700000000E+01 0. -1.
          2    1    1    2  502    0  0.24124238162E+02 -0.26303970638E+02  0.14624757208E+02  0.38571508418E+02  0.00000000000E+00 0. -1.
          1    1    1    2  503    0 -0.10560228036E+03 -0.10247196126E+02 -0.11022871555E+04  0.11073815151E+04  0.00000000000E+00 0. -1.
<mgrwt>
<rscale>  0 0.61267345E+02</rscale>
<asrwt>0</asrwt>
<pdfrwt beam="2">  1        2 0.18803659E+00 0.10517057E+03</pdfrwt>
<pdfrwt beam="1">  1        1 0.13090433E-01 0.35691424E+02</pdfrwt>
<totfact> 0.11213978E+03</totfact>
</mgrwt>
</event>
<event>
 7    1  0.7037933E-004  0.6690958E+02  0.7546771E-02  0.1469583E+00
          2   -1    0    0  503    0  0.00000000000E+00  0.00000000000E+00  0.86922375448E+03  0.86922375448E+03  0.00000000000E+00 0. -1.
          1   -1    0    0  502    0 -0.00000000000E+00 -0.00000000000E+00 -0.10411177780E+03  0.10411177780E+03  0.00000000000E+00 0. -1.
         25    2    1    2    0    0 -0.24768311220E+02 -0.29095072302E+02  0.18701545557E+03  0.22817418163E+03  0.12501473541E+03 0.  0.
          4    1    3    3  501    0  0.22071912328E+02  0.40732287014E+02  0.59343564561E+02  0.75296481153E+02  0.12700000000E+01 0. -1.
         -4    1    3    3    0  501 -0.46840223548E+02 -0.69827359315E+02  0.12767189101E+03  0.15287770048E+03  0.12700000000E+01 0. -1.
          2    1    1    2  502    0  0.38010483789E+02  0.57468138988E+02 -0.68880902527E+02  0.97426703780E+02  0.00000000000E+00 0. -1.
          1    1    1    2  503    0 -0.13242172569E+02 -0.28373066686E+02  0.64697742365E+03  0.64773464687E+03  0.00000000000E+00 0. -1.
<mgrwt>
<rscale>  0 0.45771320E+02</rscale>
<asrwt>0</asrwt>
<pdfrwt beam="1">  1        2 0.13372673E+00 0.31311117E+02</pdfrwt>
<pdfrwt beam="2">  1        1 0.16017197E-01 0.66909582E+02</pdfrwt>
<totfact> 0.15276464E+03</totfact>
</mgrwt>
</event>
<event>
 7    1  0.7037933E-004  0.6474402E+02  0.7546771E-02  0.1390092E+00
          1   -1    0    0  502    0 -0.00000000000E+00  0.00000000000E+00  0.43359754191E+03  0.43359754191E+03  0.00000000000E+00 0. -1.
          2   -1    0    0  503    0  0.00000000000E+00 -0.00000000000E+00 -0.59367218868E+03  0.59367218868E+03  0.00000000000E+00 0. -1.
         25    2    1    2    0    0  0.31106672443E+02  0.23612638107E+02  0.78962129571E+01  0.13120067139E+03  0.12500433691E+03 0.  0.
          4    1    3    3  501    0  0.38094848813E+02 -0.42868172476E+02  0.24396764048E+02  0.62335485188E+02  0.12700000000E+01 0. -1.
         -4    1    3    3    0  501 -0.69881763696E+01  0.66480810583E+02 -0.16500551091E+02  0.68865186205E+02  0.12700000000E+01 0. -1.
          2    1    1    2  502    0 -0.61223131822E+02  0.27296069021E+02  0.35929564692E+03  0.36549515613E+03  0.00000000000E+00 0. -1.
          1    1    1    2  503    0  0.30116459378E+02 -0.50908707128E+02 -0.52726650665E+03  0.53057390308E+03  0.00000000000E+00 0. -1.
<mgrwt>
<rscale>  0 0.61883725E+02</rscale>
<asrwt>0</asrwt>
<pdfrwt beam="2">  1        2 0.91334183E-01 0.59149789E+02</pdfrwt>
<pdfrwt beam="1">  1        1 0.66707314E-01 0.64744024E+02</pdfrwt>
<totfact> 0.40317117E+02</totfact>
</mgrwt>
</event>
<event>
 7    1  0.7037933E-004  0.9923758E+02  0.7546771E-02  0.1429710E+00
          2   -1    0    0  503    0  0.00000000000E+00  0.00000000000E+00  0.19426220711E+04  0.19426220711E+04  0.00000000000E+00 0. -1.
          1   -1    0    0  502    0 -0.00000000000E+00 -0.00000000000E+00 -0.17130147359E+02  0.17130147359E+02  0.00000000000E+00 0. -1.
         25    2    1    2    0    0 -0.10357767912E+03 -0.58601123369E+02  0.80920042911E+03  0.82740226049E+03  0.12500695547E+03 0.  0.
          4    1    3    3  501    0 -0.59337953066E+02 -0.92448510986E+02  0.63723620222E+03  0.64663692300E+03  0.12700000000E+01 0.  1.
         -4    1    3    3    0  501 -0.44239726053E+02  0.33847387617E+02  0.17196422688E+03  0.18076533749E+03  0.12700000000E+01 0.  1.
          2    1    1    2  502    0  0.75712472307E+02  0.53516127550E+02  0.26798419098E+03  0.28356988730E+03  0.00000000000E+00 0. -1.
          1    1    1    2  503    0  0.27865206812E+02  0.50849958192E+01  0.84830730367E+03  0.84878007068E+03  0.00000000000E+00 0. -1.
<mgrwt>
<rscale>  0 0.53018315E+02</rscale>
<asrwt>0</asrwt>
<pdfrwt beam="1">  1        2 0.29886476E+00 0.28325376E+02</pdfrwt>
<pdfrwt beam="2">  1        1 0.26354088E-02 0.99237577E+02</pdfrwt>
<totfact> 0.50661717E+03</totfact>
</mgrwt>
</event>
<event>
 7    1  0.7037933E-004  0.1250754E+03  0.7546771E-02  0.1323417E+00
          1   -1    0    0  502    0 -0.00000000000E+00  0.00000000000E+00  0.16494402494E+03  0.16494402494E+03  0.00000000000E+00 0. -1.
          2   -1    0    0  503    0  0.00000000000E+00 -0.00000000000E+00 -0.14093535199E+04  0.14093535199E+04  0.00000000000E+00 0. -1.
         25    2    1    2    0    0  0.99743088186E+00  0.10599658264E+03 -0.30300453422E+03  0.34448983644E+03  0.12500091700E+03 0.  0.
          4    1    3    3  501    0  0.18907439127E+01  0.20109298486E+02  0.80588209424E+01  0.21783394894E+02  0.12700000000E+01 0.  1.
         -4    1    3    3    0  501 -0.89331303088E+00  0.85887284151E+02 -0.31106335517E+03  0.32270644154E+03  0.12700000000E+01 0.  1.
          2    1    1    2  502    0 -0.53924976586E+02 -0.11556115525E+03  0.11518927258E+03  0.17184543119E+03  0.00000000000E+00 0. -1.
          1    1    1    2  503    0  0.52927545704E+02  0.95645726126E+01 -0.10565942333E+04  0.10579622772E+04  0.00000000000E+00 0. -1.
<mgrwt>
<rscale>  0 0.82019255E+02</rscale>
<asrwt>0</asrwt>
<pdfrwt beam="2">  1        2 0.21682362E+00 0.53784813E+02</pdfrwt>
<pdfrwt beam="1">  1        1 0.25376004E-01 0.12507542E+03</pdfrwt>
<totfact> 0.43428048E+02</totfact>
</mgrwt>
</event>
<event>
 7    1  0.7037933E-004  0.2759323E+03  0.7546771E-02  0.1177355E+00
          1   -1    0    0  503    0  0.00000000000E+00  0.00000000000E+00  0.10158151901E+04  0.10158151901E+04  0.00000000000E+00 0. -1.
         -1   -1    0    0    0  501 -0.00000000000E+00 -0.00000000000E+00 -0.29779048693E+03  0.29779048693E+03  0.00000000000E+00 0.  1.
         25    2    1    2    0    0 -0.14662460244E+03 -0.32580231636E+03  0.22591248460E+03  0.44080275430E+03  0.12499877644E+03 0.  0.
          4    1    3    3  502    0  0.15304263320E+02 -0.26555498398E+02  0.47680444534E+02  0.56696143272E+02  0.12700000000E+01 0. -1.
         -4    1    3    3    0  502 -0.16192886576E+03 -0.29924681796E+03  0.17823204007E+03  0.38410661102E+03  0.12700000000E+01 0. -1.
          2    1    1    2  503    0  0.61171759868E+02  0.85734024537E+02  0.59037091544E+03  0.59969169160E+03  0.00000000000E+00 0. -1.
         -2    1    1    2    0  501  0.85452842575E+02  0.24006829182E+03 -0.98258696903E+02  0.27311123111E+03  0.00000000000E+00 0.  1.
<mgrwt>
<rscale>  0 0.17047344E+03</rscale>
<asrwt>0</asrwt>
<pdfrwt beam="1">  1        1 0.15627926E+00 0.10532002E+03</pdfrwt>
<pdfrwt beam="2">  1       -1 0.45813922E-01 0.27593227E+03</pdfrwt>
<totfact> 0.80809815E+01</totfact>
</mgrwt>
</event>
<event>
 7    1  0.7037933E-004  0.6050539E+02  0.7546771E-02  0.1457516E+00
          2   -1    0    0  503    0  0.00000000000E+00  0.00000000000E+00  0.17554342682E+04  0.17554342682E+04  0.00000000000E+00 0. -1.
          1   -1    0    0  502    0 -0.00000000000E+00 -0.00000000000E+00 -0.45397578237E+02  0.45397578237E+02  0.00000000000E+00 0. -1.
         25    2    1    2    0    0  0.44632990040E+02 -0.59449047284E+02  0.14044816274E+03  0.20218330570E+03  0.12500443857E+03 0.  0.
          4    1    3    3  501    0 -0.19198358736E+02 -0.12806284346E+02 -0.15159141426E+02  0.27640375643E+02  0.12700000000E+01 0.  1.
         -4    1    3    3    0  501  0.63831348776E+02 -0.46642762938E+02  0.15560730417E+03  0.17454293005E+03  0.12700000000E+01 0.  1.
          2    1    1    2  502    0  0.11110903146E+02  0.36110168907E+02  0.11647068135E+02  0.39535435540E+02  0.00000000000E+00 0. -1.
          1    1    1    2  503    0 -0.55743893186E+02  0.23338878377E+02  0.15579414591E+04  0.15591131052E+04  0.00000000000E+00 0. -1.
<mgrwt>
<rscale>  0 0.47811589E+02</rscale>
<asrwt>0</asrwt>
<pdfrwt beam="1">  1        2 0.27006676E+00 0.60505388E+02</pdfrwt>
<pdfrwt beam="2">  1        1 0.69842442E-02 0.37780901E+02</pdfrwt>
<totfact> 0.13986083E+03</totfact>
</mgrwt>
</event>
<event>
 7    1  0.7037933E-004  0.6154609E+02  0.7546771E-02  0.1479680E+00
          2   -1    0    0  503    0  0.00000000000E+00  0.00000000000E+00  0.57369205168E+02  0.57369205168E+02  0.00000000000E+00 0. -1.
          1   -1    0    0  502    0 -0.00000000000E+00 -0.00000000000E+00 -0.43560147033E+03  0.43560147033E+03  0.00000000000E+00 0. -1.
         25    2    1    2    0    0 -0.31370067878E+02  0.23067195466E+02 -0.10787922931E+03  0.16963469730E+03  0.12498730234E+03 0.  0.
          4    1    3    3  501    0 -0.62364273085E+02  0.56956237998E+02 -0.62666874772E+02  0.10517635522E+03  0.12700000000E+01 0. -1.
         -4    1    3    3    0  501  0.30994205208E+02 -0.33889042532E+02 -0.45212354536E+02  0.64458342074E+02  0.12700000000E+01 0. -1.
          2    1    1    2  502    0 -0.16901828394E+02  0.26794076803E+02 -0.24859501882E+03  0.25060542240E+03  0.00000000000E+00 0. -1.
          1    1    1    2  503    0  0.48271896272E+02 -0.49861272269E+02 -0.21758017035E+02  0.72730555801E+02  0.00000000000E+00 0. -1.
<mgrwt>
<rscale>  0 0.44156006E+02</rscale>
<asrwt>0</asrwt>
<pdfrwt beam="1">  1        2 0.88260319E-02 0.61546088E+02</pdfrwt>
<pdfrwt beam="2">  1        1 0.67015608E-01 0.31679557E+02</pdfrwt>
<totfact> 0.51676166E+03</totfact>
</mgrwt>
</event>
<event>
 7    1  0.7037933E-004  0.3451111E+02  0.7546771E-02  0.1554046E+00
          2   -1    0    0  503    0  0.00000000000E+00  0.00000000000E+00  0.10938653832E+03  0.10938653832E+03  0.00000000000E+00 0. -1.
         -2   -1    0    0    0  501 -0.00000000000E+00 -0.00000000000E+00 -0.35621547033E+03  0.35621547033E+03  0.00000000000E+00 0.  1.
         25    2    1    2    0    0  0.12566915746E+01  0.10594623744E+02  0.37815942431E+02  0.13103532720E+03  0.12500554446E+03 0.  0.
          4    1    3    3  502    0 -0.11779253323E+02 -0.56176850335E+02  0.16818663998E+02  0.59825326418E+02  0.12700000000E+01 0.  1.
         -4    1    3    3    0  502  0.13035944898E+02  0.66771474078E+02  0.20997278433E+02  0.71210000783E+02  0.12700000000E+01 0.  1.
          1    1    1    2  503    0 -0.34270174497E+02  0.73140173818E+00  0.11664900832E+02  0.36208420567E+02  0.00000000000E+00 0. -1.
         -1    1    1    2    0  501  0.33013482922E+02 -0.11326025482E+02 -0.29630977528E+03  0.29835826087E+03  0.00000000000E+00 0.  1.
<mgrwt>
<rscale>  0 0.34394346E+02</rscale>
<asrwt>0</asrwt>
<pdfrwt beam="1">  1        2 0.16828698E-01 0.34277978E+02</pdfrwt>
<pdfrwt beam="2">  1       -2 0.54802380E-01 0.34511109E+02</pdfrwt>
<totfact> 0.99271782E+02</totfact>
</mgrwt>
</event>
<event>
 7    1  0.7037933E-004  0.1270598E+03  0.7546771E-02  0.1285380E+00
          2   -1    0    0  503    0  0.00000000000E+00  0.00000000000E+00  0.10245286547E+04  0.10245286547E+04  0.00000000000E+00 0. -1.
          1   -1    0    0  502    0 -0.00000000000E+00 -0.00000000000E+00 -0.12650342517E+04  0.12650342517E+04  0.00000000000E+00 0. -1.
         25    2    1    2    0    0 -0.74047911335E+02 -0.11863196706E+03 -0.31265120201E+03  0.36459368660E+03  0.12498458070E+03 0.  0.
          4    1    3    3  501    0 -0.41775103611E+02  0.51112716343E+01 -0.23028740196E+02  0.47991875921E+02  0.12700000000E+01 0.  1.
         -4    1    3    3    0  501 -0.32272807724E+02 -0.12374323869E+03 -0.28962246181E+03  0.31660181068E+03  0.12700000000E+01 0.  1.
          2    1    1    2  502    0 -0.36850834888E+00  0.12799077154E+03 -0.92056963563E+03  0.92942467551E+03  0.00000000000E+00 0. -1.
          1    1    1    2  503    0  0.74416419684E+02 -0.93588044849E+01  0.99271524062E+03  0.99554454431E+03  0.00000000000E+00 0. -1.
<mgrwt>
<rscale>  0 0.97620776E+02</rscale>
<asrwt>0</asrwt>
<pdfrwt beam="1">  1        2 0.15761979E+00 0.75002605E+02</pdfrwt>
<pdfrwt beam="2">  1        1 0.19462065E+00 0.12705980E+03</pdfrwt>
<totfact> 0.40829679E+01</totfact>
</mgrwt>
</event>
<event>
 7    1  0.7037933E-004  0.1177707E+03  0.7546771E-02  0.1406266E+00
          1   -1    0    0  503    0  0.00000000000E+00  0.00000000000E+00  0.43631814826E+03  0.43631814826E+03  0.00000000000E+00 0. -1.
         -1   -1    0    0    0  501 -0.00000000000E+00 -0.00000000000E+00 -0.15613812290E+04  0.15613812290E+04  0.00000000000E+00 0.  1.
         25    2    1    2    0    0 -0.83946809053E+02 -0.57478849856E+02  0.82592036951E+02  0.18110124698E+03  0.12500132862E+03 0.  0.
          4    1    3    3  502    0 -0.77310005311E+02 -0.20268889245E+02  0.10886028056E+03  0.13505494577E+03  0.12700000000E+01 0. -1.
         -4    1    3    3    0  502 -0.66368037421E+01 -0.37209960610E+02 -0.26268243612E+02  0.46046301208E+02  0.12700000000E+01 0. -1.
          2    1    1    2  503    0  0.11148940092E+03  0.49778148500E+02  0.29208901844E+03  0.31658134070E+03  0.00000000000E+00 0. -1.
         -2    1    1    2    0  501 -0.27542591868E+02  0.77007013556E+01 -0.14997441361E+04  0.15000167896E+04  0.00000000000E+00 0.  1.
<mgrwt>
<rscale>  0 0.58035416E+02</rscale>
<asrwt>0</asrwt>
<pdfrwt beam="1">  1        1 0.67125869E-01 0.11777074E+03</pdfrwt>
<pdfrwt beam="2">  1       -1 0.24021250E+00 0.28598867E+02</pdfrwt>
<totfact> 0.64378047E+00</totfact>
</mgrwt>
</event>
<event>
 7    1  0.7037933E-004  0.1069933E+03  0.7546771E-02  0.1353500E+00
          2   -1    0    0  503    0  0.00000000000E+00  0.00000000000E+00  0.21194217002E+04  0.21194217002E+04  0.00000000000E+00 0. -1.
         -2   -1    0    0    0  501 -0.00000000000E+00 -0.00000000000E+00 -0.37105860791E+02  0.37105860791E+02  0.00000000000E+00 0.  1.
         25    2    1    2    0    0  0.42293547631E+02  0.73815202799E+02  0.51214705239E+03  0.53399720506E+03  0.12498393258E+03 0.  0.
          4    1    3    3  502    0 -0.67570584112E+01  0.43129351324E+02  0.43685941821E+03  0.43903708609E+03  0.12700000000E+01 0.  1.
         -4    1    3    3    0  502  0.49050606042E+02  0.30685851475E+02  0.75287634175E+02  0.94960118963E+02  0.12700000000E+01 0.  1.
          1    1    1    2  503    0  0.48153941947E+02 -0.50630967194E+01  0.14707921202E+04  0.14715889025E+04  0.00000000000E+00 0. -1.
         -1    1    1    2    0  501 -0.90447489578E+02 -0.68752106080E+02  0.99376666822E+02  0.15094145345E+03  0.00000000000E+00 0.  1.
<mgrwt>
<rscale>  0 0.71976021E+02</rscale>
<asrwt>0</asrwt>
<pdfrwt beam="1">  1        2 0.32606478E+00 0.48419387E+02</pdfrwt>
<pdfrwt beam="2">  1       -2 0.57085956E-02 0.10699325E+03</pdfrwt>
<totfact> 0.11617753E+03</totfact>
</mgrwt>
</event>
<event>
 7    1  0.7037933E-004  0.9839268E+02  0.7546771E-02  0.1305057E+00
         -2   -1    0    0    0  501 -0.00000000000E+00  0.00000000000E+00  0.40411077883E+03  0.40411077883E+03  0.00000000000E+00 0.  1.
          2   -1    0    0  503    0  0.00000000000E+00 -0.00000000000E+00 -0.10752178568E+04  0.10752178568E+04  0.00000000000E+00 0. -1.
         25    2    1    2    0    0 -0.21180808867E+02 -0.54498118282E+01 -0.12995606737E+02  0.12754812080E+03  0.12498523998E+03 0.  0.
          4    1    3    3  502    0  0.51326846881E+02  0.94268133225E+01 -0.11758915009E+02  0.53508831069E+02  0.12700000000E+01 0. -1.
         -4    1    3    3    0  502 -0.72507655747E+02 -0.14876625151E+02 -0.12366917274E+01  0.74039289734E+02  0.12700000000E+01 0. -1.
          1    1    1    2  503    0  0.10182907079E+03  0.32969317765E+01 -0.99762463712E+03  0.10028135151E+04  0.00000000000E+00 0. -1.
         -1    1    1    2    0  501 -0.80648261923E+02  0.21528800517E+01  0.33951316593E+03  0.34896699971E+03  0.00000000000E+00 0.  1.
<mgrwt>
<rscale>  0 0.89095597E+02</rscale>
<asrwt>0</asrwt>
<pdfrwt beam="2">  1        2 0.16541813E+00 0.98392680E+02</pdfrwt>
<pdfrwt beam="1">  1       -2 0.62170889E-01 0.80676992E+02</pdfrwt>
<totfact> 0.62926728E+01</totfact>
</mgrwt>
</event>
<event>
 7    1  0.7037933E-004  0.5461120E+02  0.7546771E-02  0.1489317E+00
          2   -1    0    0  503    0  0.00000000000E+00  0.00000000000E+00  0.67859090783E+03  0.67859090783E+03  0.00000000000E+00 0. -1.
         -2   -1    0    0    0  501 -0.00000000000E+00 -0.00000000000E+00 -0.29540087110E+03  0.29540087110E+03  0.00000000000E+00 0.  1.
         25    2    1    2    0    0 -0.36021495653E+01  0.58591772018E+02  0.29188634951E+03  0.32290938776E+03  0.12500744155E+03 0.  0.
          4    1    3    3  502    0 -0.41393502861E+01  0.77399826914E+02  0.84518975849E+02  0.11468625727E+03  0.12700000000E+01 0. -1.
         -4    1    3    3    0  502  0.53720072084E+00 -0.18808054895E+02  0.20736737366E+03  0.20822313050E+03  0.12700000000E+01 0. -1.
          1    1    1    2  503    0  0.31328783659E+02 -0.11483492860E+02  0.36776164494E+03  0.36927224480E+03  0.00000000000E+00 0. -1.
         -1    1    1    2    0  501 -0.27726634093E+02 -0.47108279158E+02 -0.27645795773E+03  0.28181014637E+03  0.00000000000E+00 0.  1.
<mgrwt>
<rscale>  0 0.42687437E+02</rscale>
<asrwt>0</asrwt>
<pdfrwt beam="1">  1        2 0.10439860E+00 0.33367099E+02</pdfrwt>
<pdfrwt beam="2">  1       -2 0.45446288E-01 0.54611200E+02</pdfrwt>
<totfact> 0.21561654E+02</totfact>
</mgrwt>
</event>
<event>
 7    1  0.7037933E-004  0.8639230E+02  0.7546771E-02  0.1368510E+00
          2   -1    0    0  503    0  0.00000000000E+00  0.00000000000E+00  0.36084301903E+03  0.36084301903E+03  0.00000000000E+00 0. -1.
          1   -1    0    0  502    0 -0.00000000000E+00 -0.00000000000E+00 -0.72164123587E+03  0.72164123587E+03  0.00000000000E+00 0. -1.
         25    2    1    2    0    0 -0.38566563694E+02 -0.58838207229E+02  0.53304865959E+02  0.15302354516E+03  0.12500192868E+03 0.  0.
          4    1    3    3  501    0  0.10240997408E+02 -0.59333216632E+02  0.77809142349E+02  0.98393008679E+02  0.12700000000E+01 0. -1.
         -4    1    3    3    0  501 -0.48807561101E+02  0.49500940311E+00 -0.24504276390E+02  0.54630536482E+02  0.12700000000E+01 0. -1.
          2    1    1    2  502    0  0.42112415067E+02 -0.31964022376E+02 -0.66268467884E+03  0.66479029611E+03  0.00000000000E+00 0. -1.
          1    1    1    2  503    0 -0.35458513729E+01  0.90802229605E+02  0.24858159604E+03  0.26467041363E+03  0.00000000000E+00 0. -1.
<mgrwt>
<rscale>  0 0.67583234E+02</rscale>
<asrwt>0</asrwt>
<pdfrwt beam="1">  1        2 0.55514311E-01 0.86392303E+02</pdfrwt>
<pdfrwt beam="2">  1        1 0.11102173E+00 0.52869218E+02</pdfrwt>
<totfact> 0.35375300E+02</totfact>
</mgrwt>
</event>
<event>
 7    1  0.7037933E-004  0.7857298E+02  0.7546771E-02  0.1450805E+00
          1   -1    0    0  502    0 -0.00000000000E+00  0.00000000000E+00  0.31862195833E+03  0.31862195833E+03  0.00000000000E+00 0. -1.
          2   -1    0    0  503    0  0.00000000000E+00 -0.00000000000E+00 -0.42040719511E+03  0.42040719511E+03  0.00000000000E+00 0. -1.
         25    2    1    2    0    0  0.85784163577E+02  0.80155362519E+01 -0.14038893082E+03  0.20677910169E+03  0.12500149381E+03 0.  0.
          4    1    3    3  501    0  0.29649893776E+02 -0.12646360478E+02 -0.14329270282E+03  0.14687905983E+03  0.12700000000E+01 0. -1.
         -4    1    3    3    0  501  0.56134269801E+02  0.20661896730E+02  0.29037719993E+01  0.59900041857E+02  0.12700000000E+01 0. -1.
          2    1    1    2  502    0 -0.70522280053E+02 -0.34490449877E+02  0.27904339293E+03  0.28987617745E+03  0.00000000000E+00 0. -1.
          1    1    1    2  503    0 -0.15261883524E+02  0.26474913625E+02 -0.24043969889E+03  0.24237387430E+03  0.00000000000E+00 0. -1.
<mgrwt>
<rscale>  0 0.49001056E+02</rscale>
<asrwt>0</asrwt>
<pdfrwt beam="2">  1        2 0.64678030E-01 0.30558896E+02</pdfrwt>
<pdfrwt beam="1">  1        1 0.49018763E-01 0.78572979E+02</pdfrwt>
<totfact> 0.84845998E+02</totfact>
</mgrwt>
</event>
<event>
 7    1  0.7037933E-004  0.1400401E+03  0.7546771E-02  0.1275724E+00
          2   -1    0    0  503    0  0.00000000000E+00  0.00000000000E+00  0.80372332995E+03  0.80372332995E+03  0.00000000000E+00 0. -1.
         -2   -1    0    0    0  501 -0.00000000000E+00 -0.00000000000E+00 -0.30183934556E+03  0.30183934556E+03  0.00000000000E+00 0.  1.
         25    2    1    2    0    0 -0.11361499410E+03  0.15726368765E+03  0.66967628359E+03  0.70833073905E+03  0.12500350692E+03 0.  0.
          4    1    3    3  502    0  0.44238196094E+01  0.98008538423E+02  0.31082152818E+03  0.32593999304E+03  0.12700000000E+01 0. -1.
         -4    1    3    3    0  502 -0.11803881371E+03  0.59255149226E+02  0.35885475542E+03  0.38239074602E+03  0.12700000000E+01 0. -1.
          1    1    1    2  503    0  0.70141779168E+02 -0.25383536784E+02  0.82362513735E+02  0.11112055072E+03  0.00000000000E+00 0. -1.
         -1    1    1    2    0  501  0.43473214937E+02 -0.13188015087E+03 -0.25015481294E+03  0.28611138573E+03  0.00000000000E+00 0.  1.
<mgrwt>
<rscale>  0 0.10220609E+03</rscale>
<asrwt>0</asrwt>
<pdfrwt beam="1">  1        2 0.12364974E+00 0.74593519E+02</pdfrwt>
<pdfrwt beam="2">  1       -2 0.46436823E-01 0.14004011E+03</pdfrwt>
<totfact> 0.16661282E+02</totfact>
</mgrwt>
</event>
<event>
 7    1  0.7037933E-004  0.1045585E+03  0.7546771E-02  0.1350926E+00
          1   -1    0    0  502    0 -0.00000000000E+00  0.00000000000E+00  0.16384447238E+04  0.16384447238E+04  0.00000000000E+00 0. -1.
          2   -1    0    0  503    0  0.00000000000E+00 -0.00000000000E+00 -0.68954336690E+03  0.68954336690E+03  0.00000000000E+00 0. -1.
         25    2    1    2    0    0 -0.11696852347E+03  0.52988337357E+02 -0.30932547402E+03  0.35748663815E+03  0.12500019279E+03 0.  0.
          4    1    3    3  501    0 -0.42878921842E+02  0.85082565169E+02 -0.13363486948E+03  0.16412658552E+03  0.12700000000E+01 0.  1.
         -4    1    3    3    0  501 -0.74089601628E+02 -0.32094227812E+02 -0.17569060454E+03  0.19336005263E+03  0.12700000000E+01 0.  1.
          2    1    1    2  502    0  0.10441174978E+03 -0.39266118553E+01  0.16108626316E+04  0.16142477039E+04  0.00000000000E+00 0. -1.
          1    1    1    2  503    0  0.12556773685E+02 -0.49061725501E+02 -0.35263580069E+03  0.35625374861E+03  0.00000000000E+00 0. -1.
<mgrwt>
<rscale>  0 0.72767921E+02</rscale>
<asrwt>0</asrwt>
<pdfrwt beam="2">  1        2 0.10608360E+00 0.50643119E+02</pdfrwt>
<pdfrwt beam="1">  1        1 0.25206842E+00 0.10455854E+03</pdfrwt>
<totfact> 0.39301053E+01</totfact>
</mgrwt>
</event>
<event>
 7    1  0.7037933E-004  0.1066238E+03  0.7546771E-02  0.1310248E+00
         -1   -1    0    0    0  501 -0.00000000000E+00  0.00000000000E+00  0.34809939821E+02  0.34809939821E+02  0.00000000000E+00 0.  1.
          1   -1    0    0  503    0  0.00000000000E+00 -0.00000000000E+00 -0.20258576363E+04  0.20258576363E+04  0.00000000000E+00 0. -1.
         25    2    1    2    0    0  0.71672908591E+02  0.50576587678E+02 -0.50827767698E+03  0.53072240690E+03  0.12500031687E+03 0.  0.
          4    1    3    3  502    0 -0.37448921076E+01 -0.33444647255E+02 -0.19113801890E+03  0.19408226043E+03  0.12700000000E+01 0.  1.
         -4    1    3    3    0  502  0.75417800699E+02  0.84021234933E+02 -0.31713965809E+03  0.33664014647E+03  0.12700000000E+01 0.  1.
          2    1    1    2  503    0 -0.37056034227E+02  0.60575771890E+02 -0.13558907792E+04  0.13577490117E+04  0.00000000000E+00 0. -1.
         -2    1    1    2    0  501 -0.34616874365E+02 -0.11115235957E+03 -0.12687924031E+03  0.17219615748E+03  0.00000000000E+00 0.  1.
<mgrwt>
<rscale>  0 0.87014221E+02</rscale>
<asrwt>0</asrwt>
<pdfrwt beam="2">  1        1 0.31167050E+00 0.71011082E+02</pdfrwt>
<pdfrwt beam="1">  1       -1 0.53553737E-02 0.10662385E+03</pdfrwt>
<totfact> 0.56135457E+02</totfact>
</mgrwt>
</event>
<event>
 7    1  0.7037933E-004  0.1247985E+03  0.7546771E-02  0.1420216E+00
         -1   -1    0    0    0  502 -0.00000000000E+00  0.00000000000E+00  0.93507654380E+03  0.93507654380E+03  0.00000000000E+00 0.  1.
         -2   -1    0    0    0  501  0.00000000000E+00 -0.00000000000E+00 -0.87540338001E+02  0.87540338001E+02  0.00000000000E+00 0.  1.
         25    2    1    2    0    0 -0.13488718503E+03 -0.72825526780E+00  0.14991066386E+03  0.23724222212E+03  0.12496232143E+03 0.  0.
          4    1    3    3  503    0 -0.50264083748E+02  0.54098984780E+02  0.10111692206E+03  0.12521750315E+03  0.12700000000E+01 0. -1.
         -4    1    3    3    0  503 -0.84623101279E+02 -0.54827240048E+02  0.48793741804E+02  0.11202471897E+03  0.12700000000E+01 0. -1.
         -2    1    1    2    0  502  0.12196509286E+03  0.21209803801E+02  0.73251609266E+03  0.74290320073E+03  0.00000000000E+00 0.  1.
         -1    1    1    2    0  501  0.12922092164E+02 -0.20481548533E+02 -0.34890550715E+02  0.42471458951E+02  0.00000000000E+00 0.  1.
<mgrwt>
<rscale>  0 0.54975217E+02</rscale>
<asrwt>0</asrwt>
<pdfrwt beam="2">  1       -2 0.13467745E-01 0.24217231E+02</pdfrwt>
<pdfrwt beam="1">  1       -1 0.14385792E+00 0.12479851E+03</pdfrwt>
<totfact> 0.11612245E+02</totfact>
</mgrwt>
</event>
<event>
 7    1  0.7037933E-004  0.1147876E+03  0.7546771E-02  0.1389161E+00
         -2   -1    0    0    0  501 -0.00000000000E+00  0.00000000000E+00  0.64884717853E+02  0.64884717853E+02  0.00000000000E+00 0.  1.
          2   -1    0    0  503    0  0.00000000000E+00 -0.00000000000E+00 -0.16394438922E+04  0.16394438922E+04  0.00000000000E+00 0. -1.
         25    2    1    2    0    0  0.99697891399E+02  0.28864687032E+02 -0.11722128205E+04  0.11834191856E+04  0.12500093021E+03 0.  0.
          4    1    3    3  502    0  0.48621708083E+02 -0.28635302973E+02 -0.19018371043E+03  0.19838222623E+03  0.12700000000E+01 0. -1.
         -4    1    3    3    0  502  0.51076183316E+02  0.57499990005E+02 -0.98202911012E+03  0.98503695939E+03  0.12700000000E+01 0. -1.
          1    1    1    2  503    0 -0.12461976951E+03 -0.51419954861E+02 -0.44593422646E+03  0.46586632529E+03  0.00000000000E+00 0. -1.
         -1    1    1    2    0  501  0.24921878106E+02  0.22555267829E+02  0.43587872682E+02  0.55043099115E+02  0.00000000000E+00 0.  1.
<mgrwt>
<rscale>  0 0.62115741E+02</rscale>
<asrwt>0</asrwt>
<pdfrwt beam="2">  1        2 0.25222213E+00 0.11478757E+03</pdfrwt>
<pdfrwt beam="1">  1       -2 0.99822646E-02 0.33613094E+02</pdfrwt>
<totfact> 0.71387975E+02</totfact>
</mgrwt>
</event>
<event>
 7    1  0.7037933E-004  0.1301326E+03  0.7546771E-02  0.1362551E+00
          1   -1    0    0  502    0 -0.00000000000E+00  0.00000000000E+00  0.18469373346E+04  0.18469373346E+04  0.00000000000E+00 0. -1.
          2   -1    0    0  503    0  0.00000000000E+00 -0.00000000000E+00 -0.36152321569E+03  0.36152321569E+03  0.00000000000E+00 0. -1.
         25    2    1    2    0    0  0.63871527321E+02  0.14577339508E+03  0.31886164356E+03  0.37765994870E+03  0.12499933759E+03 0.  0.
          4    1    3    3  501    0  0.18207763590E+02  0.14750724338E+03  0.28262763851E+03  0.31932726858E+03  0.12700000000E+01 0.  1.
         -4    1    3    3    0  501  0.45663763731E+02 -0.17338483031E+01  0.36234005051E+02  0.58332680120E+02  0.12700000000E+01 0.  1.
          2    1    1    2  502    0 -0.66328758112E+02 -0.10896953800E+03  0.14949273781E+04  0.15003605334E+04  0.00000000000E+00 0. -1.
          1    1    1    2  503    0  0.24572307909E+01 -0.36803857072E+02 -0.32837490278E+03  0.33044006817E+03  0.00000000000E+00 0. -1.
<mgrwt>
<rscale>  0 0.69282359E+02</rscale>
<asrwt>0</asrwt>
<pdfrwt beam="2">  1        2 0.55618957E-01 0.36885795E+02</pdfrwt>
<pdfrwt beam="1">  1        1 0.28414420E+00 0.13013262E+03</pdfrwt>
<totfact> 0.56068844E+01</totfact>
</mgrwt>
</event>
<event>
 7    1  0.7037933E-004  0.9878478E+02  0.7546771E-02  0.1383466E+00
          1   -1    0    0  503    0  0.00000000000E+00  0.00000000000E+00  0.12808324478E+02  0.12808324478E+02  0.00000000000E+00 0. -1.
         -1   -1    0    0    0  501 -0.00000000000E+00 -0.00000000000E+00 -0.18443750890E+04  0.18443750890E+04  0.00000000000E+00 0.  1.
         25    2    1    2    0    0  0.97459146358E+02 -0.40790348876E+02 -0.11655990065E+04  0.11770365038E+04  0.12502699487E+03 0.  0.
          4    1    3    3  502    0  0.98267771376E+02 -0.71165751187E+02 -0.10663832652E+04  0.10732641801E+04  0.12700000000E+01 0. -1.
         -4    1    3    3    0  502 -0.80862501807E+00  0.30375402311E+02 -0.99215741278E+02  0.10377232366E+03  0.12700000000E+01 0. -1.
          2    1    1    2  503    0 -0.29625966916E+02 -0.28194109674E+02 -0.17218557499E+03  0.17697592484E+03  0.00000000000E+00 0. -1.
         -2    1    1    2    0  501 -0.67833179443E+02  0.68984458550E+02 -0.49378218299E+03  0.50317098485E+03  0.00000000000E+00 0.  1.
<mgrwt>
<rscale>  0 0.63561394E+02</rscale>
<asrwt>0</asrwt>
<pdfrwt beam="1">  1        1 0.19705098E-02 0.40897503E+02</pdfrwt>
<pdfrwt beam="2">  1       -1 0.28375025E+00 0.98784779E+02</pdfrwt>
<totfact> 0.26532038E+02</totfact>
</mgrwt>
</event>
<event>
 7    1  0.7037933E-004  0.7145344E+02  0.7546771E-02  0.1461095E+00
         -2   -1    0    0    0  501  0.00000000000E+00  0.00000000000E+00  0.52528936099E+03  0.52528936099E+03  0.00000000000E+00 0.  1.
         -1   -1    0    0    0  502 -0.00000000000E+00 -0.00000000000E+00 -0.24280084698E+03  0.24280084698E+03  0.00000000000E+00 0.  1.
         25    2    1    2    0    0  0.96661721648E+02  0.17839104764E+02 -0.59651163289E+02  0.16983364580E+03  0.12499393534E+03 0.  0.
          4    1    3    3  503    0 -0.29515008182E+02  0.69487305997E+01 -0.22707358820E+02  0.37903266475E+02  0.12700000000E+01 0. -1.
         -4    1    3    3    0  503  0.12617672983E+03  0.10890374164E+02 -0.36943804469E+02  0.13193037932E+03  0.12700000000E+01 0. -1.
         -2    1    1    2    0  502 -0.66212529796E+02 -0.11173144857E+02 -0.11869312129E+03  0.13637080080E+03  0.00000000000E+00 0.  1.
         -1    1    1    2    0  501 -0.30449191852E+02 -0.66659599066E+01  0.46083279859E+03  0.46188576138E+03  0.00000000000E+00 0.  1.
<mgrwt>
<rscale>  0 0.47193494E+02</rscale>
<asrwt>0</asrwt>
<pdfrwt beam="1">  1       -2 0.80813748E-01 0.31170311E+02</pdfrwt>
<pdfrwt beam="2">  1       -1 0.37353977E-01 0.71453438E+02</pdfrwt>
<totfact> 0.74677816E+01</totfact>
</mgrwt>
</event>
<event>
 7    1  0.7037933E-004  0.1065699E+03  0.7546771E-02  0.1376321E+00
          2   -1    0    0  503    0  0.00000000000E+00  0.00000000000E+00  0.54334342542E+03  0.54334342542E+03  0.00000000000E+00 0. -1.
          1   -1    0    0  502    0 -0.00000000000E+00 -0.00000000000E+00 -0.55746546228E+03  0.55746546228E+03  0.00000000000E+00 0. -1.
         25    2    1    2    0    0  0.40871615990E+02 -0.69121219552E+02 -0.11264323760E+02  0.14899803401E+03  0.12500118864E+03 0.  0.
          4    1    3    3  501    0  0.60191886359E+02 -0.72288203498E+01 -0.45364408797E+02  0.75728868423E+02  0.12700000000E+01 0.  1.
         -4    1    3    3    0  501 -0.19320270369E+02 -0.61892399202E+02  0.34100085037E+02  0.73269165586E+02  0.12700000000E+01 0.  1.
          2    1    1    2  502    0 -0.80813110771E+02  0.73535847060E+02 -0.47020816920E+03  0.48273595480E+03  0.00000000000E+00 0. -1.
          1    1    1    2  503    0  0.39941494781E+02 -0.44146275084E+01  0.46735045611E+03  0.46907489889E+03  0.00000000000E+00 0. -1.
<mgrwt>
<rscale>  0 0.65440683E+02</rscale>
<asrwt>0</asrwt>
<pdfrwt beam="1">  1        2 0.83591296E-01 0.40184723E+02</pdfrwt>
<pdfrwt beam="2">  1        1 0.85763917E-01 0.10656993E+03</pdfrwt>
<totfact> 0.32036739E+02</totfact>
</mgrwt>
</event>
<event>
 7    1  0.7037933E-004  0.1775593E+03  0.7546771E-02  0.1171728E+00
          2   -1    0    0  503    0  0.00000000000E+00  0.00000000000E+00  0.13960371748E+04  0.13960371748E+04  0.00000000000E+00 0. -1.
          1   -1    0    0  502    0 -0.00000000000E+00 -0.00000000000E+00 -0.15593231956E+04  0.15593231956E+04  0.00000000000E+00 0. -1.
         25    2    1    2    0    0  0.23062692431E+02 -0.24590010475E+02 -0.23930299274E+02  0.13166303492E+03  0.12500375651E+03 0.  0.
          4    1    3    3  501    0  0.73668595230E+02 -0.26751715250E+02 -0.93657548430E+01  0.78943311660E+02  0.12700000000E+01 0.  1.
         -4    1    3    3    0  501 -0.50605902800E+02  0.21617047743E+01 -0.14564544431E+02  0.52719723256E+02  0.12700000000E+01 0.  1.
          2    1    1    2  502    0  0.96362569640E+01  0.19595850143E+03 -0.14693091061E+04  0.14823501074E+04  0.00000000000E+00 0. -1.
          1    1    1    2  503    0 -0.32698949395E+02 -0.17136849096E+03  0.13299533845E+04  0.13413472280E+04  0.00000000000E+00 0. -1.
<mgrwt>
<rscale>  0 0.17600298E+03</rscale>
<asrwt>0</asrwt>
<pdfrwt beam="1">  1        2 0.21477495E+00 0.17446026E+03</pdfrwt>
<pdfrwt beam="2">  1        1 0.23989588E+00 0.17755934E+03</pdfrwt>
<totfact> 0.15040121E+01</totfact>
</mgrwt>
</event>
<event>
 7    1  0.7037933E-004  0.6708980E+02  0.7546771E-02  0.1445773E+00
          1   -1    0    0  502    0 -0.00000000000E+00  0.00000000000E+00  0.10784103619E+03  0.10784103619E+03  0.00000000000E+00 0. -1.
          2   -1    0    0  503    0  0.00000000000E+00 -0.00000000000E+00 -0.10485697270E+04  0.10485697270E+04  0.00000000000E+00 0. -1.
         25    2    1    2    0    0  0.19685134140E+02 -0.71805567226E+02 -0.38150954848E+03  0.40831232172E+03  0.12500348993E+03 0.  0.
          4    1    3    3  501    0  0.23433170488E+02 -0.10366767686E+03 -0.33745916453E+03  0.35380277179E+03  0.12700000000E+01 0.  1.
         -4    1    3    3    0  501 -0.37480363482E+01  0.31862109632E+02 -0.44050383955E+02  0.54509549927E+02  0.12700000000E+01 0.  1.
          2    1    1    2  502    0 -0.47633937585E+02  0.47339882105E+02  0.81894751427E+02  0.10590942715E+03  0.00000000000E+00 0. -1.
          1    1    1    2  503    0  0.27948803445E+02  0.24465685121E+02 -0.64111389375E+03  0.64218901433E+03  0.00000000000E+00 0. -1.
<mgrwt>
<rscale>  0 0.49920031E+02</rscale>
<asrwt>0</asrwt>
<pdfrwt beam="2">  1        2 0.16131842E+00 0.37144385E+02</pdfrwt>
<pdfrwt beam="1">  1        1 0.16590929E-01 0.67089802E+02</pdfrwt>
<totfact> 0.11455464E+03</totfact>
</mgrwt>
</event>
<event>
 7    1  0.7037933E-004  0.4412041E+02  0.7546771E-02  0.1500841E+00
          1   -1    0    0  502    0 -0.00000000000E+00  0.00000000000E+00  0.75980407866E+03  0.75980407866E+03  0.00000000000E+00 0. -1.
          2   -1    0    0  503    0  0.00000000000E+00 -0.00000000000E+00 -0.14087121437E+03  0.14087121437E+03  0.00000000000E+00 0. -1.
         25    2    1    2    0    0 -0.28814930602E+02 -0.11779680780E+02  0.17518148307E+03  0.21744681385E+03  0.12500201493E+03 0.  0.
          4    1    3    3  501    0  0.13788019286E+02 -0.18395925677E+02  0.17271613803E+03  0.17424407248E+03  0.12700000000E+01 0. -1.
         -4    1    3    3    0  501 -0.42602949889E+02  0.66162448967E+01  0.24653450377E+01  0.43202741370E+02  0.12700000000E+01 0. -1.
          2    1    1    2  502    0  0.20523758635E+02 -0.32142684996E+02  0.55864564872E+03  0.55994583461E+03  0.00000000000E+00 0. -1.
          1    1    1    2  503    0  0.82911719676E+01  0.43922365776E+02 -0.11489426750E+03  0.12328264457E+03  0.00000000000E+00 0. -1.
<mgrwt>
<rscale>  0 0.41019371E+02</rscale>
<asrwt>0</asrwt>
<pdfrwt beam="2">  1        2 0.21672495E-01 0.44120408E+02</pdfrwt>
<pdfrwt beam="1">  1        1 0.11689293E+00 0.38136293E+02</pdfrwt>
<totfact> 0.88401829E+02</totfact>
</mgrwt>
</event>
<event>
 7    1  0.7037933E-004  0.2888652E+02  0.7546771E-02  0.1654281E+00
          1   -1    0    0  502    0 -0.00000000000E+00  0.00000000000E+00  0.20983645594E+04  0.20983645594E+04  0.00000000000E+00 0. -1.
          2   -1    0    0  503    0  0.00000000000E+00 -0.00000000000E+00 -0.45913185849E+02  0.45913185849E+02  0.00000000000E+00 0. -1.
         25    2    1    2    0    0 -0.19769408303E+01  0.88970749859E+01  0.16267228902E+03  0.20534726363E+03  0.12498863479E+03 0.  0.
          4    1    3    3  501    0  0.23755215010E+02  0.40419751134E+02  0.10820507374E+02  0.48132762249E+02  0.12700000000E+01 0.  1.
         -4    1    3    3    0  501 -0.25732155840E+02 -0.31522676148E+02  0.15185178164E+03  0.15721450138E+03  0.12700000000E+01 0.  1.
          2    1    1    2  502    0 -0.12248368754E+02 -0.26284537039E+02  0.19090875984E+04  0.19093078217E+04  0.00000000000E+00 0. -1.
          1    1    1    2  503    0  0.14225309585E+02  0.17387462053E+02 -0.19308513938E+02  0.29622659906E+02  0.00000000000E+00 0. -1.
<mgrwt>
<rscale>  0 0.25474304E+02</rscale>
<asrwt>0</asrwt>
<pdfrwt beam="2">  1        2 0.70635687E-02 0.22465157E+02</pdfrwt>
<pdfrwt beam="1">  1        1 0.32282524E+00 0.28886519E+02</pdfrwt>
<totfact> 0.43013469E+02</totfact>
</mgrwt>
</event>
<event>
 7    1  0.7037933E-004  0.2231879E+03  0.7546771E-02  0.1230389E+00
          1   -1    0    0  503    0  0.00000000000E+00  0.00000000000E+00  0.11597983419E+04  0.11597983419E+04  0.00000000000E+00 0. -1.
         -1   -1    0    0    0  501 -0.00000000000E+00 -0.00000000000E+00 -0.12266592598E+03  0.12266592598E+03  0.00000000000E+00 0.  1.
         25    2    1    2    0    0  0.14754866873E+03  0.18143466413E+03  0.10145580465E+03  0.28391473006E+03  0.12500058662E+03 0.  0.
          4    1    3    3  502    0  0.15646563199E+03  0.13866033816E+03  0.11440601044E+03  0.23832442488E+03  0.12700000000E+01 0. -1.
         -4    1    3    3    0  502 -0.89169632549E+01  0.42774325976E+02 -0.12950205791E+02  0.45590305180E+02  0.12700000000E+01 0. -1.
          2    1    1    2  503    0 -0.18801913670E+03 -0.12013056541E+03  0.87581665113E+03  0.90379054814E+03  0.00000000000E+00 0. -1.
         -2    1    1    2    0  501  0.40470467975E+02 -0.61304098720E+02  0.59859960146E+02  0.94758989687E+02  0.00000000000E+00 0.  1.
<mgrwt>
<rscale>  0 0.12804256E+03</rscale>
<asrwt>0</asrwt>
<pdfrwt beam="1">  1        1 0.17843051E+00 0.22318790E+03</pdfrwt>
<pdfrwt beam="2">  1       -1 0.18871682E-01 0.73457820E+02</pdfrwt>
<totfact> 0.26462636E+02</totfact>
</mgrwt>
</event>
<event>
 7    1  0.7037933E-004  0.7205157E+02  0.7546771E-02  0.1449572E+00
          2   -1    0    0  503    0  0.00000000000E+00  0.00000000000E+00  0.48191572510E+03  0.48191572510E+03  0.00000000000E+00 0. -1.
          1   -1    0    0  502    0 -0.00000000000E+00 -0.00000000000E+00 -0.15909880326E+03  0.15909880326E+03  0.00000000000E+00 0. -1.
         25    2    1    2    0    0  0.98171234958E+02  0.58668966890E+01  0.48379669987E+02  0.16624503706E+03  0.12499923211E+03 0.  0.
          4    1    3    3  501    0  0.66669211149E+02  0.54768144547E+02  0.62287754179E+02  0.10642232187E+03  0.12700000000E+01 0.  1.
         -4    1    3    3    0  501  0.31502023809E+02 -0.48901247858E+02 -0.13908084192E+02  0.59822715184E+02  0.12700000000E+01 0.  1.
          2    1    1    2  502    0 -0.66870664443E+02 -0.18162061556E+02 -0.87308250649E+02  0.11146424034E+03  0.00000000000E+00 0. -1.
          3    1    1    2  503    0 -0.31300570515E+02  0.12295164867E+02  0.36174550250E+03  0.36330525096E+03  0.00000000000E+00 0. -1.
<mgrwt>
<rscale>  0 0.49224066E+02</rscale>
<asrwt>0</asrwt>
<pdfrwt beam="1">  1        2 0.74140880E-01 0.33628809E+02</pdfrwt>
<pdfrwt beam="2">  1        1 0.24476739E-01 0.72051575E+02</pdfrwt>
<totfact> 0.17174997E+03</totfact>
</mgrwt>
</event>
<event>
 7    1  0.7037933E-004  0.1054785E+03  0.7546771E-02  0.1320464E+00
          2   -1    0    0  503    0  0.00000000000E+00  0.00000000000E+00  0.21325192226E+04  0.21325192226E+04  0.00000000000E+00 0. -1.
          1   -1    0    0  502    0 -0.00000000000E+00 -0.00000000000E+00 -0.45176661621E+02  0.45176661621E+02  0.00000000000E+00 0. -1.
         25    2    1    2    0    0 -0.20232818100E+02  0.56203755312E+02  0.69806017422E+03  0.71167501573E+03  0.12500036862E+03 0.  0.
          4    1    3    3  501    0 -0.26264595195E+02 -0.25081541544E+02  0.75385376073E+02  0.83686800110E+02  0.12700000000E+01 0.  1.
         -4    1    3    3    0  501  0.60317770953E+01  0.81285296856E+02  0.62267479814E+03  0.62798821563E+03  0.12700000000E+01 0.  1.
          2    1    1    2  502    0 -0.59453897028E+01  0.65206587808E+02 -0.55110447311E+01  0.65708586702E+02  0.00000000000E+00 0. -1.
          1    1    1    2  503    0  0.26178207803E+02 -0.12141034312E+03  0.13947934314E+04  0.14003122817E+04  0.00000000000E+00 0. -1.
<mgrwt>
<rscale>  0 0.83104881E+02</rscale>
<asrwt>0</asrwt>
<pdfrwt beam="1">  1        2 0.32807980E+00 0.10547847E+03</pdfrwt>
<pdfrwt beam="2">  1        1 0.69502573E-02 0.65477070E+02</pdfrwt>
<totfact> 0.90421332E+02</totfact>
</mgrwt>
</event>
<event>
 7    1  0.7037933E-004  0.2202428E+03  0.7546771E-02  0.1245871E+00
          3   -1    0    0  502    0 -0.00000000000E+00  0.00000000000E+00  0.17915877512E+04  0.17915877512E+04  0.00000000000E+00 0. -1.
          2   -1    0    0  503    0  0.00000000000E+00 -0.00000000000E+00 -0.80617460452E+02  0.80617460452E+02  0.00000000000E+00 0. -1.
         25    2    1    2    0    0 -0.26816797254E+03 -0.14607725560E+02  0.66651294755E+03  0.72937796530E+03  0.12500103949E+03 0.  0.
          4    1    3    3  501    0 -0.10331044801E+03 -0.30245757261E+02  0.13502562132E+03  0.17268869625E+03  0.12700000000E+01 0.  1.
         -4    1    3    3    0  501 -0.16485752452E+03  0.15638031700E+02  0.53148732623E+03  0.55668926905E+03  0.12700000000E+01 0.  1.
          2    1    1    2  502    0  0.20458861866E+03  0.14629105301E+02  0.10581031698E+04  0.10777999961E+04  0.00000000000E+00 0. -1.
          1    1    1    2  503    0  0.63579353878E+02 -0.21379741174E-01 -0.13645826588E+02  0.65027250287E+02  0.00000000000E+00 0. -1.
<mgrwt>
<rscale>  0 0.11833384E+03</rscale>
<asrwt>0</asrwt>
<pdfrwt beam="2">  1        2 0.12402688E-01 0.63579357E+02</pdfrwt>
<pdfrwt beam="1">  1        3 0.27562886E+00 0.22024283E+03</pdfrwt>
<totfact> 0.16755443E+01</totfact>
</mgrwt>
</event>
<event>
 7    1  0.7037933E-004  0.1389363E+03  0.7546771E-02  0.1245052E+00
          1   -1    0    0  502    0 -0.00000000000E+00  0.00000000000E+00  0.86639764613E+03  0.86639764613E+03  0.00000000000E+00 0. -1.
          2   -1    0    0  503    0  0.00000000000E+00 -0.00000000000E+00 -0.88690682052E+03  0.88690682052E+03  0.00000000000E+00 0. -1.
         25    2    1    2    0    0  0.16655380914E+03  0.12696842190E+03 -0.57316781316E+03  0.62290186195E+03  0.12499694425E+03 0.  0.
          4    1    3    3  501    0  0.35622015459E+02  0.92134003218E+02 -0.15955472860E+03  0.18766173519E+03  0.12700000000E+01 0.  1.
         -4    1    3    3    0  501  0.13093179369E+03  0.34834418687E+02 -0.41361308456E+03  0.43524012676E+03  0.12700000000E+01 0.  1.
          2    1    1    2  502    0 -0.88288567568E+02 -0.50318215190E+02  0.82792526638E+03  0.83413850208E+03  0.00000000000E+00 0. -1.
          1    1    1    2  503    0 -0.78265241577E+02 -0.76650206715E+02 -0.27526662761E+03  0.29626410263E+03  0.00000000000E+00 0. -1.
<mgrwt>
<rscale>  0 0.11882264E+03</rscale>
<asrwt>0</asrwt>
<pdfrwt beam="2">  1        2 0.13644720E+00 0.13893626E+03</pdfrwt>
<pdfrwt beam="1">  1        1 0.13329195E+00 0.10162083E+03</pdfrwt>
<totfact> 0.93750102E+01</totfact>
</mgrwt>
</event>
<event>
 7    1  0.7037933E-004  0.1387836E+03  0.7546771E-02  0.1322215E+00
          2   -1    0    0  503    0  0.00000000000E+00  0.00000000000E+00  0.10144599851E+04  0.10144599851E+04  0.00000000000E+00 0. -1.
          1   -1    0    0  502    0 -0.00000000000E+00 -0.00000000000E+00 -0.73798532093E+03  0.73798532093E+03  0.00000000000E+00 0. -1.
         25    2    1    2    0    0 -0.73676066989E+02  0.10670922526E+03 -0.83259792576E+02  0.19841853181E+03  0.12499079607E+03 0.  0.
          4    1    3    3  501    0 -0.24514642477E+02 -0.22927940502E+02 -0.41956239714E+02  0.53745670545E+02  0.12700000000E+01 0.  1.
         -4    1    3    3    0  501 -0.49161424511E+02  0.12963716576E+03 -0.41303552862E+02  0.14467286126E+03  0.12700000000E+01 0.  1.
          2    1    1    2  502    0  0.39835133289E+02  0.28522207061E+02 -0.59105011207E+03  0.59307722020E+03  0.00000000000E+00 0. -1.
          1    1    1    2  503    0  0.33840933700E+02 -0.13523143232E+03  0.95078456883E+03  0.96094955404E+03  0.00000000000E+00 0. -1.
<mgrwt>
<rscale>  0 0.82458961E+02</rscale>
<asrwt>0</asrwt>
<pdfrwt beam="1">  1        2 0.15607077E+00 0.13878357E+03</pdfrwt>
<pdfrwt beam="2">  1        1 0.11353620E+00 0.48993409E+02</pdfrwt>
<totfact> 0.10276366E+02</totfact>
</mgrwt>
</event>
<event>
 7    1  0.7037933E-004  0.1129901E+03  0.7546771E-02  0.1342741E+00
          1   -1    0    0  502    0 -0.00000000000E+00  0.00000000000E+00  0.14835492716E+03  0.14835492716E+03  0.00000000000E+00 0. -1.
          2   -1    0    0  503    0  0.00000000000E+00 -0.00000000000E+00 -0.22270469404E+04  0.22270469404E+04  0.00000000000E+00 0. -1.
         25    2    1    2    0    0 -0.17334079683E+02  0.12752118803E+03 -0.50005498755E+03  0.53126487649E+03  0.12500101880E+03 0.  0.
          4    1    3    3  501    0  0.33273716052E+02  0.10335753933E+03 -0.41795734298E+03  0.43183315594E+03  0.12700000000E+01 0. -1.
         -4    1    3    3    0  501 -0.50607795735E+02  0.24163648696E+02 -0.82097644575E+02  0.99431720553E+02  0.12700000000E+01 0. -1.
          2    1    1    2  502    0 -0.29329281408E+02 -0.10882251013E+03  0.10838597849E+03  0.15636516810E+03  0.00000000000E+00 0. -1.
          1    1    1    2  503    0  0.46663361090E+02 -0.18698677894E+02 -0.16870230041E+04  0.16877718229E+04  0.00000000000E+00 0. -1.
<mgrwt>
<rscale>  0 0.75366147E+02</rscale>
<asrwt>0</asrwt>
<pdfrwt beam="2">  1        2 0.34262260E+00 0.50270367E+02</pdfrwt>
<pdfrwt beam="1">  1        1 0.22823836E-01 0.11299015E+03</pdfrwt>
<totfact> 0.19764526E+02</totfact>
</mgrwt>
</event>
<event>
 7    1  0.7037933E-004  0.1788889E+03  0.7546771E-02  0.1182921E+00
          2   -1    0    0  503    0  0.00000000000E+00  0.00000000000E+00  0.23399896424E+04  0.23399896424E+04  0.00000000000E+00 0. -1.
         -2   -1    0    0    0  501 -0.00000000000E+00 -0.00000000000E+00 -0.75443026508E+03  0.75443026508E+03  0.00000000000E+00 0.  1.
         25    2    1    2    0    0 -0.13816320987E+03 -0.21070557804E+03  0.17486590899E+03  0.33119549578E+03  0.12500582833E+03 0.  0.
          4    1    3    3  502    0 -0.17566386852E+02 -0.27208967160E+02  0.90216821976E+02  0.95862368573E+02  0.12700000000E+01 0. -1.
         -4    1    3    3    0  502 -0.12059682302E+03 -0.18349661088E+03  0.84649087016E+02  0.23533312720E+03  0.12700000000E+01 0. -1.
          3    1    1    2  503    0  0.16688594068E+03  0.60827499559E+02  0.20745058705E+04  0.20820964215E+04  0.00000000000E+00 0. -1.
         -1    1    1    2    0  501 -0.28722730804E+02  0.14987807848E+03 -0.66381240218E+03  0.68112799014E+03  0.00000000000E+00 0.  1.
<mgrwt>
<rscale>  0 0.16522537E+03</rscale>
<asrwt>0</asrwt>
<pdfrwt beam="1">  1        2 0.35999840E+00 0.17888888E+03</pdfrwt>
<pdfrwt beam="2">  1       -2 0.11606620E+00 0.15260548E+03</pdfrwt>
<totfact> 0.32219635E+00</totfact>
</mgrwt>
</event>
<event>
 7    1  0.7037933E-004  0.2224248E+03  0.7546771E-02  0.1208855E+00
         -2   -1    0    0    0  501 -0.00000000000E+00  0.00000000000E+00  0.14137751022E+03  0.14137751022E+03  0.00000000000E+00 0.  1.
          2   -1    0    0  503    0  0.00000000000E+00 -0.00000000000E+00 -0.14935786330E+04  0.14935786330E+04  0.00000000000E+00 0. -1.
         25    2    1    2    0    0 -0.56732976727E+01 -0.23037776858E+03 -0.47250042388E+03  0.54035836233E+03  0.12499762640E+03 0.  0.
          4    1    3    3  502    0 -0.29823409730E+02 -0.44824455892E+01 -0.28034462701E+02  0.41195534774E+02  0.12700000000E+01 0.  1.
         -4    1    3    3    0  502  0.24150112058E+02 -0.22589532299E+03 -0.44446596118E+03  0.49916282755E+03  0.12700000000E+01 0.  1.
          1    1    1    2  503    0  0.89632514657E+02  0.22537295576E+02 -0.86503738348E+03  0.86996068428E+03  0.00000000000E+00 0. -1.
         -3    1    1    2    0  501 -0.83959216984E+02  0.20784047301E+03 -0.14663315376E+02  0.22463709657E+03  0.00000000000E+00 0.  1.
<mgrwt>
<rscale>  0 0.14337731E+03</rscale>
<asrwt>0</asrwt>
<pdfrwt beam="2">  1        2 0.22978134E+00 0.92422494E+02</pdfrwt>
<pdfrwt beam="1">  1       -2 0.21750386E-01 0.22242478E+03</pdfrwt>
<totfact> 0.27232337E+02</totfact>
</mgrwt>
</event>
<event>
 7    1  0.7037933E-004  0.5085479E+02  0.7546771E-02  0.1543652E+00
          1   -1    0    0  502    0 -0.00000000000E+00  0.00000000000E+00  0.28425839389E+03  0.28425839389E+03  0.00000000000E+00 0. -1.
          2   -1    0    0  503    0  0.00000000000E+00 -0.00000000000E+00 -0.19949215379E+03  0.19949215379E+03  0.00000000000E+00 0. -1.
         25    2    1    2    0    0  0.30794811134E+02 -0.37285542673E+02  0.24585944336E+01  0.13405148279E+03  0.12500089307E+03 0.  0.
          4    1    3    3  501    0 -0.82254126297E+01  0.43216586092E+02 -0.48858095322E+01  0.44281088076E+02  0.12700000000E+01 0. -1.
         -4    1    3    3    0  501  0.39020223764E+02 -0.80502128765E+02  0.73444039658E+01  0.89770394719E+02  0.12700000000E+01 0. -1.
          2    1    1    2  502    0 -0.96173904983E+01  0.50325548853E+02  0.21176464965E+03  0.21787478493E+03  0.00000000000E+00 0. -1.
          1    1    1    2  503    0 -0.21177420636E+02 -0.13040006180E+02 -0.12945700398E+03  0.13182427995E+03  0.00000000000E+00 0. -1.
<mgrwt>
<rscale>  0 0.35563561E+02</rscale>
<asrwt>0</asrwt>
<pdfrwt beam="2">  1        2 0.30691100E-01 0.24870161E+02</pdfrwt>
<pdfrwt beam="1">  1        1 0.43732061E-01 0.50854791E+02</pdfrwt>
<totfact> 0.20411024E+03</totfact>
</mgrwt>
</event>
<event>
 7    1  0.7037933E-004  0.4989124E+02  0.7546771E-02  0.1509443E+00
         -2   -1    0    0    0  501 -0.00000000000E+00  0.00000000000E+00  0.16845899316E+03  0.16845899316E+03  0.00000000000E+00 0.  1.
          2   -1    0    0  503    0  0.00000000000E+00 -0.00000000000E+00 -0.31490461260E+03  0.31490461260E+03  0.00000000000E+00 0. -1.
         25    2    1    2    0    0  0.84013803421E+00 -0.66675029174E+02 -0.25621165717E+02  0.14397036870E+03  0.12499903034E+03 0.  0.
          4    1    3    3  502    0 -0.16502336562E+02  0.18471251761E+02 -0.48177769239E+02  0.54186941255E+02  0.12700000000E+01 0.  1.
         -4    1    3    3    0  502  0.17342474597E+02 -0.85146280935E+02  0.22556603522E+02  0.89783427450E+02  0.12700000000E+01 0.  1.
          1    1    1    2  503    0 -0.22932986429E+02  0.43798881068E+02 -0.22505368183E+03  0.23042010232E+03  0.00000000000E+00 0. -1.
         -1    1    1    2    0  501  0.22092848395E+02  0.22876148106E+02  0.10422922810E+03  0.10897313473E+03  0.00000000000E+00 0.  1.
<mgrwt>
<rscale>  0 0.39833107E+02</rscale>
<asrwt>0</asrwt>
<pdfrwt beam="2">  1        2 0.48446864E-01 0.49891239E+02</pdfrwt>
<pdfrwt beam="1">  1       -2 0.25916768E-01 0.31802706E+02</pdfrwt>
<totfact> 0.12881601E+03</totfact>
</mgrwt>
</event>
<event>
 7    1  0.7037933E-004  0.3251968E+02  0.7546771E-02  0.1609434E+00
          2   -1    0    0  503    0  0.00000000000E+00  0.00000000000E+00  0.31591839570E+03  0.31591839570E+03  0.00000000000E+00 0. -1.
          1   -1    0    0  502    0 -0.00000000000E+00 -0.00000000000E+00 -0.59708134701E+03  0.59708134701E+03  0.00000000000E+00 0. -1.
         25    2    1    2    0    0 -0.29423692455E+01  0.22264552385E+02 -0.91420830734E+02  0.15649018924E+03  0.12500817256E+03 0.  0.
          4    1    3    3  501    0 -0.30909676467E+02 -0.44180013117E+02 -0.29652023994E+02  0.61547843872E+02  0.12700000000E+01 0. -1.
         -4    1    3    3    0  501  0.27967307221E+02  0.66444565502E+02 -0.61768806739E+02  0.94942345368E+02  0.12700000000E+01 0. -1.
          2    1    1    2  502    0 -0.25217816912E+02 -0.57181704404E+01 -0.47182953916E+03  0.47253756442E+03  0.00000000000E+00 0. -1.
          1    1    1    2  503    0  0.28160186157E+02 -0.16546381944E+02  0.28208741859E+03  0.28397198905E+03  0.00000000000E+00 0. -1.
<mgrwt>
<rscale>  0 0.28998164E+02</rscale>
<asrwt>0</asrwt>
<pdfrwt beam="1">  1        2 0.48602830E-01 0.32519676E+02</pdfrwt>
<pdfrwt beam="2">  1        1 0.91858669E-01 0.25857992E+02</pdfrwt>
<totfact> 0.53187724E+02</totfact>
</mgrwt>
</event>
<event>
 7    1  0.7037933E-004  0.5663683E+02  0.7546771E-02  0.1471737E+00
          2   -1    0    0  503    0  0.00000000000E+00  0.00000000000E+00  0.95016038828E+03  0.95016038828E+03  0.00000000000E+00 0. -1.
          1   -1    0    0  502    0 -0.00000000000E+00 -0.00000000000E+00 -0.90414335167E+02  0.90414335167E+02  0.00000000000E+00 0. -1.
         25    2    1    2    0    0 -0.76449457248E+01 -0.82877807663E+02  0.14171032266E+03  0.20648184572E+03  0.12500304342E+03 0.  0.
          4    1    3    3  501    0  0.55712412820E+02 -0.61471751325E+02  0.71761322646E+02  0.10969935953E+03  0.12700000000E+01 0. -1.
         -4    1    3    3    0  501 -0.63357358544E+02 -0.21406056338E+02  0.69949000017E+02  0.96782486190E+02  0.12700000000E+01 0. -1.
          2    1    1    2  502    0  0.22231111176E+02  0.28853574939E+02 -0.51194382549E+02  0.62830055670E+02  0.00000000000E+00 0. -1.
          1    1    1    2  503    0 -0.14586165452E+02  0.54024232724E+02  0.76923011300E+03  0.77126282206E+03  0.00000000000E+00 0. -1.
<mgrwt>
<rscale>  0 0.45419968E+02</rscale>
<asrwt>0</asrwt>
<pdfrwt beam="1">  1        2 0.14617851E+00 0.56636828E+02</pdfrwt>
<pdfrwt beam="2">  1        1 0.13909898E-01 0.36424595E+02</pdfrwt>
<totfact> 0.15336483E+03</totfact>
</mgrwt>
</event>
<event>
 7    1  0.7037933E-004  0.9324411E+02  0.7546771E-02  0.1306982E+00
          2   -1    0    0  503    0  0.00000000000E+00  0.00000000000E+00  0.16583740112E+04  0.16583740112E+04  0.00000000000E+00 0. -1.
          1   -1    0    0  502    0 -0.00000000000E+00 -0.00000000000E+00 -0.17187301752E+04  0.17187301752E+04  0.00000000000E+00 0. -1.
         25    2    1    2    0    0  0.15040337303E+03  0.72500953086E+02 -0.27447717547E+02  0.21037148010E+03  0.12500087849E+03 0.  0.
          4    1    3    3  501    0  0.87013336367E+02 -0.12785856064E+02 -0.50787492537E+02  0.10156663389E+03  0.12700000000E+01 0.  1.
         -4    1    3    3    0  501  0.63390036665E+02  0.85286809149E+02  0.23339774990E+02  0.10880484621E+03  0.12700000000E+01 0.  1.
          2    1    1    2  502    0 -0.58842859058E+02 -0.59452272940E+02 -0.15973605543E+04  0.15995492475E+04  0.00000000000E+00 0. -1.
          1    1    1    2  503    0 -0.91560513974E+02 -0.13048680146E+02  0.15644521078E+04  0.15671834587E+04  0.00000000000E+00 0. -1.
<mgrwt>
<rscale>  0 0.88316029E+02</rscale>
<asrwt>0</asrwt>
<pdfrwt beam="1">  1        2 0.25513446E+00 0.93244114E+02</pdfrwt>
<pdfrwt beam="2">  1        1 0.26442003E+00 0.83648400E+02</pdfrwt>
<totfact> 0.98756169E+00</totfact>
</mgrwt>
</event>
<event>
 7    1  0.7037933E-004  0.1070947E+03  0.7546771E-02  0.1355981E+00
          1   -1    0    0  502    0 -0.00000000000E+00  0.00000000000E+00  0.32183335218E+03  0.32183335218E+03  0.00000000000E+00 0. -1.
          2   -1    0    0  503    0  0.00000000000E+00 -0.00000000000E+00 -0.15318071720E+04  0.15318071720E+04  0.00000000000E+00 0. -1.
         25    2    1    2    0    0  0.12738487625E+03  0.62651470077E+02 -0.79501998449E+03  0.81721250542E+03  0.12500955915E+03 0.  0.
          4    1    3    3  501    0  0.76427040188E+02  0.59325940711E+02 -0.22519069484E+03  0.24509818779E+03  0.12700000000E+01 0. -1.
         -4    1    3    3    0  501  0.50957836060E+02  0.33255293654E+01 -0.56982928965E+03  0.57211431763E+03  0.12700000000E+01 0. -1.
          2    1    1    2  502    0 -0.10464390817E+03 -0.21100227586E+02  0.30076290773E+03  0.31914556833E+03  0.00000000000E+00 0. -1.
          1    1    1    2  503    0 -0.22740968083E+02 -0.41551242490E+02 -0.71571674302E+03  0.71728245038E+03  0.00000000000E+00 0. -1.
<mgrwt>
<rscale>  0 0.71223470E+02</rscale>
<asrwt>0</asrwt>
<pdfrwt beam="2">  1        2 0.23566264E+00 0.47367261E+02</pdfrwt>
<pdfrwt beam="1">  1        1 0.49512823E-01 0.10709470E+03</pdfrwt>
<totfact> 0.16693201E+02</totfact>
</mgrwt>
</event>
<event>
 7    1  0.7037933E-004  0.6332141E+02  0.7546771E-02  0.1507380E+00
          2   -1    0    0  503    0  0.00000000000E+00  0.00000000000E+00  0.69607496349E+03  0.69607496349E+03  0.00000000000E+00 0. -1.
          1   -1    0    0  502    0 -0.00000000000E+00 -0.00000000000E+00 -0.53589461653E+02  0.53589461653E+02  0.00000000000E+00 0. -1.
         25    2    1    2    0    0  0.33541371333E+02 -0.66522942951E+02  0.19859388545E+03  0.24620028106E+03  0.12499888609E+03 0.  0.
          4    1    3    3  501    0  0.72362519992E+02 -0.57146483549E+01  0.11218415089E+03  0.13362592606E+03  0.12700000000E+01 0.  1.
         -4    1    3    3    0  501 -0.38821148659E+02 -0.60808294596E+02  0.86409734564E+02  0.11257435499E+03  0.12700000000E+01 0.  1.
          2    1    1    2  502    0 -0.86175467173E+01  0.61570212987E+02  0.34244635556E+01  0.62264598203E+02  0.00000000000E+00 0. -1.
          1    1    1    2  503    0 -0.24923824615E+02  0.49527299634E+01  0.44046715282E+03  0.44119954588E+03  0.00000000000E+00 0. -1.
<mgrwt>
<rscale>  0 0.40113215E+02</rscale>
<asrwt>0</asrwt>
<pdfrwt beam="1">  1        2 0.10708845E+00 0.25411150E+02</pdfrwt>
<pdfrwt beam="2">  1        1 0.82445331E-02 0.63321415E+02</pdfrwt>
<totfact> 0.46356920E+03</totfact>
</mgrwt>
</event>
<event>
 7    1  0.7037933E-004  0.9062182E+02  0.7546771E-02  0.1369962E+00
          1   -1    0    0  502    0 -0.00000000000E+00  0.00000000000E+00  0.48967308284E+03  0.48967308284E+03  0.00000000000E+00 0. -1.
          2   -1    0    0  503    0  0.00000000000E+00 -0.00000000000E+00 -0.25541940067E+03  0.25541940067E+03  0.00000000000E+00 0. -1.
         25    2    1    2    0    0  0.19516848027E+02  0.48007142255E+02  0.11599476577E+03  0.17822994315E+03  0.12500213552E+03 0.  0.
          4    1    3    3  501    0 -0.52902266844E+02  0.13318758595E+02  0.54070046258E+02  0.76819411415E+02  0.12700000000E+01 0. -1.
         -4    1    3    3    0  501  0.72419114871E+02  0.34688383660E+02  0.61924719514E+02  0.10141053173E+03  0.12700000000E+01 0. -1.
          2    1    1    2  502    0 -0.20334870757E+02  0.45457732387E+02  0.33087865149E+03  0.33460513208E+03  0.00000000000E+00 0. -1.
          1    1    1    2  503    0  0.81802273022E+00 -0.93464874643E+02 -0.21261973509E+03  0.23225740828E+03  0.00000000000E+00 0. -1.
<mgrwt>
<rscale>  0 0.67177755E+02</rscale>
<asrwt>0</asrwt>
<pdfrwt beam="2">  1        2 0.39295293E-01 0.90621824E+02</pdfrwt>
<pdfrwt beam="1">  1        1 0.75334320E-01 0.49798719E+02</pdfrwt>
<totfact> 0.84505414E+02</totfact>
</mgrwt>
</event>
<event>
 7    1  0.7037933E-004  0.4782488E+02  0.7546771E-02  0.1501945E+00
          2   -1    0    0  503    0  0.00000000000E+00  0.00000000000E+00  0.94327156890E+03  0.94327156890E+03  0.00000000000E+00 0. -1.
         -2   -1    0    0    0  501 -0.00000000000E+00 -0.00000000000E+00 -0.56460652420E+03  0.56460652420E+03  0.00000000000E+00 0.  1.
         25    2    1    2    0    0  0.61459854007E+02  0.64359128674E+01 -0.46382680390E+03  0.48433539954E+03  0.12500696221E+03 0.  0.
          4    1    3    3  502    0  0.41641831503E+02  0.46187795782E+02 -0.40928031854E+03  0.41397988677E+03  0.12700000000E+01 0.  1.
         -4    1    3    3    0  502  0.19818022504E+02 -0.39751882914E+02 -0.54546485362E+02  0.70355512765E+02  0.12700000000E+01 0.  1.
          1    1    1    2  503    0 -0.42122906463E+02  0.22637858446E+02  0.92901224534E+03  0.93024220711E+03  0.00000000000E+00 0. -1.
         -1    1    1    2    0  501 -0.19336947543E+02 -0.29073771313E+02 -0.86520396749E+02  0.93300486453E+02  0.00000000000E+00 0.  1.
<mgrwt>
<rscale>  0 0.40864466E+02</rscale>
<asrwt>0</asrwt>
<pdfrwt beam="1">  1        2 0.14511870E+00 0.47824879E+02</pdfrwt>
<pdfrwt beam="2">  1       -2 0.86862543E-01 0.34917069E+02</pdfrwt>
<totfact> 0.38774590E+01</totfact>
</mgrwt>
</event>
<event>
 7    1  0.7037933E-004  0.2633615E+02  0.7546771E-02  0.1687042E+00
          1   -1    0    0  502    0 -0.00000000000E+00  0.00000000000E+00  0.33685368980E+02  0.33685368980E+02  0.00000000000E+00 0. -1.
          2   -1    0    0  503    0  0.00000000000E+00 -0.00000000000E+00 -0.20523038352E+04  0.20523038352E+04  0.00000000000E+00 0. -1.
         25    2    1    2    0    0  0.37044219009E+02 -0.27886790805E+02 -0.11325353524E+04  0.11403557379E+04  0.12499974842E+03 0.  0.
          4    1    3    3  501    0 -0.25558999645E+02  0.35698489097E+02 -0.34786377389E+03  0.35062581575E+03  0.12700000000E+01 0.  1.
         -4    1    3    3    0  501  0.62603218653E+02 -0.63585279902E+02 -0.78467157856E+03  0.78972992213E+03  0.12700000000E+01 0.  1.
          2    1    1    2  502    0 -0.22722923497E+02  0.13113996685E+02  0.23857010683E+02  0.35460754646E+02  0.00000000000E+00 0. -1.
          1    1    1    2  503    0 -0.14321295511E+02  0.14772794120E+02 -0.90994012445E+03  0.91017271165E+03  0.00000000000E+00 0. -1.
<mgrwt>
<rscale>  0 0.23278083E+02</rscale>
<asrwt>0</asrwt>
<pdfrwt beam="2">  1        2 0.31573914E+00 0.20575105E+02</pdfrwt>
<pdfrwt beam="1">  1        1 0.51823631E-02 0.26336154E+02</pdfrwt>
<totfact> 0.16172729E+03</totfact>
</mgrwt>
</event>
<event>
 7    1  0.7037933E-004  0.5390016E+02  0.7546771E-02  0.1494187E+00
         -1   -1    0    0    0  501 -0.00000000000E+00  0.00000000000E+00  0.64295811406E+03  0.64295811406E+03  0.00000000000E+00 0.  1.
          1   -1    0    0  503    0  0.00000000000E+00 -0.00000000000E+00 -0.66272797452E+03  0.66272797452E+03  0.00000000000E+00 0. -1.
         25    2    1    2    0    0 -0.58918291241E+02  0.60290261578E+02  0.86120725083E+02  0.17363605400E+03  0.12500567698E+03 0.  0.
          4    1    3    3  502    0 -0.86904770002E+02  0.29087684525E+02  0.93644821115E+02  0.13103243057E+03  0.12700000000E+01 0.  1.
         -4    1    3    3    0  502  0.27986478761E+02  0.31202577053E+02 -0.75240960319E+01  0.42603623429E+02  0.12700000000E+01 0.  1.
          2    1    1    2  503    0  0.16981890427E+02 -0.27924049713E+02 -0.61716943628E+03  0.61803418210E+03  0.00000000000E+00 0. -1.
         -2    1    1    2    0  501  0.41936400815E+02 -0.32366211865E+02  0.51127885074E+03  0.51401585248E+03  0.00000000000E+00 0.  1.
<mgrwt>
<rscale>  0 0.41971237E+02</rscale>
<asrwt>0</asrwt>
<pdfrwt beam="2">  1        1 0.10195815E+00 0.32682368E+02</pdfrwt>
<pdfrwt beam="1">  1       -1 0.98916633E-01 0.53900157E+02</pdfrwt>
<totfact> 0.37126322E+01</totfact>
</mgrwt>
</event>
<event>
 7    1  0.7037933E-004  0.5779964E+02  0.7546771E-02  0.1409910E+00
          1   -1    0    0  502    0 -0.00000000000E+00  0.00000000000E+00  0.75940366529E+03  0.75940366529E+03  0.00000000000E+00 0. -1.
          2   -1    0    0  503    0  0.00000000000E+00 -0.00000000000E+00 -0.66238291730E+03  0.66238291730E+03  0.00000000000E+00 0. -1.
         25    2    1    2    0    0  0.67777951173E+02  0.14434014000E+02  0.29777961628E+03  0.33030429968E+03  0.12500415629E+03 0.  0.
          4    1    3    3  501    0  0.34182449648E+01  0.59822498102E+02  0.90323906366E+02  0.10839943099E+03  0.12700000000E+01 0.  1.
         -4    1    3    3    0  501  0.64359706209E+02 -0.45388484102E+02  0.20745570991E+03  0.22190486869E+03  0.12700000000E+01 0.  1.
          2    1    1    2  502    0 -0.43767080358E+02  0.38142377522E+02  0.44216779461E+03  0.44596273037E+03  0.00000000000E+00 0. -1.
          1    1    1    2  503    0 -0.24010870816E+02 -0.52576391522E+02 -0.64292666289E+03  0.64551955255E+03  0.00000000000E+00 0. -1.
<mgrwt>
<rscale>  0 0.57213832E+02</rscale>
<asrwt>0</asrwt>
<pdfrwt beam="2">  1        2 0.10190506E+00 0.57799644E+02</pdfrwt>
<pdfrwt beam="1">  1        1 0.11683133E+00 0.56633957E+02</pdfrwt>
<totfact> 0.17208012E+02</totfact>
</mgrwt>
</event>
<event>
 7    1  0.7037933E-004  0.8912774E+02  0.7546771E-02  0.1328989E+00
          1   -1    0    0  502    0 -0.00000000000E+00  0.00000000000E+00  0.28515765995E+03  0.28515765995E+03  0.00000000000E+00 0. -1.
          2   -1    0    0  503    0  0.00000000000E+00 -0.00000000000E+00 -0.13419135272E+03  0.13419135272E+03  0.00000000000E+00 0. -1.
         25    2    1    2    0    0  0.41430206904E+02  0.41824937767E+02  0.12301389815E+03  0.18499567827E+03  0.12500077750E+03 0.  0.
          4    1    3    3  501    0 -0.10925412956E+02  0.31602809933E+02 -0.15264376832E+02  0.36779292326E+02  0.12700000000E+01 0.  1.
         -4    1    3    3    0  501  0.52355619860E+02  0.10222127834E+02  0.13827827499E+03  0.14821638594E+03  0.12700000000E+01 0.  1.
          2    1    1    2  502    0 -0.56608452535E+02 -0.11205012103E+03  0.77083020503E+02  0.14731442078E+03  0.00000000000E+00 0. -1.
          1    1    1    2  503    0  0.15178245632E+02  0.70225183261E+02 -0.49130611433E+02  0.87038913621E+02  0.00000000000E+00 0. -1.
<mgrwt>
<rscale>  0 0.80022110E+02</rscale>
<asrwt>0</asrwt>
<pdfrwt beam="2">  1        2 0.20644824E-01 0.71846750E+02</pdfrwt>
<pdfrwt beam="1">  1        1 0.43870409E-01 0.89127736E+02</pdfrwt>
<totfact> 0.32332653E+03</totfact>
</mgrwt>
</event>
<event>
 7    1  0.7037933E-004  0.8340224E+02  0.7546771E-02  0.1485079E+00
          1   -1    0    0  502    0 -0.00000000000E+00  0.00000000000E+00  0.18447030556E+03  0.18447030556E+03  0.00000000000E+00 0. -1.
          2   -1    0    0  503    0  0.00000000000E+00 -0.00000000000E+00 -0.12272055905E+04  0.12272055905E+04  0.00000000000E+00 0. -1.
         25    2    1    2    0    0 -0.67895270487E+02  0.71495753306E+02 -0.63016701344E+02  0.17123146830E+03  0.12501080190E+03 0.  0.
          4    1    3    3  501    0 -0.49513694700E+02  0.21081483152E+02  0.31622061487E+02  0.62430782210E+02  0.12700000000E+01 0.  1.
         -4    1    3    3    0  501 -0.18381575787E+02  0.50414270155E+02 -0.94638762831E+02  0.10880068609E+03  0.12700000000E+01 0.  1.
          2    1    1    2  502    0  0.22411774958E+02 -0.20556155453E+01  0.12782664041E+03  0.12979277026E+03  0.00000000000E+00 0. -1.
          1    1    1    2  503    0  0.45483495529E+02 -0.69440137761E+02 -0.11075452240E+04  0.11106516575E+04  0.00000000000E+00 0. -1.
<mgrwt>
<rscale>  0 0.43324798E+02</rscale>
<asrwt>0</asrwt>
<pdfrwt beam="2">  1        2 0.18880086E+00 0.83402237E+02</pdfrwt>
<pdfrwt beam="1">  1        1 0.28380048E-01 0.22505848E+02</pdfrwt>
<totfact> 0.43388491E+02</totfact>
</mgrwt>
</event>
<event>
 7    1  0.7037933E-004  0.9043679E+02  0.7546771E-02  0.1329438E+00
          2   -1    0    0  503    0  0.00000000000E+00  0.00000000000E+00  0.80870334429E+03  0.80870334429E+03  0.00000000000E+00 0. -1.
          1   -1    0    0  502    0 -0.00000000000E+00 -0.00000000000E+00 -0.24827906809E+03  0.24827906809E+03  0.00000000000E+00 0. -1.
         25    2    1    2    0    0 -0.11944123255E+03 -0.78196781701E+02  0.43050497157E+02  0.19457143031E+03  0.12499500584E+03 0.  0.
          4    1    3    3  501    0 -0.50064781871E+02 -0.98389815756E+02 -0.10021721805E+00  0.11040226978E+03  0.12700000000E+01 0. -1.
         -4    1    3    3    0  501 -0.69376450679E+02  0.20193034055E+02  0.43150714375E+02  0.84169160529E+02  0.12700000000E+01 0. -1.
          2    1    1    2  502    0  0.70408165317E+02  0.40909776202E+01 -0.16229571080E+03  0.17695746264E+03  0.00000000000E+00 0. -1.
          1    1    1    2  503    0  0.49033067233E+02  0.74105804081E+02  0.67966948984E+03  0.68545351943E+03  0.00000000000E+00 0. -1.
<mgrwt>
<rscale>  0 0.79863806E+02</rscale>
<asrwt>0</asrwt>
<pdfrwt beam="1">  1        2 0.12441590E+00 0.90436786E+02</pdfrwt>
<pdfrwt beam="2">  1        1 0.38196780E-01 0.70526916E+02</pdfrwt>
<totfact> 0.54871635E+02</totfact>
</mgrwt>
</event>
<event>
 7    1  0.7037933E-004  0.8457343E+02  0.7546771E-02  0.1325917E+00
          1   -1    0    0  503    0  0.00000000000E+00  0.00000000000E+00  0.74849122589E+02  0.74849122589E+02  0.00000000000E+00 0. -1.
         -1   -1    0    0    0  501 -0.00000000000E+00 -0.00000000000E+00 -0.96774769006E+03  0.96774769006E+03  0.00000000000E+00 0.  1.
         25    2    1    2    0    0 -0.72956701635E+02 -0.34747653212E+02 -0.19361657195E+03  0.24421251533E+03  0.12498918350E+03 0.  0.
          4    1    3    3  502    0 -0.94480699931E+02 -0.15140279068E+02 -0.73645084266E+02  0.12075198568E+03  0.12700000000E+01 0. -1.
         -4    1    3    3    0  502  0.21523998296E+02 -0.19607374144E+02 -0.11997148769E+03  0.12346052965E+03  0.12700000000E+01 0. -1.
          2    1    1    2  503    0  0.57618571855E+02 -0.52274641561E+02  0.14513409990E+02  0.79140236558E+02  0.00000000000E+00 0. -1.
         -2    1    1    2    0  501  0.15338129780E+02  0.87022294773E+02 -0.71379540551E+03  0.71924406076E+03  0.00000000000E+00 0.  1.
<mgrwt>
<rscale>  0 0.81115032E+02</rscale>
<asrwt>0</asrwt>
<pdfrwt beam="1">  1        1 0.11515251E-01 0.77798059E+02</pdfrwt>
<pdfrwt beam="2">  1       -1 0.14888424E+00 0.84573426E+02</pdfrwt>
<totfact> 0.20728877E+02</totfact>
</mgrwt>
</event>
<event>
 7    1  0.7037933E-004  0.3531282E+02  0.7546771E-02  0.1609134E+00
          1   -1    0    0  502    0 -0.00000000000E+00  0.00000000000E+00  0.18526726192E+03  0.18526726192E+03  0.00000000000E+00 0. -1.
          2   -1    0    0  503    0  0.00000000000E+00 -0.00000000000E+00 -0.22305070235E+03  0.22305070235E+03  0.00000000000E+00 0. -1.
         25    2    1    2    0    0 -0.48411552722E+02  0.29290490133E+02  0.76960378363E+02  0.15732262876E+03  0.12500359368E+03 0.  0.
          4    1    3    3  501    0 -0.86436491035E+02  0.37560150071E+02  0.36229412462E+02  0.10097630951E+03  0.12700000000E+01 0. -1.
         -4    1    3    3    0  501  0.38024938313E+02 -0.82696599382E+01  0.40730965901E+02  0.56346319245E+02  0.12700000000E+01 0. -1.
          2    1    1    2  502    0  0.23366249789E+02 -0.48050269886E+01  0.64287069182E+02  0.68570381197E+02  0.00000000000E+00 0. -1.
          1    1    1    2  503    0  0.25045302932E+02 -0.24485463144E+02 -0.17903088798E+03  0.18242495431E+03  0.00000000000E+00 0. -1.
<mgrwt>
<rscale>  0 0.29024023E+02</rscale>
<asrwt>0</asrwt>
<pdfrwt beam="2">  1        2 0.34315493E-01 0.35312820E+02</pdfrwt>
<pdfrwt beam="1">  1        1 0.28502656E-01 0.23855186E+02</pdfrwt>
<totfact> 0.30033935E+03</totfact>
</mgrwt>
</event>
<event>
 7    1  0.7037933E-004  0.1219811E+03  0.7546771E-02  0.1426518E+00
          2   -1    0    0  503    0  0.00000000000E+00  0.00000000000E+00  0.14246804540E+03  0.14246804540E+03  0.00000000000E+00 0. -1.
          1   -1    0    0  502    0 -0.00000000000E+00 -0.00000000000E+00 -0.32927162949E+04  0.32927162949E+04  0.00000000000E+00 0. -1.
         25    2    1    2    0    0  0.89861399881E+02  0.84199120583E+02 -0.65245915941E+02  0.18720510324E+03  0.12499663210E+03 0.  0.
          4    1    3    3  501    0  0.83985499504E+02  0.56718396257E+02 -0.10007610830E+03  0.14243377743E+03  0.12700000000E+01 0.  1.
         -4    1    3    3    0  501  0.58759003766E+01  0.27480724326E+02  0.34830192361E+02  0.44771325808E+02  0.12700000000E+01 0.  1.
          2    1    1    2  502    0 -0.71404962455E+02 -0.98922978946E+02 -0.31635797958E+04  0.31659313872E+04  0.00000000000E+00 0. -1.
          1    1    1    2  503    0 -0.18456437426E+02  0.14723858363E+02  0.78577462230E+02  0.82047849808E+02  0.00000000000E+00 0. -1.
<mgrwt>
<rscale>  0 0.53665377E+02</rscale>
<asrwt>0</asrwt>
<pdfrwt beam="1">  1        2 0.21918163E-01 0.23610000E+02</pdfrwt>
<pdfrwt beam="2">  1        1 0.50657170E+00 0.12198106E+03</pdfrwt>
<totfact> 0.15945225E+01</totfact>
</mgrwt>
</event>
<event>
 7    1  0.7037933E-004  0.2478397E+03  0.7546771E-02  0.1147574E+00
          1   -1    0    0  502    0 -0.00000000000E+00  0.00000000000E+00  0.14172452002E+04  0.14172452002E+04  0.00000000000E+00 0. -1.
          2   -1    0    0  503    0  0.00000000000E+00 -0.00000000000E+00 -0.12454401794E+04  0.12454401794E+04  0.00000000000E+00 0. -1.
         25    2    1    2    0    0  0.13773644236E+03 -0.58428343854E+02  0.25926142449E+03  0.32438747909E+03  0.12500220576E+03 0.  0.
          4    1    3    3  501    0  0.96157250025E+02 -0.98113361712E+02  0.18718185861E+03  0.23218766025E+03  0.12700000000E+01 0. -1.
         -4    1    3    3    0  501  0.41579192337E+02  0.39685017858E+02  0.72079565881E+02  0.92199818847E+02  0.12700000000E+01 0. -1.
          2    1    1    2  502    0 -0.29669307668E+03  0.10485311394E+03  0.10975539027E+04  0.11417729751E+04  0.00000000000E+00 0. -1.
          1    1    1    2  503    0  0.15895663432E+03 -0.46424770081E+02 -0.11850103064E+04  0.11965249254E+04  0.00000000000E+00 0. -1.
<mgrwt>
<rscale>  0 0.20258725E+03</rscale>
<asrwt>0</asrwt>
<pdfrwt beam="2">  1        2 0.19160618E+00 0.16559732E+03</pdfrwt>
<pdfrwt beam="1">  1        1 0.21803772E+00 0.24783974E+03</pdfrwt>
<totfact> 0.21950682E+01</totfact>
</mgrwt>
</event>
<event>
 7    1  0.7037933E-004  0.1119970E+03  0.7546771E-02  0.1311735E+00
          1   -1    0    0  502    0 -0.00000000000E+00  0.00000000000E+00  0.92930929350E+03  0.92930929350E+03  0.00000000000E+00 0. -1.
          2   -1    0    0  503    0  0.00000000000E+00 -0.00000000000E+00 -0.37421434823E+04  0.37421434823E+04  0.00000000000E+00 0. -1.
         25    2    1    2    0    0 -0.73791250370E+02 -0.15643676914E+03  0.57386652796E+02  0.22098638646E+03  0.12499657481E+03 0.  0.
          4    1    3    3  501    0 -0.27095130544E+02 -0.10237660548E+02 -0.32154938619E+02  0.43295597586E+02  0.12700000000E+01 0.  1.
         -4    1    3    3    0  501 -0.46696119826E+02 -0.14619910859E+03  0.89541591415E+02  0.17769078888E+03  0.12700000000E+01 0.  1.
          2    1    1    2  502    0  0.80352327545E+01  0.66213596723E+02  0.78786200485E+03  0.79068030457E+03  0.00000000000E+00 0. -1.
          1    1    1    2  503    0  0.65756017616E+02  0.90223172413E+02 -0.36580828464E+04  0.36597860847E+04  0.00000000000E+00 0. -1.
<mgrwt>
<rscale>  0 0.86429903E+02</rscale>
<asrwt>0</asrwt>
<pdfrwt beam="2">  1        2 0.57571438E+00 0.11199699E+03</pdfrwt>
<pdfrwt beam="1">  1        1 0.14297066E+00 0.66699365E+02</pdfrwt>
<totfact> 0.22175311E+00</totfact>
</mgrwt>
</event>
<event>
 7    1  0.7037933E-004  0.3367489E+02  0.7546771E-02  0.1561471E+00
          1   -1    0    0  502    0 -0.00000000000E+00  0.00000000000E+00  0.29044044361E+03  0.29044044361E+03  0.00000000000E+00 0. -1.
          2   -1    0    0  503    0  0.00000000000E+00 -0.00000000000E+00 -0.29310288348E+03  0.29310288348E+03  0.00000000000E+00 0. -1.
         25    2    1    2    0    0  0.21139162499E+02 -0.97843163346E+01 -0.22719935842E+03  0.26035966281E+03  0.12500003407E+03 0.  0.
          4    1    3    3  501    0  0.20414780292E+02 -0.66664759219E+02 -0.13672542094E+03  0.15348096627E+03  0.12700000000E+01 0. -1.
         -4    1    3    3    0  501  0.72438220712E+00  0.56880442884E+02 -0.90473937479E+02  0.10687869655E+03  0.12700000000E+01 0. -1.
          2    1    1    2  502    0  0.18573480367E+02  0.27890983789E+02  0.26292878853E+03  0.26505552057E+03  0.00000000000E+00 0. -1.
          1    1    1    2  503    0 -0.39712642866E+02 -0.18106667454E+02 -0.38391869976E+02  0.58128143700E+02  0.00000000000E+00 0. -1.
<mgrwt>
<rscale>  0 0.33592050E+02</rscale>
<asrwt>0</asrwt>
<pdfrwt beam="2">  1        2 0.45092751E-01 0.33674886E+02</pdfrwt>
<pdfrwt beam="1">  1        1 0.44683145E-01 0.33509419E+02</pdfrwt>
<totfact> 0.13573067E+03</totfact>
</mgrwt>
</event>
<event>
 7    1  0.7037933E-004  0.9214764E+02  0.7546771E-02  0.1423217E+00
          2   -1    0    0  503    0  0.00000000000E+00  0.00000000000E+00  0.12689418316E+02  0.12689418316E+02  0.00000000000E+00 0. -1.
          1   -1    0    0  502    0 -0.00000000000E+00 -0.00000000000E+00 -0.34042719791E+04  0.34042719791E+04  0.00000000000E+00 0. -1.
         25    2    1    2    0    0 -0.19557244602E+02  0.11585601086E+03 -0.14248077842E+04  0.14350980074E+04  0.12499587183E+03 0.  0.
          4    1    3    3  501    0  0.14913405512E+01  0.39150018574E+02 -0.93092539044E+02  0.10100882029E+03  0.12700000000E+01 0.  1.
         -4    1    3    3    0  501 -0.21048585153E+02  0.76705992283E+02 -0.13317152451E+04  0.13340891871E+04  0.12700000000E+01 0.  1.
          2    1    1    2  502    0  0.15015981253E+02 -0.28316714374E+02 -0.17143904322E+04  0.17146900216E+04  0.00000000000E+00 0. -1.
          1    1    1    2  503    0  0.45412633494E+01 -0.87539296483E+02 -0.25238434436E+03  0.26717336839E+03  0.00000000000E+00 0. -1.
<mgrwt>
<rscale>  0 0.54346068E+02</rscale>
<asrwt>0</asrwt>
<pdfrwt beam="1">  1        2 0.19522166E-02 0.92147644E+02</pdfrwt>
<pdfrwt beam="2">  1        1 0.52373459E+00 0.32051771E+02</pdfrwt>
<totfact> 0.38059805E+02</totfact>
</mgrwt>
</event>
<event>
 7    1  0.7037933E-004  0.8590337E+02  0.7546771E-02  0.1374755E+00
          2   -1    0    0  503    0  0.00000000000E+00  0.00000000000E+00  0.12314844746E+04  0.12314844746E+04  0.00000000000E+00 0. -1.
          1   -1    0    0  502    0 -0.00000000000E+00 -0.00000000000E+00 -0.80677310185E+02  0.80677310185E+02  0.00000000000E+00 0. -1.
         25    2    1    2    0    0 -0.11634631836E+03 -0.42161222117E+01  0.30136695654E+03  0.34642573442E+03  0.12503801619E+03 0.  0.
          4    1    3    3  501    0 -0.12124515659E+03 -0.42542910463E+02  0.25866008833E+03  0.28881991175E+03  0.12700000000E+01 0.  1.
         -4    1    3    3    0  501  0.48988382271E+01  0.38326788251E+02  0.42706868208E+02  0.57605822672E+02  0.12700000000E+01 0.  1.
          2    1    1    2  502    0  0.78504409272E+02 -0.29220255397E+02 -0.26871416528E+02  0.87970669128E+02  0.00000000000E+00 0. -1.
          1    1    1    2  503    0  0.37841909093E+02  0.33436377609E+02  0.87631162436E+03  0.87776538119E+03  0.00000000000E+00 0. -1.
<mgrwt>
<rscale>  0 0.65862801E+02</rscale>
<asrwt>0</asrwt>
<pdfrwt beam="1">  1        2 0.18945914E+00 0.50497539E+02</pdfrwt>
<pdfrwt beam="2">  1        1 0.12411895E-01 0.85903366E+02</pdfrwt>
<totfact> 0.13158916E+03</totfact>
</mgrwt>
</event>
<event>
 7    1  0.7037933E-004  0.5166270E+02  0.7546771E-02  0.1445152E+00
          1   -1    0    0  503    0  0.00000000000E+00  0.00000000000E+00  0.23328647000E+03  0.23328647000E+03  0.00000000000E+00 0. -1.
         -1   -1    0    0    0  501 -0.00000000000E+00 -0.00000000000E+00 -0.40019576885E+03  0.40019576885E+03  0.00000000000E+00 0.  1.
         25    2    1    2    0    0  0.58680037611E+02  0.94740322106E+01  0.13527194966E+03  0.19355950795E+03  0.12503470979E+03 0.  0.
          4    1    3    3  502    0  0.47386574182E+02  0.11443245129E+02 -0.83501858263E+01  0.49474981305E+02  0.12700000000E+01 0. -1.
         -4    1    3    3    0  502  0.11293463429E+02 -0.19692129188E+01  0.14362213549E+03  0.14408452664E+03  0.12700000000E+01 0. -1.
          2    1    1    2  503    0 -0.41329084534E+02  0.35772193603E+02  0.56131190630E+02  0.78348284124E+02  0.00000000000E+00 0. -1.
         -2    1    1    2    0  501 -0.17350953077E+02 -0.45246225814E+02 -0.35831243913E+03  0.36157444678E+03  0.00000000000E+00 0.  1.
<mgrwt>
<rscale>  0 0.50035225E+02</rscale>
<asrwt>0</asrwt>
<pdfrwt beam="1">  1        1 0.35890226E-01 0.51662699E+02</pdfrwt>
<pdfrwt beam="2">  1       -1 0.61568580E-01 0.48459019E+02</pdfrwt>
<totfact> 0.33947745E+02</totfact>
</mgrwt>
</event>
<event>
 7    1  0.7037933E-004  0.1468463E+03  0.7546771E-02  0.1408921E+00
          2   -1    0    0  503    0  0.00000000000E+00  0.00000000000E+00  0.10640244285E+04  0.10640244285E+04  0.00000000000E+00 0. -1.
          1   -1    0    0  502    0 -0.00000000000E+00 -0.00000000000E+00 -0.53634891232E+03  0.53634891232E+03  0.00000000000E+00 0. -1.
         25    2    1    2    0    0  0.45506885852E+02 -0.15454917145E+03  0.17635844715E+03  0.26959629443E+03  0.12499414798E+03 0.  0.
          4    1    3    3  501    0 -0.37738061321E+02 -0.17087857359E+02  0.51375971378E+02  0.66009540798E+02  0.12700000000E+01 0. -1.
         -4    1    3    3    0  501  0.83244947173E+02 -0.13746131410E+03  0.12498247578E+03  0.20358675363E+03  0.12700000000E+01 0. -1.
          2    1    1    2  502    0  0.95036996245E+01  0.20355049603E+02 -0.48321470703E+03  0.48373660337E+03  0.00000000000E+00 0. -1.
          1    1    1    2  503    0 -0.55010585476E+02  0.13419412185E+03  0.83453177610E+03  0.84704044306E+03  0.00000000000E+00 0. -1.
<mgrwt>
<rscale>  0 0.57435269E+02</rscale>
<asrwt>0</asrwt>
<pdfrwt beam="1">  1        2 0.16369607E+00 0.14684626E+03</pdfrwt>
<pdfrwt beam="2">  1        1 0.82515217E-01 0.22464380E+02</pdfrwt>
<totfact> 0.14912788E+02</totfact>
</mgrwt>
</event>
<event>
 7    1  0.7037933E-004  0.6995081E+02  0.7546771E-02  0.1412482E+00
         -2   -1    0    0    0  501 -0.00000000000E+00  0.00000000000E+00  0.27774270995E+03  0.27774270995E+03  0.00000000000E+00 0.  1.
          2   -1    0    0  503    0  0.00000000000E+00 -0.00000000000E+00 -0.25407606508E+04  0.25407606508E+04  0.00000000000E+00 0. -1.
         25    2    1    2    0    0  0.49525144420E+01  0.80568151396E+02 -0.10436775809E+04  0.10542305548E+04  0.12499366164E+03 0.  0.
          4    1    3    3  502    0 -0.53735695206E+02  0.55148060269E+02 -0.73308922255E+03  0.73712295759E+03  0.12700000000E+01 0.  1.
         -4    1    3    3    0  502  0.58688209648E+02  0.25420091128E+02 -0.31058835834E+03  0.31710759723E+03  0.12700000000E+01 0.  1.
          1    1    1    2  503    0  0.38153687324E+02 -0.25459202762E+02 -0.14869555964E+04  0.14876628719E+04  0.00000000000E+00 0. -1.
         -1    1    1    2    0  501 -0.43106201767E+02 -0.55108948635E+02  0.26761523641E+03  0.27660993404E+03  0.00000000000E+00 0.  1.
<mgrwt>
<rscale>  0 0.56643666E+02</rscale>
<asrwt>0</asrwt>
<pdfrwt beam="2">  1        2 0.39088625E+00 0.45868016E+02</pdfrwt>
<pdfrwt beam="1">  1       -2 0.42729648E-01 0.69950812E+02</pdfrwt>
<totfact> 0.25617899E+01</totfact>
</mgrwt>
</event>
<event>
 7    1  0.7037933E-004  0.5782132E+02  0.7546771E-02  0.1552851E+00
          2   -1    0    0  503    0  0.00000000000E+00  0.00000000000E+00  0.72977236067E+03  0.72977236067E+03  0.00000000000E+00 0. -1.
          1   -1    0    0  502    0 -0.00000000000E+00 -0.00000000000E+00 -0.62495431896E+02  0.62495431896E+02  0.00000000000E+00 0. -1.
         25    2    1    2    0    0 -0.34733887393E+01 -0.38886918703E+02  0.10815344322E+03  0.16984374075E+03  0.12500188845E+03 0.  0.
          4    1    3    3  501    0 -0.53061709580E+02 -0.21069213609E+02  0.10184175028E+03  0.11675963252E+03  0.12700000000E+01 0.  1.
         -4    1    3    3    0  501  0.49588320841E+02 -0.17817705094E+02  0.63116929355E+01  0.53084108228E+02  0.12700000000E+01 0.  1.
          2    1    1    2  502    0  0.57458141568E+01 -0.19799104800E+02 -0.26661439491E+02  0.33702392897E+02  0.00000000000E+00 0. -1.
          1    1    1    2  503    0 -0.22724254175E+01  0.58686023503E+02  0.58578492505E+03  0.58872165892E+03  0.00000000000E+00 0. -1.
<mgrwt>
<rscale>  0 0.34525984E+02</rscale>
<asrwt>0</asrwt>
<pdfrwt beam="1">  1        2 0.11227267E+00 0.57821320E+02</pdfrwt>
<pdfrwt beam="2">  1        1 0.96146823E-02 0.20615987E+02</pdfrwt>
<totfact> 0.31853140E+03</totfact>
</mgrwt>
</event>
<event>
 7    1  0.7037933E-004  0.4736666E+02  0.7546771E-02  0.1510215E+00
          2   -1    0    0  503    0  0.00000000000E+00  0.00000000000E+00  0.38779797669E+03  0.38779797669E+03  0.00000000000E+00 0. -1.
         -2   -1    0    0    0  501 -0.00000000000E+00 -0.00000000000E+00 -0.27276351620E+03  0.27276351620E+03  0.00000000000E+00 0.  1.
         25    2    1    2    0    0  0.53599858066E+02  0.48462876978E+02  0.73751704327E+02  0.16213053287E+03  0.12500160226E+03 0.  0.
          4    1    3    3  502    0  0.11085088701E+02 -0.38852185060E+02  0.45752431519E+02  0.61051366614E+02  0.12700000000E+01 0. -1.
         -4    1    3    3    0  502  0.42514769364E+02  0.87315062038E+02  0.27999272807E+02  0.10107916625E+03  0.12700000000E+01 0. -1.
          1    1    1    2  503    0 -0.32699437794E+02 -0.64158278924E+01  0.26639637839E+03  0.26847243155E+03  0.00000000000E+00 0. -1.
         -1    1    1    2    0  501 -0.20900420272E+02 -0.42047049086E+02 -0.22511362224E+03  0.22995852848E+03  0.00000000000E+00 0.  1.
<mgrwt>
<rscale>  0 0.39729015E+02</rscale>
<asrwt>0</asrwt>
<pdfrwt beam="1">  1        2 0.59661228E-01 0.33322906E+02</pdfrwt>
<pdfrwt beam="2">  1       -2 0.41963618E-01 0.47366656E+02</pdfrwt>
<totfact> 0.44770441E+02</totfact>
</mgrwt>
</event>
<event>
 7    1  0.7037933E-004  0.1398350E+03  0.7546771E-02  0.1375321E+00
         -2   -1    0    0    0  501 -0.00000000000E+00  0.00000000000E+00  0.64934780136E+03  0.64934780136E+03  0.00000000000E+00 0.  1.
          2   -1    0    0  503    0  0.00000000000E+00 -0.00000000000E+00 -0.65025432604E+03  0.65025432604E+03  0.00000000000E+00 0. -1.
         25    2    1    2    0    0 -0.23925573299E+02 -0.10798443008E+03 -0.10053733613E+03  0.19486676518E+03  0.12502891673E+03 0.  0.
          4    1    3    3  502    0 -0.35136123396E+02  0.17104963397E+02 -0.38153230720E+02  0.54629743313E+02  0.12700000000E+01 0.  1.
         -4    1    3    3    0  502  0.11210550096E+02 -0.12508939348E+03 -0.62384105409E+02  0.14023702187E+03  0.12700000000E+01 0.  1.
          1    1    1    2  503    0 -0.66393781111E+01 -0.30155576894E+02 -0.49375320475E+03  0.49471776536E+03  0.00000000000E+00 0. -1.
         -1    1    1    2    0  501  0.30564951410E+02  0.13814000698E+03  0.59338401621E+03  0.61001759686E+03  0.00000000000E+00 0.  1.
<mgrwt>
<rscale>  0 0.65709983E+02</rscale>
<asrwt>0</asrwt>
<pdfrwt beam="2">  1        2 0.10003913E+00 0.30877826E+02</pdfrwt>
<pdfrwt beam="1">  1       -2 0.99899662E-01 0.13983503E+03</pdfrwt>
<totfact> 0.43148776E+01</totfact>
</mgrwt>
</event>
<event>
 7    1  0.7037933E-004  0.1197239E+03  0.7546771E-02  0.1351154E+00
          1   -1    0    0  503    0  0.00000000000E+00  0.00000000000E+00  0.30474777534E+03  0.30474777534E+03  0.00000000000E+00 0. -1.
         -1   -1    0    0    0  501 -0.00000000000E+00 -0.00000000000E+00 -0.25899619373E+03  0.25899619373E+03  0.00000000000E+00 0.  1.
         25    2    1    2    0    0  0.35739580370E+02 -0.13107467943E+03  0.10379829966E+03  0.21179446271E+03  0.12499967292E+03 0.  0.
          4    1    3    3  502    0  0.58500910634E+02 -0.14378709373E+03  0.73363882176E+02  0.17170019504E+03  0.12700000000E+01 0. -1.
         -4    1    3    3    0  502 -0.22761330264E+02  0.12712414299E+02  0.30434417486E+02  0.40094267675E+02  0.12700000000E+01 0. -1.
          2    1    1    2  503    0 -0.62696399732E+02  0.96119386770E+02  0.12145721205E+03  0.16709766429E+03  0.00000000000E+00 0. -1.
         -2    1    1    2    0  501  0.26956819362E+02  0.34955292656E+02 -0.17950393010E+03  0.18485184207E+03  0.00000000000E+00 0.  1.
<mgrwt>
<rscale>  0 0.72697235E+02</rscale>
<asrwt>0</asrwt>
<pdfrwt beam="1">  1        1 0.46884273E-01 0.11972389E+03</pdfrwt>
<pdfrwt beam="2">  1       -1 0.39845568E-01 0.44142299E+02</pdfrwt>
<totfact> 0.53338205E+02</totfact>
</mgrwt>
</event>
<event>
 7    1  0.7037933E-004  0.4040481E+02  0.7546771E-02  0.1513356E+00
          1   -1    0    0  502    0 -0.00000000000E+00  0.00000000000E+00  0.32313012534E+03  0.32313012534E+03  0.00000000000E+00 0. -1.
          2   -1    0    0  503    0  0.00000000000E+00 -0.00000000000E+00 -0.24086332196E+04  0.24086332196E+04  0.00000000000E+00 0. -1.
         25    2    1    2    0    0 -0.51173804788E+02 -0.54968743370E+02  0.29621464370E+02  0.14880409367E+03  0.12499962439E+03 0.  0.
          4    1    3    3  501    0 -0.18552147866E+02  0.18489530937E+02 -0.36344048225E+02  0.44816823695E+02  0.12700000000E+01 0.  1.
         -4    1    3    3    0  501 -0.32621656922E+02 -0.73458274308E+02  0.65965512596E+02  0.10398726997E+03  0.12700000000E+01 0.  1.
          2    1    1    2  502    0  0.16371949870E+02  0.34562153941E+02  0.23217971133E+03  0.23530831176E+03  0.00000000000E+00 0. -1.
          1    1    1    2  503    0  0.34801854918E+02  0.20406589430E+02 -0.23473042699E+04  0.23476509395E+04  0.00000000000E+00 0. -1.
<mgrwt>
<rscale>  0 0.39309424E+02</rscale>
<asrwt>0</asrwt>
<pdfrwt beam="2">  1        2 0.37055897E+00 0.40404810E+02</pdfrwt>
<pdfrwt beam="1">  1        1 0.49712326E-01 0.38243734E+02</pdfrwt>
<totfact> 0.63297297E+01</totfact>
</mgrwt>
</event>
<event>
 7    1  0.7037933E-004  0.1784845E+03  0.7546771E-02  0.1290351E+00
          1   -1    0    0  502    0 -0.00000000000E+00  0.00000000000E+00  0.26902103524E+03  0.26902103524E+03  0.00000000000E+00 0. -1.
          2   -1    0    0  503    0  0.00000000000E+00 -0.00000000000E+00 -0.80074389440E+03  0.80074389440E+03  0.00000000000E+00 0. -1.
         25    2    1    2    0    0 -0.30615104360E+01 -0.21349894258E+03 -0.21848811800E+02  0.24837843420E+03  0.12499321851E+03 0.  0.
          4    1    3    3  501    0  0.39163562549E+02 -0.10474764234E+03  0.36882429547E+02  0.11776153751E+03  0.12700000000E+01 0. -1.
         -4    1    3    3    0  501 -0.42225072985E+02 -0.10875130024E+03 -0.58731241347E+02  0.13061689670E+03  0.12700000000E+01 0. -1.
          2    1    1    2  502    0  0.30879470115E+02  0.40533802028E+02  0.13964759665E+03  0.14865390016E+03  0.00000000000E+00 0. -1.
          1    1    1    2  503    0 -0.27817959680E+02  0.17296514055E+03 -0.64952164401E+03  0.67273259529E+03  0.00000000000E+00 0. -1.
<mgrwt>
<rscale>  0 0.95367121E+02</rscale>
<asrwt>0</asrwt>
<pdfrwt beam="2">  1        2 0.12319137E+00 0.17848454E+03</pdfrwt>
<pdfrwt beam="1">  1        1 0.41387852E-01 0.50956165E+02</pdfrwt>
<totfact> 0.49021795E+02</totfact>
</mgrwt>
</event>
<event>
 7    1  0.7037933E-004  0.1440637E+03  0.7546771E-02  0.1254444E+00
          2   -1    0    0  503    0  0.00000000000E+00  0.00000000000E+00  0.61464368783E+03  0.61464368783E+03  0.00000000000E+00 0. -1.
          1   -1    0    0  502    0 -0.00000000000E+00 -0.00000000000E+00 -0.93436038332E+03  0.93436038332E+03  0.00000000000E+00 0. -1.
         25    2    1    2    0    0 -0.38272481154E+02 -0.67487840907E+02  0.70411349421E+02  0.16310152688E+03  0.12499983384E+03 0.  0.
          4    1    3    3  501    0  0.25234827526E+02 -0.59117257520E+02  0.75101421106E+02  0.98860927616E+02  0.12700000000E+01 0.  1.
         -4    1    3    3    0  501 -0.63507308679E+02 -0.83705833867E+01 -0.46900716842E+01  0.64240599268E+02  0.12700000000E+01 0.  1.
          2    1    1    2  502    0 -0.12539621703E+02 -0.88338809621E+02 -0.87218848480E+03  0.87674040651E+03  0.00000000000E+00 0. -1.
          1    1    1    2  503    0  0.50812102857E+02  0.15582665053E+03  0.48206043989E+03  0.50916213775E+03  0.00000000000E+00 0. -1.
<mgrwt>
<rscale>  0 0.11337546E+03</rscale>
<asrwt>0</asrwt>
<pdfrwt beam="1">  1        2 0.94560568E-01 0.14406374E+03</pdfrwt>
<pdfrwt beam="2">  1        1 0.14374775E+00 0.89224365E+02</pdfrwt>
<totfact> 0.13079879E+02</totfact>
</mgrwt>
</event>
<event>
 7    1  0.7037933E-004  0.3382283E+03  0.7546771E-02  0.1189438E+00
          1   -1    0    0  502    0 -0.00000000000E+00  0.00000000000E+00  0.26284689976E+04  0.26284689976E+04  0.00000000000E+00 0. -1.
          2   -1    0    0  503    0  0.00000000000E+00 -0.00000000000E+00 -0.84614722380E+03  0.84614722380E+03  0.00000000000E+00 0. -1.
         25    2    1    2    0    0 -0.10373022778E+03 -0.32973610750E+03  0.12789812520E+04  0.13307529475E+04  0.12499801413E+03 0.  0.
          4    1    3    3  501    0 -0.74675986752E+02 -0.12387000927E+03  0.71936952937E+03  0.73376727570E+03  0.12700000000E+01 0.  1.
         -4    1    3    3    0  501 -0.29054241024E+02 -0.20586609823E+03  0.55961172263E+03  0.59698567179E+03  0.12700000000E+01 0.  1.
          2    1    1    2  502    0  0.28814617251E+02  0.33454830855E+03  0.13005134515E+04  0.13431634638E+04  0.00000000000E+00 0. -1.
          1    1    1    2  503    0  0.74915610525E+02 -0.48122010503E+01 -0.79717292974E+03  0.80069981009E+03  0.00000000000E+00 0. -1.
<mgrwt>
<rscale>  0 0.15934492E+03</rscale>
<asrwt>0</asrwt>
<pdfrwt beam="2">  1        2 0.13017650E+00 0.75070007E+02</pdfrwt>
<pdfrwt beam="1">  1        1 0.40437984E+00 0.33822833E+03</pdfrwt>
<totfact> 0.60370985E+00</totfact>
</mgrwt>
</event>
<event>
 7    1  0.7037933E-004  0.6929031E+02  0.7546771E-02  0.1445755E+00
          2   -1    0    0  503    0  0.00000000000E+00  0.00000000000E+00  0.13883244345E+04  0.13883244345E+04  0.00000000000E+00 0. -1.
          1   -1    0    0  502    0 -0.00000000000E+00 -0.00000000000E+00 -0.89556415901E+02  0.89556415901E+02  0.00000000000E+00 0. -1.
         25    2    1    2    0    0 -0.26933397901E+02 -0.74043773135E+02  0.68997889002E+02  0.16307313409E+03  0.12499700041E+03 0.  0.
          4    1    3    3  501    0 -0.98595129070E+01 -0.98626210280E+02  0.83668660354E+02  0.12971660254E+03  0.12700000000E+01 0. -1.
         -4    1    3    3    0  501 -0.17073884994E+02  0.24582437145E+02 -0.14670771352E+02  0.33356531547E+02  0.12700000000E+01 0. -1.
          2    1    1    2  502    0  0.50316612503E+02  0.46711872127E+02 -0.14372647137E+02  0.70145088759E+02  0.00000000000E+00 0. -1.
          1    1    1    2  503    0 -0.23383214602E+02  0.27331901008E+02  0.12441427767E+04  0.12446626275E+04  0.00000000000E+00 0. -1.
<mgrwt>
<rscale>  0 0.49923346E+02</rscale>
<asrwt>0</asrwt>
<pdfrwt beam="1">  1        2 0.21358836E+00 0.35969536E+02</pdfrwt>
<pdfrwt beam="2">  1        1 0.13777911E-01 0.69290314E+02</pdfrwt>
<totfact> 0.97180952E+02</totfact>
</mgrwt>
</event>
<event>
 7    1  0.7037933E-004  0.3959785E+02  0.7546771E-02  0.1529275E+00
         -1   -1    0    0    0  501 -0.00000000000E+00  0.00000000000E+00  0.31545910806E+03  0.31545910806E+03  0.00000000000E+00 0.  1.
          1   -1    0    0  503    0  0.00000000000E+00 -0.00000000000E+00 -0.24005155941E+03  0.24005155941E+03  0.00000000000E+00 0. -1.
         25    2    1    2    0    0  0.34282998911E+02  0.17272446370E+02  0.11103434765E+03  0.17154285830E+03  0.12499865782E+03 0.  0.
          4    1    3    3  502    0  0.67964261529E+02 -0.21338729173E+02  0.93119781097E+02  0.11724925901E+03  0.12700000000E+01 0. -1.
         -4    1    3    3    0  502 -0.33681262618E+02  0.38611175544E+02  0.17914566553E+02  0.54293599284E+02  0.12700000000E+01 0. -1.
          2    1    1    2  503    0 -0.26647435857E+02  0.22829193328E+02 -0.20590050600E+03  0.20886904097E+03  0.00000000000E+00 0. -1.
         -2    1    1    2    0  501 -0.76355630545E+01 -0.40101639699E+02  0.17027370700E+03  0.17509876820E+03  0.00000000000E+00 0.  1.
<mgrwt>
<rscale>  0 0.37275464E+02</rscale>
<asrwt>0</asrwt>
<pdfrwt beam="2">  1        1 0.36931009E-01 0.35089285E+02</pdfrwt>
<pdfrwt beam="1">  1       -1 0.48532170E-01 0.39597850E+02</pdfrwt>
<totfact> 0.50089669E+02</totfact>
</mgrwt>
</event>
<event>
 7    1  0.7037933E-004  0.8708428E+02  0.7546771E-02  0.1312609E+00
         -1   -1    0    0    0  501 -0.00000000000E+00  0.00000000000E+00  0.11978381847E+03  0.11978381847E+03  0.00000000000E+00 0.  1.
          1   -1    0    0  503    0  0.00000000000E+00 -0.00000000000E+00 -0.12632685007E+04  0.12632685007E+04  0.00000000000E+00 0. -1.
         25    2    1    2    0    0  0.40740998138E+02 -0.80462549454E+01 -0.42789859505E+03  0.44771232392E+03  0.12499818478E+03 0.  0.
          4    1    3    3  502    0  0.15304119383E+02  0.56475274850E+02 -0.14348628130E+03  0.15496321680E+03  0.12700000000E+01 0.  1.
         -4    1    3    3    0  502  0.25436878755E+02 -0.64521529796E+02 -0.28441231375E+03  0.29274910712E+03  0.12700000000E+01 0.  1.
          2    1    1    2  503    0 -0.78407407403E+02 -0.70470703677E+02 -0.80421024491E+03  0.81109059891E+03  0.00000000000E+00 0. -1.
         -2    1    1    2    0  501  0.37666409265E+02  0.78516958622E+02  0.88624157680E+02  0.12424939639E+03  0.00000000000E+00 0.  1.
<mgrwt>
<rscale>  0 0.86089096E+02</rscale>
<asrwt>0</asrwt>
<pdfrwt beam="2">  1        1 0.19434899E+00 0.85105288E+02</pdfrwt>
<pdfrwt beam="1">  1       -1 0.18428281E-01 0.87084276E+02</pdfrwt>
<totfact> 0.25293854E+02</totfact>
</mgrwt>
</event>
<event>
 7    1  0.7037933E-004  0.1469482E+03  0.7546771E-02  0.1267182E+00
          1   -1    0    0  502    0 -0.00000000000E+00  0.00000000000E+00  0.97898896860E+03  0.97898896860E+03  0.00000000000E+00 0. -1.
          2   -1    0    0  503    0  0.00000000000E+00 -0.00000000000E+00 -0.49476223038E+03  0.49476223038E+03  0.00000000000E+00 0. -1.
         25    2    1    2    0    0 -0.35644034828E+02 -0.94875969033E+02  0.24215530311E+03  0.29075382643E+03  0.12500659997E+03 0.  0.
          4    1    3    3  501    0  0.28280836367E+02 -0.78845333897E+02  0.80525748767E+02  0.11619983433E+03  0.12700000000E+01 0.  1.
         -4    1    3    3    0  501 -0.63924871195E+02 -0.16030635136E+02  0.16162955435E+03  0.17455399210E+03  0.12700000000E+01 0.  1.
          2    1    1    2  502    0  0.55866568968E+02 -0.53270376245E+02  0.69847420435E+03  0.70272684641E+03  0.00000000000E+00 0. -1.
          1    1    1    2  503    0 -0.20222534140E+02  0.14814634528E+03 -0.45640276925E+03  0.48027052615E+03  0.00000000000E+00 0. -1.
<mgrwt>
<rscale>  0 0.10650548E+03</rscale>
<asrwt>0</asrwt>
<pdfrwt beam="2">  1        2 0.76117266E-01 0.14694819E+03</pdfrwt>
<pdfrwt beam="1">  1        1 0.15061369E+00 0.77193306E+02</pdfrwt>
<totfact> 0.15607515E+02</totfact>
</mgrwt>
</event>
<event>
 7    1  0.7037933E-004  0.1000357E+03  0.7546771E-02  0.1341224E+00
          2   -1    0    0  503    0  0.00000000000E+00  0.00000000000E+00  0.46532135975E+03  0.46532135975E+03  0.00000000000E+00 0. -1.
          1   -1    0    0  502    0 -0.00000000000E+00 -0.00000000000E+00 -0.10498814204E+04  0.10498814204E+04  0.00000000000E+00 0. -1.
         25    2    1    2    0    0  0.12817953885E+03 -0.76091995636E+02 -0.12216875681E+03  0.22971815812E+03  0.12500096419E+03 0.  0.
          4    1    3    3  501    0  0.52773321335E+02 -0.89247472938E+02 -0.11176779026E+03  0.15245913128E+03  0.12700000000E+01 0.  1.
         -4    1    3    3    0  501  0.75406217517E+02  0.13155477302E+02 -0.10400966551E+02  0.77259026842E+02  0.12700000000E+01 0.  1.
          2    1    1    2  502    0 -0.92725490133E+02  0.30786371975E+02 -0.86917701538E+03  0.87465107402E+03  0.00000000000E+00 0. -1.
          1    1    1    2  503    0 -0.35454048719E+02  0.45305623661E+02  0.40678571151E+03  0.41083354804E+03  0.00000000000E+00 0. -1.
<mgrwt>
<rscale>  0 0.75861418E+02</rscale>
<asrwt>0</asrwt>
<pdfrwt beam="1">  1        2 0.71587902E-01 0.57529028E+02</pdfrwt>
<pdfrwt beam="2">  1        1 0.16152022E+00 0.10003567E+03</pdfrwt>
<totfact> 0.14748966E+02</totfact>
</mgrwt>
</event>
<event>
 7    1  0.7037933E-004  0.1578047E+03  0.7546771E-02  0.1388241E+00
          1   -1    0    0  502    0 -0.00000000000E+00  0.00000000000E+00  0.18950151514E+03  0.18950151514E+03  0.00000000000E+00 0. -1.
          2   -1    0    0  503    0  0.00000000000E+00 -0.00000000000E+00 -0.10607656709E+04  0.10607656709E+04  0.00000000000E+00 0. -1.
         25    2    1    2    0    0  0.54801669364E+02  0.13535384920E+03 -0.14211300862E+03  0.23904833311E+03  0.12499644349E+03 0.  0.
          4    1    3    3  501    0 -0.16520027170E+02 -0.96253394201E+01  0.57708113197E+01  0.20011836995E+02  0.12700000000E+01 0.  1.
         -4    1    3    3    0  501  0.71321696533E+02  0.14497918862E+03 -0.14788381993E+03  0.21903649611E+03  0.12700000000E+01 0.  1.
          2    1    1    2  502    0 -0.15161255504E+02  0.19413418482E+02  0.13255667832E+03  0.13482587828E+03  0.00000000000E+00 0. -1.
          1    1    1    2  503    0 -0.39640413859E+02 -0.15476726769E+03 -0.86170782549E+03  0.87639297468E+03  0.00000000000E+00 0. -1.
<mgrwt>
<rscale>  0 0.62346411E+02</rscale>
<asrwt>0</asrwt>
<pdfrwt beam="2">  1        2 0.16319472E+00 0.15780472E+03</pdfrwt>
<pdfrwt beam="1">  1        1 0.29154079E-01 0.24632184E+02</pdfrwt>
<totfact> 0.50349030E+02</totfact>
</mgrwt>
</event>
<event>
 7    1  0.7037933E-004  0.5596508E+02  0.7546771E-02  0.1460825E+00
          2   -1    0    0  503    0  0.00000000000E+00  0.00000000000E+00  0.15098243233E+03  0.15098243233E+03  0.00000000000E+00 0. -1.
         -2   -1    0    0    0  501 -0.00000000000E+00 -0.00000000000E+00 -0.20309018427E+04  0.20309018427E+04  0.00000000000E+00 0.  1.
         25    2    1    2    0    0 -0.15378473090E+02 -0.14743704238E+02 -0.20988536161E+03  0.24522917175E+03  0.12502642685E+03 0.  0.
          4    1    3    3  502    0 -0.66198780539E+00  0.24302594497E+01 -0.22028536336E+03  0.22030342394E+03  0.12700000000E+01 0. -1.
         -4    1    3    3    0  502 -0.14716485284E+02 -0.17173963688E+02  0.10400001745E+02  0.24925747816E+02  0.12700000000E+01 0. -1.
          1    1    1    2  503    0 -0.65764446640E+00 -0.39869337218E+02  0.12986880136E+03  0.13585250132E+03  0.00000000000E+00 0. -1.
         -1    1    1    2    0  501  0.16036117556E+02  0.54613041456E+02 -0.17999028501E+04  0.18008026019E+04  0.00000000000E+00 0.  1.
<mgrwt>
<rscale>  0 0.47239751E+02</rscale>
<asrwt>0</asrwt>
<pdfrwt beam="1">  1        2 0.23228067E-01 0.39874761E+02</pdfrwt>
<pdfrwt beam="2">  1       -2 0.31244643E+00 0.55965077E+02</pdfrwt>
<totfact> 0.82375051E+00</totfact>
</mgrwt>
</event>
<event>
 7    1  0.7037933E-004  0.5734167E+02  0.7546771E-02  0.1477366E+00
         -2   -1    0    0    0  501 -0.00000000000E+00  0.00000000000E+00  0.78666421108E+01  0.78666421108E+01  0.00000000000E+00 0.  1.
          2   -1    0    0  503    0  0.00000000000E+00 -0.00000000000E+00 -0.26025013052E+04  0.26025013052E+04  0.00000000000E+00 0. -1.
         25    2    1    2    0    0 -0.43605576290E+02  0.14040952337E+02 -0.11326113874E+04  0.11404084989E+04  0.12499757966E+03 0.  0.
          4    1    3    3  502    0 -0.79768718371E+02  0.38024805067E+02 -0.83156703774E+03  0.83625013327E+03  0.12700000000E+01 0. -1.
         -4    1    3    3    0  502  0.36163142081E+02 -0.23983852730E+02 -0.30104434965E+03  0.30415836565E+03  0.12700000000E+01 0. -1.
          1    1    1    2  503    0 -0.15434998832E+02 -0.30926292047E+02 -0.12124467176E+04  0.12129392886E+04  0.00000000000E+00 0. -1.
         -1    1    1    2    0  501  0.59040575121E+02  0.16885339710E+02 -0.24957655813E+03  0.25702015986E+03  0.00000000000E+00 0.  1.
<mgrwt>
<rscale>  0 0.44519225E+02</rscale>
<asrwt>0</asrwt>
<pdfrwt beam="2">  1        2 0.40038493E+00 0.34564067E+02</pdfrwt>
<pdfrwt beam="1">  1       -2 0.12102523E-02 0.57341672E+02</pdfrwt>
<totfact> 0.60870543E+03</totfact>
</mgrwt>
</event>
<event>
 7    1  0.7037933E-004  0.1222015E+03  0.7546771E-02  0.1424384E+00
          2   -1    0    0  503    0  0.00000000000E+00  0.00000000000E+00  0.22831826381E+04  0.22831826381E+04  0.00000000000E+00 0. -1.
          1   -1    0    0  502    0 -0.00000000000E+00 -0.00000000000E+00 -0.45637525619E+02  0.45637525619E+02  0.00000000000E+00 0. -1.
         25    2    1    2    0    0  0.93974473402E+02  0.47104981561E+02  0.14590430321E+04  0.14681530877E+04  0.12496734980E+03 0.  0.
          4    1    3    3  501    0  0.10752644481E+03  0.12818654388E+02  0.13153460515E+04  0.13197966140E+04  0.12700000000E+01 0.  1.
         -4    1    3    3    0  501 -0.13551971409E+02  0.34286327173E+02  0.14369698063E+03  0.14835647375E+03  0.12700000000E+01 0.  1.
          2    1    1    2  502    0 -0.10171472980E+03 -0.69774190490E+02  0.52146021557E+02  0.13391613600E+03  0.00000000000E+00 0. -1.
          1    1    1    2  503    0  0.77402563997E+01  0.22669208928E+02  0.72635605885E+03  0.72675094002E+03  0.00000000000E+00 0. -1.
<mgrwt>
<rscale>  0 0.54103988E+02</rscale>
<asrwt>0</asrwt>
<pdfrwt beam="1">  1        2 0.35125878E+00 0.23954219E+02</pdfrwt>
<pdfrwt beam="2">  1        1 0.70211596E-02 0.12220150E+03</pdfrwt>
<totfact> 0.95890904E+02</totfact>
</mgrwt>
</event>
<event>
 7    1  0.7037933E-004  0.7517622E+02  0.7546771E-02  0.1434693E+00
          2   -1    0    0  503    0  0.00000000000E+00  0.00000000000E+00  0.42846819483E+03  0.42846819483E+03  0.00000000000E+00 0. -1.
          1   -1    0    0  502    0 -0.00000000000E+00 -0.00000000000E+00 -0.14375251115E+03  0.14375251115E+03  0.00000000000E+00 0. -1.
         25    2    1    2    0    0 -0.82476359852E+02  0.57139784897E+02  0.30365683242E+03  0.34336545434E+03  0.12500023361E+03 0.  0.
          4    1    3    3  501    0 -0.26168367773E+02  0.19339970334E+02  0.26146092407E+03  0.26348101571E+03  0.12700000000E+01 0. -1.
         -4    1    3    3    0  501 -0.56307992078E+02  0.37799814564E+02  0.42195908355E+02  0.79884438627E+02  0.12700000000E+01 0. -1.
          2    1    1    2  502    0  0.46480225707E+02 -0.58125796089E+02 -0.10893110533E+03  0.13192803061E+03  0.00000000000E+00 0. -1.
          1    1    1    2  503    0  0.35996134145E+02  0.98601119190E+00  0.89989956583E+02  0.96927221033E+02  0.00000000000E+00 0. -1.
<mgrwt>
<rscale>  0 0.52029495E+02</rscale>
<asrwt>0</asrwt>
<pdfrwt beam="1">  1        2 0.65918183E-01 0.36009636E+02</pdfrwt>
<pdfrwt beam="2">  1        1 0.22115771E-01 0.75176222E+02</pdfrwt>
<totfact> 0.21975166E+03</totfact>
</mgrwt>
</event>
<event>
 7    1  0.7037933E-004  0.6547845E+02  0.7546771E-02  0.1381285E+00
          2   -1    0    0  503    0  0.00000000000E+00  0.00000000000E+00  0.25786092336E+03  0.25786092336E+03  0.00000000000E+00 0. -1.
          1   -1    0    0  502    0 -0.00000000000E+00 -0.00000000000E+00 -0.84902523290E+03  0.84902523290E+03  0.00000000000E+00 0. -1.
         25    2    1    2    0    0 -0.53363235023E+00  0.70057772182E+01  0.14393127459E+03  0.19076402342E+03  0.12500134059E+03 0.  0.
          4    1    3    3  501    0 -0.30278323113E+02 -0.49138113117E+02  0.45077426215E+02  0.73245602362E+02  0.12700000000E+01 0. -1.
         -4    1    3    3    0  501  0.29744690763E+02  0.56143890335E+02  0.98853848371E+02  0.11751842106E+03  0.12700000000E+01 0. -1.
          2    1    1    2  502    0 -0.54740476723E+02 -0.36823558606E+02 -0.81321547403E+03  0.81588718673E+03  0.00000000000E+00 0. -1.
          1    1    1    2  503    0  0.55274109073E+02  0.29817781388E+02  0.78119889916E+02  0.10023494611E+03  0.00000000000E+00 0. -1.
<mgrwt>
<rscale>  0 0.64127223E+02</rscale>
<asrwt>0</asrwt>
<pdfrwt beam="1">  1        2 0.39670911E-01 0.62803879E+02</pdfrwt>
<pdfrwt beam="2">  1        1 0.13061927E+00 0.65478451E+02</pdfrwt>
<totfact> 0.39144764E+02</totfact>
</mgrwt>
</event>
<event>
 7    1  0.7037933E-004  0.2489627E+03  0.7546771E-02  0.1306135E+00
          2   -1    0    0  503    0  0.00000000000E+00  0.00000000000E+00  0.11296249541E+04  0.11296249541E+04  0.00000000000E+00 0. -1.
          1   -1    0    0  502    0 -0.00000000000E+00 -0.00000000000E+00 -0.88033679182E+03  0.88033679182E+03  0.00000000000E+00 0. -1.
         25    2    1    2    0    0  0.22309028810E+03 -0.85268358435E+02 -0.31512756952E+03  0.41469396510E+03  0.12500292004E+03 0.  0.
          4    1    3    3  501    0  0.17907850486E+03 -0.79028483875E+02 -0.31423377736E+03  0.37021492663E+03  0.12700000000E+01 0.  1.
         -4    1    3    3    0  501  0.44011783242E+02 -0.62398745595E+01 -0.89379216598E+00  0.44479038468E+02  0.12700000000E+01 0.  1.
          2    1    1    2  502    0 -0.22795667865E+03  0.11646297942E+03 -0.48339022779E+03  0.54698627518E+03  0.00000000000E+00 0. -1.
          1    1    1    2  503    0  0.48663905437E+01 -0.31194620985E+02  0.10478059596E+04  0.10482815057E+04  0.00000000000E+00 0. -1.
<mgrwt>
<rscale>  0 0.88657948E+02</rscale>
<asrwt>0</asrwt>
<pdfrwt beam="1">  1        2 0.17378846E+00 0.31571920E+02</pdfrwt>
<pdfrwt beam="2">  1        1 0.13543643E+00 0.24896274E+03</pdfrwt>
<totfact> 0.68330457E+01</totfact>
</mgrwt>
</event>
<event>
 7    1  0.7037933E-004  0.1010398E+03  0.7546771E-02  0.1280491E+00
          2   -1    0    0  503    0  0.00000000000E+00  0.00000000000E+00  0.16384038268E+03  0.16384038268E+03  0.00000000000E+00 0. -1.
         -2   -1    0    0    0  501 -0.00000000000E+00 -0.00000000000E+00 -0.22743167628E+03  0.22743167628E+03  0.00000000000E+00 0.  1.
         25    2    1    2    0    0 -0.23714823176E+02 -0.97100835599E+02 -0.45294636207E+02  0.16633561102E+03  0.12499986525E+03 0.  0.
          4    1    3    3  502    0  0.28180696180E+02 -0.36111790340E+02 -0.68982866420E+02  0.82815830602E+02  0.12700000000E+01 0. -1.
         -4    1    3    3    0  502 -0.51895519356E+02 -0.60989045259E+02  0.23688230213E+02  0.83519780420E+02  0.12700000000E+01 0. -1.
          3    1    1    2  503    0 -0.85809708010E+02  0.53345520639E+02  0.15562084586E+02  0.10223125274E+03  0.00000000000E+00 0. -1.
         -3    1    1    2    0  501  0.10952453119E+03  0.43755314960E+02 -0.33858741979E+02  0.12270519519E+03  0.00000000000E+00 0.  1.
<mgrwt>
<rscale>  0 0.99907215E+02</rscale>
<asrwt>0</asrwt>
<pdfrwt beam="1">  1        2 0.25206213E-01 0.10103985E+03</pdfrwt>
<pdfrwt beam="2">  1       -2 0.34989489E-01 0.98787279E+02</pdfrwt>
<totfact> 0.15803277E+03</totfact>
</mgrwt>
</event>
<event>
 7    1  0.7037933E-004  0.1748449E+03  0.7546771E-02  0.1232065E+00
          1   -1    0    0  503    0  0.00000000000E+00  0.00000000000E+00  0.16690843674E+04  0.16690843674E+04  0.00000000000E+00 0. -1.
         -1   -1    0    0    0  501 -0.00000000000E+00 -0.00000000000E+00 -0.54712121761E+03  0.54712121761E+03  0.00000000000E+00 0.  1.
         25    2    1    2    0    0 -0.22410470941E+03 -0.11515201253E+03  0.59476164174E+03  0.65790716777E+03  0.12497009300E+03 0.  0.
          4    1    3    3  502    0 -0.23244609800E+03 -0.83671984312E+02  0.50013101649E+03  0.55782150908E+03  0.12700000000E+01 0.  1.
         -4    1    3    3    0  502  0.83413885904E+01 -0.31480028216E+02  0.94630625251E+02  0.10008565869E+03  0.12700000000E+01 0.  1.
          2    1    1    2  503    0  0.14123667009E+03  0.74817125871E+02  0.10324322111E+04  0.10447304293E+04  0.00000000000E+00 0. -1.
         -2    1    1    2    0  501  0.82868039320E+02  0.40334886658E+02 -0.50523070303E+03  0.51356798800E+03  0.00000000000E+00 0.  1.
<mgrwt>
<rscale>  0 0.12694183E+03</rscale>
<asrwt>0</asrwt>
<pdfrwt beam="1">  1        1 0.25678221E+00 0.17484492E+03</pdfrwt>
<pdfrwt beam="2">  1       -1 0.84172496E-01 0.92162981E+02</pdfrwt>
<totfact> 0.89452806E+00</totfact>
</mgrwt>
</event>
<event>
 7    1  0.7037933E-004  0.1393905E+03  0.7546771E-02  0.1244886E+00
          1   -1    0    0  502    0 -0.00000000000E+00  0.00000000000E+00  0.16508526860E+04  0.16508526860E+04  0.00000000000E+00 0. -1.
          2   -1    0    0  503    0  0.00000000000E+00 -0.00000000000E+00 -0.29528334103E+03  0.29528334103E+03  0.00000000000E+00 0. -1.
         25    2    1    2    0    0  0.16965424062E+03 -0.19607003363E+02  0.91219351723E+03  0.93642331973E+03  0.12499849966E+03 0.  0.
          4    1    3    3  501    0  0.66387343236E+01 -0.38980256031E+02  0.30010767477E+03  0.30270408407E+03  0.12700000000E+01 0.  1.
         -4    1    3    3    0  501  0.16301550629E+03  0.19373252669E+02  0.61208584245E+03  0.63371923566E+03  0.12700000000E+01 0.  1.
          2    1    1    2  502    0 -0.67744300683E+02 -0.75529577282E+02  0.70553263212E+03  0.71279050380E+03  0.00000000000E+00 0. -1.
          1    1    1    2  503    0 -0.10190993993E+03  0.95136580645E+02 -0.26215680439E+03  0.29692220349E+03  0.00000000000E+00 0. -1.
<mgrwt>
<rscale>  0 0.11892213E+03</rscale>
<asrwt>0</asrwt>
<pdfrwt beam="2">  1        2 0.45428207E-01 0.13939049E+03</pdfrwt>
<pdfrwt beam="1">  1        1 0.25397733E+00 0.10145939E+03</pdfrwt>
<totfact> 0.95214930E+01</totfact>
</mgrwt>
</event>
<event>
 7    1  0.7037933E-004  0.1367895E+03  0.7546771E-02  0.1388177E+00
          2   -1    0    0  503    0  0.00000000000E+00  0.00000000000E+00  0.23465691025E+04  0.23465691025E+04  0.00000000000E+00 0. -1.
         -2   -1    0    0    0  501 -0.00000000000E+00 -0.00000000000E+00 -0.23918845716E+02  0.23918845716E+02  0.00000000000E+00 0.  1.
         25    2    1    2    0    0 -0.42469843095E+02  0.13836291824E+03  0.10989575107E+04  0.11154732325E+04  0.12499974953E+03 0.  0.
          4    1    3    3  502    0 -0.14773247094E+02  0.11042435432E+02  0.15266346221E+02  0.23976205640E+02  0.12700000000E+01 0.  1.
         -4    1    3    3    0  502 -0.27696596001E+02  0.12732048281E+03  0.10836911644E+04  0.10914970268E+04  0.12700000000E+01 0.  1.
          1    1    1    2  503    0  0.14502738084E+02 -0.13324743821E+03  0.12188215859E+04  0.12261693469E+04  0.00000000000E+00 0. -1.
         -1    1    1    2    0  501  0.27967105011E+02 -0.51154800332E+01  0.48711602335E+01  0.28845368791E+02  0.00000000000E+00 0.  1.
<mgrwt>
<rscale>  0 0.62362456E+02</rscale>
<asrwt>0</asrwt>
<pdfrwt beam="1">  1        2 0.36101045E+00 0.13678953E+03</pdfrwt>
<pdfrwt beam="2">  1       -2 0.36798243E-02 0.28431094E+02</pdfrwt>
<totfact> 0.12728624E+03</totfact>
</mgrwt>
</event>
<event>
 7    1  0.7037933E-004  0.5547662E+02  0.7546771E-02  0.1525261E+00
          1   -1    0    0  502    0 -0.00000000000E+00  0.00000000000E+00  0.18191044394E+04  0.18191044394E+04  0.00000000000E+00 0. -1.
          2   -1    0    0  503    0  0.00000000000E+00 -0.00000000000E+00 -0.87757523007E+03  0.87757523007E+03  0.00000000000E+00 0. -1.
         25    2    1    2    0    0  0.91169428368E+01 -0.31849094985E+02  0.71302143729E+03  0.72465427749E+03  0.12500707316E+03 0.  0.
          4    1    3    3  501    0 -0.35554294130E+02  0.27071970693E+02  0.42288718010E+03  0.42524367064E+03  0.12700000000E+01 0. -1.
         -4    1    3    3    0  501  0.44671236967E+02 -0.58921065678E+02  0.29013425719E+03  0.29941060684E+03  0.12700000000E+01 0. -1.
          2    1    1    2  502    0  0.21096521663E+02 -0.14713214452E+02  0.10992324641E+04  0.10995333338E+04  0.00000000000E+00 0. -1.
          1    1    1    2  503    0 -0.30213464499E+02  0.46562309437E+02 -0.87072469212E+03  0.87249205817E+03  0.00000000000E+00 0. -1.
<mgrwt>
<rscale>  0 0.37774119E+02</rscale>
<asrwt>0</asrwt>
<pdfrwt beam="2">  1        2 0.13501157E+00 0.55476622E+02</pdfrwt>
<pdfrwt beam="1">  1        1 0.27986222E+00 0.25720457E+02</pdfrwt>
<totfact> 0.26963464E+01</totfact>
</mgrwt>
</event>
<event>
 7    1  0.7037933E-004  0.8079140E+02  0.7546771E-02  0.1348177E+00
          1   -1    0    0  502    0 -0.00000000000E+00  0.00000000000E+00  0.31230898980E+03  0.31230898980E+03  0.00000000000E+00 0. -1.
          2   -1    0    0  503    0  0.00000000000E+00 -0.00000000000E+00 -0.48399945138E+03  0.48399945138E+03  0.00000000000E+00 0. -1.
         25    2    1    2    0    0  0.42881549497E+02  0.82110024214E+02  0.17162198096E+03  0.23164668765E+03  0.12500080075E+03 0.  0.
          4    1    3    3  501    0  0.78594868454E+02  0.18382850686E+02  0.72472011134E+02  0.10848450509E+03  0.12700000000E+01 0. -1.
         -4    1    3    3    0  501 -0.35713318958E+02  0.63727173528E+02  0.99149969821E+02  0.12316218256E+03  0.12700000000E+01 0. -1.
          2    1    1    2  502    0 -0.79535030408E+02 -0.25908513104E+02  0.91922461067E+02  0.12428520009E+03  0.00000000000E+00 0. -1.
          1    1    1    2  503    0  0.36653480911E+02 -0.56201511110E+02 -0.43523490360E+03  0.44037655344E+03  0.00000000000E+00 0. -1.
<mgrwt>
<rscale>  0 0.73626820E+02</rscale>
<asrwt>0</asrwt>
<pdfrwt beam="2">  1        2 0.74461454E-01 0.67097597E+02</pdfrwt>
<pdfrwt beam="1">  1        1 0.48047537E-01 0.80791398E+02</pdfrwt>
<totfact> 0.74799865E+02</totfact>
</mgrwt>
</event>
<event>
 7    1  0.7037933E-004  0.1190167E+03  0.7546771E-02  0.1410636E+00
          2   -1    0    0  503    0  0.00000000000E+00  0.00000000000E+00  0.11038219005E+04  0.11038219005E+04  0.00000000000E+00 0. -1.
          1   -1    0    0  502    0 -0.00000000000E+00 -0.00000000000E+00 -0.45442737491E+03  0.45442737491E+03  0.00000000000E+00 0. -1.
         25    2    1    2    0    0 -0.90937887368E+02  0.32502154281E+02  0.71835189746E+02  0.17352275370E+03  0.12499504859E+03 0.  0.
          4    1    3    3  501    0 -0.65501824166E+02  0.81937535865E+01 -0.24912568540E+02  0.70568233208E+02  0.12700000000E+01 0. -1.
         -4    1    3    3    0  501 -0.25436063202E+02  0.24308400694E+02  0.96747758286E+02  0.10295452049E+03  0.12700000000E+01 0. -1.
          2    1    1    2  502    0 -0.17083227668E+02  0.21356936391E+02 -0.39940185334E+03  0.40033710277E+03  0.00000000000E+00 0. -1.
          1    1    1    2  503    0  0.10802111504E+03 -0.53859090671E+02  0.97696118916E+03  0.98438941891E+03  0.00000000000E+00 0. -1.
<mgrwt>
<rscale>  0 0.57052255E+02</rscale>
<asrwt>0</asrwt>
<pdfrwt beam="1">  1        2 0.16981875E+00 0.11901667E+03</pdfrwt>
<pdfrwt beam="2">  1        1 0.69911904E-01 0.27348773E+02</pdfrwt>
<totfact> 0.17419533E+02</totfact>
</mgrwt>
</event>
<event>
 7    1  0.7037933E-004  0.6198436E+02  0.7546771E-02  0.1525332E+00
          2   -1    0    0  503    0  0.00000000000E+00  0.00000000000E+00  0.15627887950E+04  0.15627887950E+04  0.00000000000E+00 0. -1.
          1   -1    0    0  502    0 -0.00000000000E+00 -0.00000000000E+00 -0.88903176123E+03  0.88903176123E+03  0.00000000000E+00 0. -1.
         25    2    1    2    0    0  0.49311462886E+02  0.67392935528E+02  0.83605933687E+02  0.17200902979E+03  0.12499490410E+03 0.  0.
          4    1    3    3  501    0  0.57271693133E+02  0.58176519654E+02  0.11343606803E+03  0.13976376034E+03  0.12700000000E+01 0.  1.
         -4    1    3    3    0  501 -0.79602302475E+01  0.92164158734E+01 -0.29830134344E+02  0.32245269454E+02  0.12700000000E+01 0.  1.
          2    1    1    2  502    0 -0.31000278672E+02 -0.53460194284E+02 -0.84360767061E+03  0.84586814077E+03  0.00000000000E+00 0. -1.
          1    1    1    2  503    0 -0.18311184214E+02 -0.13932741243E+02  0.14337587707E+04  0.14339433857E+04  0.00000000000E+00 0. -1.
<mgrwt>
<rscale>  0 0.37765156E+02</rscale>
<asrwt>0</asrwt>
<pdfrwt beam="1">  1        2 0.24042905E+00 0.23009145E+02</pdfrwt>
<pdfrwt beam="2">  1        1 0.13677412E+00 0.61984356E+02</pdfrwt>
<totfact> 0.45662085E+01</totfact>
</mgrwt>
</event>
<event>
 7    1  0.7037933E-004  0.1014106E+03  0.7546771E-02  0.1281245E+00
          1   -1    0    0  502    0 -0.00000000000E+00  0.00000000000E+00  0.80844149221E+02  0.80844149221E+02  0.00000000000E+00 0. -1.
          2   -1    0    0  503    0  0.00000000000E+00 -0.00000000000E+00 -0.34458141577E+04  0.34458141577E+04  0.00000000000E+00 0. -1.
         25    2    1    2    0    0 -0.70565165206E+02  0.96719702906E+02 -0.21734229867E+04  0.21803044042E+04  0.12500268977E+03 0.  0.
          4    1    3    3  501    0 -0.58056389438E+02  0.11893212077E+03 -0.13468268347E+04  0.13533142759E+04  0.12700000000E+01 0. -1.
         -4    1    3    3    0  501 -0.12508775768E+02 -0.22212417864E+02 -0.82659615193E+03  0.82699012828E+03  0.12700000000E+01 0. -1.
          2    1    1    2  502    0 -0.32003074661E+02 -0.96228480056E+02  0.41117567507E+02  0.10942929918E+03  0.00000000000E+00 0. -1.
          1    1    1    2  503    0  0.10256823987E+03 -0.49122284981E+00 -0.12326645893E+04  0.12369246035E+04  0.00000000000E+00 0. -1.
<mgrwt>
<rscale>  0 0.99550219E+02</rscale>
<asrwt>0</asrwt>
<pdfrwt beam="2">  1        2 0.53012535E+00 0.97723932E+02</pdfrwt>
<pdfrwt beam="1">  1        1 0.12437559E-01 0.10141064E+03</pdfrwt>
<totfact> 0.81632349E+01</totfact>
</mgrwt>
</event>
<event>
 7    1  0.7037933E-004  0.1452181E+03  0.7546771E-02  0.1228418E+00
          2   -1    0    0  503    0  0.00000000000E+00  0.00000000000E+00  0.13137272089E+04  0.13137272089E+04  0.00000000000E+00 0. -1.
          1   -1    0    0  502    0 -0.00000000000E+00 -0.00000000000E+00 -0.32042350086E+04  0.32042350086E+04  0.00000000000E+00 0. -1.
         25    2    1    2    0    0  0.12736009636E+02  0.24126014775E+03  0.53104031708E+03  0.59665611940E+03  0.12500416640E+03 0.  0.
          4    1    3    3  501    0  0.52748797237E+02  0.48573509121E+02  0.18736002196E+03  0.20061707836E+03  0.12700000000E+01 0. -1.
         -4    1    3    3    0  501 -0.40012787601E+02  0.19268663863E+03  0.34368029511E+03  0.39603904104E+03  0.12700000000E+01 0. -1.
          2    1    1    2  502    0 -0.24377294277E+02 -0.11261380642E+03 -0.31648082388E+04  0.31669050049E+04  0.00000000000E+00 0. -1.
          1    1    1    2  503    0  0.11641284641E+02 -0.12864634133E+03  0.74326012196E+03  0.75440109328E+03  0.00000000000E+00 0. -1.
<mgrwt>
<rscale>  0 0.12935349E+03</rscale>
<asrwt>0</asrwt>
<pdfrwt beam="1">  1        2 0.20211188E+00 0.14521808E+03</pdfrwt>
<pdfrwt beam="2">  1        1 0.49295923E+00 0.11522205E+03</pdfrwt>
<totfact> 0.14856917E+00</totfact>
</mgrwt>
</event>
<event>
 7    1  0.7037933E-004  0.5982742E+02  0.7546771E-02  0.1442812E+00
         -1   -1    0    0    0  501 -0.00000000000E+00  0.00000000000E+00  0.44253594484E+02  0.44253594484E+02  0.00000000000E+00 0.  1.
          1   -1    0    0  503    0  0.00000000000E+00 -0.00000000000E+00 -0.10406443626E+04  0.10406443626E+04  0.00000000000E+00 0. -1.
         25    2    1    2    0    0 -0.31890716969E+02 -0.65831616138E+02 -0.55658742580E+03  0.57512156268E+03  0.12499771915E+03 0.  0.
          4    1    3    3  502    0  0.30580620674E+02 -0.32817437128E+02 -0.68147305291E+02  0.81595506365E+02  0.12700000000E+01 0.  1.
         -4    1    3    3    0  502 -0.62471337643E+02 -0.33014179009E+02 -0.48844012051E+03  0.49352605632E+03  0.12700000000E+01 0.  1.
          2    1    1    2  503    0  0.42019469891E+02  0.68832382941E+01 -0.44745532690E+03  0.44947667836E+03  0.00000000000E+00 0. -1.
         -2    1    1    2    0  501 -0.10128752922E+02  0.58948377844E+02  0.76519845860E+01  0.60299716038E+02  0.00000000000E+00 0.  1.
<mgrwt>
<rscale>  0 0.50471998E+02</rscale>
<asrwt>0</asrwt>
<pdfrwt beam="2">  1        1 0.16009912E+00 0.42579512E+02</pdfrwt>
<pdfrwt beam="1">  1       -1 0.68082459E-02 0.59827425E+02</pdfrwt>
<totfact> 0.16556401E+03</totfact>
</mgrwt>
</event>
<event>
 7    1  0.7037933E-004  0.1617408E+03  0.7546771E-02  0.1243362E+00
          2   -1    0    0  503    0  0.00000000000E+00  0.00000000000E+00  0.81558929229E+03  0.81558929229E+03  0.00000000000E+00 0. -1.
         -2   -1    0    0    0  501 -0.00000000000E+00 -0.00000000000E+00 -0.43051947791E+03  0.43051947791E+03  0.00000000000E+00 0.  1.
         25    2    1    2    0    0  0.15025483441E+01  0.20264080849E+03 -0.91151993248E+02  0.25495098945E+03  0.12500306488E+03 0.  0.
          4    1    3    3  502    0  0.45308483054E+02  0.48765741341E+02 -0.64602932319E+02  0.92769110858E+02  0.12700000000E+01 0. -1.
         -4    1    3    3    0  502 -0.43805934710E+02  0.15387506715E+03 -0.26549060929E+02  0.16218187859E+03  0.12700000000E+01 0. -1.
          1    1    1    2  503    0  0.66861002821E+02 -0.14597818078E+03  0.71688042662E+03  0.73464111580E+03  0.00000000000E+00 0. -1.
         -1    1    1    2    0  501 -0.68363551165E+02 -0.56662627717E+02 -0.24065861898E+03  0.25651666495E+03  0.00000000000E+00 0.  1.
<mgrwt>
<rscale>  0 0.11983938E+03</rscale>
<asrwt>0</asrwt>
<pdfrwt beam="1">  1        2 0.12547528E+00 0.16174077E+03</pdfrwt>
<pdfrwt beam="2">  1       -2 0.66233766E-01 0.88793178E+02</pdfrwt>
<totfact> 0.77869333E+01</totfact>
</mgrwt>
</event>
<event>
 7    1  0.7037933E-004  0.6487065E+02  0.7546771E-02  0.1455332E+00
          1   -1    0    0  502    0 -0.00000000000E+00  0.00000000000E+00  0.65655492076E+03  0.65655492076E+03  0.00000000000E+00 0. -1.
          2   -1    0    0  503    0  0.00000000000E+00 -0.00000000000E+00 -0.10397399876E+04  0.10397399876E+04  0.00000000000E+00 0. -1.
         25    2    1    2    0    0  0.66551300939E+01  0.47847441535E+02  0.56135844909E+02  0.14529247244E+03  0.12500000418E+03 0.  0.
          4    1    3    3  501    0 -0.19801023163E+02 -0.18976107854E+02  0.67174399121E+02  0.72568491681E+02  0.12700000000E+01 0.  1.
         -4    1    3    3    0  501  0.26456153257E+02  0.66823549388E+02 -0.11038554212E+02  0.72723980757E+02  0.12700000000E+01 0.  1.
          2    1    1    2  502    0 -0.42361939686E+02 -0.50494943609E+02  0.55356301869E+03  0.55747312843E+03  0.00000000000E+00 0. -1.
          1    1    1    2  503    0  0.35706809592E+02  0.26475020744E+01 -0.99288393040E+03  0.99352930745E+03  0.00000000000E+00 0. -1.
<mgrwt>
<rscale>  0 0.48194214E+02</rscale>
<asrwt>0</asrwt>
<pdfrwt beam="2">  1        2 0.15996000E+00 0.35804825E+02</pdfrwt>
<pdfrwt beam="1">  1        1 0.10100845E+00 0.64870650E+02</pdfrwt>
<totfact> 0.12409619E+02</totfact>
</mgrwt>
</event>
<event>
 7    1  0.7037933E-004  0.1354169E+03  0.7546771E-02  0.1390330E+00
         -2   -1    0    0    0  501 -0.00000000000E+00  0.00000000000E+00  0.29410340730E+03  0.29410340730E+03  0.00000000000E+00 0.  1.
          2   -1    0    0  503    0  0.00000000000E+00 -0.00000000000E+00 -0.17350616311E+04  0.17350616311E+04  0.00000000000E+00 0. -1.
         25    2    1    2    0    0  0.99616601479E+01 -0.13757997258E+03 -0.53785833653E+03  0.56915688066E+03  0.12498192308E+03 0.  0.
          4    1    3    3  502    0  0.56511329948E+02 -0.48328931143E+02 -0.32903483662E+03  0.33733477823E+03  0.12700000000E+01 0. -1.
         -4    1    3    3    0  502 -0.46549669800E+02 -0.89251041441E+02 -0.20882349991E+03  0.23182210242E+03  0.12700000000E+01 0. -1.
          1    1    1    2  503    0  0.18056627814E+02  0.13416031375E+03 -0.11769489128E+04  0.11847083080E+04  0.00000000000E+00 0. -1.
         -1    1    1    2    0  501 -0.28018287962E+02  0.34196588312E+01  0.27384902551E+03  0.27529984980E+03  0.00000000000E+00 0.  1.
<mgrwt>
<rscale>  0 0.61824802E+02</rscale>
<asrwt>0</asrwt>
<pdfrwt beam="2">  1        2 0.26693255E+00 0.13541694E+03</pdfrwt>
<pdfrwt beam="1">  1       -2 0.45246679E-01 0.28226203E+02</pdfrwt>
<totfact> 0.50898645E+01</totfact>
</mgrwt>
</event>
<event>
 7    1  0.7037933E-004  0.5019532E+02  0.7546771E-02  0.1558071E+00
          2   -1    0    0  503    0  0.00000000000E+00  0.00000000000E+00  0.99407464017E+02  0.99407464017E+02  0.00000000000E+00 0. -1.
          1   -1    0    0  502    0 -0.00000000000E+00 -0.00000000000E+00 -0.25944366584E+03  0.25944366584E+03  0.00000000000E+00 0. -1.
         25    2    1    2    0    0 -0.11026361806E+02  0.50082334518E+02 -0.73780372747E+01  0.13533459471E+03  0.12502478237E+03 0.  0.
          4    1    3    3  501    0  0.36115553220E+02  0.29024324241E+02  0.42972251751E+02  0.63205790103E+02  0.12700000000E+01 0. -1.
         -4    1    3    3    0  501 -0.47141915026E+02  0.21058010278E+02 -0.50350289025E+02  0.72128804608E+02  0.12700000000E+01 0. -1.
          2    1    1    2  502    0 -0.20629501598E+02 -0.10103087334E+02 -0.16854622999E+03  0.17010432197E+03  0.00000000000E+00 0. -1.
          1    1    1    2  503    0  0.31655863404E+02 -0.39979247184E+02  0.15888065437E+02  0.53412213178E+02  0.00000000000E+00 0. -1.
<mgrwt>
<rscale>  0 0.33956101E+02</rscale>
<asrwt>0</asrwt>
<pdfrwt beam="1">  1        2 0.15293456E-01 0.50195315E+02</pdfrwt>
<pdfrwt beam="2">  1        1 0.39914410E-01 0.22970605E+02</pdfrwt>
<totfact> 0.48995479E+03</totfact>
</mgrwt>
</event>
<event>
 7    1  0.7037933E-004  0.1394435E+03  0.7546771E-02  0.1333566E+00
          1   -1    0    0  502    0 -0.00000000000E+00  0.00000000000E+00  0.12383600455E+04  0.12383600455E+04  0.00000000000E+00 0. -1.
          2   -1    0    0  503    0  0.00000000000E+00 -0.00000000000E+00 -0.54404087259E+03  0.54404087259E+03  0.00000000000E+00 0. -1.
         25    2    1    2    0    0 -0.12045090876E+03  0.61327327945E+02 -0.82989187900E+02  0.20193386825E+03  0.12498247582E+03 0.  0.
          4    1    3    3  501    0 -0.72807172195E+02  0.60363551350E+02  0.12304610419E+02  0.95381649137E+02  0.12700000000E+01 0.  1.
         -4    1    3    3    0  501 -0.47643736564E+02  0.96377659510E+00 -0.95293798319E+02  0.10655221911E+03  0.12700000000E+01 0.  1.
          2    1    1    2  502    0  0.98221209110E+02 -0.99429956489E+02  0.11735169066E+04  0.11818103284E+04  0.00000000000E+00 0. -1.
          1    1    1    2  503    0  0.22229699649E+02  0.38102628544E+02 -0.39620854577E+03  0.39865672149E+03  0.00000000000E+00 0. -1.
<mgrwt>
<rscale>  0 0.78430162E+02</rscale>
<asrwt>0</asrwt>
<pdfrwt beam="2">  1        2 0.83698596E-01 0.44113148E+02</pdfrwt>
<pdfrwt beam="1">  1        1 0.19051693E+00 0.13944346E+03</pdfrwt>
<totfact> 0.90738170E+01</totfact>
</mgrwt>
</event>
<event>
 7    1  0.7037933E-004  0.4651754E+02  0.7546771E-02  0.1503502E+00
          1   -1    0    0  502    0 -0.00000000000E+00  0.00000000000E+00  0.43836192800E+03  0.43836192800E+03  0.00000000000E+00 0. -1.
          2   -1    0    0  503    0  0.00000000000E+00 -0.00000000000E+00 -0.22577595298E+03  0.22577595298E+03  0.00000000000E+00 0. -1.
         25    2    1    2    0    0  0.91036687046E+01  0.23436774908E+02 -0.78866251270E+02  0.14992506204E+03  0.12500191773E+03 0.  0.
          4    1    3    3  501    0  0.11166725673E+01  0.25215813713E+02  0.30859431573E+02  0.39887361856E+02  0.12700000000E+01 0.  1.
         -4    1    3    3    0  501  0.79869961374E+01 -0.17790388050E+01 -0.10972568284E+03  0.11003770018E+03  0.12700000000E+01 0.  1.
          2    1    1    2  502    0  0.35497765061E+02  0.11881602069E+01  0.39617004342E+03  0.39775898023E+03  0.00000000000E+00 0. -1.
          1    1    1    2  503    0 -0.44601433766E+02 -0.24624935115E+02 -0.10471781713E+03  0.11645383870E+03  0.00000000000E+00 0. -1.
<mgrwt>
<rscale>  0 0.40647182E+02</rscale>
<asrwt>0</asrwt>
<pdfrwt beam="2">  1        2 0.34734762E-01 0.46517538E+02</pdfrwt>
<pdfrwt beam="1">  1        1 0.67440297E-01 0.35517644E+02</pdfrwt>
<totfact> 0.10934985E+03</totfact>
</mgrwt>
</event>
<event>
 7    1  0.7037933E-004  0.4512314E+03  0.7546771E-02  0.1282079E+00
          1   -1    0    0  502    0 -0.00000000000E+00  0.00000000000E+00  0.21395778766E+03  0.21395778766E+03  0.00000000000E+00 0. -1.
          2   -1    0    0  503    0  0.00000000000E+00 -0.00000000000E+00 -0.24175210730E+04  0.24175210730E+04  0.00000000000E+00 0. -1.
         25    2    1    2    0    0 -0.32392655327E+03 -0.31584777667E+03 -0.53095256521E+03  0.70867806706E+03  0.12500298512E+03 0.  0.
          4    1    3    3  501    0 -0.20807899181E+03 -0.12943605123E+03 -0.33047340696E+03  0.41141808881E+03  0.12700000000E+01 0. -1.
         -4    1    3    3    0  501 -0.11584756146E+03 -0.18641172544E+03 -0.20047915825E+03  0.29725997825E+03  0.12700000000E+01 0. -1.
          2    1    1    2  502    0 -0.13739383959E+02  0.16911792599E+02  0.95566034953E+02  0.98018602506E+02  0.00000000000E+00 0. -1.
          1    1    1    2  503    0  0.33766593723E+03  0.29893598407E+03 -0.17681767551E+04  0.18247821911E+04  0.00000000000E+00 0. -1.
<mgrwt>
<rscale>  0 0.99156830E+02</rscale>
<asrwt>0</asrwt>
<pdfrwt beam="2">  1        2 0.37192631E+00 0.45123142E+03</pdfrwt>
<pdfrwt beam="1">  1        1 0.32916583E-01 0.21789433E+02</pdfrwt>
<totfact> 0.73843925E+01</totfact>
</mgrwt>
</event>
<event>
 7    1  0.7037933E-004  0.7243715E+02  0.7546771E-02  0.1453901E+00
          2   -1    0    0  503    0  0.00000000000E+00  0.00000000000E+00  0.20077309596E+04  0.20077309596E+04  0.00000000000E+00 0. -1.
          1   -1    0    0  502    0 -0.00000000000E+00 -0.00000000000E+00 -0.23679893520E+02  0.23679893520E+02  0.00000000000E+00 0. -1.
         25    2    1    2    0    0  0.92727399320E+02  0.38125444939E+02  0.33330573283E+03  0.36982337336E+03  0.12499878321E+03 0.  0.
          4    1    3    3  501    0  0.57164992738E+02 -0.39753101466E+02  0.19603973593E+03  0.20804166995E+03  0.12700000000E+01 0. -1.
         -4    1    3    3    0  501  0.35562406582E+02  0.77878546405E+02  0.13726599691E+03  0.16178170341E+03  0.12700000000E+01 0. -1.
          2    1    1    2  502    0 -0.23130994221E+02 -0.22690832808E+02  0.52104066453E+02  0.61357562925E+02  0.00000000000E+00 0. -1.
          1    1    1    2  503    0 -0.69596405099E+02 -0.15434612131E+02  0.15986412668E+04  0.16002299168E+04  0.00000000000E+00 0. -1.
<mgrwt>
<rscale>  0 0.48447281E+02</rscale>
<asrwt>0</asrwt>
<pdfrwt beam="1">  1        2 0.30888155E+00 0.72437153E+02</pdfrwt>
<pdfrwt beam="2">  1        1 0.36430621E-02 0.32402419E+02</pdfrwt>
<totfact> 0.23633841E+03</totfact>
</mgrwt>
</event>
<event>
 7    1  0.7037933E-004  0.7767915E+02  0.7546771E-02  0.1500194E+00
          2   -1    0    0  503    0  0.00000000000E+00  0.00000000000E+00  0.13621431055E+03  0.13621431055E+03  0.00000000000E+00 0. -1.
          1   -1    0    0  502    0 -0.00000000000E+00 -0.00000000000E+00 -0.63776973589E+03  0.63776973589E+03  0.00000000000E+00 0. -1.
         25    2    1    2    0    0  0.56565723727E+02 -0.31457400560E+02 -0.16578185429E+03  0.21748136629E+03  0.12500108927E+03 0.  0.
          4    1    3    3  501    0  0.79687975330E+02  0.72593735334E+01 -0.14940263708E+03  0.16948637934E+03  0.12700000000E+01 0.  1.
         -4    1    3    3    0  501 -0.23122251603E+02 -0.38716774093E+02 -0.16379217212E+02  0.47994986945E+02  0.12700000000E+01 0.  1.
          2    1    1    2  502    0  0.19248197238E+02  0.10143267345E+02 -0.43178026730E+03  0.43232809092E+03  0.00000000000E+00 0. -1.
          1    1    1    2  503    0 -0.75813920965E+02  0.21314133214E+02  0.96006696246E+02  0.12417458923E+03  0.00000000000E+00 0. -1.
<mgrwt>
<rscale>  0 0.41110662E+02</rscale>
<asrwt>0</asrwt>
<pdfrwt beam="1">  1        2 0.20956048E-01 0.77679150E+02</pdfrwt>
<pdfrwt beam="2">  1        1 0.98118419E-01 0.21757274E+02</pdfrwt>
<totfact> 0.12132814E+03</totfact>
</mgrwt>
</event>
<event>
 7    1  0.7037933E-004  0.1213413E+03  0.7546771E-02  0.1326582E+00
         -1   -1    0    0    0  501 -0.00000000000E+00  0.00000000000E+00  0.63574116973E+03  0.63574116973E+03  0.00000000000E+00 0.  1.
          1   -1    0    0  503    0  0.00000000000E+00 -0.00000000000E+00 -0.62018393277E+03  0.62018393277E+03  0.00000000000E+00 0. -1.
         25    2    1    2    0    0  0.95596850252E+02  0.45580380151E+02  0.10431807556E+03  0.19422728324E+03  0.12500259130E+03 0.  0.
          4    1    3    3  502    0  0.84720510498E+02  0.40065320259E+02  0.13318888598E+03  0.16286094386E+03  0.12700000000E+01 0. -1.
         -4    1    3    3    0  502  0.10876339754E+02  0.55150598928E+01 -0.28870810417E+02  0.31366339381E+02  0.12700000000E+01 0. -1.
          2    1    1    2  503    0  0.30117036058E+02 -0.44708362252E+02 -0.56580464639E+03  0.56836675782E+03  0.00000000000E+00 0. -1.
         -2    1    1    2    0  501 -0.12571388631E+03 -0.87201789906E+00  0.47704380780E+03  0.49333106144E+03  0.00000000000E+00 0.  1.
<mgrwt>
<rscale>  0 0.80876702E+02</rscale>
<asrwt>0</asrwt>
<pdfrwt beam="2">  1        1 0.95412912E-01 0.53906155E+02</pdfrwt>
<pdfrwt beam="1">  1       -1 0.97806334E-01 0.12134126E+03</pdfrwt>
<totfact> 0.39438570E+01</totfact>
</mgrwt>
</event>
<event>
 7    1  0.7037933E-004  0.1370037E+03  0.7546771E-02  0.1254495E+00
          2   -1    0    0  503    0  0.00000000000E+00  0.00000000000E+00  0.91440116124E+03  0.91440116124E+03  0.00000000000E+00 0. -1.
          1   -1    0    0  502    0 -0.00000000000E+00 -0.00000000000E+00 -0.14025798074E+04  0.14025798074E+04  0.00000000000E+00 0. -1.
         25    2    1    2    0    0  0.15656623327E+03 -0.12977703971E+03  0.63412740767E+02  0.24698281646E+03  0.12499708197E+03 0.  0.
          4    1    3    3  501    0  0.15680698862E+02  0.55090713231E+00  0.52430356892E+02  0.54742515829E+02  0.12700000000E+01 0.  1.
         -4    1    3    3    0  501  0.14088553440E+03 -0.13032794684E+03  0.10982383875E+02  0.19224030063E+03  0.12700000000E+01 0.  1.
          2    1    1    2  502    0 -0.29309643228E+02  0.89076602817E+02 -0.13032188323E+04  0.13065883135E+04  0.00000000000E+00 0. -1.
          1    1    1    2  503    0 -0.12725659004E+03  0.40700436892E+02  0.75162744528E+03  0.76340983867E+03  0.00000000000E+00 0. -1.
<mgrwt>
<rscale>  0 0.11334672E+03</rscale>
<asrwt>0</asrwt>
<pdfrwt beam="1">  1        2 0.14067710E+00 0.13700366E+03</pdfrwt>
<pdfrwt beam="2">  1        1 0.21578151E+00 0.93774711E+02</pdfrwt>
<totfact> 0.38436213E+01</totfact>
</mgrwt>
</event>
<event>
 7    1  0.7037933E-004  0.1661446E+03  0.7546771E-02  0.1202008E+00
          1   -1    0    0  502    0 -0.00000000000E+00  0.00000000000E+00  0.36194676608E+03  0.36194676608E+03  0.00000000000E+00 0. -1.
          2   -1    0    0  503    0  0.00000000000E+00 -0.00000000000E+00 -0.10264400126E+04  0.10264400126E+04  0.00000000000E+00 0. -1.
         25    2    1    2    0    0  0.25405917620E+03  0.98383063479E+02  0.72177422020E+02  0.30831785622E+03  0.12500011208E+03 0.  0.
          4    1    3    3  501    0  0.22327969937E+03  0.66226104415E+02  0.10248691939E+03  0.25445019670E+03  0.12700000000E+01 0.  1.
         -4    1    3    3    0  501  0.30779476836E+02  0.32156959065E+02 -0.30309497372E+02  0.53867659514E+02  0.12700000000E+01 0.  1.
          2    1    1    2  502    0 -0.12693210764E+03 -0.58656715546E+02  0.13732320861E+03  0.19598477964E+03  0.00000000000E+00 0. -1.
          1    1    1    2  503    0 -0.12712706856E+03 -0.39726347933E+02 -0.87399387711E+03  0.88408414278E+03  0.00000000000E+00 0. -1.
<mgrwt>
<rscale>  0 0.14875730E+03</rscale>
<asrwt>0</asrwt>
<pdfrwt beam="2">  1        2 0.15791384E+00 0.13318962E+03</pdfrwt>
<pdfrwt beam="1">  1        1 0.55684119E-01 0.16614459E+03</pdfrwt>
<totfact> 0.24848088E+02</totfact>
</mgrwt>
</event>
<event>
 7    1  0.7037933E-004  0.1140327E+03  0.7546771E-02  0.1446240E+00
          2   -1    0    0  503    0  0.00000000000E+00  0.00000000000E+00  0.10465812234E+04  0.10465812234E+04  0.00000000000E+00 0. -1.
          1   -1    0    0  502    0 -0.00000000000E+00 -0.00000000000E+00 -0.77350650897E+03  0.77350650897E+03  0.00000000000E+00 0. -1.
         25    2    1    2    0    0  0.32129932396E+02  0.11811900417E+03  0.19525056317E+03  0.26216945874E+03  0.12500244389E+03 0.  0.
          4    1    3    3  501    0  0.58578044682E+02  0.13243445661E+03  0.15950799704E+03  0.21544068008E+03  0.12700000000E+01 0.  1.
         -4    1    3    3    0  501 -0.26448112286E+02 -0.14315452431E+02  0.35742566129E+02  0.46728778662E+02  0.12700000000E+01 0.  1.
          2    1    1    2  502    0 -0.10872689596E+02 -0.11338510829E+03 -0.73551747867E+03  0.74428513326E+03  0.00000000000E+00 0. -1.
          1    1    1    2  503    0 -0.21257242800E+02 -0.47338958832E+01  0.81334162996E+03  0.81363314041E+03  0.00000000000E+00 0. -1.
<mgrwt>
<rscale>  0 0.49833728E+02</rscale>
<asrwt>0</asrwt>
<pdfrwt beam="1">  1        2 0.16101250E+00 0.21777974E+02</pdfrwt>
<pdfrwt beam="2">  1        1 0.11900100E+00 0.11403267E+03</pdfrwt>
<totfact> 0.98099100E+01</totfact>
</mgrwt>
</event>
<event>
 7    1  0.7037933E-004  0.6189050E+02  0.7546771E-02  0.1416818E+00
          1   -1    0    0  502    0 -0.00000000000E+00  0.00000000000E+00  0.13831289011E+02  0.13831289011E+02  0.00000000000E+00 0. -1.
          2   -1    0    0  503    0  0.00000000000E+00 -0.00000000000E+00 -0.14356269563E+04  0.14356269563E+04  0.00000000000E+00 0. -1.
         25    2    1    2    0    0 -0.52487165844E+02  0.21134540782E+02 -0.68174346276E+03  0.69541377505E+03  0.12499839245E+03 0.  0.
          4    1    3    3  501    0  0.32653024553E+02  0.30122719681E+02 -0.13827611945E+03  0.14524288748E+03  0.12700000000E+01 0.  1.
         -4    1    3    3    0  501 -0.85140190397E+02 -0.89881788990E+01 -0.54346734331E+03  0.55017088756E+03  0.12700000000E+01 0.  1.
          2    1    1    2  502    0  0.61374379643E+02  0.28199846085E+02 -0.18880585663E+03  0.20052355795E+03  0.00000000000E+00 0. -1.
          1    1    1    2  503    0 -0.88872137989E+01 -0.49334386867E+02 -0.55124634787E+03  0.55352091228E+03  0.00000000000E+00 0. -1.
<mgrwt>
<rscale>  0 0.55699879E+02</rscale>
<asrwt>0</asrwt>
<pdfrwt beam="2">  1        2 0.22086564E+00 0.50128478E+02</pdfrwt>
<pdfrwt beam="1">  1        1 0.21278911E-02 0.61890499E+02</pdfrwt>
<totfact> 0.10569823E+04</totfact>
</mgrwt>
</event>
<event>
 7    1  0.7037933E-004  0.4323437E+02  0.7546771E-02  0.1489748E+00
          1   -1    0    0  502    0 -0.00000000000E+00  0.00000000000E+00  0.17695137380E+03  0.17695137380E+03  0.00000000000E+00 0. -1.
          2   -1    0    0  503    0  0.00000000000E+00 -0.00000000000E+00 -0.37041421613E+03  0.37041421613E+03  0.00000000000E+00 0. -1.
         25    2    1    2    0    0 -0.39563282621E+01 -0.22260838017E+01 -0.95005863880E+02  0.15707188671E+03  0.12499942176E+03 0.  0.
          4    1    3    3  501    0  0.29949419568E+02  0.44661923718E+02 -0.10750065894E+02  0.54852821071E+02  0.12700000000E+01 0.  1.
         -4    1    3    3    0  501 -0.33905747830E+02 -0.46888007520E+02 -0.84255797987E+02  0.10221906564E+03  0.12700000000E+01 0.  1.
          2    1    1    2  502    0 -0.30875603983E+02  0.30263964841E+02  0.14059675512E+03  0.14709404489E+03  0.00000000000E+00 0. -1.
          1    1    1    2  503    0  0.34831932245E+02 -0.28037881040E+02 -0.23905373358E+03  0.24319965834E+03  0.00000000000E+00 0. -1.
<mgrwt>
<rscale>  0 0.42623396E+02</rscale>
<asrwt>0</asrwt>
<pdfrwt beam="2">  1        2 0.56986802E-01 0.42021060E+02</pdfrwt>
<pdfrwt beam="1">  1        1 0.27223288E-01 0.43234367E+02</pdfrwt>
<totfact> 0.19419629E+03</totfact>
</mgrwt>
</event>
<event>
 7    1  0.7037933E-004  0.2577747E+02  0.7546771E-02  0.1681901E+00
          2   -1    0    0  503    0  0.00000000000E+00  0.00000000000E+00  0.10852093087E+04  0.10852093087E+04  0.00000000000E+00 0. -1.
         -2   -1    0    0    0  501 -0.00000000000E+00 -0.00000000000E+00 -0.10459984501E+03  0.10459984501E+03  0.00000000000E+00 0.  1.
         25    2    1    2    0    0  0.13956708674E+02  0.19839848014E+02  0.11725587899E+03  0.17309656273E+03  0.12500027834E+03 0.  0.
          4    1    3    3  502    0 -0.29148686425E+02  0.38908842106E+02  0.11616227024E+03  0.12593184602E+03  0.12700000000E+01 0.  1.
         -4    1    3    3    0  502  0.43105395098E+02 -0.19068994092E+02  0.10936087491E+01  0.47164716710E+02  0.12700000000E+01 0.  1.
          1    1    1    2  503    0 -0.25784870993E+02 -0.17495899450E+01  0.93832852225E+03  0.93868436458E+03  0.00000000000E+00 0. -1.
         -1    1    1    2    0  501  0.11828162320E+02 -0.18090258069E+02 -0.74974937533E+02  0.78028226424E+02  0.00000000000E+00 0.  1.
<mgrwt>
<rscale>  0 0.23604086E+02</rscale>
<asrwt>0</asrwt>
<pdfrwt beam="1">  1        2 0.16695527E+00 0.25777466E+02</pdfrwt>
<pdfrwt beam="2">  1       -2 0.16092285E-01 0.21613951E+02</pdfrwt>
<totfact> 0.71111815E+02</totfact>
</mgrwt>
</event>
<event>
 7    1  0.7037933E-004  0.6103993E+02  0.7546771E-02  0.1453446E+00
          1   -1    0    0  502    0 -0.00000000000E+00  0.00000000000E+00  0.19199654774E+04  0.19199654774E+04  0.00000000000E+00 0. -1.
          2   -1    0    0  503    0  0.00000000000E+00 -0.00000000000E+00 -0.44824604063E+03  0.44824604063E+03  0.00000000000E+00 0. -1.
         25    2    1    2    0    0 -0.52215009784E+02  0.83933579097E+02 -0.47051677556E+02  0.16616968995E+03  0.12500900987E+03 0.  0.
          4    1    3    3  501    0 -0.83611327883E+02  0.39750796833E+02  0.26396349978E+01  0.92625917389E+02  0.12700000000E+01 0. -1.
         -4    1    3    3    0  501  0.31396318099E+02  0.44182782264E+02 -0.49691312554E+02  0.73543772559E+02  0.12700000000E+01 0. -1.
          2    1    1    2  502    0  0.27531124156E+02 -0.54282476526E+02  0.18588175411E+04  0.18598137544E+04  0.00000000000E+00 0. -1.
          1    1    1    2  503    0  0.24683885628E+02 -0.29651102571E+02 -0.34004642673E+03  0.34222807369E+03  0.00000000000E+00 0. -1.
<mgrwt>
<rscale>  0 0.48528059E+02</rscale>
<asrwt>0</asrwt>
<pdfrwt beam="2">  1        2 0.68960930E-01 0.38580851E+02</pdfrwt>
<pdfrwt beam="1">  1        1 0.29537930E+00 0.61039931E+02</pdfrwt>
<totfact> 0.44388765E+01</totfact>
</mgrwt>
</event>
<event>
 7    1  0.7037933E-004  0.1429903E+03  0.7546771E-02  0.1363378E+00
          1   -1    0    0  502    0 -0.00000000000E+00  0.00000000000E+00  0.12872314964E+04  0.12872314964E+04  0.00000000000E+00 0. -1.
          2   -1    0    0  503    0  0.00000000000E+00 -0.00000000000E+00 -0.57335115065E+03  0.57335115065E+03  0.00000000000E+00 0. -1.
         25    2    1    2    0    0 -0.66065154024E+02  0.11380897763E+03 -0.20944587054E+03  0.27714584607E+03  0.12500063736E+03 0.  0.
          4    1    3    3  501    0 -0.40078375769E+02  0.13284797649E+03 -0.20022838488E+03  0.24361420335E+03  0.12700000000E+01 0. -1.
         -4    1    3    3    0  501 -0.25986778256E+02 -0.19038998857E+02 -0.92174856616E+01  0.33531642720E+02  0.12700000000E+01 0. -1.
          2    1    1    2  502    0  0.42046713911E+02 -0.13692835780E+03  0.12484339359E+04  0.12566242850E+04  0.00000000000E+00 0. -1.
          1    1    1    2  503    0  0.24018440113E+02  0.23119380166E+02 -0.32510771965E+03  0.32681251595E+03  0.00000000000E+00 0. -1.
<mgrwt>
<rscale>  0 0.69043066E+02</rscale>
<asrwt>0</asrwt>
<pdfrwt beam="2">  1        2 0.88207870E-01 0.33337534E+02</pdfrwt>
<pdfrwt beam="1">  1        1 0.19803561E+00 0.14299033E+03</pdfrwt>
<totfact> 0.79775221E+01</totfact>
</mgrwt>
</event>
<event>
 7    1  0.7037933E-004  0.6338536E+02  0.7546771E-02  0.1390144E+00
          1   -1    0    0  502    0 -0.00000000000E+00  0.00000000000E+00  0.32711984180E+03  0.32711984180E+03  0.00000000000E+00 0. -1.
          2   -1    0    0  503    0  0.00000000000E+00 -0.00000000000E+00 -0.26239265731E+04  0.26239265731E+04  0.00000000000E+00 0. -1.
         25    2    1    2    0    0  0.12121193520E+02 -0.56291620326E+00 -0.78332973887E+01  0.12583419454E+03  0.12500257501E+03 0.  0.
          4    1    3    3  501    0 -0.41703179587E+02 -0.22271889305E+02 -0.37763058559E+02  0.60521514626E+02  0.12700000000E+01 0.  1.
         -4    1    3    3    0  501  0.53824373107E+02  0.21708973101E+02  0.29929761170E+02  0.65312679911E+02  0.12700000000E+01 0.  1.
          2    1    1    2  502    0 -0.49352554521E+01  0.63539628785E+02  0.26393328790E+03  0.27151873165E+03  0.00000000000E+00 0. -1.
          1    1    1    2  503    0 -0.71859380680E+01 -0.62976712582E+02 -0.25529067218E+04  0.25536934887E+04  0.00000000000E+00 0. -1.
<mgrwt>
<rscale>  0 0.61870881E+02</rscale>
<asrwt>0</asrwt>
<pdfrwt beam="2">  1        2 0.40368101E+00 0.63385361E+02</pdfrwt>
<pdfrwt beam="1">  1        1 0.50326130E-01 0.60392586E+02</pdfrwt>
<totfact> 0.45274820E+01</totfact>
</mgrwt>
</event>
<event>
 7    1  0.7037933E-004  0.8216625E+02  0.7546771E-02  0.1346899E+00
          1   -1    0    0  503    0  0.00000000000E+00  0.00000000000E+00  0.88561685210E+03  0.88561685210E+03  0.00000000000E+00 0. -1.
         -1   -1    0    0    0  501 -0.00000000000E+00 -0.00000000000E+00 -0.87769218978E+02  0.87769218978E+02  0.00000000000E+00 0.  1.
         25    2    1    2    0    0  0.33284764896E+02 -0.35028267638E+00  0.28610013106E+03  0.31400252405E+03  0.12504519923E+03 0.  0.
          4    1    3    3  502    0  0.24138971899E+02  0.11140001208E+02  0.29538484052E+03  0.29658153432E+03  0.12700000000E+01 0.  1.
         -4    1    3    3    0  502  0.91457929974E+01 -0.11490283884E+02 -0.92847094664E+01  0.17420989730E+02  0.12700000000E+01 0.  1.
          2    1    1    2  503    0  0.30219893429E+02 -0.59462066302E+02  0.55708818148E+03  0.56106703809E+03  0.00000000000E+00 0. -1.
         -2    1    1    2    0  501 -0.63504658325E+02  0.59812348978E+02 -0.45340679413E+02  0.98316508934E+02  0.00000000000E+00 0.  1.
<mgrwt>
<rscale>  0 0.74030694E+02</rscale>
<asrwt>0</asrwt>
<pdfrwt beam="1">  1        1 0.13624874E+00 0.66700669E+02</pdfrwt>
<pdfrwt beam="2">  1       -1 0.13502957E-01 0.82166246E+02</pdfrwt>
<totfact> 0.76312700E+02</totfact>
</mgrwt>
</event>
<event>
 7    1  0.7037933E-004  0.9415545E+02  0.7546771E-02  0.1429731E+00
          1   -1    0    0  502    0 -0.00000000000E+00  0.00000000000E+00  0.21422029406E+03  0.21422029406E+03  0.00000000000E+00 0. -1.
          2   -1    0    0  503    0  0.00000000000E+00 -0.00000000000E+00 -0.26778168374E+04  0.26778168374E+04  0.00000000000E+00 0. -1.
         25    2    1    2    0    0 -0.34229960963E+01 -0.86316258101E+02 -0.81683112381E+03  0.83084302494E+03  0.12499933579E+03 0.  0.
          4    1    3    3  501    0 -0.42728878796E+02 -0.62955515756E+02 -0.71705559121E+03  0.72108216441E+03  0.12700000000E+01 0.  1.
         -4    1    3    3    0  501  0.39305882700E+02 -0.23360742346E+02 -0.99775532599E+02  0.10976086052E+03  0.12700000000E+01 0.  1.
          2    1    1    2  502    0  0.29165880199E+02 -0.63509342881E+01  0.20488484479E+03  0.20704777844E+03  0.00000000000E+00 0. -1.
          1    1    1    2  503    0 -0.25742884102E+02  0.92667192389E+02 -0.18516502643E+04  0.18541463281E+04  0.00000000000E+00 0. -1.
<mgrwt>
<rscale>  0 0.53013941E+02</rscale>
<asrwt>0</asrwt>
<pdfrwt beam="2">  1        2 0.41197180E+00 0.94155454E+02</pdfrwt>
<pdfrwt beam="1">  1        1 0.32956970E-01 0.29849337E+02</pdfrwt>
<totfact> 0.65479810E+01</totfact>
</mgrwt>
</event>
<event>
 7    1  0.7037933E-004  0.1415695E+03  0.7546771E-02  0.1236491E+00
          1   -1    0    0  502    0 -0.00000000000E+00  0.00000000000E+00  0.43532529862E+03  0.43532529862E+03  0.00000000000E+00 0. -1.
          2   -1    0    0  503    0  0.00000000000E+00 -0.00000000000E+00 -0.12279449446E+04  0.12279449446E+04  0.00000000000E+00 0. -1.
         25    2    1    2    0    0  0.10907251586E+03 -0.17194543908E+03  0.20221541183E+03  0.31301392708E+03  0.12499839211E+03 0.  0.
          4    1    3    3  501    0  0.11420672058E+03 -0.17753839948E+03  0.21291762240E+03  0.29983092760E+03  0.12700000000E+01 0. -1.
         -4    1    3    3    0  501 -0.51342047269E+01  0.55929603985E+01 -0.10702210572E+02  0.13182999481E+02  0.12700000000E+01 0. -1.
          2    1    1    2  502    0 -0.10425548582E+03  0.31036179595E+02  0.15635119288E+03  0.19046822906E+03  0.00000000000E+00 0. -1.
          1    1    1    2  503    0 -0.48170300356E+01  0.14090925949E+03 -0.11511862507E+04  0.11597880871E+04  0.00000000000E+00 0. -1.
<mgrwt>
<rscale>  0 0.12409480E+03</rscale>
<asrwt>0</asrwt>
<pdfrwt beam="2">  1        2 0.18891461E+00 0.14156954E+03</pdfrwt>
<pdfrwt beam="1">  1        1 0.66973123E-01 0.10877707E+03</pdfrwt>
<totfact> 0.15162973E+02</totfact>
</mgrwt>
</event>
<event>
 7    1  0.7037933E-004  0.1162912E+03  0.7546771E-02  0.1310660E+00
          2   -1    0    0  503    0  0.00000000000E+00  0.00000000000E+00  0.47389472255E+03  0.47389472255E+03  0.00000000000E+00 0. -1.
          1   -1    0    0  502    0 -0.00000000000E+00 -0.00000000000E+00 -0.17463499647E+04  0.17463499647E+04  0.00000000000E+00 0. -1.
         25    2    1    2    0    0  0.36635861961E+02  0.80881154592E+02 -0.52318683432E+02  0.16200174346E+03  0.12499349062E+03 0.  0.
          4    1    3    3  501    0 -0.20713788478E+01 -0.31986213219E+02 -0.21955504606E+02  0.38872426332E+02  0.12700000000E+01 0.  1.
         -4    1    3    3    0  501  0.38707240808E+02  0.11286736781E+03 -0.30363178825E+02  0.12312931713E+03  0.12700000000E+01 0.  1.
          2    1    1    2  502    0  0.63099017853E+02 -0.15032089548E+02 -0.16300104779E+04  0.16313005878E+04  0.00000000000E+00 0. -1.
          1    1    1    2  503    0 -0.99734879814E+02 -0.65849065044E+02  0.40987391922E+03  0.42694235592E+03  0.00000000000E+00 0. -1.
<mgrwt>
<rscale>  0 0.86851660E+02</rscale>
<asrwt>0</asrwt>
<pdfrwt beam="1">  1        2 0.72906880E-01 0.11629118E+03</pdfrwt>
<pdfrwt beam="2">  1        1 0.26866923E+00 0.64864858E+02</pdfrwt>
<totfact> 0.52669794E+01</totfact>
</mgrwt>
</event>
<event>
 7    1  0.7037933E-004  0.7133555E+02  0.7546771E-02  0.1484287E+00
         -1   -1    0    0    0  501 -0.00000000000E+00  0.00000000000E+00  0.27593241961E+03  0.27593241961E+03  0.00000000000E+00 0.  1.
          1   -1    0    0  503    0  0.00000000000E+00 -0.00000000000E+00 -0.30614395273E+03  0.30614395273E+03  0.00000000000E+00 0. -1.
         25    2    1    2    0    0  0.82275025879E+02 -0.42156892882E+02 -0.11580071798E+03  0.19385894155E+03  0.12500039774E+03 0.  0.
          4    1    3    3  502    0  0.14138973508E+02  0.41885069691E+02 -0.51945657273E+02  0.68221945475E+02  0.12700000000E+01 0.  1.
         -4    1    3    3    0  502  0.68136052371E+02 -0.84041962573E+02 -0.63855060706E+02  0.12563699608E+03  0.12700000000E+01 0.  1.
          2    1    1    2  503    0 -0.56348044207E+02  0.36874977796E+02 -0.14302061100E+03  0.15808150190E+03  0.00000000000E+00 0. -1.
         -2    1    1    2    0  501 -0.25926981672E+02  0.52819150863E+01  0.22860979586E+03  0.23013592889E+03  0.00000000000E+00 0.  1.
<mgrwt>
<rscale>  0 0.43445432E+02</rscale>
<asrwt>0</asrwt>
<pdfrwt beam="2">  1        1 0.47099069E-01 0.71335551E+02</pdfrwt>
<pdfrwt beam="1">  1       -1 0.42451142E-01 0.26459535E+02</pdfrwt>
<totfact> 0.47311519E+02</totfact>
</mgrwt>
</event>
<event>
 7    1  0.7037933E-004  0.1618044E+03  0.7546771E-02  0.1226766E+00
          1   -1    0    0  503    0  0.00000000000E+00  0.00000000000E+00  0.18210302787E+03  0.18210302787E+03  0.00000000000E+00 0. -1.
         -1   -1    0    0    0  501 -0.00000000000E+00 -0.00000000000E+00 -0.43803366129E+03  0.43803366129E+03  0.00000000000E+00 0.  1.
         25    2    1    2    0    0 -0.15878657660E+03  0.15421045709E+03 -0.13982536134E+03  0.29011891110E+03  0.12499523559E+03 0.  0.
          4    1    3    3  502    0 -0.12989115842E+03  0.13453585547E+03 -0.16306696326E+03  0.24812105281E+03  0.12700000000E+01 0.  1.
         -4    1    3    3    0  502 -0.28895418188E+02  0.19674601623E+02  0.23241601920E+02  0.41997858292E+02  0.12700000000E+01 0.  1.
          2    1    1    2  503    0  0.24303787729E+02 -0.10235077536E+03  0.44497610325E+02  0.11422080651E+03  0.00000000000E+00 0. -1.
         -2    1    1    2    0  501  0.13448278887E+03 -0.51859681738E+02 -0.16060288241E+03  0.21579697156E+03  0.00000000000E+00 0.  1.
<mgrwt>
<rscale>  0 0.13046567E+03</rscale>
<asrwt>0</asrwt>
<pdfrwt beam="1">  1        1 0.28015851E-01 0.10519675E+03</pdfrwt>
<pdfrwt beam="2">  1       -1 0.67389793E-01 0.16180436E+03</pdfrwt>
<totfact> 0.38285591E+02</totfact>
</mgrwt>
</event>
<event>
 7    1  0.7037933E-004  0.1045190E+03  0.7546771E-02  0.1286672E+00
          1   -1    0    0  502    0 -0.00000000000E+00  0.00000000000E+00  0.28755207270E+03  0.28755207270E+03  0.00000000000E+00 0. -1.
          2   -1    0    0  503    0  0.00000000000E+00 -0.00000000000E+00 -0.37747828668E+03  0.37747828668E+03  0.00000000000E+00 0. -1.
         25    2    1    2    0    0 -0.50604662383E+02  0.15740759393E+02  0.79930108266E+01  0.13601041523E+03  0.12500536576E+03 0.  0.
          4    1    3    3  501    0 -0.92257519922E+02  0.16744298241E+02  0.98200711551E+01  0.94286097614E+02  0.12700000000E+01 0. -1.
         -4    1    3    3    0  501  0.41652857539E+02 -0.10035388475E+01 -0.18270603285E+01  0.41724317620E+02  0.12700000000E+01 0. -1.
          2    1    1    2  502    0  0.62892968295E+02 -0.10497298694E+03  0.19074756320E+03  0.22662631426E+03  0.00000000000E+00 0. -1.
          1    1    1    2  503    0 -0.12288305912E+02  0.89232227549E+02 -0.28866678801E+03  0.30239362988E+03  0.00000000000E+00 0. -1.
<mgrwt>
<rscale>  0 0.97028255E+02</rscale>
<asrwt>0</asrwt>
<pdfrwt beam="2">  1        2 0.58073583E-01 0.90074374E+02</pdfrwt>
<pdfrwt beam="1">  1        1 0.44238780E-01 0.10451899E+03</pdfrwt>
<totfact> 0.10731575E+03</totfact>
</mgrwt>
</event>
<event>
 7    1  0.7037933E-004  0.7379299E+02  0.7546771E-02  0.1383185E+00
          2   -1    0    0  503    0  0.00000000000E+00  0.00000000000E+00  0.21103602377E+04  0.21103602377E+04  0.00000000000E+00 0. -1.
         -2   -1    0    0    0  501 -0.00000000000E+00 -0.00000000000E+00 -0.66889575035E+02  0.66889575035E+02  0.00000000000E+00 0.  1.
         25    2    1    2    0    0  0.10212509492E+03 -0.38275769534E+02  0.48110735405E+03  0.50890616123E+03  0.12500650089E+03 0.  0.
          4    1    3    3  502    0  0.20189731511E+02 -0.37622341914E+02  0.34685207888E+02  0.55024925405E+02  0.12700000000E+01 0.  1.
         -4    1    3    3    0  502  0.81935363406E+02 -0.65342761925E+00  0.44642214617E+03  0.45388123582E+03  0.12700000000E+01 0.  1.
          1    1    1    2  503    0 -0.52802201714E+02 -0.14933882547E+02  0.15898214148E+04  0.15907681240E+04  0.00000000000E+00 0. -1.
         -3    1    1    2    0  501 -0.49322893203E+02  0.53209652080E+02 -0.27458106215E+02  0.77575527490E+02  0.00000000000E+00 0.  1.
<mgrwt>
<rscale>  0 0.63633909E+02</rscale>
<asrwt>0</asrwt>
<pdfrwt beam="1">  1        2 0.32467076E+00 0.54873430E+02</pdfrwt>
<pdfrwt beam="2">  1       -2 0.10290705E-01 0.73792987E+02</pdfrwt>
<totfact> 0.45699725E+02</totfact>
</mgrwt>
</event>
<event>
 7    1  0.7037933E-004  0.1346272E+03  0.7546771E-02  0.1278039E+00
          2   -1    0    0  503    0  0.00000000000E+00  0.00000000000E+00  0.36888542937E+04  0.36888542937E+04  0.00000000000E+00 0. -1.
          1   -1    0    0  502    0 -0.00000000000E+00 -0.00000000000E+00 -0.56021911672E+03  0.56021911672E+03  0.00000000000E+00 0. -1.
         25    2    1    2    0    0 -0.70051237608E+02  0.99432251069E+02  0.26197867645E+04  0.26255845988E+04  0.12497137837E+03 0.  0.
          4    1    3    3  501    0  0.21121542631E+02  0.73001604717E+02  0.14287663366E+04  0.14307865709E+04  0.12700000000E+01 0. -1.
         -4    1    3    3    0  501 -0.91172780239E+02  0.26430646352E+02  0.11910204279E+04  0.11947980279E+04  0.12700000000E+01 0. -1.
          2    1    1    2  502    0  0.28506068591E+01 -0.13470183614E+03 -0.54779639025E+03  0.56412196889E+03  0.00000000000E+00 0. -1.
          1    1    1    2  503    0  0.67200630748E+02  0.35269585073E+02  0.10566448027E+04  0.10593668427E+04  0.00000000000E+00 0. -1.
<mgrwt>
<rscale>  0 0.10108099E+03</rscale>
<asrwt>0</asrwt>
<pdfrwt beam="1">  1        2 0.56751603E+00 0.75893797E+02</pdfrwt>
<pdfrwt beam="2">  1        1 0.86187559E-01 0.13462716E+03</pdfrwt>
<totfact> 0.52243330E+00</totfact>
</mgrwt>
</event>
<event>
 7    1  0.7037933E-004  0.1238282E+03  0.7546771E-02  0.1242947E+00
          1   -1    0    0  502    0 -0.00000000000E+00  0.00000000000E+00  0.11559815678E+04  0.11559815678E+04  0.00000000000E+00 0. -1.
          2   -1    0    0  503    0  0.00000000000E+00 -0.00000000000E+00 -0.13806051809E+03  0.13806051809E+03  0.00000000000E+00 0. -1.
         25    2    1    2    0    0  0.11673869800E+03 -0.26484901091E+02  0.14187316844E+03  0.22379179380E+03  0.12500158981E+03 0.  0.
          4    1    3    3  501    0  0.91390782451E+02 -0.98361281597E+01  0.14759841742E+02  0.93104727927E+02  0.12700000000E+01 0. -1.
         -4    1    3    3    0  501  0.25347915545E+02 -0.16648772931E+02  0.12711332670E+03  0.13068706588E+03  0.12700000000E+01 0. -1.
          2    1    1    2  502    0 -0.14026951979E+02  0.11561944352E+03  0.91998950614E+03  0.92733235817E+03  0.00000000000E+00 0. -1.
          1    1    1    2  503    0 -0.10271174602E+03 -0.89134542426E+02 -0.43941624906E+02  0.14291793387E+03  0.00000000000E+00 0. -1.
<mgrwt>
<rscale>  0 0.12009130E+03</rscale>
<asrwt>0</asrwt>
<pdfrwt beam="2">  1        2 0.21240080E-01 0.12382816E+03</pdfrwt>
<pdfrwt beam="1">  1        1 0.17784331E+00 0.11646721E+03</pdfrwt>
<totfact> 0.45037812E+02</totfact>
</mgrwt>
</event>
<event>
 7    1  0.7037933E-004  0.6257726E+02  0.7546771E-02  0.1465195E+00
          1   -1    0    0  502    0 -0.00000000000E+00  0.00000000000E+00  0.10442505620E+03  0.10442505620E+03  0.00000000000E+00 0. -1.
          2   -1    0    0  503    0  0.00000000000E+00 -0.00000000000E+00 -0.62024102475E+03  0.62024102475E+03  0.00000000000E+00 0. -1.
         25    2    1    2    0    0 -0.14951818587E+02  0.28409376868E+02 -0.40057141145E+02  0.13512589985E+03  0.12499513863E+03 0.  0.
          4    1    3    3  501    0  0.37368934765E+02  0.26426087479E+02 -0.63055161297E+02  0.77925231158E+02  0.12700000000E+01 0.  1.
         -4    1    3    3    0  501 -0.52320753352E+02  0.19832893889E+01  0.22998020151E+02  0.57200668694E+02  0.12700000000E+01 0.  1.
          2    1    1    2  502    0  0.32994572918E+01  0.34393959234E+02  0.49525127668E+02  0.60386829033E+02  0.00000000000E+00 0. -1.
          1    1    1    2  503    0  0.11652361296E+02 -0.62803336103E+02 -0.52528395507E+03  0.52915335207E+03  0.00000000000E+00 0. -1.
<mgrwt>
<rscale>  0 0.46499038E+02</rscale>
<asrwt>0</asrwt>
<pdfrwt beam="2">  1        2 0.95421697E-01 0.62577260E+02</pdfrwt>
<pdfrwt beam="1">  1        1 0.16065393E-01 0.34551857E+02</pdfrwt>
<totfact> 0.21125034E+03</totfact>
</mgrwt>
</event>
<event>
 7    1  0.7037933E-004  0.8657418E+02  0.7546771E-02  0.1340032E+00
          2   -1    0    0  503    0  0.00000000000E+00  0.00000000000E+00  0.84330966706E+03  0.84330966706E+03  0.00000000000E+00 0. -1.
          1   -1    0    0  502    0 -0.00000000000E+00 -0.00000000000E+00 -0.75338595550E+03  0.75338595550E+03  0.00000000000E+00 0. -1.
         25    2    1    2    0    0 -0.57447442496E+01 -0.26720803327E+02 -0.36673514607E+03  0.38841268643E+03  0.12499097647E+03 0.  0.
          4    1    3    3  501    0 -0.10472054975E+02 -0.76279038404E+02 -0.19673574912E+03  0.21126931514E+03  0.12700000000E+01 0.  1.
         -4    1    3    3    0  501  0.47273107258E+01  0.49558235077E+02 -0.16999939695E+03  0.17714337129E+03  0.12700000000E+01 0.  1.
          2    1    1    2  502    0  0.42246332155E+02 -0.52212919249E+02 -0.37051344348E+03  0.37655166089E+03  0.00000000000E+00 0. -1.
          1    1    1    2  503    0 -0.36501587906E+02  0.78933722576E+02  0.82717230112E+03  0.83173127524E+03  0.00000000000E+00 0. -1.
<mgrwt>
<rscale>  0 0.76253713E+02</rscale>
<asrwt>0</asrwt>
<pdfrwt beam="1">  1        2 0.12973995E+00 0.86574182E+02</pdfrwt>
<pdfrwt beam="2">  1        1 0.11590553E+00 0.67163543E+02</pdfrwt>
<totfact> 0.12808462E+02</totfact>
</mgrwt>
</event>
<event>
 7    1  0.7037933E-004  0.2822291E+02  0.7546771E-02  0.1633967E+00
          2   -1    0    0  503    0  0.00000000000E+00  0.00000000000E+00  0.72275397571E+03  0.72275397571E+03  0.00000000000E+00 0. -1.
         -2   -1    0    0    0  501 -0.00000000000E+00 -0.00000000000E+00 -0.15984787397E+03  0.15984787397E+03  0.00000000000E+00 0.  1.
         25    2    1    2    0    0  0.51122363325E+02 -0.13572474474E+02  0.17258615000E+02  0.13681872868E+03  0.12499518643E+03 0.  0.
          4    1    3    3  502    0  0.73788362993E+02 -0.41280240812E+01 -0.32939664466E+02  0.80922169342E+02  0.12700000000E+01 0.  1.
         -4    1    3    3    0  502 -0.22665999668E+02 -0.94444503928E+01  0.50198279466E+02  0.55896559335E+02  0.12700000000E+01 0.  1.
          1    1    1    2  503    0 -0.25353257740E+02  0.12119504051E+02  0.64373939700E+03  0.64435245116E+03  0.00000000000E+00 0. -1.
         -1    1    1    2    0  501 -0.25769105585E+02  0.14529704227E+01 -0.98091910265E+02  0.10143066984E+03  0.00000000000E+00 0.  1.
<mgrwt>
<rscale>  0 0.26989524E+02</rscale>
<asrwt>0</asrwt>
<pdfrwt beam="1">  1        2 0.11119292E+00 0.28222914E+02</pdfrwt>
<pdfrwt beam="2">  1       -2 0.24591981E-01 0.25810035E+02</pdfrwt>
<totfact> 0.58876035E+02</totfact>
</mgrwt>
</event>
<event>
 7    1  0.7037933E-004  0.5485819E+02  0.7546771E-02  0.1428946E+00
         -2   -1    0    0    0  501 -0.00000000000E+00  0.00000000000E+00  0.39998251116E+02  0.39998251116E+02  0.00000000000E+00 0.  1.
          2   -1    0    0  503    0  0.00000000000E+00 -0.00000000000E+00 -0.39859005822E+03  0.39859005822E+03  0.00000000000E+00 0. -1.
         25    2    1    2    0    0  0.60313159942E+02 -0.18712232107E+02 -0.21376291024E+03  0.25555288069E+03  0.12499947257E+03 0.  0.
          4    1    3    3  502    0 -0.35683465337E+02 -0.15140430484E+02 -0.33331174548E+02  0.51138267769E+02  0.12700000000E+01 0.  1.
         -4    1    3    3    0  502  0.95996625279E+02 -0.35718016232E+01 -0.18043173569E+03  0.20441461292E+03  0.12700000000E+01 0.  1.
          1    1    1    2  503    0 -0.22377741210E+02  0.53598730868E+02 -0.94994235973E+02  0.11134402598E+03  0.00000000000E+00 0. -1.
         -1    1    1    2    0  501 -0.37935418732E+02 -0.34886498762E+02 -0.49834660888E+02  0.71691402665E+02  0.00000000000E+00 0.  1.
<mgrwt>
<rscale>  0 0.53172179E+02</rscale>
<asrwt>0</asrwt>
<pdfrwt beam="2">  1        2 0.61321549E-01 0.54858192E+02</pdfrwt>
<pdfrwt beam="1">  1       -2 0.61535769E-02 0.51537984E+02</pdfrwt>
<totfact> 0.99373665E+03</totfact>
</mgrwt>
</event>
<event>
 7    1  0.7037933E-004  0.1010192E+03  0.7546771E-02  0.1379072E+00
          2   -1    0    0  503    0  0.00000000000E+00  0.00000000000E+00  0.62683032194E+02  0.62683032194E+02  0.00000000000E+00 0. -1.
         -2   -1    0    0    0  501 -0.00000000000E+00 -0.00000000000E+00 -0.10130845864E+04  0.10130845864E+04  0.00000000000E+00 0.  1.
         25    2    1    2    0    0 -0.34904571472E+02  0.62206222249E+02 -0.21123315608E+03  0.25560037334E+03  0.12499664568E+03 0.  0.
          4    1    3    3  502    0 -0.34986917099E+02 -0.33021145055E+02 -0.81775509373E+02  0.94885864185E+02  0.12700000000E+01 0.  1.
         -4    1    3    3    0  502  0.82345627291E-01  0.95227367305E+02 -0.12945764670E+03  0.16071450916E+03  0.12700000000E+01 0.  1.
          1    1    1    2  503    0 -0.38917452689E+02  0.14264452925E+02  0.25157332122E+02  0.48486432128E+02  0.00000000000E+00 0. -1.
         -1    1    1    2    0  501  0.73822024161E+02 -0.76470675174E+02 -0.76432573021E+03  0.77168081308E+03  0.00000000000E+00 0.  1.
<mgrwt>
<rscale>  0 0.64708359E+02</rscale>
<asrwt>0</asrwt>
<pdfrwt beam="1">  1        2 0.96435434E-02 0.41449279E+02</pdfrwt>
<pdfrwt beam="2">  1       -2 0.15585917E+00 0.10101917E+03</pdfrwt>
<totfact> 0.17984114E+02</totfact>
</mgrwt>
</event>
<event>
 7    1  0.7037933E-004  0.1230307E+03  0.7546771E-02  0.1423730E+00
          1   -1    0    0  502    0 -0.00000000000E+00  0.00000000000E+00  0.26270749941E+04  0.26270749941E+04  0.00000000000E+00 0. -1.
          2   -1    0    0  503    0  0.00000000000E+00 -0.00000000000E+00 -0.28918468148E+03  0.28918468148E+03  0.00000000000E+00 0. -1.
         25    2    1    2    0    0 -0.12971090172E+03 -0.79257143388E+01  0.19347538431E+04  0.19431380803E+04  0.12500172287E+03 0.  0.
          4    1    3    3  501    0 -0.58669176688E+02  0.50488105600E+02  0.12258178389E+04  0.12282597886E+04  0.12700000000E+01 0.  1.
         -4    1    3    3    0  501 -0.71041725033E+02 -0.58413819938E+02  0.70893600421E+03  0.71487829175E+03  0.12700000000E+01 0.  1.
          2    1    1    2  502    0  0.11525592816E+03 -0.11122699537E+02  0.68274405704E+03  0.69249338686E+03  0.00000000000E+00 0. -1.
          1    1    1    2  503    0  0.14454973562E+02  0.19048413876E+02 -0.27960758755E+03  0.28062820840E+03  0.00000000000E+00 0. -1.
<mgrwt>
<rscale>  0 0.54239477E+02</rscale>
<asrwt>0</asrwt>
<pdfrwt beam="2">  1        2 0.44489953E-01 0.23912096E+02</pdfrwt>
<pdfrwt beam="1">  1        1 0.40416537E+00 0.12303066E+03</pdfrwt>
<totfact> 0.22162350E+01</totfact>
</mgrwt>
</event>
<event>
 7    1  0.7037933E-004  0.1658284E+03  0.7546771E-02  0.1296429E+00
          1   -1    0    0  502    0 -0.00000000000E+00  0.00000000000E+00  0.17077244794E+04  0.17077244794E+04  0.00000000000E+00 0. -1.
          2   -1    0    0  503    0  0.00000000000E+00 -0.00000000000E+00 -0.11060507380E+04  0.11060507380E+04  0.00000000000E+00 0. -1.
         25    2    1    2    0    0  0.11557867581E+03  0.17631567818E+03 -0.22307688265E+03  0.33140762083E+03  0.12498826703E+03 0.  0.
          4    1    3    3  501    0  0.15761724050E+02 -0.18057477493E+02 -0.38528986859E+02  0.45393834017E+02  0.12700000000E+01 0.  1.
         -4    1    3    3    0  501  0.99816951760E+02  0.19437315567E+03 -0.18454789579E+03  0.28601378681E+03  0.12700000000E+01 0.  1.
          2    1    1    2  502    0 -0.10791975370E+03 -0.12505798776E+03  0.16486174505E+04  0.16568722557E+04  0.00000000000E+00 0. -1.
          1    1    1    2  503    0 -0.76589221082E+01 -0.51257690418E+02 -0.82386682648E+03  0.82549534080E+03  0.00000000000E+00 0. -1.
<mgrwt>
<rscale>  0 0.92705686E+02</rscale>
<asrwt>0</asrwt>
<pdfrwt beam="2">  1        2 0.17016165E+00 0.51826730E+02</pdfrwt>
<pdfrwt beam="1">  1        1 0.26272684E+00 0.16582841E+03</pdfrwt>
<totfact> 0.18838603E+01</totfact>
</mgrwt>
</event>
<event>
 7    1  0.7037933E-004  0.7213135E+02  0.7546771E-02  0.1481044E+00
         -2   -1    0    0    0  501 -0.00000000000E+00  0.00000000000E+00  0.37771717491E+03  0.37771717491E+03  0.00000000000E+00 0.  1.
          2   -1    0    0  503    0  0.00000000000E+00 -0.00000000000E+00 -0.12298690843E+04  0.12298690843E+04  0.00000000000E+00 0. -1.
         25    2    1    2    0    0 -0.48860735634E+02 -0.18183969127E+02 -0.10632007830E+03  0.17218162242E+03  0.12499809530E+03 0.  0.
          4    1    3    3  502    0 -0.36793428952E+02  0.22441107830E+02  0.13420569914E+02  0.45156221404E+02  0.12700000000E+01 0.  1.
         -4    1    3    3    0  502 -0.12067306683E+02 -0.40625076957E+02 -0.11974064822E+03  0.12702540102E+03  0.12700000000E+01 0.  1.
          1    1    1    2  503    0 -0.23656313063E+02  0.12534019185E+02 -0.10866153504E+04  0.10869450964E+04  0.00000000000E+00 0. -1.
         -1    1    1    2    0  501  0.72517048698E+02  0.56499499422E+01  0.34078351930E+03  0.34845954043E+03  0.00000000000E+00 0.  1.
<mgrwt>
<rscale>  0 0.43944024E+02</rscale>
<asrwt>0</asrwt>
<pdfrwt beam="2">  1        2 0.18921063E+00 0.26771679E+02</pdfrwt>
<pdfrwt beam="1">  1       -2 0.58110335E-01 0.72131348E+02</pdfrwt>
<totfact> 0.64871970E+01</totfact>
</mgrwt>
</event>
<event>
 7    1  0.7037933E-004  0.5641615E+02  0.7546771E-02  0.1447735E+00
         -2   -1    0    0    0  501 -0.00000000000E+00  0.00000000000E+00  0.33029398489E+02  0.33029398489E+02  0.00000000000E+00 0.  1.
          2   -1    0    0  503    0  0.00000000000E+00 -0.00000000000E+00 -0.73375616333E+03  0.73375616333E+03  0.00000000000E+00 0. -1.
         25    2    1    2    0    0  0.49705134065E+02  0.23057267822E+02 -0.27465466886E+03  0.30669770144E+03  0.12500421988E+03 0.  0.
          4    1    3    3  502    0  0.37048518876E+02 -0.49616169078E+02 -0.10925247181E+03  0.12558691206E+03  0.12700000000E+01 0.  1.
         -4    1    3    3    0  502  0.12656615189E+02  0.72673436900E+02 -0.16540219705E+03  0.18111078938E+03  0.12700000000E+01 0.  1.
          1    1    1    2  503    0  0.61612186772E+01 -0.43097185700E+02 -0.38606338976E+03  0.38851032025E+03  0.00000000000E+00 0. -1.
         -1    1    1    2    0  501 -0.55866352743E+02  0.20039917878E+02 -0.40008706220E+02  0.71577540128E+02  0.00000000000E+00 0.  1.
<mgrwt>
<rscale>  0 0.49559034E+02</rscale>
<asrwt>0</asrwt>
<pdfrwt beam="2">  1        2 0.11288555E+00 0.43535365E+02</pdfrwt>
<pdfrwt beam="1">  1       -2 0.50814464E-02 0.56416154E+02</pdfrwt>
<totfact> 0.69397518E+03</totfact>
</mgrwt>
</event>
<event>
 7    1  0.7037933E-004  0.5308727E+02  0.7546771E-02  0.1475547E+00
         -1   -1    0    0    0  502 -0.00000000000E+00  0.00000000000E+00  0.25367273960E+03  0.25367273960E+03  0.00000000000E+00 0.  1.
         -2   -1    0    0    0  501  0.00000000000E+00 -0.00000000000E+00 -0.57785567695E+03  0.57785567695E+03  0.00000000000E+00 0.  1.
         25    2    1    2    0    0 -0.35827310544E+02  0.79478712443E+02  0.69996863631E+02  0.16770440065E+03  0.12499897266E+03 0.  0.
          4    1    3    3  503    0  0.28466257894E+02  0.77458706097E+02  0.16808647121E+02  0.84227801270E+02  0.12700000000E+01 0.  1.
         -4    1    3    3    0  503 -0.64293568439E+02  0.20200063455E+01  0.53188216511E+02  0.83476599378E+02  0.12700000000E+01 0.  1.
         -2    1    1    2    0  502  0.16097044216E+02 -0.47214264863E+02  0.12950269532E+03  0.13877769898E+03  0.00000000000E+00 0.  1.
         -3    1    1    2    0  501  0.19730266328E+02 -0.32264447579E+02 -0.52368249629E+03  0.52504631692E+03  0.00000000000E+00 0.  1.
<mgrwt>
<rscale>  0 0.44807458E+02</rscale>
<asrwt>0</asrwt>
<pdfrwt beam="2">  1       -2 0.88900873E-01 0.37819016E+02</pdfrwt>
<pdfrwt beam="1">  1       -1 0.39026575E-01 0.53087268E+02</pdfrwt>
<totfact> 0.56115980E+01</totfact>
</mgrwt>
</event>
<event>
 7    1  0.7037933E-004  0.1016330E+03  0.7546771E-02  0.1297348E+00
          1   -1    0    0  502    0 -0.00000000000E+00  0.00000000000E+00  0.18325883230E+03  0.18325883230E+03  0.00000000000E+00 0. -1.
          2   -1    0    0  503    0  0.00000000000E+00 -0.00000000000E+00 -0.11852078702E+04  0.11852078702E+04  0.00000000000E+00 0. -1.
         25    2    1    2    0    0 -0.97749718495E+02 -0.47908324303E+02 -0.45528465004E+03  0.48451976594E+03  0.12500030410E+03 0.  0.
          4    1    3    3  501    0 -0.28467700603E+02 -0.81868688938E+02 -0.20402635287E+03  0.22167827537E+03  0.12700000000E+01 0. -1.
         -4    1    3    3    0  501 -0.69282017893E+02  0.33960364636E+02 -0.25125829717E+03  0.26284149057E+03  0.12700000000E+01 0. -1.
          2    1    1    2  502    0  0.30425615193E+02  0.97883752713E+02  0.15031726131E+03  0.18194017191E+03  0.00000000000E+00 0. -1.
          1    1    1    2  503    0  0.67324103303E+02 -0.49975428410E+02 -0.69698164914E+03  0.70200676462E+03  0.00000000000E+00 0. -1.
<mgrwt>
<rscale>  0 0.92311857E+02</rscale>
<asrwt>0</asrwt>
<pdfrwt beam="2">  1        2 0.18233967E+00 0.83845562E+02</pdfrwt>
<pdfrwt beam="1">  1        1 0.28193666E-01 0.10163304E+03</pdfrwt>
<totfact> 0.48100610E+02</totfact>
</mgrwt>
</event>
<event>
 7    1  0.7037933E-004  0.5304550E+02  0.7546771E-02  0.1464450E+00
          2   -1    0    0  503    0  0.00000000000E+00  0.00000000000E+00  0.85251585064E+02  0.85251585064E+02  0.00000000000E+00 0. -1.
         -2   -1    0    0    0  501 -0.00000000000E+00 -0.00000000000E+00 -0.16676286648E+03  0.16676286648E+03  0.00000000000E+00 0.  1.
         25    2    1    2    0    0  0.19919521709E+02 -0.41129482320E+02 -0.50075819279E+02  0.14219578276E+03  0.12499452507E+03 0.  0.
          4    1    3    3  502    0  0.31730720612E+02 -0.81372177984E+02 -0.49146572712E+02  0.10022608687E+03  0.12700000000E+01 0. -1.
         -4    1    3    3    0  502 -0.11811198904E+02  0.40242695664E+02 -0.92924656659E+00  0.41969695889E+02  0.12700000000E+01 0. -1.
          1    1    1    2  503    0  0.35727316508E+02  0.20072988704E+02  0.29736070168E+01  0.41087812780E+02  0.00000000000E+00 0. -1.
         -1    1    1    2    0  501 -0.55646838217E+02  0.21056493617E+02 -0.34409069159E+02  0.68730856006E+02  0.00000000000E+00 0.  1.
<mgrwt>
<rscale>  0 0.46624116E+02</rscale>
<asrwt>0</asrwt>
<pdfrwt beam="1">  1        2 0.13115629E-01 0.40980069E+02</pdfrwt>
<pdfrwt beam="2">  1       -2 0.25655825E-01 0.53045499E+02</pdfrwt>
<totfact> 0.53621688E+03</totfact>
</mgrwt>
</event>
<event>
 7    1  0.7037933E-004  0.4917305E+02  0.7546771E-02  0.1495543E+00
         -1   -1    0    0    0  502 -0.00000000000E+00  0.00000000000E+00  0.18424647750E+03  0.18424647750E+03  0.00000000000E+00 0.  1.
         -2   -1    0    0    0  501  0.00000000000E+00 -0.00000000000E+00 -0.19668322730E+03  0.19668322730E+03  0.00000000000E+00 0.  1.
         25    2    1    2    0    0 -0.30796157243E+01  0.53670724237E+02 -0.36615234728E+02  0.14090808570E+03  0.12499753008E+03 0.  0.
          4    1    3    3  503    0  0.29362060757E+02  0.85595441885E+02 -0.25846660820E+02  0.94118930396E+02  0.12700000000E+01 0. -1.
         -4    1    3    3    0  503 -0.32441676481E+02 -0.31924717647E+02 -0.10768573908E+02  0.46789155301E+02  0.12700000000E+01 0. -1.
         -2    1    1    2    0  502  0.33931698786E+02 -0.36130544385E+02  0.12428836497E+03  0.13380722733E+03  0.00000000000E+00 0.  1.
         -1    1    1    2    0  501 -0.30852083061E+02 -0.17540179852E+02 -0.10010988004E+03  0.10621439178E+03  0.00000000000E+00 0.  1.
<mgrwt>
<rscale>  0 0.41774754E+02</rscale>
<asrwt>0</asrwt>
<pdfrwt beam="2">  1       -2 0.30258958E-01 0.35489561E+02</pdfrwt>
<pdfrwt beam="1">  1       -1 0.28345612E-01 0.49173053E+02</pdfrwt>
<totfact> 0.77487741E+02</totfact>
</mgrwt>
</event>
<event>
 7    1  0.7037933E-004  0.9063971E+02  0.7546771E-02  0.1478014E+00
          1   -1    0    0  503    0  0.00000000000E+00  0.00000000000E+00  0.51999894519E+02  0.51999894519E+02  0.00000000000E+00 0.  1.
         -1   -1    0    0    0  501 -0.00000000000E+00 -0.00000000000E+00 -0.40489094112E+03  0.40489094112E+03  0.00000000000E+00 0. -1.
         25    2    1    2    0    0  0.65560272290E+02  0.63220109184E+02 -0.15171931873E+03  0.21665212153E+03  0.12499783431E+03 0.  0.
          4    1    3    3  502    0  0.47915736601E+02  0.90278674677E+02 -0.15333827917E+03  0.18428347097E+03  0.12700000000E+01 0. -1.
         -4    1    3    3    0  502  0.17644535689E+02 -0.27058565494E+02  0.16189604389E+01  0.32368650561E+02  0.12700000000E+01 0. -1.
          2    1    1    2  503    0 -0.78917383227E+02 -0.46034409592E+02 -0.94785936200E+02  0.13164913195E+03  0.00000000000E+00 0. -1.
         -2    1    1    2    0  501  0.13357110937E+02 -0.17185699591E+02 -0.10638579167E+03  0.10858958215E+03  0.00000000000E+00 0.  1.
<mgrwt>
<rscale>  0 0.44416978E+02</rscale>
<asrwt>0</asrwt>
<pdfrwt beam="1">  1        1 0.79999840E-02 0.90639709E+02</pdfrwt>
<pdfrwt beam="2">  1       -1 0.62290912E-01 0.21766044E+02</pdfrwt>
<totfact> 0.22691276E+03</totfact>
</mgrwt>
</event>
<event>
 7    1  0.7037933E-004  0.1402987E+03  0.7546771E-02  0.1278803E+00
          2   -1    0    0  503    0  0.00000000000E+00  0.00000000000E+00  0.68123236212E+03  0.68123236212E+03  0.00000000000E+00 0. -1.
          1   -1    0    0  502    0 -0.00000000000E+00 -0.00000000000E+00 -0.32243389899E+04  0.32243389899E+04  0.00000000000E+00 0. -1.
         25    2    1    2    0    0 -0.88227639811E+01 -0.14936792919E+03  0.12726212266E+03  0.23281964728E+03  0.12498288226E+03 0.  0.
          4    1    3    3  501    0  0.45825660988E+02 -0.66383602196E+02  0.10244551576E+03  0.13039735597E+03  0.12700000000E+01 0. -1.
         -4    1    3    3    0  501 -0.54648424969E+02 -0.82984326998E+02  0.24816606908E+02  0.10242229131E+03  0.12700000000E+01 0. -1.
          2    1    1    2  502    0  0.74438601689E+02  0.11901259935E+03 -0.31673903387E+04  0.31704994342E+04  0.00000000000E+00 0. -1.
          1    1    1    2  503    0 -0.65615837708E+02  0.30355329848E+02  0.49702158821E+03  0.50225227063E+03  0.00000000000E+00 0. -1.
<mgrwt>
<rscale>  0 0.10071345E+03</rscale>
<asrwt>0</asrwt>
<pdfrwt beam="1">  1        2 0.10480498E+00 0.72297194E+02</pdfrwt>
<pdfrwt beam="2">  1        1 0.49605215E+00 0.14029866E+03</pdfrwt>
<totfact> 0.34673456E+00</totfact>
</mgrwt>
</event>
<event>
 7    1  0.7037933E-004  0.7048273E+02  0.7546771E-02  0.1396557E+00
          1   -1    0    0  502    0 -0.00000000000E+00  0.00000000000E+00  0.12397161898E+03  0.12397161898E+03  0.00000000000E+00 0. -1.
          2   -1    0    0  503    0  0.00000000000E+00 -0.00000000000E+00 -0.10281346310E+04  0.10281346310E+04  0.00000000000E+00 0. -1.
         25    2    1    2    0    0 -0.12060785621E+03 -0.68355595447E+01 -0.83993526914E+02  0.19306290649E+03  0.12500157377E+03 0.  0.
          4    1    3    3  501    0 -0.38928808421E+02 -0.36754488940E+02 -0.91208853326E+02  0.10576867404E+03  0.12700000000E+01 0.  1.
         -4    1    3    3    0  501 -0.81679047792E+02  0.29918929395E+02  0.72153264120E+01  0.87294232453E+02  0.12700000000E+01 0.  1.
          2    1    1    2  502    0  0.51436881120E+02  0.40590257209E+01  0.58298415847E+02  0.77851998815E+02  0.00000000000E+00 0. -1.
          1    1    1    2  503    0  0.69170975093E+02  0.27765338238E+01 -0.87846790095E+03  0.88119134468E+03  0.00000000000E+00 0. -1.
<mgrwt>
<rscale>  0 0.60304913E+02</rscale>
<asrwt>0</asrwt>
<pdfrwt beam="2">  1        2 0.15817455E+00 0.70482733E+02</pdfrwt>
<pdfrwt beam="1">  1        1 0.19072558E-01 0.51596787E+02</pdfrwt>
<totfact> 0.94237593E+02</totfact>
</mgrwt>
</event>
<event>
 7    1  0.7037933E-004  0.8409323E+02  0.7546771E-02  0.1338988E+00
         -2   -1    0    0    0  501 -0.00000000000E+00  0.00000000000E+00  0.32588227324E+03  0.32588227324E+03  0.00000000000E+00 0.  1.
          2   -1    0    0  503    0  0.00000000000E+00 -0.00000000000E+00 -0.14794240157E+04  0.14794240157E+04  0.00000000000E+00 0. -1.
         25    2    1    2    0    0  0.14367455426E+02 -0.46512202039E+02 -0.40800984757E+03  0.42949834475E+03  0.12500793459E+03 0.  0.
          4    1    3    3  502    0 -0.50043162904E+02 -0.76295628860E+01 -0.24184846234E+03  0.24709273567E+03  0.12700000000E+01 0. -1.
         -4    1    3    3    0  502  0.64410618330E+02 -0.38882639153E+02 -0.16616138523E+03  0.18240560908E+03  0.12700000000E+01 0. -1.
          1    1    1    2  503    0  0.45953615024E+02  0.81579661318E+02 -0.10547082712E+04  0.10588562288E+04  0.00000000000E+00 0. -1.
         -1    1    1    2    0  501 -0.60321070449E+02 -0.35067459279E+02  0.30917637631E+03  0.31695171542E+03  0.00000000000E+00 0.  1.
<mgrwt>
<rscale>  0 0.76599539E+02</rscale>
<asrwt>0</asrwt>
<pdfrwt beam="2">  1        2 0.22760370E+00 0.84093232E+02</pdfrwt>
<pdfrwt beam="1">  1       -2 0.50135734E-01 0.69773621E+02</pdfrwt>
<totfact> 0.59485919E+01</totfact>
</mgrwt>
</event>
<event>
 7    1  0.7037933E-004  0.8103150E+02  0.7546771E-02  0.1430272E+00
          2   -1    0    0  503    0  0.00000000000E+00  0.00000000000E+00  0.72233984136E+03  0.72233984136E+03  0.00000000000E+00 0. -1.
         -2   -1    0    0    0  501 -0.00000000000E+00 -0.00000000000E+00 -0.44551942014E+03  0.44551942014E+03  0.00000000000E+00 0.  1.
         25    2    1    2    0    0 -0.56112860404E+02  0.31602061262E+02  0.11658967923E+03  0.18265930500E+03  0.12499570002E+03 0.  0.
          4    1    3    3  502    0 -0.84922528127E+02 -0.64411576860E+01  0.44240452924E+02  0.95979971196E+02  0.12700000000E+01 0.  1.
         -4    1    3    3    0  502  0.28809667723E+02  0.38043218948E+02  0.72349226305E+02  0.86679333807E+02  0.12700000000E+01 0.  1.
          1    1    1    2  503    0  0.82463303621E+02 -0.92684010995E+01  0.56897716501E+03  0.57499662086E+03  0.00000000000E+00 0. -1.
         -1    1    1    2    0  501 -0.26350443217E+02 -0.22333660163E+02 -0.40874642302E+03  0.41020333563E+03  0.00000000000E+00 0.  1.
<mgrwt>
<rscale>  0 0.52905356E+02</rscale>
<asrwt>0</asrwt>
<pdfrwt beam="1">  1        2 0.11112921E+00 0.81031503E+02</pdfrwt>
<pdfrwt beam="2">  1       -2 0.68541449E-01 0.34541833E+02</pdfrwt>
<totfact> 0.86633600E+01</totfact>
</mgrwt>
</event>
<event>
 7    1  0.7037933E-004  0.8107728E+02  0.7546771E-02  0.1402570E+00
         -2   -1    0    0    0  501 -0.00000000000E+00  0.00000000000E+00  0.49742446637E+03  0.49742446637E+03  0.00000000000E+00 0.  1.
          2   -1    0    0  503    0  0.00000000000E+00 -0.00000000000E+00 -0.19281284614E+04  0.19281284614E+04  0.00000000000E+00 0. -1.
         25    2    1    2    0    0 -0.47622640069E+02 -0.17819894350E+02 -0.34184697785E+03  0.36751758185E+03  0.12499740886E+03 0.  0.
          4    1    3    3  502    0 -0.26748347150E+02 -0.33474700265E+02 -0.25059884499E+02  0.49655214673E+02  0.12700000000E+01 0. -1.
         -4    1    3    3    0  502 -0.20874292920E+02  0.15654805915E+02 -0.31678709335E+03  0.31786236717E+03  0.12700000000E+01 0. -1.
          1    1    1    2  503    0 -0.74999303760E+01 -0.42104949000E+02 -0.15697327178E+04  0.15703152171E+04  0.00000000000E+00 0. -1.
         -1    1    1    2    0  501  0.55122570445E+02  0.59924843350E+02  0.48087570062E+03  0.48772012884E+03  0.00000000000E+00 0.  1.
<mgrwt>
<rscale>  0 0.58885384E+02</rscale>
<asrwt>0</asrwt>
<pdfrwt beam="2">  1        2 0.29663515E+00 0.42767694E+02</pdfrwt>
<pdfrwt beam="1">  1       -2 0.76526840E-01 0.81077282E+02</pdfrwt>
<totfact> 0.16054526E+01</totfact>
</mgrwt>
</event>
<event>
 7    1  0.7037933E-004  0.1465931E+03  0.7546771E-02  0.1221842E+00
          2   -1    0    0  503    0  0.00000000000E+00  0.00000000000E+00  0.68359139303E+03  0.68359139303E+03  0.00000000000E+00 0. -1.
         -2   -1    0    0    0  501 -0.00000000000E+00 -0.00000000000E+00 -0.10932518116E+04  0.10932518116E+04  0.00000000000E+00 0.  1.
         25    2    1    2    0    0  0.17472626095E+03 -0.12272448026E+03 -0.57399593518E+03  0.62504842505E+03  0.12499454281E+03 0.  0.
          4    1    3    3  502    0  0.14388793130E+03 -0.66220122793E+02 -0.51093817813E+03  0.53492829071E+03  0.12700000000E+01 0. -1.
         -4    1    3    3    0  502  0.30838329649E+02 -0.56504357465E+02 -0.63057757054E+02  0.90120134336E+02  0.12700000000E+01 0. -1.
          1    1    1    2  503    0 -0.44448697751E+02  0.11385886046E+03  0.64357778304E+03  0.65508159008E+03  0.00000000000E+00 0. -1.
         -1    1    1    2    0  501 -0.13027756320E+03  0.88656197991E+01 -0.47924226644E+03  0.49671318950E+03  0.00000000000E+00 0.  1.
<mgrwt>
<rscale>  0 0.13385698E+03</rscale>
<asrwt>0</asrwt>
<pdfrwt beam="1">  1        2 0.10516791E+00 0.12222736E+03</pdfrwt>
<pdfrwt beam="2">  1       -2 0.16819258E+00 0.14659313E+03</pdfrwt>
<totfact> 0.10869001E+01</totfact>
</mgrwt>
</event>
<event>
 7    1  0.7037933E-004  0.3411481E+02  0.7546771E-02  0.1573559E+00
          2   -1    0    0  503    0  0.00000000000E+00  0.00000000000E+00  0.52171721220E+03  0.52171721220E+03  0.00000000000E+00 0. -1.
          1   -1    0    0  502    0 -0.00000000000E+00 -0.00000000000E+00 -0.48860151286E+03  0.48860151286E+03  0.00000000000E+00 0. -1.
         25    2    1    2    0    0  0.28477564567E+02 -0.18469257568E+01 -0.37960247565E+03  0.40067766017E+03  0.12502065838E+03 0.  0.
          4    1    3    3  501    0 -0.30316048580E+02  0.15055451905E+02 -0.29120883642E+03  0.29317218276E+03  0.12700000000E+01 0. -1.
         -4    1    3    3    0  501  0.58793613147E+02 -0.16902377662E+02 -0.88393639226E+02  0.10750547741E+03  0.12700000000E+01 0. -1.
          2    1    1    2  502    0 -0.12162488756E+02 -0.28145236964E+02 -0.95487753501E+02  0.10028953866E+03  0.00000000000E+00 0. -1.
          1    1    1    2  503    0 -0.16315075811E+02  0.29992162720E+02  0.50820592849E+03  0.50935152623E+03  0.00000000000E+00 0. -1.
<mgrwt>
<rscale>  0 0.32341692E+02</rscale>
<asrwt>0</asrwt>
<pdfrwt beam="1">  1        2 0.80264186E-01 0.34114810E+02</pdfrwt>
<pdfrwt beam="2">  1        1 0.75169464E-01 0.30660732E+02</pdfrwt>
<totfact> 0.40840649E+02</totfact>
</mgrwt>
</event>
<event>
 7    1  0.7037933E-004  0.1395202E+03  0.7546771E-02  0.1245164E+00
          1   -1    0    0  502    0 -0.00000000000E+00  0.00000000000E+00  0.50248428126E+02  0.50248428126E+02  0.00000000000E+00 0. -1.
          2   -1    0    0  503    0  0.00000000000E+00 -0.00000000000E+00 -0.25419700094E+04  0.25419700094E+04  0.00000000000E+00 0. -1.
         25    2    1    2    0    0  0.63344667813E+02  0.35262342627E+01 -0.41174726260E+03  0.43495471678E+03  0.12499926448E+03 0.  0.
          4    1    3    3  501    0 -0.21781378765E+02  0.26986778883E+02 -0.23313920186E+03  0.23570790195E+03  0.12700000000E+01 0. -1.
         -4    1    3    3    0  501  0.85126046578E+02 -0.23460544620E+02 -0.17860806074E+03  0.19924681483E+03  0.12700000000E+01 0. -1.
          2    1    1    2  502    0  0.93758821305E+02 -0.37771703691E+02 -0.36494329752E+02  0.10746745682E+03  0.00000000000E+00 0. -1.
          1    1    1    2  503    0 -0.15710348912E+03  0.34245469429E+02 -0.20434799889E+04  0.20497962639E+04  0.00000000000E+00 0. -1.
<mgrwt>
<rscale>  0 0.11875551E+03</rscale>
<asrwt>0</asrwt>
<pdfrwt beam="2">  1        2 0.39107230E+00 0.13952015E+03</pdfrwt>
<pdfrwt beam="1">  1        1 0.77305275E-02 0.10108125E+03</pdfrwt>
<totfact> 0.47974900E+02</totfact>
</mgrwt>
</event>
<event>
 7    1  0.7037933E-004  0.7081727E+02  0.7546771E-02  0.1443653E+00
         -2   -1    0    0    0  501 -0.00000000000E+00  0.00000000000E+00  0.44031011264E+03  0.44031011264E+03  0.00000000000E+00 0.  1.
          2   -1    0    0  503    0  0.00000000000E+00 -0.00000000000E+00 -0.13258240404E+04  0.13258240404E+04  0.00000000000E+00 0. -1.
         25    2    1    2    0    0 -0.58763511417E+02  0.35658719542E+02  0.12048171349E+03  0.18672162992E+03  0.12499771695E+03 0.  0.
          4    1    3    3  502    0 -0.82640770734E+02 -0.14103239204E+02  0.92437185095E+02  0.12479841518E+03  0.12700000000E+01 0.  1.
         -4    1    3    3    0  502  0.23877259317E+02  0.49761958746E+02  0.28044528393E+02  0.61923214738E+02  0.12700000000E+01 0.  1.
          1    1    1    2  503    0  0.23235485694E+02  0.27165952267E+02 -0.12879099174E+04  0.12884059268E+04  0.00000000000E+00 0. -1.
         -1    1    1    2    0  501  0.35528025723E+02 -0.62824671808E+02  0.28191427618E+03  0.29100659634E+03  0.00000000000E+00 0.  1.
<mgrwt>
<rscale>  0 0.50314344E+02</rscale>
<asrwt>0</asrwt>
<pdfrwt beam="2">  1        2 0.20397293E+00 0.35747402E+02</pdfrwt>
<pdfrwt beam="1">  1       -2 0.67740018E-01 0.70817265E+02</pdfrwt>
<totfact> 0.41507548E+01</totfact>
</mgrwt>
</event>
<event>
 7    1  0.7037933E-004  0.3915110E+02  0.7546771E-02  0.1530249E+00
          2   -1    0    0  503    0  0.00000000000E+00  0.00000000000E+00  0.25877206676E+04  0.25877206676E+04  0.00000000000E+00 0. -1.
          1   -1    0    0  502    0 -0.00000000000E+00 -0.00000000000E+00 -0.77394026179E+02  0.77394026179E+02  0.00000000000E+00 0. -1.
         25    2    1    2    0    0 -0.15939940676E+02 -0.53891262933E-01  0.39960820502E+03  0.41900596590E+03  0.12500078931E+03 0.  0.
          4    1    3    3  501    0  0.45604749768E+02  0.82233720792E+01  0.72506424473E+02  0.86059348938E+02  0.12700000000E+01 0.  1.
         -4    1    3    3    0  501 -0.61544690444E+02 -0.82772633421E+01  0.32710178055E+03  0.33294661696E+03  0.12700000000E+01 0.  1.
          2    1    1    2  502    0  0.18041932617E+02  0.35253597942E+02 -0.61747921124E+02  0.73356208078E+02  0.00000000000E+00 0. -1.
          1    1    1    2  503    0 -0.21019919412E+01 -0.35199706679E+02  0.21724663576E+04  0.21727525198E+04  0.00000000000E+00 0. -1.
<mgrwt>
<rscale>  0 0.37155919E+02</rscale>
<asrwt>0</asrwt>
<pdfrwt beam="1">  1        2 0.39811080E+00 0.35262412E+02</pdfrwt>
<pdfrwt beam="2">  1        1 0.11906775E-01 0.39151101E+02</pdfrwt>
<totfact> 0.29576113E+02</totfact>
</mgrwt>
</event>
<event>
 7    1  0.7037933E-004  0.7635109E+02  0.7546771E-02  0.1414520E+00
          2   -1    0    0  503    0  0.00000000000E+00  0.00000000000E+00  0.23566173287E+03  0.23566173287E+03  0.00000000000E+00 0. -1.
          1   -1    0    0  502    0 -0.00000000000E+00 -0.00000000000E+00 -0.99649295154E+03  0.99649295154E+03  0.00000000000E+00 0. -1.
         25    2    1    2    0    0  0.37418064725E+02  0.16567884745E+02 -0.24377131129E+03  0.27698840243E+03  0.12499406586E+03 0.  0.
          4    1    3    3  501    0  0.84824829694E+00  0.35119835358E+02 -0.59483498834E+01  0.35652743612E+02  0.12700000000E+01 0. -1.
         -4    1    3    3    0  501  0.36569816428E+02 -0.18551950613E+02 -0.23782296141E+03  0.24133565882E+03  0.12700000000E+01 0. -1.
          2    1    1    2  502    0 -0.67950530180E+02 -0.44473053524E+02 -0.73189435791E+03  0.73638609315E+03  0.00000000000E+00 0. -1.
          1    1    1    2  503    0  0.30532465455E+02  0.27905168779E+02  0.21483445053E+03  0.21878018883E+03  0.00000000000E+00 0. -1.
<mgrwt>
<rscale>  0 0.56197329E+02</rscale>
<asrwt>0</asrwt>
<pdfrwt beam="1">  1        2 0.36255651E-01 0.41363388E+02</pdfrwt>
<pdfrwt beam="2">  1        1 0.15330661E+00 0.76351091E+02</pdfrwt>
<totfact> 0.32830100E+02</totfact>
</mgrwt>
</event>
<event>
 7    1  0.7037933E-004  0.5143759E+02  0.7546771E-02  0.1482324E+00
          2   -1    0    0  503    0  0.00000000000E+00  0.00000000000E+00  0.16395001254E+03  0.16395001254E+03  0.00000000000E+00 0. -1.
          1   -1    0    0  502    0 -0.00000000000E+00 -0.00000000000E+00 -0.17751504119E+04  0.17751504119E+04  0.00000000000E+00 0. -1.
         25    2    1    2    0    0  0.77840894087E+02  0.34731258901E+02  0.27342993209E+02  0.15375171526E+03  0.12500594198E+03 0.  0.
          4    1    3    3  501    0 -0.25182127214E+01  0.61996387342E+02 -0.64677613521E+01  0.62396620707E+02  0.12700000000E+01 0.  1.
         -4    1    3    3    0  501  0.80359106808E+02 -0.27265128441E+02  0.33810754561E+02  0.91355094548E+02  0.12700000000E+01 0.  1.
          2    1    1    2  502    0 -0.40815326932E+02 -0.31082754469E+02 -0.17068213150E+04  0.17075921732E+04  0.00000000000E+00 0. -1.
          1    1    1    2  503    0 -0.37025567155E+02 -0.36485044317E+01  0.68277922406E+02  0.77756536033E+02  0.00000000000E+00 0. -1.
<mgrwt>
<rscale>  0 0.43746201E+02</rscale>
<asrwt>0</asrwt>
<pdfrwt beam="1">  1        2 0.25223079E-01 0.37204895E+02</pdfrwt>
<pdfrwt beam="2">  1        1 0.27310006E+00 0.51437590E+02</pdfrwt>
<totfact> 0.15523516E+02</totfact>
</mgrwt>
</event>
<event>
 7    1  0.7037933E-004  0.8570823E+02  0.7546771E-02  0.1379858E+00
         -2   -1    0    0    0  501 -0.00000000000E+00  0.00000000000E+00  0.13407091475E+03  0.13407091475E+03  0.00000000000E+00 0.  1.
          2   -1    0    0  503    0  0.00000000000E+00 -0.00000000000E+00 -0.91669930211E+03  0.91669930211E+03  0.00000000000E+00 0. -1.
         25    2    1    2    0    0  0.80958709421E+02  0.77413762019E+02 -0.77620158955E+02  0.18493379143E+03  0.12501365907E+03 0.  0.
          4    1    3    3  502    0 -0.28871052884E+02 -0.37786417024E+01 -0.30201430785E+01  0.29301023736E+02  0.12700000000E+01 0. -1.
         -4    1    3    3    0  502  0.10982976231E+03  0.81192403722E+02 -0.74600015876E+02  0.15563276769E+03  0.12700000000E+01 0. -1.
          1    1    1    2  503    0 -0.79902406619E+02 -0.28883756204E+02 -0.77555927505E+03  0.78019924062E+03  0.00000000000E+00 0. -1.
         -1    1    1    2    0  501 -0.10563028027E+01 -0.48530005815E+02  0.70551046648E+02  0.85637184816E+02  0.00000000000E+00 0.  1.
<mgrwt>
<rscale>  0 0.64501208E+02</rscale>
<asrwt>0</asrwt>
<pdfrwt beam="2">  1        2 0.14103066E+00 0.85708226E+02</pdfrwt>
<pdfrwt beam="1">  1       -2 0.20626296E-01 0.48541500E+02</pdfrwt>
<totfact> 0.58711838E+02</totfact>
</mgrwt>
</event>
<event>
 7    1  0.7037933E-004  0.3621746E+02  0.7546771E-02  0.1542299E+00
          2   -1    0    0  503    0  0.00000000000E+00  0.00000000000E+00  0.45820153572E+03  0.45820153572E+03  0.00000000000E+00 0. -1.
          1   -1    0    0  502    0 -0.00000000000E+00 -0.00000000000E+00 -0.79202001248E+03  0.79202001248E+03  0.00000000000E+00 0. -1.
         25    2    1    2    0    0 -0.51863790295E+02 -0.19949182134E+02 -0.46688714439E+03  0.48651460325E+03  0.12500012386E+03 0.  0.
          4    1    3    3  501    0  0.26641589597E+02 -0.44942735723E+02 -0.22458549108E+03  0.23058594817E+03  0.12700000000E+01 0.  1.
         -4    1    3    3    0  501 -0.78505379892E+02  0.24993553588E+02 -0.24230165331E+03  0.25592865508E+03  0.12700000000E+01 0.  1.
          2    1    1    2  502    0  0.17289116559E+02  0.30694933213E+02 -0.31360035441E+03  0.31557293097E+03  0.00000000000E+00 0. -1.
          1    1    1    2  503    0  0.34574673736E+02 -0.10745751079E+02  0.44666902204E+03  0.44813401398E+03  0.00000000000E+00 0. -1.
<mgrwt>
<rscale>  0 0.35719882E+02</rscale>
<asrwt>0</asrwt>
<pdfrwt beam="1">  1        2 0.70492545E-01 0.36217458E+02</pdfrwt>
<pdfrwt beam="2">  1        1 0.12184923E+00 0.35229142E+02</pdfrwt>
<totfact> 0.24792487E+02</totfact>
</mgrwt>
</event>
<event>
 7    1  0.7037933E-004  0.7124032E+02  0.7546771E-02  0.1402192E+00
          1   -1    0    0  502    0 -0.00000000000E+00  0.00000000000E+00  0.11943154737E+04  0.11943154737E+04  0.00000000000E+00 0. -1.
          2   -1    0    0  503    0  0.00000000000E+00 -0.00000000000E+00 -0.17863674601E+04  0.17863674601E+04  0.00000000000E+00 0. -1.
         25    2    1    2    0    0  0.64331396798E+02  0.71618378043E+02  0.57148872957E+03  0.59286812730E+03  0.12500211058E+03 0.  0.
          4    1    3    3  501    0 -0.36846837919E+02  0.65484893835E+01  0.13100159187E+03  0.13624831063E+03  0.12700000000E+01 0.  1.
         -4    1    3    3    0  501  0.10117823472E+03  0.65069888659E+02  0.44048713770E+03  0.45661981667E+03  0.12700000000E+01 0.  1.
          2    1    1    2  502    0 -0.48772513057E+02 -0.21138493928E+01  0.61044796481E+03  0.61239688449E+03  0.00000000000E+00 0. -1.
          1    1    1    2  503    0 -0.15558883741E+02 -0.69504528650E+02 -0.17739886808E+04  0.17754179220E+04  0.00000000000E+00 0. -1.
<mgrwt>
<rscale>  0 0.58973140E+02</rscale>
<asrwt>0</asrwt>
<pdfrwt beam="2">  1        2 0.27482576E+00 0.71240318E+02</pdfrwt>
<pdfrwt beam="1">  1        1 0.18374084E+00 0.48818300E+02</pdfrwt>
<totfact> 0.19839028E+01</totfact>
</mgrwt>
</event>
<event>
 7    1  0.7037933E-004  0.2168713E+03  0.7546771E-02  0.1339366E+00
         -1   -1    0    0    0  501 -0.00000000000E+00  0.00000000000E+00  0.19106661760E+02  0.19106661760E+02  0.00000000000E+00 0.  1.
          1   -1    0    0  503    0  0.00000000000E+00 -0.00000000000E+00 -0.33697059514E+04  0.33697059514E+04  0.00000000000E+00 0. -1.
         25    2    1    2    0    0 -0.54608082990E+02  0.22030908055E+03 -0.14701171907E+04  0.14927787050E+04  0.12500229495E+03 0.  0.
          4    1    3    3  502    0 -0.37388059599E+02  0.23188429903E+03 -0.14026925319E+04  0.14222222566E+04  0.12700000000E+01 0.  1.
         -4    1    3    3    0  502 -0.17220023391E+02 -0.11575218476E+02 -0.67424658844E+02  0.70556448384E+02  0.12700000000E+01 0.  1.
          2    1    1    2  503    0  0.29911270559E+02 -0.20948029059E+03 -0.17533872973E+04  0.17661097618E+04  0.00000000000E+00 0. -1.
         -2    1    1    2    0  501  0.24696812431E+02 -0.10828789960E+02 -0.12709480150E+03  0.12992414635E+03  0.00000000000E+00 0.  1.
<mgrwt>
<rscale>  0 0.76473991E+02</rscale>
<asrwt>0</asrwt>
<pdfrwt beam="2">  1        1 0.51841628E+00 0.21687126E+03</pdfrwt>
<pdfrwt beam="1">  1       -1 0.29394865E-02 0.26966558E+02</pdfrwt>
<totfact> 0.11945498E+02</totfact>
</mgrwt>
</event>
<event>
 7    1  0.7037933E-004  0.4764588E+02  0.7546771E-02  0.1531136E+00
          1   -1    0    0  502    0 -0.00000000000E+00  0.00000000000E+00  0.17105436790E+04  0.17105436790E+04  0.00000000000E+00 0. -1.
          2   -1    0    0  503    0  0.00000000000E+00 -0.00000000000E+00 -0.11468005248E+04  0.11468005248E+04  0.00000000000E+00 0. -1.
         25    2    1    2    0    0 -0.57172970381E+02 -0.34609598788E+02 -0.26684859748E+03  0.30215064762E+03  0.12498106662E+03 0.  0.
          4    1    3    3  501    0 -0.54178756772E+02  0.28407851687E+02 -0.20444047080E+03  0.21340070929E+03  0.12700000000E+01 0. -1.
         -4    1    3    3    0  501 -0.29942136097E+01 -0.63017450474E+02 -0.62408126676E+02  0.88749938336E+02  0.12700000000E+01 0. -1.
          2    1    1    2  502    0  0.28578936400E+02  0.38102015688E+02  0.16923169245E+04  0.16929870325E+04  0.00000000000E+00 0. -1.
          1    1    1    2  503    0  0.28594033981E+02 -0.34924169008E+01 -0.86172517292E+03  0.86220652363E+03  0.00000000000E+00 0. -1.
<mgrwt>
<rscale>  0 0.37047431E+02</rscale>
<asrwt>0</asrwt>
<pdfrwt beam="2">  1        2 0.17643085E+00 0.28806523E+02</pdfrwt>
<pdfrwt beam="1">  1        1 0.26316057E+00 0.47645879E+02</pdfrwt>
<totfact> 0.21230195E+01</totfact>
</mgrwt>
</event>
<event>
 7    1  0.7037933E-004  0.2962368E+03  0.7546771E-02  0.1290587E+00
          1   -1    0    0  502    0 -0.00000000000E+00  0.00000000000E+00  0.72026046372E+03  0.72026046372E+03  0.00000000000E+00 0. -1.
          2   -1    0    0  503    0  0.00000000000E+00 -0.00000000000E+00 -0.13925091649E+04  0.13925091649E+04  0.00000000000E+00 0. -1.
         25    2    1    2    0    0  0.24013601163E+03  0.14032057350E+03 -0.51083854465E+03  0.59492467891E+03  0.12499674971E+03 0.  0.
          4    1    3    3  501    0  0.49074113412E+02 -0.14552389088E+02 -0.45098111739E+02  0.68231174823E+02  0.12700000000E+01 0.  1.
         -4    1    3    3    0  501  0.19106189822E+03  0.15487296259E+03 -0.46574043291E+03  0.52669350408E+03  0.12700000000E+01 0.  1.
          2    1    1    2  502    0  0.23866639863E+02  0.19204441188E+02  0.64951449523E+03  0.65023650050E+03  0.00000000000E+00 0. -1.
          1    1    1    2  503    0 -0.26400265150E+03 -0.15952501469E+03 -0.81092465179E+03  0.86760844924E+03  0.00000000000E+00 0. -1.
<mgrwt>
<rscale>  0 0.95261984E+02</rscale>
<asrwt>0</asrwt>
<pdfrwt beam="2">  1        2 0.21423218E+00 0.29623678E+03</pdfrwt>
<pdfrwt beam="1">  1        1 0.11080930E+00 0.30633757E+02</pdfrwt>
<totfact> 0.63424994E+01</totfact>
</mgrwt>
</event>
<event>
 7    1  0.7037933E-004  0.8846859E+02  0.7546771E-02  0.1420110E+00
          2   -1    0    0  503    0  0.00000000000E+00  0.00000000000E+00  0.46113789492E+03  0.46113789492E+03  0.00000000000E+00 0. -1.
          1   -1    0    0  502    0 -0.00000000000E+00 -0.00000000000E+00 -0.54887842907E+03  0.54887842907E+03  0.00000000000E+00 0. -1.
         25    2    1    2    0    0 -0.13561220787E+01 -0.68281715713E+02 -0.18423608934E+03  0.23287483749E+03  0.12499408607E+03 0.  0.
          4    1    3    3  501    0  0.47483865823E+01 -0.18686555010E+02 -0.18180635325E+03  0.18283024229E+03  0.12700000000E+01 0.  1.
         -4    1    3    3    0  501 -0.61045086609E+01 -0.49595160702E+02 -0.24297360878E+01  0.50044595198E+02  0.12700000000E+01 0.  1.
          2    1    1    2  502    0  0.30275514856E+02 -0.15885677512E+02 -0.33491053483E+03  0.33665119619E+03  0.00000000000E+00 0. -1.
          1    1    1    2  503    0 -0.28919392778E+02  0.84167393225E+02  0.43140609002E+03  0.44049029032E+03  0.00000000000E+00 0. -1.
<mgrwt>
<rscale>  0 0.54997709E+02</rscale>
<asrwt>0</asrwt>
<pdfrwt beam="1">  1        2 0.70944292E-01 0.88468585E+02</pdfrwt>
<pdfrwt beam="2">  1        1 0.84442835E-01 0.34190080E+02</pdfrwt>
<totfact> 0.39762034E+02</totfact>
</mgrwt>
</event>
<event>
 7    1  0.7037933E-004  0.2435632E+03  0.7546771E-02  0.1257947E+00
          1   -1    0    0  502    0 -0.00000000000E+00  0.00000000000E+00  0.61658771812E+03  0.61658771812E+03  0.00000000000E+00 0. -1.
          2   -1    0    0  503    0  0.00000000000E+00 -0.00000000000E+00 -0.67055090771E+03  0.67055090771E+03  0.00000000000E+00 0. -1.
         25    2    1    2    0    0  0.24176117036E+03 -0.15442411590E+03 -0.31572737299E+03  0.44452582030E+03  0.12499663912E+03 0.  0.
          4    1    3    3  501    0  0.38398527875E+02 -0.46327533941E+02 -0.88424199886E+01  0.60831641728E+02  0.12700000000E+01 0. -1.
         -4    1    3    3    0  501  0.20336264248E+03 -0.10809658196E+03 -0.30688495300E+03  0.38369417857E+03  0.12700000000E+01 0. -1.
          2    1    1    2  502    0 -0.21267522425E+03  0.11255814442E+03  0.52339719960E+03  0.57605964573E+03  0.00000000000E+00 0. -1.
          1    1    1    2  503    0 -0.29085946111E+02  0.41865971481E+02 -0.26163301621E+03  0.26655315980E+03  0.00000000000E+00 0. -1.
<mgrwt>
<rscale>  0 0.11142868E+03</rscale>
<asrwt>0</asrwt>
<pdfrwt beam="2">  1        2 0.10316168E+00 0.50977954E+02</pdfrwt>
<pdfrwt beam="1">  1        1 0.94859649E-01 0.24356316E+03</pdfrwt>
<totfact> 0.21551148E+02</totfact>
</mgrwt>
</event>
<event>
 7    1  0.7037933E-004  0.7987387E+02  0.7546771E-02  0.1501637E+00
         -1   -1    0    0    0  501 -0.00000000000E+00  0.00000000000E+00  0.17038013289E+03  0.17038013289E+03  0.00000000000E+00 0.  1.
          1   -1    0    0  503    0  0.00000000000E+00 -0.00000000000E+00 -0.77497214151E+03  0.77497214151E+03  0.00000000000E+00 0. -1.
         25    2    1    2    0    0  0.37883951108E+02 -0.86623469983E+02 -0.27594767672E+03  0.31734937674E+03  0.12499874930E+03 0.  0.
          4    1    3    3  502    0  0.68710350659E+02 -0.10141891529E+03 -0.21627134695E+03  0.24855948398E+03  0.12700000000E+01 0. -1.
         -4    1    3    3    0  502 -0.30826399551E+02  0.14795445305E+02 -0.59676329773E+02  0.68789892762E+02  0.12700000000E+01 0. -1.
          2    1    1    2  503    0 -0.18623215135E+02  0.95977718456E+01 -0.46754342921E+03  0.46801260620E+03  0.00000000000E+00 0. -1.
         -2    1    1    2    0  501 -0.19260735973E+02  0.77025698137E+02  0.13889909731E+03  0.15999029145E+03  0.00000000000E+00 0.  1.
<mgrwt>
<rscale>  0 0.40907600E+02</rscale>
<asrwt>0</asrwt>
<pdfrwt beam="2">  1        1 0.11922648E+00 0.20950928E+02</pdfrwt>
<pdfrwt beam="1">  1       -1 0.26212328E-01 0.79873872E+02</pdfrwt>
<totfact> 0.34608485E+02</totfact>
</mgrwt>
</event>
<event>
 7    1  0.7037933E-004  0.7873635E+02  0.7546771E-02  0.1363156E+00
          1   -1    0    0  502    0 -0.00000000000E+00  0.00000000000E+00  0.29727740049E+03  0.29727740049E+03  0.00000000000E+00 0. -1.
          2   -1    0    0  503    0  0.00000000000E+00 -0.00000000000E+00 -0.58190924561E+03  0.58190924561E+03  0.00000000000E+00 0. -1.
         25    2    1    2    0    0 -0.11270949452E+02  0.34394110439E+02 -0.10458110701E+01  0.13014101300E+03  0.12500240161E+03 0.  0.
          4    1    3    3  501    0 -0.53273154920E+02  0.11159035272E+02  0.39525274557E+02  0.67278624630E+02  0.12700000000E+01 0.  1.
         -4    1    3    3    0  501  0.42002205469E+02  0.23235075167E+02 -0.40571085627E+02  0.62862388367E+02  0.12700000000E+01 0.  1.
          2    1    1    2  502    0  0.70688876085E+02 -0.46583624685E+02  0.22316212646E+03  0.23868030077E+03  0.00000000000E+00 0. -1.
          1    1    1    2  503    0 -0.59417926633E+02  0.12189514246E+02 -0.50674816051E+03  0.51036533233E+03  0.00000000000E+00 0. -1.
<mgrwt>
<rscale>  0 0.69107038E+02</rscale>
<asrwt>0</asrwt>
<pdfrwt beam="2">  1        2 0.89524499E-01 0.60655373E+02</pdfrwt>
<pdfrwt beam="1">  1        1 0.45734985E-01 0.78736350E+02</pdfrwt>
<totfact> 0.65254566E+02</totfact>
</mgrwt>
</event>
<event>
 7    1  0.7037933E-004  0.9842637E+02  0.7546771E-02  0.1455367E+00
          2   -1    0    0  503    0  0.00000000000E+00  0.00000000000E+00  0.17087367164E+04  0.17087367164E+04  0.00000000000E+00 0. -1.
          1   -1    0    0  502    0 -0.00000000000E+00 -0.00000000000E+00 -0.32427251589E+03  0.32427251589E+03  0.00000000000E+00 0. -1.
         25    2    1    2    0    0  0.96468873452E+02  0.72669349237E+02  0.12288954516E+03  0.21287057430E+03  0.12499985293E+03 0.  0.
          4    1    3    3  501    0 -0.16368569427E+02  0.84315296616E+01 -0.14766415694E+02  0.23636427183E+02  0.12700000000E+01 0.  1.
         -4    1    3    3    0  501  0.11283744288E+03  0.64237819576E+02  0.13765596085E+03  0.18923414712E+03  0.12700000000E+01 0.  1.
          2    1    1    2  502    0 -0.76446364504E+02 -0.60191877382E+02 -0.27071393381E+03  0.28766845970E+03  0.00000000000E+00 0. -1.
          3    1    1    2  503    0 -0.20022508948E+02 -0.12477471855E+02  0.15322885891E+04  0.15324701983E+04  0.00000000000E+00 0. -1.
<mgrwt>
<rscale>  0 0.48188036E+02</rscale>
<asrwt>0</asrwt>
<pdfrwt beam="1">  1        2 0.26288257E+00 0.23592121E+02</pdfrwt>
<pdfrwt beam="2">  1        1 0.49888080E-01 0.98426371E+02</pdfrwt>
<totfact> 0.14592676E+02</totfact>
</mgrwt>
</event>
<event>
 7    1  0.7037933E-004  0.4521860E+02  0.7546771E-02  0.1508275E+00
          1   -1    0    0  502    0 -0.00000000000E+00  0.00000000000E+00  0.29028339737E+03  0.29028339737E+03  0.00000000000E+00 0. -1.
          2   -1    0    0  503    0  0.00000000000E+00 -0.00000000000E+00 -0.28737400225E+03  0.28737400225E+03  0.00000000000E+00 0. -1.
         25    2    1    2    0    0  0.15225362733E+02  0.73098131001E+02 -0.78541373078E+02  0.16543630476E+03  0.12500110088E+03 0.  0.
          4    1    3    3  501    0 -0.49312210961E+01 -0.34878171089E+02 -0.25141930902E+02  0.43295881438E+02  0.12700000000E+01 0. -1.
         -4    1    3    3    0  501  0.20156583829E+02  0.10797630209E+03 -0.53399442176E+02  0.12214042332E+03  0.12700000000E+01 0. -1.
          2    1    1    2  502    0  0.55145392632E+01 -0.44448860721E+02  0.24287358971E+03  0.24696901008E+03  0.00000000000E+00 0. -1.
          1    1    1    2  503    0 -0.20739901996E+02 -0.28649270280E+02 -0.16142282150E+03  0.16525208478E+03  0.00000000000E+00 0. -1.
<mgrwt>
<rscale>  0 0.39991373E+02</rscale>
<asrwt>0</asrwt>
<pdfrwt beam="2">  1        2 0.44211385E-01 0.35368407E+02</pdfrwt>
<pdfrwt beam="1">  1        1 0.44658984E-01 0.45218601E+02</pdfrwt>
<totfact> 0.13900603E+03</totfact>
</mgrwt>
</event>
<event>
 7    1  0.7037933E-004  0.7070797E+02  0.7546771E-02  0.1402076E+00
          2   -1    0    0  503    0  0.00000000000E+00  0.00000000000E+00  0.56207940517E+03  0.56207940517E+03  0.00000000000E+00 0. -1.
         -2   -1    0    0    0  501 -0.00000000000E+00 -0.00000000000E+00 -0.74914698762E+02  0.74914698762E+02  0.00000000000E+00 0.  1.
         25    2    1    2    0    0 -0.10060055020E+03  0.25837494906E+02  0.29470739907E+03  0.33655026767E+03  0.12500233901E+03 0.  0.
          4    1    3    3  502    0  0.21813976169E+02 -0.35469541612E+01  0.82092314515E+01  0.23610057627E+02  0.12700000000E+01 0. -1.
         -4    1    3    3    0  502 -0.12241452637E+03  0.29384449067E+02  0.28649816762E+03  0.31294021005E+03  0.12700000000E+01 0. -1.
          1    1    1    2  503    0  0.64298059227E+02  0.74164991883E+01  0.22974344799E+03  0.23868660787E+03  0.00000000000E+00 0. -1.
         -1    1    1    2    0  501  0.36302490975E+02 -0.33253994094E+02 -0.37286140652E+02  0.61757228394E+02  0.00000000000E+00 0.  1.
<mgrwt>
<rscale>  0 0.59000249E+02</rscale>
<asrwt>0</asrwt>
<pdfrwt beam="1">  1        2 0.86473752E-01 0.70707967E+02</pdfrwt>
<pdfrwt beam="2">  1       -2 0.11525339E-01 0.49231077E+02</pdfrwt>
<totfact> 0.26616241E+03</totfact>
</mgrwt>
</event>
<event>
 7    1  0.7037933E-004  0.3768470E+03  0.7546771E-02  0.1286434E+00
          2   -1    0    0  503    0  0.00000000000E+00  0.00000000000E+00  0.12418302164E+04  0.12418302164E+04  0.00000000000E+00 0. -1.
          1   -1    0    0  502    0 -0.00000000000E+00 -0.00000000000E+00 -0.27874753544E+04  0.27874753544E+04  0.00000000000E+00 0. -1.
         25    2    1    2    0    0 -0.80875998255E+02  0.37375425580E+03 -0.15758849371E+03  0.43207942877E+03  0.12500131436E+03 0.  0.
          4    1    3    3  501    0 -0.53333950178E+02  0.22201067519E+03 -0.15832106159E+03  0.27784963844E+03  0.12700000000E+01 0.  1.
         -4    1    3    3    0  501 -0.27542048078E+02  0.15174358061E+03  0.73256787458E+00  0.15422979032E+03  0.12700000000E+01 0.  1.
          2    1    1    2  502    0  0.10297498927E+03 -0.36198319340E+03 -0.24782914533E+04  0.25067038533E+04  0.00000000000E+00 0. -1.
          1    1    1    2  503    0 -0.22098991015E+02 -0.11771062397E+02  0.10902348090E+04  0.10905222887E+04  0.00000000000E+00 0. -1.
<mgrwt>
<rscale>  0 0.97137320E+02</rscale>
<asrwt>0</asrwt>
<pdfrwt beam="1">  1        2 0.19105081E+00 0.25038437E+02</pdfrwt>
<pdfrwt beam="2">  1        1 0.42884236E+00 0.37684697E+03</pdfrwt>
<totfact> 0.29702554E+00</totfact>
</mgrwt>
</event>
<event>
 7    1  0.7037933E-004  0.5164483E+02  0.7546771E-02  0.1492978E+00
          2   -1    0    0  503    0  0.00000000000E+00  0.00000000000E+00  0.60348878832E+03  0.60348878832E+03  0.00000000000E+00 0. -1.
         -2   -1    0    0    0  501 -0.00000000000E+00 -0.00000000000E+00 -0.25517355281E+02  0.25517355281E+02  0.00000000000E+00 0.  1.
         25    2    1    2    0    0  0.48982220730E+01  0.45433080376E+02  0.43026472970E+03  0.45037367904E+03  0.12498222186E+03 0.  0.
          4    1    3    3  502    0 -0.27608380115E+02 -0.35552077106E+02  0.17014781323E+03  0.17600586378E+03  0.12700000000E+01 0.  1.
         -4    1    3    3    0  502  0.32506602188E+02  0.80985157483E+02  0.26011691647E+03  0.27436781526E+03  0.12700000000E+01 0.  1.
          3    1    1    2  503    0  0.28849831740E+02 -0.52080924843E+02  0.12179433338E+03  0.13556767745E+03  0.00000000000E+00 0. -1.
         -3    1    1    2    0  501 -0.33748053813E+02  0.66478444665E+01  0.25912369961E+02  0.43064787115E+02  0.00000000000E+00 0.  1.
<mgrwt>
<rscale>  0 0.42147430E+02</rscale>
<asrwt>0</asrwt>
<pdfrwt beam="1">  1        2 0.92844419E-01 0.51644835E+02</pdfrwt>
<pdfrwt beam="2">  1       -2 0.39257474E-02 0.34396584E+02</pdfrwt>
<totfact> 0.11731048E+04</totfact>
</mgrwt>
</event>
<event>
 7    1  0.7037933E-004  0.1722332E+03  0.7546771E-02  0.1215143E+00
          1   -1    0    0  503    0  0.00000000000E+00  0.00000000000E+00  0.81456969851E+03  0.81456969851E+03  0.00000000000E+00 0. -1.
         -1   -1    0    0    0  501 -0.00000000000E+00 -0.00000000000E+00 -0.28211005872E+03  0.28211005872E+03  0.00000000000E+00 0.  1.
         25    2    1    2    0    0  0.50946774524E+01 -0.81061267924E+02  0.36757414190E+02  0.15353570454E+03  0.12500088070E+03 0.  0.
          4    1    3    3  502    0 -0.63934921248E+01 -0.93589893893E+02  0.69409899766E+02  0.11670172264E+03  0.12700000000E+01 0.  1.
         -4    1    3    3    0  502  0.11488169577E+02  0.12528625970E+02 -0.32652485576E+02  0.36833981909E+02  0.12700000000E+01 0.  1.
          2    1    1    2  503    0 -0.17544169203E+02  0.19199632384E+03  0.69143748734E+03  0.71781347517E+03  0.00000000000E+00 0. -1.
         -2    1    1    2    0  501  0.12449491750E+02 -0.11093505592E+03 -0.19573526174E+03  0.22533057752E+03  0.00000000000E+00 0.  1.
<mgrwt>
<rscale>  0 0.13866015E+03</rscale>
<asrwt>0</asrwt>
<pdfrwt beam="1">  1        1 0.12531841E+00 0.17223318E+03</pdfrwt>
<pdfrwt beam="2">  1       -1 0.43401548E-01 0.11163143E+03</pdfrwt>
<totfact> 0.12385453E+02</totfact>
</mgrwt>
</event>
<event>
 7    1  0.7037933E-004  0.9118661E+02  0.7546771E-02  0.1364674E+00
          1   -1    0    0  502    0 -0.00000000000E+00  0.00000000000E+00  0.16921596147E+03  0.16921596147E+03  0.00000000000E+00 0. -1.
          2   -1    0    0  503    0  0.00000000000E+00 -0.00000000000E+00 -0.22249112992E+04  0.22249112992E+04  0.00000000000E+00 0. -1.
         25    2    1    2    0    0 -0.11338670158E+02  0.57334447283E+02 -0.30024571742E+02  0.14121753874E+03  0.12500045621E+03 0.  0.
          4    1    3    3  501    0  0.11001296400E+02 -0.26270002042E+02 -0.45112044890E+02  0.53365260459E+02  0.12700000000E+01 0.  1.
         -4    1    3    3    0  501 -0.22339966558E+02  0.83604449325E+02  0.15087473148E+02  0.87852278279E+02  0.12700000000E+01 0.  1.
          2    1    1    2  502    0 -0.50624301387E+02  0.10559818527E+02  0.10669323686E+03  0.11856549435E+03  0.00000000000E+00 0. -1.
          1    1    1    2  503    0  0.61962971546E+02 -0.67894265810E+02 -0.21323640028E+04  0.21343442276E+04  0.00000000000E+00 0. -1.
<mgrwt>
<rscale>  0 0.68670353E+02</rscale>
<asrwt>0</asrwt>
<pdfrwt beam="2">  1        2 0.34229406E+00 0.91186613E+02</pdfrwt>
<pdfrwt beam="1">  1        1 0.26033224E-01 0.51713921E+02</pdfrwt>
<totfact> 0.15270301E+02</totfact>
</mgrwt>
</event>
<event>
 7    1  0.7037933E-004  0.1587653E+03  0.7546771E-02  0.1277561E+00
         -2   -1    0    0    0  501 -0.00000000000E+00  0.00000000000E+00  0.69727034788E+03  0.69727034788E+03  0.00000000000E+00 0.  1.
          2   -1    0    0  503    0  0.00000000000E+00 -0.00000000000E+00 -0.12035417780E+03  0.12035417780E+03  0.00000000000E+00 0. -1.
         25    2    1    2    0    0  0.10520842127E+03 -0.18026084719E+03  0.66389456343E+02  0.25217900561E+03  0.12499562401E+03 0.  0.
          4    1    3    3  502    0  0.11134550395E+03 -0.18134612511E+03  0.87529604166E+02  0.23010276584E+03  0.12700000000E+01 0. -1.
         -4    1    3    3    0  502 -0.61370826853E+01  0.10852779263E+01 -0.21140147823E+02  0.22076239762E+02  0.12700000000E+01 0. -1.
          1    1    1    2  503    0 -0.53014768396E+02  0.37000029434E+02  0.54343031560E+02  0.84455508555E+02  0.00000000000E+00 0. -1.
         -1    1    1    2    0  501 -0.52193652870E+02  0.14326081775E+03  0.45618368217E+03  0.48099001152E+03  0.00000000000E+00 0.  1.
<mgrwt>
<rscale>  0 0.10131196E+03</rscale>
<asrwt>0</asrwt>
<pdfrwt beam="2">  1        2 0.18516028E-01 0.64649577E+02</pdfrwt>
<pdfrwt beam="1">  1       -2 0.10727236E+00 0.15876534E+03</pdfrwt>
<totfact> 0.21407952E+02</totfact>
</mgrwt>
</event>
<event>
 7    1  0.7037933E-004  0.1251311E+03  0.7546771E-02  0.1414072E+00
          2   -1    0    0  503    0  0.00000000000E+00  0.00000000000E+00  0.11545154701E+04  0.11545154701E+04  0.00000000000E+00 0. -1.
          1   -1    0    0  502    0 -0.00000000000E+00 -0.00000000000E+00 -0.21925536110E+04  0.21925536110E+04  0.00000000000E+00 0. -1.
         25    2    1    2    0    0 -0.38719866694E+02 -0.11850109689E+03 -0.20858486494E+03  0.27326567786E+03  0.12499898709E+03 0.  0.
          4    1    3    3  501    0 -0.70543794768E+02 -0.52757510718E+02 -0.56816033740E+02  0.10483060864E+03  0.12700000000E+01 0. -1.
         -4    1    3    3    0  501  0.31823928074E+02 -0.65743586172E+02 -0.15176883120E+03  0.16843506922E+03  0.12700000000E+01 0. -1.
          2    1    1    2  502    0  0.62125339847E+02  0.10882556416E+03 -0.19494735669E+04  0.19534968004E+04  0.00000000000E+00 0. -1.
          1    1    1    2  503    0 -0.23405473153E+02  0.96755327331E+01  0.11200202910E+04  0.11203066028E+04  0.00000000000E+00 0. -1.
<mgrwt>
<rscale>  0 0.56295053E+02</rscale>
<asrwt>0</asrwt>
<pdfrwt beam="1">  1        2 0.17761776E+00 0.25326510E+02</pdfrwt>
<pdfrwt beam="2">  1        1 0.33731594E+00 0.12513106E+03</pdfrwt>
<totfact> 0.94243630E+00</totfact>
</mgrwt>
</event>
<event>
 7    1  0.7037933E-004  0.5944217E+02  0.7546771E-02  0.1476501E+00
          1   -1    0    0  502    0 -0.00000000000E+00  0.00000000000E+00  0.62850900944E+03  0.62850900944E+03  0.00000000000E+00 0. -1.
          2   -1    0    0  503    0  0.00000000000E+00 -0.00000000000E+00 -0.71382622135E+03  0.71382622135E+03  0.00000000000E+00 0. -1.
         25    2    1    2    0    0 -0.47211438603E+02  0.27488314120E+02 -0.10045015085E+02  0.13676743631E+03  0.12497960617E+03 0.  0.
          4    1    3    3  501    0 -0.51001797083E+02  0.16069970942E+02  0.51376442782E+02  0.74165888686E+02  0.12700000000E+01 0.  1.
         -4    1    3    3    0  501  0.37903584796E+01  0.11418343179E+02 -0.61421457867E+02  0.62601547623E+02  0.12700000000E+01 0.  1.
          2    1    1    2  502    0  0.26236621098E+02 -0.53670642982E+02  0.56312739198E+03  0.56628734562E+03  0.00000000000E+00 0. -1.
          1    1    1    2  503    0  0.20974817506E+02  0.26182328862E+02 -0.63839958881E+03  0.63928044887E+03  0.00000000000E+00 0. -1.
<mgrwt>
<rscale>  0 0.44655975E+02</rscale>
<asrwt>0</asrwt>
<pdfrwt beam="2">  1        2 0.10981942E+00 0.33547836E+02</pdfrwt>
<pdfrwt beam="1">  1        1 0.96693694E-01 0.59442168E+02</pdfrwt>
<totfact> 0.20804373E+02</totfact>
</mgrwt>
</event>
<event>
 7    1  0.7037933E-004  0.8157574E+02  0.7546771E-02  0.1408213E+00
         -1   -1    0    0    0  502 -0.00000000000E+00  0.00000000000E+00  0.87393089528E+03  0.87393089528E+03  0.00000000000E+00 0.  1.
         -2   -1    0    0    0  501  0.00000000000E+00 -0.00000000000E+00 -0.67315573740E+03  0.67315573740E+03  0.00000000000E+00 0.  1.
         25    2    1    2    0    0 -0.36459923638E+02 -0.45281936080E+02  0.31308898413E+02  0.14136794931E+03  0.12499948082E+03 0.  0.
          4    1    3    3  503    0 -0.77924964954E+02 -0.15662484304E+02  0.41058250477E+02  0.89470701405E+02  0.12700000000E+01 0. -1.
         -4    1    3    3    0  503  0.41465041316E+02 -0.29619451776E+02 -0.97493520647E+01  0.51897247909E+02  0.12700000000E+01 0. -1.
         -2    1    1    2    0  502  0.19764916182E+02 -0.35536402917E+02  0.78430899947E+03  0.78536239692E+03  0.00000000000E+00 0.  1.
         -1    1    1    2    0  501  0.16695007456E+02  0.80818338998E+02 -0.61484274001E+03  0.62035628645E+03  0.00000000000E+00 0.  1.
<mgrwt>
<rscale>  0 0.57594465E+02</rscale>
<asrwt>0</asrwt>
<pdfrwt beam="2">  1       -2 0.10356242E+00 0.81575735E+02</pdfrwt>
<pdfrwt beam="1">  1       -1 0.13445091E+00 0.40663102E+02</pdfrwt>
<totfact> 0.34513785E+00</totfact>
</mgrwt>
</event>
<event>
 7    1  0.7037933E-004  0.1796714E+03  0.7546771E-02  0.1192990E+00
          1   -1    0    0  502    0 -0.00000000000E+00  0.00000000000E+00  0.70051581436E+03  0.70051581436E+03  0.00000000000E+00 0. -1.
          2   -1    0    0  503    0  0.00000000000E+00 -0.00000000000E+00 -0.13125482008E+04  0.13125482008E+04  0.00000000000E+00 0. -1.
         25    2    1    2    0    0  0.27023020806E+03  0.39540831777E+02 -0.26395151828E+03  0.39985005486E+03  0.12498727794E+03 0.  0.
          4    1    3    3  501    0  0.63700953071E+02 -0.15074689224E+02 -0.13572039667E+03  0.15068741371E+03  0.12700000000E+01 0.  1.
         -4    1    3    3    0  501  0.20652925498E+03  0.54615521001E+02 -0.12823112161E+03  0.24916264116E+03  0.12700000000E+01 0.  1.
          2    1    1    2  502    0 -0.12539573773E+03  0.52369043976E+02  0.61762178915E+03  0.63239487841E+03  0.00000000000E+00 0. -1.
          1    1    1    2  503    0 -0.14483447032E+03 -0.91909875753E+02 -0.96570265727E+03  0.98081908185E+03  0.00000000000E+00 0. -1.
<mgrwt>
<rscale>  0 0.15625582E+03</rscale>
<asrwt>0</asrwt>
<pdfrwt beam="2">  1        2 0.20193049E+00 0.17967136E+03</pdfrwt>
<pdfrwt beam="1">  1        1 0.10777166E+00 0.13589190E+03</pdfrwt>
<totfact> 0.70714973E+01</totfact>
</mgrwt>
</event>
<event>
 7    1  0.7037933E-004  0.5969173E+02  0.7546771E-02  0.1454017E+00
          1   -1    0    0  502    0 -0.00000000000E+00  0.00000000000E+00  0.65181539598E+02  0.65181539598E+02  0.00000000000E+00 0. -1.
          2   -1    0    0  503    0  0.00000000000E+00 -0.00000000000E+00 -0.22504367036E+03  0.22504367036E+03  0.00000000000E+00 0. -1.
         25    2    1    2    0    0 -0.28888280590E+01  0.31914729628E+02 -0.94569887202E+02  0.15998498079E+03  0.12499934087E+03 0.  0.
          4    1    3    3  501    0 -0.64904661914E+00  0.25053191651E+02 -0.12560968990E+03  0.12809172796E+03  0.12700000000E+01 0. -1.
         -4    1    3    3    0  501 -0.22397814399E+01  0.68615379767E+01  0.31039802703E+02  0.31893252831E+02  0.12700000000E+01 0. -1.
          2    1    1    2  502    0  0.56952625224E+01 -0.71101990693E+02 -0.29833662728E+02  0.77317375327E+02  0.00000000000E+00 0. -1.
          1    1    1    2  503    0 -0.28064344634E+01  0.39187261065E+02 -0.35458580832E+02  0.52922853843E+02  0.00000000000E+00 0. -1.
<mgrwt>
<rscale>  0 0.48426710E+02</rscale>
<asrwt>0</asrwt>
<pdfrwt beam="2">  1        2 0.34622103E-01 0.39287625E+02</pdfrwt>
<pdfrwt beam="1">  1        1 0.10027929E-01 0.59691728E+02</pdfrwt>
<totfact> 0.11353319E+04</totfact>
</mgrwt>
</event>
<event>
 7    1  0.7037933E-004  0.1216493E+03  0.7546771E-02  0.1403765E+00
         -2   -1    0    0    0  501 -0.00000000000E+00  0.00000000000E+00  0.15861627397E+03  0.15861627397E+03  0.00000000000E+00 0.  1.
          2   -1    0    0  503    0  0.00000000000E+00 -0.00000000000E+00 -0.48498857366E+03  0.48498857366E+03  0.00000000000E+00 0. -1.
         25    2    1    2    0    0 -0.60015128718E+02  0.81324368929E+02 -0.86042179559E+02  0.18232033875E+03  0.12498792183E+03 0.  0.
          4    1    3    3  502    0 -0.71097534068E+02  0.10333751726E+02 -0.83847833493E+02  0.11042516858E+03  0.12700000000E+01 0.  1.
         -4    1    3    3    0  502  0.11082405350E+02  0.70990617204E+02 -0.21943460662E+01  0.71895170171E+02  0.12700000000E+01 0.  1.
          1    1    1    2  503    0  0.85508787721E+02 -0.93464451133E+02 -0.33729135444E+03  0.36029545401E+03  0.00000000000E+00 0. -1.
         -1    1    1    2    0  501 -0.25493659003E+02  0.12140082203E+02  0.96961234303E+02  0.10098905487E+03  0.00000000000E+00 0.  1.
<mgrwt>
<rscale>  0 0.58608592E+02</rscale>
<asrwt>0</asrwt>
<pdfrwt beam="2">  1        2 0.74613627E-01 0.12164926E+03</pdfrwt>
<pdfrwt beam="1">  1       -2 0.24402504E-01 0.28236647E+02</pdfrwt>
<totfact> 0.89918172E+02</totfact>
</mgrwt>
</event>
<event>
 7    1  0.7037933E-004  0.9763421E+02  0.7546771E-02  0.1310795E+00
          1   -1    0    0  502    0 -0.00000000000E+00  0.00000000000E+00  0.13936368139E+04  0.13936368139E+04  0.00000000000E+00 0. -1.
          2   -1    0    0  503    0  0.00000000000E+00 -0.00000000000E+00 -0.56502414888E+03  0.56502414888E+03  0.00000000000E+00 0. -1.
         25    2    1    2    0    0 -0.53857858471E+02  0.50353525098E+02 -0.23389874269E+01  0.14514396153E+03  0.12500060918E+03 0.  0.
          4    1    3    3  501    0 -0.50978560626E+02  0.28408853826E+02 -0.59792213346E+02  0.83561942869E+02  0.12700000000E+01 0. -1.
         -4    1    3    3    0  501 -0.28792978450E+01  0.21944671272E+02  0.57453225919E+02  0.61582018656E+02  0.12700000000E+01 0. -1.
          2    1    1    2  502    0  0.58139709605E+02  0.50737804285E+02  0.13158822737E+04  0.13181429016E+04  0.00000000000E+00 0. -1.
          1    1    1    2  503    0 -0.42818511336E+01 -0.10109132938E+03 -0.48493062131E+03  0.49537409966E+03  0.00000000000E+00 0. -1.
<mgrwt>
<rscale>  0 0.86798705E+02</rscale>
<asrwt>0</asrwt>
<pdfrwt beam="2">  1        2 0.86926793E-01 0.97634205E+02</pdfrwt>
<pdfrwt beam="1">  1        1 0.21440566E+00 0.77165735E+02</pdfrwt>
<totfact> 0.71297105E+01</totfact>
</mgrwt>
</event>
<event>
 7    1  0.7037933E-004  0.4692555E+02  0.7546771E-02  0.1506637E+00
          1   -1    0    0  502    0 -0.00000000000E+00  0.00000000000E+00  0.34232231923E+03  0.34232231923E+03  0.00000000000E+00 0. -1.
          2   -1    0    0  503    0  0.00000000000E+00 -0.00000000000E+00 -0.16006165638E+04  0.16006165638E+04  0.00000000000E+00 0. -1.
         25    2    1    2    0    0  0.49930808431E+02  0.34622670155E+02  0.98460665989E+02  0.17034160359E+03  0.12501977542E+03 0.  0.
          4    1    3    3  501    0  0.19702649892E+02  0.68850515356E+02  0.10187230097E+03  0.12453178904E+03  0.12700000000E+01 0. -1.
         -4    1    3    3    0  501  0.30228158539E+02 -0.34227845201E+02 -0.34116349770E+01  0.45809814548E+02  0.12700000000E+01 0. -1.
          2    1    1    2  502    0 -0.16645002201E+02 -0.43555617868E+02  0.20511455074E+03  0.21034763339E+03  0.00000000000E+00 0. -1.
          1    1    1    2  503    0 -0.33285806230E+02  0.89329477124E+01 -0.15618694613E+04  0.15622496461E+04  0.00000000000E+00 0. -1.
<mgrwt>
<rscale>  0 0.40214738E+02</rscale>
<asrwt>0</asrwt>
<pdfrwt beam="2">  1        2 0.24624870E+00 0.34463640E+02</pdfrwt>
<pdfrwt beam="1">  1        1 0.52664973E-01 0.46925547E+02</pdfrwt>
<totfact> 0.14803995E+02</totfact>
</mgrwt>
</event>
<event>
 7    1  0.7037933E-004  0.1209609E+03  0.7546771E-02  0.1307615E+00
         -2   -1    0    0    0  501 -0.00000000000E+00  0.00000000000E+00  0.44118344786E+03  0.44118344786E+03  0.00000000000E+00 0.  1.
          2   -1    0    0  503    0  0.00000000000E+00 -0.00000000000E+00 -0.27787054002E+03  0.27787054002E+03  0.00000000000E+00 0. -1.
         25    2    1    2    0    0 -0.58378087237E+02 -0.15881384558E+02 -0.14100598096E+03  0.19790772028E+03  0.12499823853E+03 0.  0.
          4    1    3    3  502    0 -0.51040740386E+02 -0.55685344962E+02 -0.13796922977E+03  0.15729951076E+03  0.12700000000E+01 0.  1.
         -4    1    3    3    0  502 -0.73373468508E+01  0.39803960404E+02 -0.30367511889E+01  0.40608209520E+02  0.12700000000E+01 0.  1.
          1    1    1    2  503    0 -0.59480062973E+02 -0.23921327056E+02 -0.88397726201E+02  0.10919828651E+03  0.00000000000E+00 0. -1.
         -1    1    1    2    0  501  0.11785815021E+03  0.39802711614E+02  0.39271661500E+03  0.41194798108E+03  0.00000000000E+00 0.  1.
<mgrwt>
<rscale>  0 0.88061446E+02</rscale>
<asrwt>0</asrwt>
<pdfrwt beam="2">  1        2 0.42749314E-01 0.64110122E+02</pdfrwt>
<pdfrwt beam="1">  1       -2 0.67874377E-01 0.12096090E+03</pdfrwt>
<totfact> 0.24389549E+02</totfact>
</mgrwt>
</event>
<event>
 7    1  0.7037933E-004  0.5038803E+02  0.7546771E-02  0.1445698E+00
          1   -1    0    0  503    0  0.00000000000E+00  0.00000000000E+00  0.14280543146E+03  0.14280543146E+03  0.00000000000E+00 0. -1.
         -3   -1    0    0    0  501 -0.00000000000E+00 -0.00000000000E+00 -0.53091034066E+03  0.53091034066E+03  0.00000000000E+00 0.  1.
         25    2    1    2    0    0  0.48301803130E+02 -0.69394296020E+01  0.37960020650E+02  0.13945491487E+03  0.12500196096E+03 0.  0.
          4    1    3    3  502    0  0.37475773071E+02 -0.10043110112E+02  0.83736198530E+02  0.92296595128E+02  0.12700000000E+01 0.  1.
         -4    1    3    3    0  502  0.10826030059E+02  0.31036805098E+01 -0.45776177879E+02  0.47158319741E+02  0.12700000000E+01 0.  1.
          2    1    1    2  503    0 -0.29056790157E+02 -0.40054518416E+02  0.41110831210E+02  0.64333210261E+02  0.00000000000E+00 0. -1.
         -2    1    1    2    0  501 -0.19245012973E+02  0.46993948018E+02 -0.46717576106E+03  0.46992764698E+03  0.00000000000E+00 0.  1.
<mgrwt>
<rscale>  0 0.49933947E+02</rscale>
<asrwt>0</asrwt>
<pdfrwt beam="1">  1        1 0.21970066E-01 0.49483952E+02</pdfrwt>
<pdfrwt beam="2">  1       -3 0.81678514E-01 0.50388034E+02</pdfrwt>
<totfact> 0.15839734E+02</totfact>
</mgrwt>
</event>
<event>
 7    1  0.7037933E-004  0.4301683E+02  0.7546771E-02  0.1515806E+00
         -1   -1    0    0    0  501 -0.00000000000E+00  0.00000000000E+00  0.12917773559E+03  0.12917773559E+03  0.00000000000E+00 0.  1.
          1   -1    0    0  503    0  0.00000000000E+00 -0.00000000000E+00 -0.24233294691E+03  0.24233294691E+03  0.00000000000E+00 0. -1.
         25    2    1    2    0    0 -0.14722206727E+02  0.55511041381E+02 -0.11919951280E+03  0.18202745802E+03  0.12500900981E+03 0.  0.
          4    1    3    3  502    0  0.16697016003E+02 -0.52259287722E+01  0.20199991703E+02  0.26753564991E+02  0.12700000000E+01 0. -1.
         -4    1    3    3    0  502 -0.31419222730E+02  0.60736970153E+02 -0.13939950450E+03  0.15527389303E+03  0.12700000000E+01 0. -1.
          2    1    1    2  503    0 -0.19433373492E+02 -0.29509232246E+02 -0.83232840964E+02  0.90422102430E+02  0.00000000000E+00 0. -1.
         -2    1    1    2    0  501  0.34155580219E+02 -0.26001809135E+02  0.89277142449E+02  0.99061122053E+02  0.00000000000E+00 0.  1.
<mgrwt>
<rscale>  0 0.38986302E+02</rscale>
<asrwt>0</asrwt>
<pdfrwt beam="2">  1        1 0.37281992E-01 0.35333423E+02</pdfrwt>
<pdfrwt beam="1">  1       -1 0.19873498E-01 0.43016827E+02</pdfrwt>
<totfact> 0.21421715E+03</totfact>
</mgrwt>
</event>
<event>
 7    1  0.7037933E-004  0.3064320E+02  0.7546771E-02  0.1596742E+00
         -2   -1    0    0    0  501 -0.00000000000E+00  0.00000000000E+00  0.11019605634E+02  0.11019605634E+02  0.00000000000E+00 0.  1.
          2   -1    0    0  503    0  0.00000000000E+00 -0.00000000000E+00 -0.14531615850E+04  0.14531615850E+04  0.00000000000E+00 0. -1.
         25    2    1    2    0    0 -0.27437585703E+02  0.50472416550E+02 -0.63042619299E+03  0.64525858688E+03  0.12498469180E+03 0.  0.
          4    1    3    3  502    0 -0.23283041636E+02 -0.85726887772E+01 -0.19799081532E+02  0.31768027169E+02  0.12700000000E+01 0.  1.
         -4    1    3    3    0  502 -0.41545440665E+01  0.59045105327E+02 -0.61062711146E+03  0.61349055971E+03  0.12700000000E+01 0.  1.
          3    1    1    2  503    0  0.73446917087E+01 -0.28723208076E+02 -0.74880723736E+03  0.74939391905E+03  0.00000000000E+00 0. -1.
         -3    1    1    2    0  501  0.20092893994E+02 -0.21749208474E+02 -0.62908548976E+02  0.69528684674E+02  0.00000000000E+00 0.  1.
<mgrwt>
<rscale>  0 0.30122174E+02</rscale>
<asrwt>0</asrwt>
<pdfrwt beam="2">  1        2 0.22356323E+00 0.30643202E+02</pdfrwt>
<pdfrwt beam="1">  1       -2 0.16953246E-02 0.29610006E+02</pdfrwt>
<totfact> 0.12319762E+04</totfact>
</mgrwt>
</event>
<event>
 7    1  0.7037933E-004  0.8629269E+02  0.7546771E-02  0.1367322E+00
          2   -1    0    0  503    0  0.00000000000E+00  0.00000000000E+00  0.20111304091E+03  0.20111304091E+03  0.00000000000E+00 0. -1.
          1   -1    0    0  502    0 -0.00000000000E+00 -0.00000000000E+00 -0.22668360483E+03  0.22668360483E+03  0.00000000000E+00 0. -1.
         25    2    1    2    0    0  0.12605718153E+03 -0.40746834916E+01 -0.76974685844E+02  0.19353670798E+03  0.12499735603E+03 0.  0.
          4    1    3    3  501    0  0.68810615637E+02 -0.42790070539E+02  0.10862032317E+02  0.81764831115E+02  0.12700000000E+01 0.  1.
         -4    1    3    3    0  501  0.57246565892E+02  0.38715387048E+02 -0.87836718160E+02  0.11177187686E+03  0.12700000000E+01 0.  1.
          2    1    1    2  502    0 -0.73782933718E+02  0.15247339168E+02 -0.69226120878E+02  0.10231646237E+03  0.00000000000E+00 0. -1.
          1    1    1    2  503    0 -0.52274247812E+02 -0.11172655677E+02  0.12063024280E+03  0.13194347539E+03  0.00000000000E+00 0. -1.
<mgrwt>
<rscale>  0 0.67917347E+02</rscale>
<asrwt>0</asrwt>
<pdfrwt beam="1">  1        2 0.30940468E-01 0.53454890E+02</pdfrwt>
<pdfrwt beam="2">  1        1 0.34874401E-01 0.86292686E+02</pdfrwt>
<totfact> 0.27414362E+03</totfact>
</mgrwt>
</event>
<event>
 7    1  0.7037933E-004  0.5344676E+02  0.7546771E-02  0.1474998E+00
          2   -1    0    0  503    0  0.00000000000E+00  0.00000000000E+00  0.12167407678E+04  0.12167407678E+04  0.00000000000E+00 0. -1.
         -2   -1    0    0    0  501 -0.00000000000E+00 -0.00000000000E+00 -0.36819867286E+02  0.36819867286E+02  0.00000000000E+00 0.  1.
         25    2    1    2    0    0  0.62571578626E+02  0.13435797190E+01  0.23932367991E+03  0.27716104656E+03  0.12500165720E+03 0.  0.
          4    1    3    3  502    0  0.42084593143E+02 -0.57757338366E+02  0.16625016404E+03  0.18096340254E+03  0.12700000000E+01 0.  1.
         -4    1    3    3    0  502  0.20486985483E+02  0.59100918085E+02  0.73073515874E+02  0.96197644019E+02  0.12700000000E+01 0.  1.
          1    1    1    2  503    0 -0.18926078017E+02 -0.32618430591E+02  0.91695646181E+03  0.91773161180E+03  0.00000000000E+00 0. -1.
         -3    1    1    2    0  501 -0.43645500609E+02  0.31274850872E+02  0.23640758839E+02  0.58667976776E+02  0.00000000000E+00 0.  1.
<mgrwt>
<rscale>  0 0.44894972E+02</rscale>
<asrwt>0</asrwt>
<pdfrwt beam="1">  1        2 0.18719086E+00 0.37711516E+02</pdfrwt>
<pdfrwt beam="2">  1       -2 0.56645959E-02 0.53446763E+02</pdfrwt>
<totfact> 0.31181298E+03</totfact>
</mgrwt>
</event>
<event>
 7    1  0.7037933E-004  0.2264821E+03  0.7546771E-02  0.1239800E+00
          2   -1    0    0  503    0  0.00000000000E+00  0.00000000000E+00  0.31083537487E+04  0.31083537487E+04  0.00000000000E+00 0. -1.
          1   -1    0    0  502    0 -0.00000000000E+00 -0.00000000000E+00 -0.15430230983E+03  0.15430230983E+03  0.00000000000E+00 0. -1.
         25    2    1    2    0    0  0.20199873547E+03 -0.20149222149E+03  0.10282753983E+04  0.10744193142E+04  0.12499585442E+03 0.  0.
          4    1    3    3  501    0  0.18273938076E+03 -0.10319279003E+03  0.74276789733E+03  0.77184726170E+03  0.12700000000E+01 0.  1.
         -4    1    3    3    0  501  0.19259354714E+02 -0.98299431466E+02  0.28550750095E+03  0.30257205253E+03  0.12700000000E+01 0.  1.
          2    1    1    2  502    0 -0.14712881044E+03  0.16528218857E+03 -0.37006401202E+02  0.22435365487E+03  0.00000000000E+00 0. -1.
          1    1    1    2  503    0 -0.54869925031E+02  0.36210032921E+02  0.19627824418E+04  0.19638830894E+04  0.00000000000E+00 0. -1.
<mgrwt>
<rscale>  0 0.12202112E+03</rscale>
<asrwt>0</asrwt>
<pdfrwt beam="1">  1        2 0.47820823E+00 0.65740970E+02</pdfrwt>
<pdfrwt beam="2">  1        1 0.23738819E-01 0.22648210E+03</pdfrwt>
<totfact> 0.62645307E+01</totfact>
</mgrwt>
</event>
<event>
 7    1  0.7037933E-004  0.6881602E+02  0.7546771E-02  0.1471878E+00
         -1   -1    0    0    0  501 -0.00000000000E+00  0.00000000000E+00  0.10506620917E+03  0.10506620917E+03  0.00000000000E+00 0.  1.
          1   -1    0    0  503    0  0.00000000000E+00 -0.00000000000E+00 -0.11258347343E+04  0.11258347343E+04  0.00000000000E+00 0. -1.
         25    2    1    2    0    0  0.40883489858E+02 -0.49866062287E+01 -0.22340934884E+03  0.25929374182E+03  0.12500072564E+03 0.  0.
          4    1    3    3  502    0  0.22572945274E+01  0.40028183548E+02 -0.15363081786E+02  0.42953323954E+02  0.12700000000E+01 0. -1.
         -4    1    3    3    0  502  0.38626195330E+02 -0.45014789777E+02 -0.20804626706E+03  0.21634041786E+03  0.12700000000E+01 0. -1.
          2    1    1    2  503    0  0.27597664669E+02 -0.11629167142E+02 -0.86993416666E+03  0.87044949477E+03  0.00000000000E+00 0. -1.
         -2    1    1    2    0  501 -0.68481154527E+02  0.16615773370E+02  0.72574990331E+02  0.10115770693E+03  0.00000000000E+00 0.  1.
<mgrwt>
<rscale>  0 0.45396982E+02</rscale>
<asrwt>0</asrwt>
<pdfrwt beam="2">  1        1 0.17320534E+00 0.29947765E+02</pdfrwt>
<pdfrwt beam="1">  1       -1 0.16164033E-01 0.68816019E+02</pdfrwt>
<totfact> 0.41184685E+02</totfact>
</mgrwt>
</event>
<event>
 7    1  0.7037933E-004  0.7486218E+02  0.7546771E-02  0.1395009E+00
         -2   -1    0    0    0  501 -0.00000000000E+00  0.00000000000E+00  0.24609939853E+02  0.24609939853E+02  0.00000000000E+00 0.  1.
          2   -1    0    0  503    0  0.00000000000E+00 -0.00000000000E+00 -0.26097920346E+04  0.26097920346E+04  0.00000000000E+00 0. -1.
         25    2    1    2    0    0 -0.54467340586E+02  0.70362485641E+01 -0.40097674918E+03  0.42358403453E+03  0.12499952376E+03 0.  0.
          4    1    3    3  502    0  0.33048183035E+02  0.17671700310E+02 -0.55117987910E+02  0.66663909914E+02  0.12700000000E+01 0.  1.
         -4    1    3    3    0  502 -0.87515523620E+02 -0.10635451746E+02 -0.34585876127E+03  0.35692012462E+03  0.12700000000E+01 0.  1.
          1    1    1    2  503    0 -0.20623835488E+02 -0.44648022738E+02 -0.20617133467E+04  0.20622998600E+04  0.00000000000E+00 0. -1.
         -1    1    1    2    0  501  0.75091176073E+02  0.37611774174E+02 -0.12249199882E+03  0.14851807990E+03  0.00000000000E+00 0.  1.
<mgrwt>
<rscale>  0 0.60677924E+02</rscale>
<asrwt>0</asrwt>
<pdfrwt beam="2">  1        2 0.40150628E+00 0.49181181E+02</pdfrwt>
<pdfrwt beam="1">  1       -2 0.37861464E-02 0.74862181E+02</pdfrwt>
<totfact> 0.11647352E+03</totfact>
</mgrwt>
</event>
<event>
 7    1  0.8308872E-004  0.6484362E+02  0.7546771E-02  0.1484399E+00
          2   -1    0    0  503    0  0.00000000000E+00  0.00000000000E+00  0.53112531641E+03  0.53112531641E+03  0.00000000000E+00 0. -1.
         -2   -1    0    0    0  501 -0.00000000000E+00 -0.00000000000E+00 -0.36934299661E+02  0.36934299661E+02  0.00000000000E+00 0.  1.
         25    2    1    2    0    0 -0.10396505960E+02 -0.86184797316E+02  0.30630555621E+03  0.34202864703E+03  0.12499837997E+03 0.  0.
          4    1    3    3  502    0 -0.42494304489E+02  0.15714271175E+02  0.88795941995E+02  0.99694716246E+02  0.12700000000E+01 0.  1.
         -4    1    3    3    0  502  0.32097798529E+02 -0.10189906849E+03  0.21750961422E+03  0.24233393078E+03  0.12700000000E+01 0.  1.
          3    1    1    2  503    0  0.15016582968E+02  0.24909219404E+02  0.15223533848E+03  0.15498891979E+03  0.00000000000E+00 0. -1.
         -3    1    1    2    0  501 -0.46200770081E+01  0.61275577912E+02  0.35650122059E+02  0.71042049258E+02  0.00000000000E+00 0.  1.
<mgrwt>
<rscale>  0 0.43428214E+02</rscale>
<asrwt>0</asrwt>
<pdfrwt beam="1">  1        2 0.81711582E-01 0.29085511E+02</pdfrwt>
<pdfrwt beam="2">  1       -2 0.56822003E-02 0.64843617E+02</pdfrwt>
<totfact> 0.85501997E+03</totfact>
</mgrwt>
</event>
<event>
 7    1  0.7037933E-004  0.1043043E+03  0.7546771E-02  0.1280682E+00
          3   -1    0    0  502    0 -0.00000000000E+00  0.00000000000E+00  0.35101589553E+02  0.35101589553E+02  0.00000000000E+00 0. -1.
          2   -1    0    0  503    0  0.00000000000E+00 -0.00000000000E+00 -0.18115722261E+04  0.18115722261E+04  0.00000000000E+00 0. -1.
         25    2    1    2    0    0 -0.24511648634E+01  0.41337105031E-01 -0.99825035536E+03  0.10060488836E+04  0.12499829734E+03 0.  0.
          4    1    3    3  501    0  0.49496608166E+02  0.22917827635E+02 -0.72005126547E+03  0.72211535010E+03  0.12700000000E+01 0.  1.
         -4    1    3    3    0  501 -0.51947773029E+02 -0.22876490530E+02 -0.27819908989E+03  0.28393353352E+03  0.12700000000E+01 0.  1.
          2    1    1    2  502    0  0.31564110038E+02 -0.10020035236E+03 -0.73465842708E+02  0.12819373503E+03  0.00000000000E+00 0. -1.
          1    1    1    2  503    0 -0.29112945174E+02  0.10015901525E+03 -0.70475443848E+03  0.71243119701E+03  0.00000000000E+00 0. -1.
<mgrwt>
<rscale>  0 0.99816530E+02</rscale>
<asrwt>0</asrwt>
<pdfrwt beam="2">  1        2 0.27870353E+00 0.10430432E+03</pdfrwt>
<pdfrwt beam="1">  1        3 0.54002424E-02 0.95521828E+02</pdfrwt>
<totfact> 0.11584009E+03</totfact>
</mgrwt>
</event>
<event>
 7    1  0.7037933E-004  0.8609458E+02  0.7546771E-02  0.1329246E+00
         -2   -1    0    0    0  501 -0.00000000000E+00  0.00000000000E+00  0.12704608443E+04  0.12704608443E+04  0.00000000000E+00 0.  1.
          2   -1    0    0  503    0  0.00000000000E+00 -0.00000000000E+00 -0.56894439825E+03  0.56894439825E+03  0.00000000000E+00 0. -1.
         25    2    1    2    0    0  0.44616821356E+02 -0.54533291887E+01  0.17561108920E+03  0.22019014775E+03  0.12499618782E+03 0.  0.
          4    1    3    3  502    0 -0.34385286063E+02  0.21818708428E+02  0.97982916938E+02  0.10611629869E+03  0.12700000000E+01 0. -1.
         -4    1    3    3    0  502  0.79002107419E+02 -0.27272037617E+02  0.77628172257E+02  0.11407384906E+03  0.12700000000E+01 0. -1.
          1    1    1    2  503    0 -0.36443139934E+02  0.79211277041E+02 -0.54188201204E+03  0.54885211472E+03  0.00000000000E+00 0. -1.
         -1    1    1    2    0  501 -0.81736814221E+01 -0.73757947853E+02  0.10677873689E+04  0.10703629800E+04  0.00000000000E+00 0.  1.
<mgrwt>
<rscale>  0 0.79931420E+02</rscale>
<asrwt>0</asrwt>
<pdfrwt beam="2">  1        2 0.87529908E-01 0.86094576E+02</pdfrwt>
<pdfrwt beam="1">  1       -2 0.19545551E+00 0.74209460E+02</pdfrwt>
<totfact> 0.93518515E+00</totfact>
</mgrwt>
</event>
<event>
 7    1  0.7037933E-004  0.5871867E+02  0.7546771E-02  0.1483627E+00
          2   -1    0    0  503    0  0.00000000000E+00  0.00000000000E+00  0.48107475955E+03  0.48107475955E+03  0.00000000000E+00 0. -1.
         -2   -1    0    0    0  501 -0.00000000000E+00 -0.00000000000E+00 -0.99288907931E+03  0.99288907931E+03  0.00000000000E+00 0.  1.
         25    2    1    2    0    0  0.58568812726E+02  0.22882394349E+02  0.17855282931E+03  0.22684381487E+03  0.12499237454E+03 0.  0.
          4    1    3    3  502    0  0.90490348950E+02  0.48648525799E+01  0.77180471053E+02  0.11904036314E+03  0.12700000000E+01 0. -1.
         -4    1    3    3    0  502 -0.31921536224E+02  0.18017541769E+02  0.10137235826E+03  0.10780345173E+03  0.12700000000E+01 0. -1.
          1    1    1    2  503    0 -0.22321423578E+02  0.23338270493E+02  0.27654556850E+03  0.27842480543E+03  0.00000000000E+00 0. -1.
         -1    1    1    2    0  501 -0.36247389149E+02 -0.46220664842E+02 -0.96691271757E+03  0.96869521857E+03  0.00000000000E+00 0.  1.
<mgrwt>
<rscale>  0 0.43546269E+02</rscale>
<asrwt>0</asrwt>
<pdfrwt beam="1">  1        2 0.74011503E-01 0.32294285E+02</pdfrwt>
<pdfrwt beam="2">  1       -2 0.15275216E+00 0.58718672E+02</pdfrwt>
<totfact> 0.22003235E+01</totfact>
</mgrwt>
</event>
<event>
 7    1  0.7037933E-004  0.5696042E+02  0.7546771E-02  0.1450551E+00
          2   -1    0    0  503    0  0.00000000000E+00  0.00000000000E+00  0.75505591618E+03  0.75505591618E+03  0.00000000000E+00 0. -1.
          1   -1    0    0  502    0 -0.00000000000E+00 -0.00000000000E+00 -0.27065704520E+02  0.27065704520E+02  0.00000000000E+00 0. -1.
         25    2    1    2    0    0 -0.63475499992E+02 -0.48633078742E+02  0.46990364571E+03  0.49277966261E+03  0.12501217612E+03 0.  0.
          4    1    3    3  501    0 -0.75884358324E+02 -0.18220069291E+02  0.13251049873E+03  0.15378898510E+03  0.12700000000E+01 0. -1.
         -4    1    3    3    0  501  0.12408858332E+02 -0.30413009451E+02  0.33739314698E+03  0.33899067751E+03  0.12700000000E+01 0. -1.
          2    1    1    2  502    0  0.42232642626E+02  0.16366719098E+00  0.22436454121E+02  0.47822770347E+02  0.00000000000E+00 0. -1.
          3    1    1    2  503    0  0.21242857366E+02  0.48469411551E+02  0.23565011183E+03  0.24151918775E+03  0.00000000000E+00 0. -1.
<mgrwt>
<rscale>  0 0.49046987E+02</rscale>
<asrwt>0</asrwt>
<pdfrwt beam="1">  1        2 0.11616243E+00 0.56960415E+02</pdfrwt>
<pdfrwt beam="2">  1        1 0.41639551E-02 0.42232960E+02</pdfrwt>
<totfact> 0.97300789E+03</totfact>
</mgrwt>
</event>
<event>
 7    1  0.7037933E-004  0.1895899E+03  0.7546771E-02  0.1349225E+00
         -2   -1    0    0    0  501 -0.00000000000E+00  0.00000000000E+00  0.52667207253E+02  0.52667207253E+02  0.00000000000E+00 0.  1.
          2   -1    0    0  503    0  0.00000000000E+00 -0.00000000000E+00 -0.22541336281E+04  0.22541336281E+04  0.00000000000E+00 0. -1.
         25    2    1    2    0    0 -0.15610670909E+03 -0.89543921205E+02 -0.61349388504E+03  0.65144922875E+03  0.12499572875E+03 0.  0.
          4    1    3    3  502    0 -0.66587803689E+02 -0.73564637755E+02 -0.47848805881E+03  0.48866975234E+03  0.12700000000E+01 0.  1.
         -4    1    3    3    0  502 -0.89518905398E+02 -0.15979283449E+02 -0.13500582623E+03  0.16277947641E+03  0.12700000000E+01 0.  1.
          1    1    1    2  503    0  0.17875495892E+03  0.72511977996E+02 -0.16087113713E+04  0.16202356614E+04  0.00000000000E+00 0. -1.
         -1    1    1    2    0  501 -0.22648249828E+02  0.17031943209E+02  0.20738835503E+02  0.35115945207E+02  0.00000000000E+00 0.  1.
<mgrwt>
<rscale>  0 0.73297733E+02</rscale>
<asrwt>0</asrwt>
<pdfrwt beam="2">  1        2 0.34678979E+00 0.18958986E+03</pdfrwt>
<pdfrwt beam="1">  1       -2 0.81026474E-02 0.28337789E+02</pdfrwt>
<totfact> 0.43937145E+02</totfact>
</mgrwt>
</event>
<event>
 7    1  0.7037933E-004  0.1683468E+03  0.7546771E-02  0.1270926E+00
          1   -1    0    0  502    0 -0.00000000000E+00  0.00000000000E+00  0.21574673446E+03  0.21574673446E+03  0.00000000000E+00 0. -1.
          2   -1    0    0  503    0  0.00000000000E+00 -0.00000000000E+00 -0.28512002588E+04  0.28512002588E+04  0.00000000000E+00 0. -1.
         25    2    1    2    0    0  0.40587824400E+02 -0.13673651757E+03 -0.69152655923E+03  0.71706010614E+03  0.12498786727E+03 0.  0.
          4    1    3    3  501    0  0.40678474662E+02 -0.15829692543E+03 -0.65021980975E+03  0.67044766298E+03  0.12700000000E+01 0. -1.
         -4    1    3    3    0  501 -0.90650262009E-01  0.21560407861E+02 -0.41306749480E+02  0.46612443158E+02  0.12700000000E+01 0. -1.
          2    1    1    2  502    0 -0.50627772087E+02 -0.40736441234E+02  0.19399439225E+03  0.20458849717E+03  0.00000000000E+00 0. -1.
          1    1    1    2  503    0  0.10039947687E+02  0.17747295880E+03 -0.21379213574E+04  0.21452983900E+04  0.00000000000E+00 0. -1.
<mgrwt>
<rscale>  0 0.10459193E+03</rscale>
<asrwt>0</asrwt>
<pdfrwt beam="2">  1        2 0.43864615E+00 0.16834681E+03</pdfrwt>
<pdfrwt beam="1">  1        1 0.33191809E-01 0.64981759E+02</pdfrwt>
<totfact> 0.48693480E+01</totfact>
</mgrwt>
</event>
<event>
 7    1  0.7037933E-004  0.1750192E+03  0.7546771E-02  0.1321373E+00
          2   -1    0    0  503    0  0.00000000000E+00  0.00000000000E+00  0.34358568552E+04  0.34358568552E+04  0.00000000000E+00 0. -1.
          1   -1    0    0  502    0 -0.00000000000E+00 -0.00000000000E+00 -0.17085143247E+04  0.17085143247E+04  0.00000000000E+00 0. -1.
         25    2    1    2    0    0  0.33345888371E+02 -0.14276361090E+03 -0.20457237979E+03  0.28101076722E+03  0.12499518332E+03 0.  0.
          4    1    3    3  501    0 -0.12596389774E+02  0.15715516289E+02 -0.28256429266E+01  0.20377527954E+02  0.12700000000E+01 0.  1.
         -4    1    3    3    0  501  0.45942278145E+02 -0.15847912718E+03 -0.20174673686E+03  0.26063323926E+03  0.12700000000E+01 0.  1.
          2    1    1    2  502    0  0.34225945630E+02 -0.18992461606E+02 -0.14631996447E+04  0.14637231054E+04  0.00000000000E+00 0. -1.
          1    1    1    2  503    0 -0.67571834001E+02  0.16175607250E+03  0.33951145550E+04  0.33996373073E+04  0.00000000000E+00 0. -1.
<mgrwt>
<rscale>  0 0.82768807E+02</rscale>
<asrwt>0</asrwt>
<pdfrwt beam="1">  1        2 0.52859336E+00 0.17501922E+03</pdfrwt>
<pdfrwt beam="2">  1        1 0.26284836E+00 0.39142419E+02</pdfrwt>
<totfact> 0.10688429E+00</totfact>
</mgrwt>
</event>
<event>
 7    1  0.7037933E-004  0.1376213E+03  0.7546771E-02  0.1234472E+00
          1   -1    0    0  502    0 -0.00000000000E+00  0.00000000000E+00  0.12260750675E+03  0.12260750675E+03  0.00000000000E+00 0. -1.
          2   -1    0    0  503    0  0.00000000000E+00 -0.00000000000E+00 -0.23842460605E+04  0.23842460605E+04  0.00000000000E+00 0. -1.
         25    2    1    2    0    0 -0.43305489593E+02  0.22801606466E+03 -0.36112610912E+03  0.44710650247E+03  0.12500186675E+03 0.  0.
          4    1    3    3  501    0 -0.33048306387E+02  0.13061128212E+03 -0.30683987676E+03  0.33511762180E+03  0.12700000000E+01 0.  1.
         -4    1    3    3    0  501 -0.10257183206E+02  0.97404782542E+02 -0.54286232358E+02  0.11198888067E+03  0.12700000000E+01 0.  1.
          2    1    1    2  502    0  0.54008880323E+02 -0.11428563784E+03  0.26665316368E+02  0.12918670701E+03  0.00000000000E+00 0. -1.
          1    1    1    2  503    0 -0.10703390730E+02 -0.11373042682E+03 -0.19271777610E+04  0.19305603578E+04  0.00000000000E+00 0. -1.
<mgrwt>
<rscale>  0 0.12538298E+03</rscale>
<asrwt>0</asrwt>
<pdfrwt beam="2">  1        2 0.36680710E+00 0.11423297E+03</pdfrwt>
<pdfrwt beam="1">  1        1 0.18862693E-01 0.13762131E+03</pdfrwt>
<totfact> 0.18925364E+02</totfact>
</mgrwt>
</event>
<event>
 7    1  0.7037933E-004  0.4072754E+02  0.7546771E-02  0.1541814E+00
          2   -1    0    0  503    0  0.00000000000E+00  0.00000000000E+00  0.17847365641E+04  0.17847365641E+04  0.00000000000E+00 0. -1.
          1   -1    0    0  502    0 -0.00000000000E+00 -0.00000000000E+00 -0.16964400440E+03  0.16964400440E+03  0.00000000000E+00 0. -1.
         25    2    1    2    0    0  0.65018001606E+02 -0.30435900028E+02  0.17510855401E+03  0.22680887990E+03  0.12500231107E+03 0.  0.
          4    1    3    3  501    0  0.65408225189E+02 -0.21206294151E+02  0.20279758714E+02  0.71699542171E+02  0.12700000000E+01 0. -1.
         -4    1    3    3    0  501 -0.39022358324E+00 -0.92296058769E+01  0.15482879529E+03  0.15510933773E+03  0.12700000000E+01 0. -1.
          2    1    1    2  502    0 -0.27841029006E+02  0.14578124701E+02 -0.14181548990E+03  0.14525590450E+03  0.00000000000E+00 0. -1.
          1    1    1    2  503    0 -0.37176972600E+02  0.15857775328E+02  0.15817994956E+04  0.15823157841E+04  0.00000000000E+00 0. -1.
<mgrwt>
<rscale>  0 0.35776203E+02</rscale>
<asrwt>0</asrwt>
<pdfrwt beam="1">  1        2 0.27457484E+00 0.40727537E+02</pdfrwt>
<pdfrwt beam="2">  1        1 0.26099079E-01 0.31426814E+02</pdfrwt>
<totfact> 0.27088264E+02</totfact>
</mgrwt>
</event>
<event>
 7    1  0.7037933E-004  0.5579824E+02  0.7546771E-02  0.1449220E+00
          1   -1    0    0  502    0 -0.00000000000E+00  0.00000000000E+00  0.63488073849E+02  0.63488073849E+02  0.00000000000E+00 0. -1.
          2   -1    0    0  503    0  0.00000000000E+00 -0.00000000000E+00 -0.22018111972E+04  0.22018111972E+04  0.00000000000E+00 0. -1.
         25    2    1    2    0    0  0.30566590713E+02 -0.39734367808E+02 -0.38621005487E+03  0.40901804292E+03  0.12499766598E+03 0.  0.
          4    1    3    3  501    0 -0.85626294713E+01 -0.73743624318E+02 -0.29394499630E+03  0.30317769460E+03  0.12700000000E+01 0.  1.
         -4    1    3    3    0  501  0.39129220185E+02  0.34009256510E+02 -0.92265058573E+02  0.10584034833E+03  0.12700000000E+01 0.  1.
          2    1    1    2  502    0  0.25879208816E+02  0.35011043037E+02  0.42460192064E+02  0.60814262255E+02  0.00000000000E+00 0. -1.
          1    1    1    2  503    0 -0.56445799530E+02  0.47233247712E+01 -0.17945732605E+04  0.17954669659E+04  0.00000000000E+00 0. -1.
<mgrwt>
<rscale>  0 0.49288041E+02</rscale>
<asrwt>0</asrwt>
<pdfrwt beam="2">  1        2 0.33874015E+00 0.55798235E+02</pdfrwt>
<pdfrwt beam="1">  1        1 0.97673970E-02 0.43537416E+02</pdfrwt>
<totfact> 0.56015371E+02</totfact>
</mgrwt>
</event>
<event>
 7    1  0.7037933E-004  0.9387432E+02  0.7546771E-02  0.1337445E+00
         -2   -1    0    0    0  501 -0.00000000000E+00  0.00000000000E+00  0.47137273733E+02  0.47137273733E+02  0.00000000000E+00 0.  1.
          2   -1    0    0  503    0  0.00000000000E+00 -0.00000000000E+00 -0.16631726439E+04  0.16631726439E+04  0.00000000000E+00 0. -1.
         25    2    1    2    0    0 -0.31965910131E+02 -0.42414930149E+02 -0.35590878264E+03  0.38093886684E+03  0.12499005158E+03 0.  0.
          4    1    3    3  502    0 -0.53007827268E+02  0.20052336665E+02 -0.85329383162E+02  0.10244336234E+03  0.12700000000E+01 0.  1.
         -4    1    3    3    0  502  0.21041917137E+02 -0.62467266813E+02 -0.27057939948E+03  0.27849550449E+03  0.12700000000E+01 0.  1.
          1    1    1    2  503    0 -0.63344157625E+02  0.60154421706E+00 -0.12137929967E+04  0.12154448910E+04  0.00000000000E+00 0. -1.
         -1    1    1    2    0  501  0.95310067756E+02  0.41813385932E+02 -0.46333590870E+02  0.11392615987E+03  0.00000000000E+00 0.  1.
<mgrwt>
<rscale>  0 0.77114577E+02</rscale>
<asrwt>0</asrwt>
<pdfrwt beam="2">  1        2 0.25587267E+00 0.63347014E+02</pdfrwt>
<pdfrwt beam="1">  1       -2 0.72518896E-02 0.93874323E+02</pdfrwt>
<totfact> 0.13002414E+03</totfact>
</mgrwt>
</event>
<event>
 7    1  0.7037933E-004  0.8998668E+02  0.7546771E-02  0.1325206E+00
          1   -1    0    0  502    0 -0.00000000000E+00  0.00000000000E+00  0.15967933379E+04  0.15967933379E+04  0.00000000000E+00 0. -1.
          2   -1    0    0  503    0  0.00000000000E+00 -0.00000000000E+00 -0.53654462001E+02  0.53654462001E+02  0.00000000000E+00 0. -1.
         25    2    1    2    0    0 -0.28087728377E+02 -0.55079961520E+02  0.94951896650E+02  0.16871656432E+03  0.12500677483E+03 0.  0.
          4    1    3    3  501    0 -0.64817065558E+02  0.54859403137E+01  0.26645878487E+02  0.70306210743E+02  0.12700000000E+01 0. -1.
         -4    1    3    3    0  501  0.36729337180E+02 -0.60565901834E+02  0.68306018163E+02  0.98410353581E+02  0.12700000000E+01 0. -1.
          2    1    1    2  502    0 -0.83833723232E+02  0.32703364039E+02  0.12484080883E+04  0.12516470581E+04  0.00000000000E+00 0. -1.
          1    1    1    2  503    0  0.11192145161E+03  0.22376597480E+02  0.19977889092E+03  0.23008417743E+03  0.00000000000E+00 0. -1.
<mgrwt>
<rscale>  0 0.81370533E+02</rscale>
<asrwt>0</asrwt>
<pdfrwt beam="2">  1        2 0.82545339E-02 0.73579373E+02</pdfrwt>
<pdfrwt beam="1">  1        1 0.24566048E+00 0.89986683E+02</pdfrwt>
<totfact> 0.70026423E+02</totfact>
</mgrwt>
</event>
<event>
 7    1  0.7037933E-004  0.1036583E+03  0.7546771E-02  0.1350328E+00
          2   -1    0    0  503    0  0.00000000000E+00  0.00000000000E+00  0.34608751541E+04  0.34608751541E+04  0.00000000000E+00 0. -1.
         -2   -1    0    0    0  501 -0.00000000000E+00 -0.00000000000E+00 -0.28411520209E+02  0.28411520209E+02  0.00000000000E+00 0.  1.
         25    2    1    2    0    0 -0.10788238182E+03  0.56699143390E+02  0.29167055789E+03  0.33993708427E+03  0.12502841977E+03 0.  0.
          4    1    3    3  502    0 -0.10023664850E+03  0.52608733442E+01  0.26079044096E+03  0.27944289128E+03  0.12700000000E+01 0. -1.
         -4    1    3    3    0  502 -0.76457333216E+01  0.51438270046E+02  0.30880116929E+02  0.60494192985E+02  0.12700000000E+01 0. -1.
          1    1    1    2  503    0  0.26506890161E+02 -0.43972716085E+02  0.27246565646E+04  0.27251402918E+04  0.00000000000E+00 0. -1.
         -1    1    1    2    0  501  0.81375491657E+02 -0.12726427306E+02  0.41613651141E+03  0.42420929825E+03  0.00000000000E+00 0.  1.
<mgrwt>
<rscale>  0 0.72953671E+02</rscale>
<asrwt>0</asrwt>
<pdfrwt beam="1">  1        2 0.53244200E+00 0.51344084E+02</pdfrwt>
<pdfrwt beam="2">  1       -2 0.43710058E-02 0.10365825E+03</pdfrwt>
<totfact> 0.32216119E+02</totfact>
</mgrwt>
</event>
<event>
 7    1  0.7037933E-004  0.5474041E+02  0.7546771E-02  0.1449877E+00
          2   -1    0    0  503    0  0.00000000000E+00  0.00000000000E+00  0.17525187205E+04  0.17525187205E+04  0.00000000000E+00 0. -1.
         -2   -1    0    0    0  501 -0.00000000000E+00 -0.00000000000E+00 -0.10170528647E+03  0.10170528647E+03  0.00000000000E+00 0.  1.
         25    2    1    2    0    0 -0.20604733333E+02  0.28007187239E+02  0.15013047876E+04  0.15069007949E+04  0.12499993059E+03 0.  0.
          4    1    3    3  502    0 -0.20071949242E+02  0.69718917709E+02  0.12541316321E+04  0.12562290293E+04  0.12700000000E+01 0.  1.
         -4    1    3    3    0  502 -0.53278409061E+00 -0.41711730470E+02  0.24717315557E+03  0.25067176557E+03  0.12700000000E+01 0.  1.
          1    1    1    2  503    0 -0.10275960174E+02 -0.73205588921E+02  0.23469679144E+03  0.24606348270E+03  0.00000000000E+00 0. -1.
         -3    1    1    2    0  501  0.30880693506E+02  0.45198401682E+02 -0.85188145035E+02  0.10125972941E+03  0.00000000000E+00 0.  1.
<mgrwt>
<rscale>  0 0.49168822E+02</rscale>
<asrwt>0</asrwt>
<pdfrwt beam="1">  1        2 0.26961824E+00 0.44164320E+02</pdfrwt>
<pdfrwt beam="2">  1       -2 0.15646968E-01 0.54740412E+02</pdfrwt>
<totfact> 0.35461850E+02</totfact>
</mgrwt>
</event>
<event>
 7    1  0.7037933E-004  0.4877233E+02  0.7546771E-02  0.1464955E+00
          1   -1    0    0  502    0 -0.00000000000E+00  0.00000000000E+00  0.38174326034E+02  0.38174326034E+02  0.00000000000E+00 0. -1.
          2   -1    0    0  503    0  0.00000000000E+00 -0.00000000000E+00 -0.18443249468E+04  0.18443249468E+04  0.00000000000E+00 0. -1.
         25    2    1    2    0    0 -0.80682396069E+01  0.74824568399E+02 -0.45346670706E+03  0.47636274598E+03  0.12500239527E+03 0.  0.
          4    1    3    3  501    0 -0.24067802146E+02  0.17659631886E+02 -0.14164401567E+02  0.33066068261E+02  0.12700000000E+01 0. -1.
         -4    1    3    3    0  501  0.15999562539E+02  0.57164936513E+02 -0.43930230549E+03  0.44329667772E+03  0.12700000000E+01 0. -1.
          2    1    1    2  502    0 -0.23045880994E+02 -0.37960444334E+02  0.75515822669E+01  0.45045913905E+02  0.00000000000E+00 0. -1.
          1    1    1    2  503    0  0.31114120601E+02 -0.36864124064E+02 -0.13602354960E+04  0.13610906130E+04  0.00000000000E+00 0. -1.
<mgrwt>
<rscale>  0 0.46539255E+02</rscale>
<asrwt>0</asrwt>
<pdfrwt beam="2">  1        2 0.28374230E+00 0.48772331E+02</pdfrwt>
<pdfrwt beam="1">  1        1 0.58729731E-02 0.44408422E+02</pdfrwt>
<totfact> 0.16492135E+03</totfact>
</mgrwt>
</event>
<event>
 7    1  0.7037933E-004  0.7698898E+02  0.7546771E-02  0.1424465E+00
         -2   -1    0    0    0  501  0.00000000000E+00  0.00000000000E+00  0.70817845761E+03  0.70817845761E+03  0.00000000000E+00 0.  1.
         -1   -1    0    0    0  502 -0.00000000000E+00 -0.00000000000E+00 -0.38319107460E+02  0.38319107460E+02  0.00000000000E+00 0.  1.
         25    2    1    2    0    0  0.21120503148E+02  0.92309461895E+02  0.31714786034E+03  0.35380032590E+03  0.12499917153E+03 0.  0.
          4    1    3    3  503    0 -0.39665610989E+02  0.42842273762E+02  0.55131041512E+02  0.80311056240E+02  0.12700000000E+01 0.  1.
         -4    1    3    3    0  503  0.60786114137E+02  0.49467188133E+02  0.26201681882E+03  0.27348926966E+03  0.12700000000E+01 0.  1.
         -2    1    1    2    0  502  0.21462140292E+02 -0.31356727524E+02  0.64490616649E+01  0.38541642717E+02  0.00000000000E+00 0.  1.
         -1    1    1    2    0  501 -0.42582643439E+02 -0.60952734370E+02  0.34626242815E+03  0.35415559645E+03  0.00000000000E+00 0.  1.
<mgrwt>
<rscale>  0 0.54087403E+02</rscale>
<asrwt>0</asrwt>
<pdfrwt beam="1">  1       -2 0.10895052E+00 0.76988975E+02</pdfrwt>
<pdfrwt beam="2">  1       -1 0.58952478E-02 0.37998261E+02</pdfrwt>
<totfact> 0.62116476E+02</totfact>
</mgrwt>
</event>
<event>
 7    1  0.7037933E-004  0.6473272E+02  0.7546771E-02  0.1482560E+00
          1   -1    0    0  502    0 -0.00000000000E+00  0.00000000000E+00  0.86251116069E+02  0.86251116069E+02  0.00000000000E+00 0. -1.
          2   -1    0    0  503    0  0.00000000000E+00 -0.00000000000E+00 -0.58741124599E+03  0.58741124599E+03  0.00000000000E+00 0. -1.
         25    2    1    2    0    0 -0.30096447333E+02 -0.39275038379E+02 -0.16147846682E+03  0.21012096618E+03  0.12500880129E+03 0.  0.
          4    1    3    3  501    0 -0.41830712129E+02 -0.29025951462E+02 -0.31555866610E+01  0.51028276109E+02  0.12700000000E+01 0. -1.
         -4    1    3    3    0  501  0.11734264795E+02 -0.10249086916E+02 -0.15832288016E+03  0.15909269007E+03  0.12700000000E+01 0. -1.
          2    1    1    2  502    0  0.14341675739E+02 -0.25795777575E+02  0.55429737580E+02  0.62797783495E+02  0.00000000000E+00 0. -1.
          1    1    1    2  503    0  0.15754771594E+02  0.65070815954E+02 -0.39511140068E+03  0.40074361238E+03  0.00000000000E+00 0. -1.
<mgrwt>
<rscale>  0 0.43709883E+02</rscale>
<asrwt>0</asrwt>
<pdfrwt beam="2">  1        2 0.90370962E-01 0.64732718E+02</pdfrwt>
<pdfrwt beam="1">  1        1 0.13269402E-01 0.29514502E+02</pdfrwt>
<totfact> 0.28073052E+03</totfact>
</mgrwt>
</event>
<event>
 7    1  0.7037933E-004  0.1016586E+03  0.7546771E-02  0.1374828E+00
          1   -1    0    0  502    0 -0.00000000000E+00  0.00000000000E+00  0.35668768815E+03  0.35668768815E+03  0.00000000000E+00 0. -1.
          2   -1    0    0  503    0  0.00000000000E+00 -0.00000000000E+00 -0.16741898825E+04  0.16741898825E+04  0.00000000000E+00 0. -1.
         25    2    1    2    0    0  0.12042389341E+02  0.13315680095E+03  0.49656670739E+02  0.18964359986E+03  0.12499262874E+03 0.  0.
          4    1    3    3  501    0  0.19978792414E+02  0.15614670636E+03  0.50346254050E+02  0.16527947317E+03  0.12700000000E+01 0. -1.
         -4    1    3    3    0  501 -0.79364030727E+01 -0.22989905410E+02 -0.68958331148E+00  0.24364126696E+02  0.12700000000E+01 0. -1.
          2    1    1    2  502    0 -0.27510285153E+02 -0.93415014688E+02  0.22673853036E+03  0.24676616848E+03  0.00000000000E+00 0. -1.
          3    1    1    2  503    0  0.15467895811E+02 -0.39741786263E+02 -0.15938973955E+04  0.15944678023E+04  0.00000000000E+00 0. -1.
<mgrwt>
<rscale>  0 0.65843097E+02</rscale>
<asrwt>0</asrwt>
<pdfrwt beam="2">  1        2 0.25756767E+00 0.42645813E+02</pdfrwt>
<pdfrwt beam="1">  1        1 0.54875029E-01 0.10165859E+03</pdfrwt>
<totfact> 0.12660821E+02</totfact>
</mgrwt>
</event>
<event>
 7    1  0.7037933E-004  0.1020719E+03  0.7546771E-02  0.1446632E+00
          2   -1    0    0  503    0  0.00000000000E+00  0.00000000000E+00  0.47123712852E+03  0.47123712852E+03  0.00000000000E+00 0. -1.
          1   -1    0    0  502    0 -0.00000000000E+00 -0.00000000000E+00 -0.13977400929E+04  0.13977400929E+04  0.00000000000E+00 0. -1.
         25    2    1    2    0    0  0.40282979170E+02 -0.94670678527E+02  0.76165515465E+02  0.17886648940E+03  0.12492709675E+03 0.  0.
          4    1    3    3  501    0 -0.59888900722E+01  0.73589740108E+01 -0.25710722817E+02  0.27434931575E+02  0.12700000000E+01 0.  1.
         -4    1    3    3    0  501  0.46271869242E+02 -0.10202965254E+03  0.10187623828E+03  0.15143155783E+03  0.12700000000E+01 0.  1.
          2    1    1    2  502    0 -0.23438825634E+02 -0.62563595634E+01 -0.13386620914E+04  0.13388818900E+04  0.00000000000E+00 0. -1.
          1    1    1    2  503    0 -0.16844153536E+02  0.10092703809E+03  0.33599361147E+03  0.35122884203E+03  0.00000000000E+00 0. -1.
<mgrwt>
<rscale>  0 0.49761511E+02</rscale>
<asrwt>0</asrwt>
<pdfrwt beam="1">  1        2 0.72498019E-01 0.10207192E+03</pdfrwt>
<pdfrwt beam="2">  1        1 0.21503694E+00 0.24259443E+02</pdfrwt>
<totfact> 0.96775658E+01</totfact>
</mgrwt>
</event>
<event>
 7    1  0.7037933E-004  0.6774329E+02  0.7546771E-02  0.1432489E+00
          2   -1    0    0  503    0  0.00000000000E+00  0.00000000000E+00  0.28771125947E+03  0.28771125947E+03  0.00000000000E+00 0. -1.
          1   -1    0    0  502    0 -0.00000000000E+00 -0.00000000000E+00 -0.11097850808E+04  0.11097850808E+04  0.00000000000E+00 0. -1.
         25    2    1    2    0    0 -0.29385041359E+02 -0.22551940311E+02 -0.35069388057E+02  0.13500508756E+03  0.12499776406E+03 0.  0.
          4    1    3    3  501    0  0.10252552148E+02 -0.47135005312E+02  0.28582132054E+02  0.56083640432E+02  0.12700000000E+01 0.  1.
         -4    1    3    3    0  501 -0.39637593507E+02  0.24583065001E+02 -0.63651520111E+02  0.78921447125E+02  0.12700000000E+01 0.  1.
          2    1    1    2  502    0  0.26806073578E+02  0.63100193215E+02 -0.10218548702E+04  0.10241521253E+04  0.00000000000E+00 0. -1.
          1    1    1    2  503    0  0.25789677805E+01 -0.40548252904E+02  0.23485043698E+03  0.23833912738E+03  0.00000000000E+00 0. -1.
<mgrwt>
<rscale>  0 0.52463532E+02</rscale>
<asrwt>0</asrwt>
<pdfrwt beam="1">  1        2 0.44263271E-01 0.40630184E+02</pdfrwt>
<pdfrwt beam="2">  1        1 0.17073617E+00 0.67743286E+02</pdfrwt>
<totfact> 0.22516706E+02</totfact>
</mgrwt>
</event>
<event>
 7    1  0.7037933E-004  0.4008337E+02  0.7546771E-02  0.1574952E+00
         -2   -1    0    0    0  501 -0.00000000000E+00  0.00000000000E+00  0.14887210603E+02  0.14887210603E+02  0.00000000000E+00 0.  1.
          2   -1    0    0  503    0  0.00000000000E+00 -0.00000000000E+00 -0.86417869004E+03  0.86417869004E+03  0.00000000000E+00 0. -1.
         25    2    1    2    0    0 -0.96932944847E+01  0.35792222967E+02 -0.46638226628E+03  0.48426566871E+03  0.12500310556E+03 0.  0.
          4    1    3    3  502    0 -0.28670831367E+02 -0.31160391888E+02 -0.31270519708E+03  0.31556162595E+03  0.12700000000E+01 0. -1.
         -4    1    3    3    0  502  0.18977536883E+02  0.66952614854E+02 -0.15367706921E+03  0.16870404276E+03  0.12700000000E+01 0. -1.
          1    1    1    2  503    0 -0.16063389958E+02 -0.38212525423E+02 -0.35226833948E+03  0.35469876317E+03  0.00000000000E+00 0. -1.
         -1    1    1    2    0  501  0.25756684443E+02  0.24203024568E+01 -0.30640873666E+02  0.40101468757E+02  0.00000000000E+00 0.  1.
<mgrwt>
<rscale>  0 0.32201906E+02</rscale>
<asrwt>0</asrwt>
<pdfrwt beam="2">  1        2 0.13295058E+00 0.40083368E+02</pdfrwt>
<pdfrwt beam="1">  1       -2 0.22903399E-02 0.25870150E+02</pdfrwt>
<totfact> 0.15974751E+04</totfact>
</mgrwt>
</event>
<event>
 7    1  0.7037933E-004  0.9693747E+02  0.7546771E-02  0.1393477E+00
          2   -1    0    0  503    0  0.00000000000E+00  0.00000000000E+00  0.90885800679E+03  0.90885800679E+03  0.00000000000E+00 0. -1.
          1   -1    0    0  502    0 -0.00000000000E+00 -0.00000000000E+00 -0.49781517099E+03  0.49781517099E+03  0.00000000000E+00 0. -1.
         25    2    1    2    0    0  0.88732540591E+02 -0.49710210782E+02 -0.64384981152E+02  0.17353900754E+03  0.12500317006E+03 0.  0.
          4    1    3    3  501    0 -0.29695071526E+02  0.49281583557E+01 -0.18059921209E+02  0.35126310250E+02  0.12700000000E+01 0.  1.
         -4    1    3    3    0  501  0.11842761212E+03 -0.54638369137E+02 -0.46325059943E+02  0.13841269729E+03  0.12700000000E+01 0.  1.
          2    1    1    2  502    0  0.75187032586E+01  0.37706438434E+02 -0.37511403481E+03  0.37707936235E+03  0.00000000000E+00 0. -1.
          1    1    1    2  503    0 -0.96251243849E+02  0.12003772348E+02  0.85054185177E+03  0.85605480789E+03  0.00000000000E+00 0. -1.
<mgrwt>
<rscale>  0 0.61050181E+02</rscale>
<asrwt>0</asrwt>
<pdfrwt beam="1">  1        2 0.13982431E+00 0.96937472E+02</pdfrwt>
<pdfrwt beam="2">  1        1 0.76586949E-01 0.38448750E+02</pdfrwt>
<totfact> 0.20412039E+02</totfact>
</mgrwt>
</event>
<event>
 7    1  0.7037933E-004  0.8016318E+02  0.7546771E-02  0.1383190E+00
          1   -1    0    0  503    0  0.00000000000E+00  0.00000000000E+00  0.17266250004E+03  0.17266250004E+03  0.00000000000E+00 0. -1.
         -1   -1    0    0    0  501 -0.00000000000E+00 -0.00000000000E+00 -0.57463902818E+03  0.57463902818E+03  0.00000000000E+00 0.  1.
         25    2    1    2    0    0 -0.20400827746E+01  0.10163512831E+03  0.99390295637E+02  0.18930584868E+03  0.12499764890E+03 0.  0.
          4    1    3    3  502    0  0.24969665042E+02  0.36813640616E+02  0.10963987336E+03  0.11832684834E+03  0.12700000000E+01 0. -1.
         -4    1    3    3    0  502 -0.27009747817E+02  0.64821487697E+02 -0.10249577727E+02  0.70979000331E+02  0.12700000000E+01 0. -1.
          2    1    1    2  503    0  0.28276471515E+02 -0.58472431358E+02 -0.12025714690E+02  0.66054537195E+02  0.00000000000E+00 0. -1.
         -2    1    1    2    0  501 -0.26236388741E+02 -0.43162696955E+02 -0.48934110908E+03  0.49194114235E+03  0.00000000000E+00 0.  1.
<mgrwt>
<rscale>  0 0.63632750E+02</rscale>
<asrwt>0</asrwt>
<pdfrwt beam="1">  1        1 0.26563461E-01 0.80163185E+02</pdfrwt>
<pdfrwt beam="2">  1       -1 0.88406006E-01 0.50511053E+02</pdfrwt>
<totfact> 0.24347231E+02</totfact>
</mgrwt>
</event>
<event>
 7    1  0.7037933E-004  0.2874851E+03  0.7546771E-02  0.1188897E+00
          2   -1    0    0  503    0  0.00000000000E+00  0.00000000000E+00  0.39099103298E+03  0.39099103298E+03  0.00000000000E+00 0. -1.
          1   -1    0    0  502    0 -0.00000000000E+00 -0.00000000000E+00 -0.13418127234E+04  0.13418127234E+04  0.00000000000E+00 0. -1.
         25    2    1    2    0    0 -0.20252863995E+03  0.17805939768E+03 -0.39559445098E+03  0.49481349434E+03  0.12498970131E+03 0.  0.
          4    1    3    3  501    0 -0.49902648724E+02 -0.75925472176E+01 -0.34896164423E+02  0.61378141991E+02  0.12700000000E+01 0. -1.
         -4    1    3    3    0  501 -0.15262599123E+03  0.18565194490E+03 -0.36069828655E+03  0.43343535235E+03  0.12700000000E+01 0. -1.
          2    1    1    2  502    0  0.15871520572E+03 -0.25535664670E+03 -0.86498089253E+03  0.91574531284E+03  0.00000000000E+00 0. -1.
          1    1    1    2  503    0  0.43813434233E+02  0.77297249026E+02  0.30975365305E+03  0.32224494923E+03  0.00000000000E+00 0. -1.
<mgrwt>
<rscale>  0 0.15982273E+03</rscale>
<asrwt>0</asrwt>
<pdfrwt beam="1">  1        2 0.60152467E-01 0.88850896E+02</pdfrwt>
<pdfrwt beam="2">  1        1 0.20643273E+00 0.28748506E+03</pdfrwt>
<totfact> 0.10269422E+02</totfact>
</mgrwt>
</event>
<event>
 7    1  0.7037933E-004  0.1606259E+03  0.7546771E-02  0.1269310E+00
          1   -1    0    0  502    0 -0.00000000000E+00  0.00000000000E+00  0.64008829548E+03  0.64008829548E+03  0.00000000000E+00 0. -1.
          2   -1    0    0  503    0  0.00000000000E+00 -0.00000000000E+00 -0.67509445686E+03  0.67509445686E+03  0.00000000000E+00 0. -1.
         25    2    1    2    0    0  0.15760562902E+03  0.10300354401E+02 -0.12496925372E+02  0.20181778355E+03  0.12501445122E+03 0.  0.
          4    1    3    3  501    0  0.14806539080E+03  0.52725813838E+02 -0.16938238790E+02  0.15808822926E+03  0.12700000000E+01 0. -1.
         -4    1    3    3    0  501  0.95402382231E+01 -0.42425459437E+02  0.44413134186E+01  0.43729554294E+02  0.12700000000E+01 0. -1.
          2    1    1    2  502    0 -0.14257555209E+03 -0.77825535891E+02  0.53113384645E+03  0.55541674888E+03  0.00000000000E+00 0. -1.
          1    1    1    2  503    0 -0.15030076930E+02  0.67525181490E+02 -0.55364308245E+03  0.55794821990E+03  0.00000000000E+00 0. -1.
<mgrwt>
<rscale>  0 0.10541219E+03</rscale>
<asrwt>0</asrwt>
<pdfrwt beam="2">  1        2 0.10386069E+00 0.69177694E+02</pdfrwt>
<pdfrwt beam="1">  1        1 0.98475123E-01 0.16062590E+03</pdfrwt>
<totfact> 0.20418148E+02</totfact>
</mgrwt>
</event>
<event>
 7    1  0.7037933E-004  0.7581525E+02  0.7546771E-02  0.1450643E+00
          2   -1    0    0  503    0  0.00000000000E+00  0.00000000000E+00  0.12034669786E+04  0.12034669786E+04  0.00000000000E+00 0. -1.
         -2   -1    0    0    0  501 -0.00000000000E+00 -0.00000000000E+00 -0.10748873448E+03  0.10748873448E+03  0.00000000000E+00 0.  1.
         25    2    1    2    0    0 -0.74590299852E+02  0.75854265397E+02  0.80955906888E+03  0.82603399621E+03  0.12501477702E+03 0.  0.
          4    1    3    3  502    0 -0.88836097266E+02  0.33488423221E+02  0.30354141187E+03  0.31804453821E+03  0.12700000000E+01 0.  1.
         -4    1    3    3    0  502  0.14245797415E+02  0.42365842175E+02  0.50601765701E+03  0.50798945800E+03  0.12700000000E+01 0.  1.
          1    1    1    2  503    0  0.25632329328E+02 -0.18665595841E+02  0.37061999157E+03  0.37197392237E+03  0.00000000000E+00 0. -1.
         -1    1    1    2    0  501  0.48957970524E+02 -0.57188669556E+02 -0.84200816350E+02  0.11294779448E+03  0.00000000000E+00 0.  1.
<mgrwt>
<rscale>  0 0.49030379E+02</rscale>
<asrwt>0</asrwt>
<pdfrwt beam="1">  1        2 0.18514876E+00 0.31708371E+02</pdfrwt>
<pdfrwt beam="2">  1       -2 0.16536729E-01 0.75815249E+02</pdfrwt>
<totfact> 0.63250486E+02</totfact>
</mgrwt>
</event>
<event>
 7    1  0.7037933E-004  0.6184088E+02  0.7546771E-02  0.1391247E+00
          1   -1    0    0  502    0 -0.00000000000E+00  0.00000000000E+00  0.88903732649E+02  0.88903732649E+02  0.00000000000E+00 0. -1.
          2   -1    0    0  503    0  0.00000000000E+00 -0.00000000000E+00 -0.26447983588E+03  0.26447983588E+03  0.00000000000E+00 0. -1.
         25    2    1    2    0    0  0.65082452566E+02 -0.21145802012E+02 -0.78277988397E+02  0.16258734063E+03  0.12499731713E+03 0.  0.
          4    1    3    3  501    0  0.54438965889E+02 -0.59895481968E+02 -0.76391268339E+01  0.81308295554E+02  0.12700000000E+01 0. -1.
         -4    1    3    3    0  501  0.10643486677E+02  0.38749679955E+02 -0.70638861563E+02  0.81279045074E+02  0.12700000000E+01 0. -1.
          2    1    1    2  502    0 -0.52166330565E+02 -0.39331199555E+02  0.10839219415E+02  0.66225055534E+02  0.00000000000E+00 0. -1.
          1    1    1    2  503    0 -0.12916122001E+02  0.60477001567E+02 -0.10813733425E+03  0.12457117237E+03  0.00000000000E+00 0. -1.
<mgrwt>
<rscale>  0 0.61597623E+02</rscale>
<asrwt>0</asrwt>
<pdfrwt beam="2">  1        2 0.40689205E-01 0.61840876E+02</pdfrwt>
<pdfrwt beam="1">  1        1 0.13677498E-01 0.61355328E+02</pdfrwt>
<totfact> 0.65343218E+03</totfact>
</mgrwt>
</event>
<event>
 7    1  0.7037933E-004  0.5709731E+02  0.7546771E-02  0.1486901E+00
          2   -1    0    0  503    0  0.00000000000E+00  0.00000000000E+00  0.98401195400E+03  0.98401195400E+03  0.00000000000E+00 0. -1.
          1   -1    0    0  502    0 -0.00000000000E+00 -0.00000000000E+00 -0.45003023440E+03  0.45003023440E+03  0.00000000000E+00 0. -1.
         25    2    1    2    0    0 -0.55959921586E+02  0.41775052427E+02  0.93647906903E+03  0.94736117637E+03  0.12499393553E+03 0.  0.
          4    1    3    3  501    0 -0.41656520279E+02 -0.55230551078E+01  0.81673141121E+03  0.81781268073E+03  0.12700000000E+01 0. -1.
         -4    1    3    3    0  501 -0.14303401307E+02  0.47298107534E+02  0.11974765783E+03  0.12954849563E+03  0.12700000000E+01 0. -1.
          2    1    1    2  502    0  0.26367311899E+02 -0.18927367841E+02 -0.43556280077E+03  0.43677045894E+03  0.00000000000E+00 0. -1.
          1    1    1    2  503    0  0.29592609687E+02 -0.22847684586E+02  0.33065451329E+02  0.49910553098E+02  0.00000000000E+00 0. -1.
<mgrwt>
<rscale>  0 0.43049135E+02</rscale>
<asrwt>0</asrwt>
<pdfrwt beam="1">  1        2 0.15138645E+00 0.57097307E+02</pdfrwt>
<pdfrwt beam="2">  1        1 0.69235421E-01 0.32457363E+02</pdfrwt>
<totfact> 0.21423990E+02</totfact>
</mgrwt>
</event>
<event>
 7    1  0.7037933E-004  0.1192097E+03  0.7546771E-02  0.1342687E+00
          1   -1    0    0  502    0 -0.00000000000E+00  0.00000000000E+00  0.49975617544E+03  0.49975617544E+03  0.00000000000E+00 0. -1.
          2   -1    0    0  503    0  0.00000000000E+00 -0.00000000000E+00 -0.59383201594E+03  0.59383201594E+03  0.00000000000E+00 0. -1.
         25    2    1    2    0    0  0.15016331493E+03 -0.64906947180E+02 -0.22389476444E+02  0.20709566669E+03  0.12500157423E+03 0.  0.
          4    1    3    3  501    0  0.15049120535E+03 -0.92651151350E+02 -0.10987087773E+02  0.17707108102E+03  0.12700000000E+01 0. -1.
         -4    1    3    3    0  501 -0.32789042106E+00  0.27744204170E+02 -0.11402388671E+02  0.30024585668E+02  0.12700000000E+01 0. -1.
          2    1    1    2  502    0 -0.10742622608E+03  0.43789652662E+02  0.39791353426E+03  0.41447932213E+03  0.00000000000E+00 0. -1.
          1    1    1    2  503    0 -0.42737088852E+02  0.21117294518E+02 -0.46959989832E+03  0.47201320256E+03  0.00000000000E+00 0. -1.
<mgrwt>
<rscale>  0 0.75383607E+02</rscale>
<asrwt>0</asrwt>
<pdfrwt beam="2">  1        2 0.91358772E-01 0.47669685E+02</pdfrwt>
<pdfrwt beam="1">  1        1 0.76885565E-01 0.11920969E+03</pdfrwt>
<totfact> 0.33419461E+02</totfact>
</mgrwt>
</event>
<event>
 7    1  0.7037933E-004  0.3711680E+02  0.7546771E-02  0.1595043E+00
          2   -1    0    0  503    0  0.00000000000E+00  0.00000000000E+00  0.14662290192E+04  0.14662290192E+04  0.00000000000E+00 0. -1.
          1   -1    0    0  502    0 -0.00000000000E+00 -0.00000000000E+00 -0.43817971528E+02  0.43817971528E+02  0.00000000000E+00 0. -1.
         25    2    1    2    0    0 -0.23168676144E+02 -0.26841955928E+02  0.84788033578E+03  0.85777835505E+03  0.12500145772E+03 0.  0.
          4    1    3    3  501    0 -0.16926513798E+02  0.16455398185E+02  0.75212266111E+03  0.75249411776E+03  0.12700000000E+01 0.  1.
         -4    1    3    3    0  501 -0.62421623461E+01 -0.43297354113E+02  0.95757674665E+02  0.10528423729E+03  0.12700000000E+01 0.  1.
          2    1    1    2  502    0  0.36702265254E+02  0.61817837467E+01 -0.29648568085E+02  0.47584748760E+02  0.00000000000E+00 0. -1.
          1    1    1    2  503    0 -0.13533589110E+02  0.20660172181E+02  0.60417927998E+03  0.60468388692E+03  0.00000000000E+00 0. -1.
<mgrwt>
<rscale>  0 0.30277351E+02</rscale>
<asrwt>0</asrwt>
<pdfrwt beam="1">  1        2 0.22557366E+00 0.24698193E+02</pdfrwt>
<pdfrwt beam="2">  1        1 0.67412275E-02 0.37116803E+02</pdfrwt>
<totfact> 0.21985899E+03</totfact>
</mgrwt>
</event>
<event>
 7    1  0.7037933E-004  0.2464237E+03  0.7546771E-02  0.1115586E+00
          2   -1    0    0  503    0  0.00000000000E+00  0.00000000000E+00  0.22606814685E+03  0.22606814685E+03  0.00000000000E+00 0. -1.
         -2   -1    0    0    0  501 -0.00000000000E+00 -0.00000000000E+00 -0.67153047111E+02  0.67153047111E+02  0.00000000000E+00 0.  1.
         25    2    1    2    0    0  0.42046242532E+02 -0.71896814331E+02  0.12865570745E+03  0.19777484773E+03  0.12500224363E+03 0.  0.
          4    1    3    3  502    0 -0.66493851493E+01  0.33262378421E+02  0.23500871691E+02  0.41285639287E+02  0.12700000000E+01 0.  1.
         -4    1    3    3    0  502  0.48695627681E+02 -0.10515919275E+03  0.10515483576E+03  0.15648920844E+03  0.12700000000E+01 0.  1.
          1    1    1    2  503    0 -0.89530139028E+01  0.25277144215E+02  0.27195925734E+02  0.38193047197E+02  0.00000000000E+00 0. -1.
         -1    1    1    2    0  501 -0.33093228629E+02  0.46619670115E+02  0.30634665530E+01  0.57253299032E+02  0.00000000000E+00 0.  1.
<mgrwt>
<rscale>  0 0.24642374E+03</rscale>
<asrwt>0</asrwt>
<pdfrwt beam="1">  1        2 0.34779714E-01 0.24642374E+03</pdfrwt>
<pdfrwt beam="2">  1       -2 0.10331238E-01 0.24642374E+03</pdfrwt>
<totfact> 0.92364116E+03</totfact>
</mgrwt>
</event>
<event>
 7    1  0.7037933E-004  0.8371610E+02  0.7546771E-02  0.1346886E+00
         -2   -1    0    0    0  501  0.00000000000E+00  0.00000000000E+00  0.29964275239E+03  0.29964275239E+03  0.00000000000E+00 0.  1.
         -1   -1    0    0    0  502 -0.00000000000E+00 -0.00000000000E+00 -0.15017535522E+03  0.15017535522E+03  0.00000000000E+00 0.  1.
         25    2    1    2    0    0 -0.30429658307E+02  0.10566087357E+02  0.43358595229E+02  0.13616187806E+03  0.12498993139E+03 0.  0.
          4    1    3    3  503    0 -0.46594279396E+02 -0.37831723703E+02  0.57573177435E+02  0.83177820666E+02  0.12700000000E+01 0. -1.
         -4    1    3    3    0  503  0.16164621088E+02  0.48397811060E+02 -0.14214582206E+02  0.52984057391E+02  0.12700000000E+01 0. -1.
         -2    1    1    2    0  502  0.92086789627E+02 -0.32591611354E+02 -0.73654794066E+02  0.12234058461E+03  0.00000000000E+00 0.  1.
         -1    1    1    2    0  501 -0.61657131320E+02  0.22025523997E+02  0.17976359600E+03  0.19131564494E+03  0.00000000000E+00 0.  1.
<mgrwt>
<rscale>  0 0.74034800E+02</rscale>
<asrwt>0</asrwt>
<pdfrwt beam="1">  1       -2 0.46098885E-01 0.65473090E+02</pdfrwt>
<pdfrwt beam="2">  1       -1 0.23103901E-01 0.83716098E+02</pdfrwt>
<totfact> 0.51454532E+02</totfact>
</mgrwt>
</event>
<event>
 7    1  0.7037933E-004  0.5042794E+02  0.7546771E-02  0.1450138E+00
          2   -1    0    0  503    0  0.00000000000E+00  0.00000000000E+00  0.16356515345E+04  0.16356515345E+04  0.00000000000E+00 0. -1.
         -2   -1    0    0    0  501 -0.00000000000E+00 -0.00000000000E+00 -0.20872700800E+02  0.20872700800E+02  0.00000000000E+00 0.  1.
         25    2    1    2    0    0 -0.22259730297E+02 -0.32282992376E+01  0.44604711913E+03  0.46377777508E+03  0.12500349860E+03 0.  0.
          4    1    3    3  502    0 -0.66021512220E+02  0.29295597715E+02  0.24019311841E+03  0.25082148862E+03  0.12700000000E+01 0. -1.
         -4    1    3    3    0  502  0.43761781922E+02 -0.32523896953E+02  0.20585400072E+03  0.21295628645E+03  0.12700000000E+01 0. -1.
          1    1    1    2  503    0  0.18503431765E+02 -0.47059546808E+02  0.11245951957E+04  0.11257314653E+04  0.00000000000E+00 0. -1.
         -3    1    1    2    0  501  0.37562985325E+01  0.50287846046E+02  0.44136518900E+02  0.67014994884E+02  0.00000000000E+00 0.  1.
<mgrwt>
<rscale>  0 0.49121531E+02</rscale>
<asrwt>0</asrwt>
<pdfrwt beam="1">  1        2 0.25163860E+00 0.47848965E+02</pdfrwt>
<pdfrwt beam="2">  1       -2 0.32111860E-02 0.50427941E+02</pdfrwt>
<totfact> 0.42803468E+03</totfact>
</mgrwt>
</event>
<event>
 7    1  0.7037933E-004  0.6227471E+02  0.7546771E-02  0.1431035E+00
          2   -1    0    0  503    0  0.00000000000E+00  0.00000000000E+00  0.11417466815E+03  0.11417466815E+03  0.00000000000E+00 0. -1.
          1   -1    0    0  502    0 -0.00000000000E+00 -0.00000000000E+00 -0.51293427890E+03  0.51293427890E+03  0.00000000000E+00 0. -1.
         25    2    1    2    0    0  0.22075697504E+02  0.56026635454E+02 -0.26361393058E+03  0.29789844983E+03  0.12499944686E+03 0.  0.
          4    1    3    3  501    0 -0.12185499881E+02  0.79362366693E+02 -0.23271558142E+03  0.24618088144E+03  0.12700000000E+01 0.  1.
         -4    1    3    3    0  501  0.34261197385E+02 -0.23335731239E+02 -0.30898349162E+02  0.51717568384E+02  0.12700000000E+01 0.  1.
          2    1    1    2  502    0 -0.58785646084E+02 -0.30545599975E+02 -0.22192461939E+03  0.23160164627E+03  0.00000000000E+00 0. -1.
          1    1    1    2  503    0  0.36709948581E+02 -0.25481035479E+02  0.86778939209E+02  0.97608850952E+02  0.00000000000E+00 0. -1.
<mgrwt>
<rscale>  0 0.52752755E+02</rscale>
<asrwt>0</asrwt>
<pdfrwt beam="1">  1        2 0.17565334E-01 0.44686726E+02</pdfrwt>
<pdfrwt beam="2">  1        1 0.78912965E-01 0.62274715E+02</pdfrwt>
<totfact> 0.18390591E+03</totfact>
</mgrwt>
</event>
<event>
 7    1  0.7037933E-004  0.3660320E+02  0.7546771E-02  0.1536529E+00
          2   -1    0    0  503    0  0.00000000000E+00  0.00000000000E+00  0.10732821442E+04  0.10732821442E+04  0.00000000000E+00 0. -1.
          1   -1    0    0  502    0 -0.00000000000E+00 -0.00000000000E+00 -0.12567561692E+04  0.12567561692E+04  0.00000000000E+00 0. -1.
         25    2    1    2    0    0 -0.67941828828E+02  0.19074249747E+02 -0.61849095651E+03  0.63492987282E+03  0.12499984405E+03 0.  0.
          4    1    3    3  501    0 -0.10505455304E+02  0.65903371953E+02 -0.35462077776E+03  0.36084779055E+03  0.12700000000E+01 0. -1.
         -4    1    3    3    0  501 -0.57436373524E+02 -0.46829122207E+02 -0.26387017875E+03  0.27408208227E+03  0.12700000000E+01 0. -1.
          2    1    1    2  502    0  0.36181551841E+02 -0.91082350246E+00 -0.62921135129E+03  0.63025142513E+03  0.00000000000E+00 0. -1.
          1    1    1    2  503    0  0.31760276987E+02 -0.18163426244E+02  0.10642282828E+04  0.10648570154E+04  0.00000000000E+00 0. -1.
<mgrwt>
<rscale>  0 0.36397531E+02</rscale>
<asrwt>0</asrwt>
<pdfrwt beam="1">  1        2 0.16512033E+00 0.36603202E+02</pdfrwt>
<pdfrwt beam="2">  1        1 0.19334710E+00 0.36193014E+02</pdfrwt>
<totfact> 0.44973746E+01</totfact>
</mgrwt>
</event>
<event>
 7    1  0.7037933E-004  0.6667778E+02  0.7546771E-02  0.1389241E+00
          2   -1    0    0  503    0  0.00000000000E+00  0.00000000000E+00  0.93498068075E+03  0.93498068075E+03  0.00000000000E+00 0. -1.
          1   -1    0    0  502    0 -0.00000000000E+00 -0.00000000000E+00 -0.70721272247E+03  0.70721272247E+03  0.00000000000E+00 0. -1.
         25    2    1    2    0    0  0.15704723139E+02  0.11671438391E+02  0.20029347100E+03  0.23690596599E+03  0.12499640552E+03 0.  0.
          4    1    3    3  501    0  0.39976307500E+02  0.37230307921E+02  0.28692168646E+02  0.61717537465E+02  0.12700000000E+01 0. -1.
         -4    1    3    3    0  501 -0.24271584360E+02 -0.25558869530E+02  0.17160130235E+03  0.17518842852E+03  0.12700000000E+01 0. -1.
          2    1    1    2  502    0 -0.63995795350E+02  0.20142558196E+02 -0.68610054050E+03  0.68937300219E+03  0.00000000000E+00 0. -1.
          1    1    1    2  503    0  0.48291072211E+02 -0.31813996587E+02  0.71357502778E+03  0.71591443505E+03  0.00000000000E+00 0. -1.
<mgrwt>
<rscale>  0 0.62095808E+02</rscale>
<asrwt>0</asrwt>
<pdfrwt beam="1">  1        2 0.14384318E+00 0.57828696E+02</pdfrwt>
<pdfrwt beam="2">  1        1 0.10880196E+00 0.66677785E+02</pdfrwt>
<totfact> 0.12520600E+02</totfact>
</mgrwt>
</event>
<event>
 7    1  0.7037933E-004  0.1772236E+03  0.7546771E-02  0.1289446E+00
          2   -1    0    0  503    0  0.00000000000E+00  0.00000000000E+00  0.12162416196E+04  0.12162416196E+04  0.00000000000E+00 0. -1.
          1   -1    0    0  502    0 -0.00000000000E+00 -0.00000000000E+00 -0.18550430628E+03  0.18550430628E+03  0.00000000000E+00 0. -1.
         25    2    1    2    0    0 -0.37076092736E+02  0.12699754455E+03  0.43400826050E+03  0.47062865544E+03  0.12500059266E+03 0.  0.
          4    1    3    3  501    0 -0.75269585905E+02  0.12210706581E+03  0.33817304315E+03  0.36733944261E+03  0.12700000000E+01 0.  1.
         -4    1    3    3    0  501  0.38193493169E+02  0.48904787405E+01  0.95835217353E+02  0.10328921283E+03  0.12700000000E+01 0.  1.
          2    1    1    2  502    0  0.66184027461E+02 -0.16979215999E+03 -0.11631864219E+03  0.21619373165E+03  0.00000000000E+00 0. -1.
          1    1    1    2  503    0 -0.29107934725E+02  0.42794615436E+02  0.71304769496E+03  0.71492353875E+03  0.00000000000E+00 0. -1.
<mgrwt>
<rscale>  0 0.95772268E+02</rscale>
<asrwt>0</asrwt>
<pdfrwt beam="1">  1        2 0.18711409E+00 0.51755685E+02</pdfrwt>
<pdfrwt beam="2">  1        1 0.28539125E-01 0.17722357E+03</pdfrwt>
<totfact> 0.47523420E+02</totfact>
</mgrwt>
</event>
<event>
 7    1  0.7037933E-004  0.6789230E+02  0.7546771E-02  0.1464205E+00
          1   -1    0    0  502    0 -0.00000000000E+00  0.00000000000E+00  0.15066462214E+04  0.15066462214E+04  0.00000000000E+00 0. -1.
          2   -1    0    0  503    0  0.00000000000E+00 -0.00000000000E+00 -0.13401997026E+03  0.13401997026E+03  0.00000000000E+00 0. -1.
         25    2    1    2    0    0  0.14391995700E+02  0.36746429247E+02 -0.59350774131E+02  0.14389158414E+03  0.12499937598E+03 0.  0.
          4    1    3    3  501    0 -0.15157755655E+02  0.77083722025E+02 -0.49643140433E+02  0.92939292282E+02  0.12700000000E+01 0. -1.
         -4    1    3    3    0  501  0.29549751355E+02 -0.40337292779E+02 -0.97076336975E+01  0.50952291860E+02  0.12700000000E+01 0. -1.
          2    1    1    2  502    0 -0.41329578966E+02 -0.54158693465E+02  0.14554401322E+04  0.14570337253E+04  0.00000000000E+00 0. -1.
          1    1    1    2  503    0  0.26937583266E+02  0.17412264218E+02 -0.23463106903E+02  0.39740882262E+02  0.00000000000E+00 0. -1.
<mgrwt>
<rscale>  0 0.46665416E+02</rscale>
<asrwt>0</asrwt>
<pdfrwt beam="2">  1        2 0.20618458E-01 0.32075229E+02</pdfrwt>
<pdfrwt beam="1">  1        1 0.23179171E+00 0.67892300E+02</pdfrwt>
<totfact> 0.27175299E+02</totfact>
</mgrwt>
</event>
<event>
 7    1  0.7037933E-004  0.6957242E+02  0.7546771E-02  0.1363733E+00
          1   -1    0    0  502    0 -0.00000000000E+00  0.00000000000E+00  0.13228661850E+03  0.13228661850E+03  0.00000000000E+00 0. -1.
          2   -1    0    0  503    0  0.00000000000E+00 -0.00000000000E+00 -0.84452297128E+03  0.84452297128E+03  0.00000000000E+00 0. -1.
         25    2    1    2    0    0 -0.14546634936E+02 -0.68095768042E+02 -0.44451083101E+02  0.14983366754E+03  0.12500236368E+03 0.  0.
          4    1    3    3  501    0  0.54084009799E+02 -0.44351807724E+02 -0.15556932191E+02  0.71664454254E+02  0.12700000000E+01 0. -1.
         -4    1    3    3    0  501 -0.68630644735E+02 -0.23743960318E+02 -0.28894150910E+02  0.78169213282E+02  0.12700000000E+01 0. -1.
          2    1    1    2  502    0  0.68936307954E+02  0.24712762432E+02  0.60735536406E+02  0.95140635713E+02  0.00000000000E+00 0. -1.
          1    1    1    2  503    0 -0.54389673018E+02  0.43383005610E+02 -0.72852080609E+03  0.73183528653E+03  0.00000000000E+00 0. -1.
<mgrwt>
<rscale>  0 0.68940759E+02</rscale>
<asrwt>0</asrwt>
<pdfrwt beam="2">  1        2 0.12992661E+00 0.69572421E+02</pdfrwt>
<pdfrwt beam="1">  1        1 0.20351788E-01 0.68314833E+02</pdfrwt>
<totfact> 0.11342342E+03</totfact>
</mgrwt>
</event>
<event>
 7    1  0.7037933E-004  0.9958163E+02  0.7546771E-02  0.1349536E+00
          1   -1    0    0  503    0  0.00000000000E+00  0.00000000000E+00  0.10053273862E+04  0.10053273862E+04  0.00000000000E+00 0.  1.
         -1   -1    0    0    0  501 -0.00000000000E+00 -0.00000000000E+00 -0.30617975025E+02  0.30617975025E+02  0.00000000000E+00 0. -1.
         25    2    1    2    0    0  0.64895065012E+02 -0.10458730996E+03  0.33503190308E+03  0.37818243877E+03  0.12500282415E+03 0.  0.
          4    1    3    3  502    0  0.28806565492E+02 -0.28086107430E+02  0.88563909001E+01  0.41215242397E+02  0.12700000000E+01 0.  1.
         -4    1    3    3    0  502  0.36088499520E+02 -0.76501202535E+02  0.32617551218E+03  0.33696719638E+03  0.12700000000E+01 0.  1.
          2    1    1    2  503    0 -0.80334724614E+02  0.53041858765E+02  0.47002266743E+03  0.47977954797E+03  0.00000000000E+00 0.  1.
         -2    1    1    2    0  501  0.15439659602E+02  0.51545451200E+02  0.16965484064E+03  0.17798337445E+03  0.00000000000E+00 0. -1.
<mgrwt>
<rscale>  0 0.73200430E+02</rscale>
<asrwt>0</asrwt>
<pdfrwt beam="1">  1        1 0.15466573E+00 0.99581630E+02</pdfrwt>
<pdfrwt beam="2">  1       -1 0.47104585E-02 0.53808146E+02</pdfrwt>
<totfact> 0.27913688E+03</totfact>
</mgrwt>
</event>
<event>
 7    1  0.7037933E-004  0.1958876E+03  0.7546771E-02  0.1365373E+00
          1   -1    0    0  502    0 -0.00000000000E+00  0.00000000000E+00  0.57023618700E+03  0.57023618700E+03  0.00000000000E+00 0. -1.
          2   -1    0    0  503    0  0.00000000000E+00 -0.00000000000E+00 -0.17588827476E+04  0.17588827476E+04  0.00000000000E+00 0. -1.
         25    2    1    2    0    0 -0.17773138253E+03  0.12574370022E+03  0.39211145900E+03  0.46559294530E+03  0.12500188778E+03 0.  0.
          4    1    3    3  501    0 -0.12239781369E+03  0.10250647187E+03  0.36756047008E+03  0.40073821085E+03  0.12700000000E+01 0.  1.
         -4    1    3    3    0  501 -0.55333568848E+02  0.23237228353E+02  0.24550988914E+02  0.64854734443E+02  0.12700000000E+01 0.  1.
          2    1    1    2  502    0  0.23222686539E+02 -0.57881579201E+01  0.13477184166E+03  0.13688040490E+03  0.00000000000E+00 0. -1.
          1    1    1    2  503    0  0.15450869600E+03 -0.11995554230E+03 -0.17155298612E+04  0.17266455844E+04  0.00000000000E+00 0. -1.
<mgrwt>
<rscale>  0 0.68470489E+02</rscale>
<asrwt>0</asrwt>
<pdfrwt beam="2">  1        2 0.27059734E+00 0.19588758E+03</pdfrwt>
<pdfrwt beam="1">  1        1 0.87728645E-01 0.23933156E+02</pdfrwt>
<totfact> 0.57124567E+01</totfact>
</mgrwt>
</event>
<event>
 7    1  0.7037933E-004  0.8439214E+02  0.7546771E-02  0.1370906E+00
         -1   -1    0    0    0  501 -0.00000000000E+00  0.00000000000E+00  0.96607314912E+02  0.96607314912E+02  0.00000000000E+00 0.  1.
          1   -1    0    0  503    0  0.00000000000E+00 -0.00000000000E+00 -0.13398518080E+04  0.13398518080E+04  0.00000000000E+00 0. -1.
         25    2    1    2    0    0  0.28154898473E+02  0.56469283797E+02 -0.25934634717E+03  0.29475615018E+03  0.12505671496E+03 0.  0.
          4    1    3    3  502    0  0.38829871956E+02  0.59849906541E+02 -0.26998718787E+03  0.27925698699E+03  0.12700000000E+01 0. -1.
         -4    1    3    3    0  502 -0.10674973483E+02 -0.33806227441E+01  0.10640840695E+02  0.15499163194E+02  0.12700000000E+01 0. -1.
          2    1    1    2  503    0  0.50050457776E+02 -0.17612414534E+02 -0.10377508908E+04  0.10391064223E+04  0.00000000000E+00 0. -1.
         -2    1    1    2    0  501 -0.78205356248E+02 -0.38856869263E+02  0.53852744877E+02  0.10259655046E+03  0.00000000000E+00 0.  1.
<mgrwt>
<rscale>  0 0.66916014E+02</rscale>
<asrwt>0</asrwt>
<pdfrwt beam="2">  1        1 0.20613105E+00 0.53058887E+02</pdfrwt>
<pdfrwt beam="1">  1       -1 0.14862664E-01 0.84392138E+02</pdfrwt>
<totfact> 0.32827377E+02</totfact>
</mgrwt>
</event>
<event>
 7    1  0.7037933E-004  0.1907342E+03  0.7546771E-02  0.1263614E+00
          2   -1    0    0  503    0  0.00000000000E+00  0.00000000000E+00  0.32044614234E+04  0.32044614234E+04  0.00000000000E+00 0. -1.
          1   -1    0    0  502    0 -0.00000000000E+00 -0.00000000000E+00 -0.17276658107E+04  0.17276658107E+04  0.00000000000E+00 0. -1.
         25    2    1    2    0    0  0.11437513556E+03 -0.12225756414E+03  0.37206893630E+03  0.42671906126E+03  0.12500112104E+03 0.  0.
          4    1    3    3  501    0  0.25247108289E+02  0.50108042969E+01  0.16936473831E+03  0.17131419124E+03  0.12700000000E+01 0.  1.
         -4    1    3    3    0  501  0.89128027268E+02 -0.12726836844E+03  0.20270419799E+03  0.25540487002E+03  0.12700000000E+01 0.  1.
          2    1    1    2  502    0  0.55270526304E+02  0.27142480772E+02 -0.16964102332E+04  0.16975273855E+04  0.00000000000E+00 0. -1.
          1    1    1    2  503    0 -0.16964566186E+03  0.95115083368E+02  0.28011369095E+04  0.28078807873E+04  0.00000000000E+00 0. -1.
<mgrwt>
<rscale>  0 0.10837231E+03</rscale>
<asrwt>0</asrwt>
<pdfrwt beam="1">  1        2 0.49299406E+00 0.19073419E+03</pdfrwt>
<pdfrwt beam="2">  1        1 0.26579474E+00 0.61575525E+02</pdfrwt>
<totfact> 0.13568667E+00</totfact>
</mgrwt>
</event>
<event>
 7    1  0.7037933E-004  0.6244701E+02  0.7546771E-02  0.1393346E+00
          1   -1    0    0  502    0 -0.00000000000E+00  0.00000000000E+00  0.27054884553E+03  0.27054884553E+03  0.00000000000E+00 0. -1.
          2   -1    0    0  503    0  0.00000000000E+00 -0.00000000000E+00 -0.25221231838E+03  0.25221231838E+03  0.00000000000E+00 0. -1.
         25    2    1    2    0    0  0.10162445949E+03 -0.35413216787E+02 -0.69823928700E+02  0.17911602319E+03  0.12500216820E+03 0.  0.
          4    1    3    3  501    0 -0.77989774519E+01  0.33171226910E+02 -0.25482271466E+02  0.42568925322E+02  0.12700000000E+01 0.  1.
         -4    1    3    3    0  501  0.10942343695E+03 -0.68584443696E+02 -0.44341657234E+02  0.13654709787E+03  0.12700000000E+01 0.  1.
          2    1    1    2  502    0 -0.42504460937E+02  0.44047761870E+02  0.20417304098E+03  0.21315127302E+03  0.00000000000E+00 0. -1.
          1    1    1    2  503    0 -0.59119998557E+02 -0.86345450830E+01 -0.11601258514E+03  0.13049386770E+03  0.00000000000E+00 0. -1.
<mgrwt>
<rscale>  0 0.61082196E+02</rscale>
<asrwt>0</asrwt>
<pdfrwt beam="2">  1        2 0.38801895E-01 0.59747214E+02</pdfrwt>
<pdfrwt beam="1">  1        1 0.41622899E-01 0.62447007E+02</pdfrwt>
<totfact> 0.17469739E+03</totfact>
</mgrwt>
</event>
<event>
 7    1  0.7037933E-004  0.6470470E+02  0.7546771E-02  0.1467532E+00
          2   -1    0    0  503    0  0.00000000000E+00  0.00000000000E+00  0.23306509962E+04  0.23306509962E+04  0.00000000000E+00 0. -1.
          1   -1    0    0  502    0 -0.00000000000E+00 -0.00000000000E+00 -0.11009588281E+04  0.11009588281E+04  0.00000000000E+00 0. -1.
         25    2    1    2    0    0 -0.53004633732E+02  0.62772687315E+02 -0.34852534488E+02  0.15358975009E+03  0.12500084281E+03 0.  0.
          4    1    3    3  501    0 -0.43520785593E+02  0.94983484799E+02 -0.51045921369E+02  0.11628938108E+03  0.12700000000E+01 0.  1.
         -4    1    3    3    0  501 -0.94838481396E+01 -0.32210797484E+02  0.16193386881E+02  0.37300369016E+02  0.12700000000E+01 0.  1.
          2    1    1    2  502    0 -0.41671546921E+01 -0.32592975347E+02 -0.10060093689E+04  0.10065458348E+04  0.00000000000E+00 0. -1.
          1    1    1    2  503    0  0.57171788424E+02 -0.30179711968E+02  0.22705540715E+04  0.22714742393E+04  0.00000000000E+00 0. -1.
<mgrwt>
<rscale>  0 0.46109498E+02</rscale>
<asrwt>0</asrwt>
<pdfrwt beam="1">  1        2 0.35856169E+00 0.64704700E+02</pdfrwt>
<pdfrwt beam="2">  1        1 0.16937828E+00 0.32858290E+02</pdfrwt>
<totfact> 0.12779502E+01</totfact>
</mgrwt>
</event>
<event>
 7    1  0.7037933E-004  0.1413379E+03  0.7546771E-02  0.1286721E+00
          1   -1    0    0  502    0 -0.00000000000E+00  0.00000000000E+00  0.31377362396E+02  0.31377362396E+02  0.00000000000E+00 0. -1.
          2   -1    0    0  503    0  0.00000000000E+00 -0.00000000000E+00 -0.24309394076E+04  0.24309394076E+04  0.00000000000E+00 0. -1.
         25    2    1    2    0    0  0.11817285290E+03 -0.11492633640E+03 -0.73577812444E+03  0.76430832303E+03  0.12499951319E+03 0.  0.
          4    1    3    3  501    0  0.31624730841E+02 -0.40003550763E+02 -0.49586115661E+03  0.49847799069E+03  0.12700000000E+01 0. -1.
         -4    1    3    3    0  501  0.86548122058E+02 -0.74922785637E+02 -0.23991696783E+03  0.26583033234E+03  0.12700000000E+01 0. -1.
          2    1    1    2  502    0 -0.52423607142E+02  0.12540750236E+03 -0.26670535606E+03  0.29934432212E+03  0.00000000000E+00 0. -1.
          1    1    1    2  503    0 -0.65749245757E+02 -0.10481165962E+02 -0.13970785647E+04  0.13986641248E+04  0.00000000000E+00 0. -1.
<mgrwt>
<rscale>  0 0.97006148E+02</rscale>
<asrwt>0</asrwt>
<pdfrwt beam="2">  1        2 0.37399073E+00 0.66579412E+02</pdfrwt>
<pdfrwt beam="1">  1        1 0.48272859E-02 0.14133788E+03</pdfrwt>
<totfact> 0.11761721E+03</totfact>
</mgrwt>
</event>
<event>
 7    1  0.7037933E-004  0.3239919E+02  0.7546771E-02  0.1609852E+00
          1   -1    0    0  503    0  0.00000000000E+00  0.00000000000E+00  0.12845312473E+03  0.12845312473E+03  0.00000000000E+00 0. -1.
         -1   -1    0    0    0  501 -0.00000000000E+00 -0.00000000000E+00 -0.49637937511E+03  0.49637937511E+03  0.00000000000E+00 0.  1.
         25    2    1    2    0    0  0.10236603788E+02 -0.56789506097E+02 -0.89453817103E+02  0.16418327738E+03  0.12499730844E+03 0.  0.
          4    1    3    3  502    0  0.39148022407E+02  0.26763023722E+02 -0.18911154484E+02  0.51069283929E+02  0.12700000000E+01 0.  1.
         -4    1    3    3    0  502 -0.28911418619E+02 -0.83552529820E+02 -0.70542662619E+02  0.11311399345E+03  0.12700000000E+01 0.  1.
          2    1    1    2  503    0 -0.63763028844E+01  0.25092320157E+02  0.88541416190E+02  0.92248924927E+02  0.00000000000E+00 0. -1.
         -2    1    1    2    0  501 -0.38603009038E+01  0.31697185940E+02 -0.36701384946E+03  0.36840029752E+03  0.00000000000E+00 0.  1.
<mgrwt>
<rscale>  0 0.28962191E+02</rscale>
<asrwt>0</asrwt>
<pdfrwt beam="1">  1        1 0.19762019E-01 0.25889800E+02</pdfrwt>
<pdfrwt beam="2">  1       -1 0.76366059E-01 0.32399188E+02</pdfrwt>
<totfact> 0.45249867E+02</totfact>
</mgrwt>
</event>
<event>
 7    1  0.7037933E-004  0.7848997E+02  0.7546771E-02  0.1455188E+00
          2   -1    0    0  503    0  0.00000000000E+00  0.00000000000E+00  0.16490110258E+04  0.16490110258E+04  0.00000000000E+00 0. -1.
         -2   -1    0    0    0  501 -0.00000000000E+00 -0.00000000000E+00 -0.95779394680E+02  0.95779394680E+02  0.00000000000E+00 0.  1.
         25    2    1    2    0    0  0.16225085083E+02  0.10397635987E+03  0.47069688026E+03  0.49824705144E+03  0.12498093608E+03 0.  0.
          4    1    3    3  502    0 -0.13238251308E+02  0.12094021228E+03  0.29189827835E+03  0.31624042128E+03  0.12700000000E+01 0. -1.
         -4    1    3    3    0  502  0.29463336391E+02 -0.16963852405E+02  0.17879860190E+03  0.18200663016E+03  0.12700000000E+01 0. -1.
          1    1    1    2  503    0 -0.72743516692E+01 -0.75737627368E+02  0.11605768079E+04  0.11630681972E+04  0.00000000000E+00 0. -1.
         -1    1    1    2    0  501 -0.89507334135E+01 -0.28238732506E+02 -0.78042057033E+02  0.83475171807E+02  0.00000000000E+00 0.  1.
<mgrwt>
<rscale>  0 0.48219647E+02</rscale>
<asrwt>0</asrwt>
<pdfrwt beam="1">  1        2 0.25369398E+00 0.78489973E+02</pdfrwt>
<pdfrwt beam="2">  1       -2 0.14735293E-01 0.29623329E+02</pdfrwt>
<totfact> 0.39759759E+02</totfact>
</mgrwt>
</event>
<event>
 7    1  0.7037933E-004  0.3496388E+02  0.7546771E-02  0.1618263E+00
          2   -1    0    0  503    0  0.00000000000E+00  0.00000000000E+00  0.79470467126E+03  0.79470467126E+03  0.00000000000E+00 0. -1.
          1   -1    0    0  502    0 -0.00000000000E+00 -0.00000000000E+00 -0.12113194226E+03  0.12113194226E+03  0.00000000000E+00 0. -1.
         25    2    1    2    0    0 -0.44706608992E+02 -0.34701651136E+02  0.26980381559E+03  0.30268964782E+03  0.12499615398E+03 0.  0.
          4    1    3    3  501    0  0.12132114152E+02 -0.33087392420E+02  0.23137821318E+03  0.23405011038E+03  0.12700000000E+01 0. -1.
         -4    1    3    3    0  501 -0.56838723144E+02 -0.16142587159E+01  0.38425602407E+02  0.68639537442E+02  0.12700000000E+01 0. -1.
          2    1    1    2  502    0  0.19963251559E+02  0.11070955044E+02 -0.10286073061E+03  0.10536331126E+03  0.00000000000E+00 0. -1.
          1    1    1    2  503    0  0.24743357433E+02  0.23630696091E+02  0.50662964401E+03  0.50778365445E+03  0.00000000000E+00 0. -1.
<mgrwt>
<rscale>  0 0.28251372E+02</rscale>
<asrwt>0</asrwt>
<pdfrwt beam="1">  1        2 0.12226225E+00 0.34963880E+02</pdfrwt>
<pdfrwt beam="2">  1        1 0.18635684E-01 0.22827559E+02</pdfrwt>
<totfact> 0.13221380E+03</totfact>
</mgrwt>
</event>
<event>
 7    1  0.7037933E-004  0.1710266E+03  0.7546771E-02  0.1255856E+00
          2   -1    0    0  503    0  0.00000000000E+00  0.00000000000E+00  0.20254273524E+04  0.20254273524E+04  0.00000000000E+00 0. -1.
          1   -1    0    0  502    0 -0.00000000000E+00 -0.00000000000E+00 -0.70062158666E+03  0.70062158666E+03  0.00000000000E+00 0. -1.
         25    2    1    2    0    0  0.66682887877E+02 -0.22171222207E+03 -0.76953355990E+02  0.27413446116E+03  0.12499986738E+03 0.  0.
          4    1    3    3  501    0  0.17630684448E+02  0.11653351577E+01  0.19525369096E+02  0.26363838462E+02  0.12700000000E+01 0.  1.
         -4    1    3    3    0  501  0.49052203429E+02 -0.22287755723E+03 -0.96478725086E+02  0.24777062270E+03  0.12700000000E+01 0.  1.
          2    1    1    2  502    0 -0.52331678532E+02  0.52481409354E+02 -0.51869593730E+03  0.52396410018E+03  0.00000000000E+00 0. -1.
          1    1    1    2  503    0 -0.14351209346E+02  0.16923081272E+03  0.19204550591E+04  0.19279503777E+04  0.00000000000E+00 0. -1.
<mgrwt>
<rscale>  0 0.11258548E+03</rscale>
<asrwt>0</asrwt>
<pdfrwt beam="1">  1        2 0.31160421E+00 0.17102665E+03</pdfrwt>
<pdfrwt beam="2">  1        1 0.10778794E+00 0.74114121E+02</pdfrwt>
<totfact> 0.30862627E+01</totfact>
</mgrwt>
</event>
<event>
 7    1  0.7037933E-004  0.8594609E+02  0.7546771E-02  0.1415119E+00
          2   -1    0    0  503    0  0.00000000000E+00  0.00000000000E+00  0.21564291873E+03  0.21564291873E+03  0.00000000000E+00 0. -1.
          1   -1    0    0  502    0 -0.00000000000E+00 -0.00000000000E+00 -0.10609941403E+04  0.10609941403E+04  0.00000000000E+00 0. -1.
         25    2    1    2    0    0 -0.87709091805E+02 -0.65274955827E+02 -0.75219106990E+03  0.77030491499E+03  0.12499820709E+03 0.  0.
          4    1    3    3  501    0 -0.77860218953E+01  0.25615312671E+02 -0.33054591309E+03  0.33163078859E+03  0.12700000000E+01 0. -1.
         -4    1    3    3    0  501 -0.79923069910E+02 -0.90890268498E+02 -0.42164515682E+03  0.43867412641E+03  0.12700000000E+01 0. -1.
          2    1    1    2  502    0  0.54125285690E+02  0.50787365385E+02 -0.29347005717E+03  0.30271038550E+03  0.00000000000E+00 0. -1.
          1    1    1    2  503    0  0.33583806115E+02  0.14487590442E+02  0.20030990550E+03  0.20362175854E+03  0.00000000000E+00 0. -1.
<mgrwt>
<rscale>  0 0.56067063E+02</rscale>
<asrwt>0</asrwt>
<pdfrwt beam="1">  1        2 0.33175833E-01 0.36575433E+02</pdfrwt>
<pdfrwt beam="2">  1        1 0.16322987E+00 0.85946093E+02</pdfrwt>
<totfact> 0.32006163E+02</totfact>
</mgrwt>
</event>
<event>
 7    1  0.7037933E-004  0.7696813E+02  0.7546771E-02  0.1393615E+00
          1   -1    0    0  502    0 -0.00000000000E+00  0.00000000000E+00  0.67009201916E+03  0.67009201916E+03  0.00000000000E+00 0. -1.
          2   -1    0    0  503    0  0.00000000000E+00 -0.00000000000E+00 -0.16391869415E+04  0.16391869415E+04  0.00000000000E+00 0. -1.
         25    2    1    2    0    0  0.29623393091E+02  0.31087247418E+01 -0.10894256831E+03  0.16846504208E+03  0.12499911051E+03 0.  0.
          4    1    3    3  501    0  0.96745335821E+01 -0.43570833322E+02  0.38031258641E+01  0.44811725952E+02  0.12700000000E+01 0.  1.
         -4    1    3    3    0  501  0.19948859509E+02  0.46679558064E+02 -0.11274569417E+03  0.12365331613E+03  0.12700000000E+01 0.  1.
          2    1    1    2  502    0 -0.75718675378E+02 -0.17770358150E+02  0.63757718515E+03  0.64230348781E+03  0.00000000000E+00 0. -1.
          1    1    1    2  503    0  0.46095282287E+02  0.14661633409E+02 -0.14977295392E+04  0.14985104307E+04  0.00000000000E+00 0. -1.
<mgrwt>
<rscale>  0 0.61016500E+02</rscale>
<asrwt>0</asrwt>
<pdfrwt beam="2">  1        2 0.25218260E+00 0.48370844E+02</pdfrwt>
<pdfrwt beam="1">  1        1 0.10309108E+00 0.76968129E+02</pdfrwt>
<totfact> 0.58129098E+01</totfact>
</mgrwt>
</event>
<event>
 7    1  0.7037933E-004  0.1441462E+03  0.7546771E-02  0.1371189E+00
          2   -1    0    0  503    0  0.00000000000E+00  0.00000000000E+00  0.48261823313E+03  0.48261823313E+03  0.00000000000E+00 0. -1.
         -2   -1    0    0    0  501 -0.00000000000E+00 -0.00000000000E+00 -0.97600278977E+02  0.97600278977E+02  0.00000000000E+00 0.  1.
         25    2    1    2    0    0 -0.11537759680E+03 -0.77923753066E+02  0.21354147498E+03  0.28391454188E+03  0.12499361750E+03 0.  0.
          4    1    3    3  502    0  0.27319424244E+02 -0.12365543875E+02  0.31958852905E+02  0.43843343798E+02  0.12700000000E+01 0. -1.
         -4    1    3    3    0  502 -0.14269702104E+03 -0.65558209190E+02  0.18158262208E+03  0.24007119808E+03  0.12700000000E+01 0. -1.
          3    1    1    2  503    0  0.13767118059E+03  0.56395753532E+02  0.20327455964E+03  0.25190153151E+03  0.00000000000E+00 0. -1.
         -1    1    1    2    0  501 -0.22293583792E+02  0.21527999534E+02 -0.31798080471E+02  0.44402438715E+02  0.00000000000E+00 0.  1.
<mgrwt>
<rscale>  0 0.66837655E+02</rscale>
<asrwt>0</asrwt>
<pdfrwt beam="1">  1        2 0.74248958E-01 0.14414616E+03</pdfrwt>
<pdfrwt beam="2">  1       -2 0.15015428E-01 0.30991267E+02</pdfrwt>
<totfact> 0.19883743E+03</totfact>
</mgrwt>
</event>
<event>
 7    1  0.7037933E-004  0.9325376E+02  0.7546771E-02  0.1443227E+00
         -2   -1    0    0    0  501 -0.00000000000E+00  0.00000000000E+00  0.13962201188E+04  0.13962201188E+04  0.00000000000E+00 0.  1.
          2   -1    0    0  503    0  0.00000000000E+00 -0.00000000000E+00 -0.37878494260E+03  0.37878494260E+03  0.00000000000E+00 0. -1.
         25    2    1    2    0    0  0.73001961834E+01 -0.84483353941E+02  0.31376628917E+03  0.34823239112E+03  0.12500313614E+03 0.  0.
          4    1    3    3  502    0 -0.49908759131E+02 -0.22996316528E+02  0.19613008672E+03  0.20368686415E+03  0.12700000000E+01 0.  1.
         -4    1    3    3    0  502  0.57208955314E+02 -0.61487037412E+02  0.11763620245E+03  0.14454552697E+03  0.12700000000E+01 0.  1.
          1    1    1    2  503    0 -0.34425476976E+02  0.86901913546E+02 -0.35533255955E+03  0.36742112612E+03  0.00000000000E+00 0. -1.
         -1    1    1    2    0  501  0.27125280793E+02 -0.24185596052E+01  0.10590014466E+04  0.10593515442E+04  0.00000000000E+00 0.  1.
<mgrwt>
<rscale>  0 0.50394141E+02</rscale>
<asrwt>0</asrwt>
<pdfrwt beam="2">  1        2 0.58274607E-01 0.93253762E+02</pdfrwt>
<pdfrwt beam="1">  1       -2 0.21480309E+00 0.27232890E+02</pdfrwt>
<totfact> 0.11887923E+01</totfact>
</mgrwt>
</event>
<event>
 7    1  0.7037933E-004  0.6875923E+02  0.7546771E-02  0.1384790E+00
          2   -1    0    0  503    0  0.00000000000E+00  0.00000000000E+00  0.10129179600E+03  0.10129179600E+03  0.00000000000E+00 0. -1.
         -2   -1    0    0    0  501 -0.00000000000E+00 -0.00000000000E+00 -0.20495378318E+03  0.20495378318E+03  0.00000000000E+00 0.  1.
         25    2    1    2    0    0  0.38174266324E+02 -0.82147625169E+02 -0.92535623815E+02  0.17998029918E+03  0.12499823794E+03 0.  0.
          4    1    3    3  502    0  0.77202334300E+01 -0.78933790209E+02  0.32735405846E+01  0.79388123853E+02  0.12700000000E+01 0. -1.
         -4    1    3    3    0  502  0.30454032894E+02 -0.32138349603E+01 -0.95809164400E+02  0.10059217533E+03  0.12700000000E+01 0. -1.
          1    1    1    2  503    0  0.17378594677E+02  0.65032660637E+02 -0.14108446935E+01  0.67329436246E+02  0.00000000000E+00 0. -1.
         -1    1    1    2    0  501 -0.55552861001E+02  0.17114964532E+02 -0.97155186746E+01  0.58935843758E+02  0.00000000000E+00 0.  1.
<mgrwt>
<rscale>  0 0.63221371E+02</rscale>
<asrwt>0</asrwt>
<pdfrwt beam="1">  1        2 0.15583353E-01 0.68759229E+02</pdfrwt>
<pdfrwt beam="2">  1       -2 0.31531351E-01 0.58129531E+02</pdfrwt>
<totfact> 0.31770210E+03</totfact>
</mgrwt>
</event>
<event>
 7    1  0.7037933E-004  0.3633901E+02  0.7546771E-02  0.1541651E+00
          2   -1    0    0  503    0  0.00000000000E+00  0.00000000000E+00  0.67508525593E+03  0.67508525593E+03  0.00000000000E+00 0. -1.
          1   -1    0    0  502    0 -0.00000000000E+00 -0.00000000000E+00 -0.23695949015E+02  0.23695949015E+02  0.00000000000E+00 0. -1.
         25    2    1    2    0    0 -0.47842280770E+01 -0.18197094861E+02  0.33870572846E+03  0.36152423463E+03  0.12499671450E+03 0.  0.
          4    1    3    3  501    0  0.59310639746E+02 -0.16589274549E+02  0.14730199737E+03  0.15966354420E+03  0.12700000000E+01 0.  1.
         -4    1    3    3    0  501 -0.64094867823E+02 -0.16078203118E+01  0.19140373108E+03  0.20186069043E+03  0.12700000000E+01 0.  1.
          2    1    1    2  502    0 -0.31433283699E+02  0.21166198684E+02  0.21012922422E+02  0.43331307384E+02  0.00000000000E+00 0. -1.
          1    1    1    2  503    0  0.36217511776E+02 -0.29691038236E+01  0.29167065604E+03  0.29392566293E+03  0.00000000000E+00 0. -1.
<mgrwt>
<rscale>  0 0.35795095E+02</rscale>
<asrwt>0</asrwt>
<pdfrwt beam="1">  1        2 0.10385926E+00 0.36339011E+02</pdfrwt>
<pdfrwt beam="2">  1        1 0.36455311E-02 0.35259320E+02</pdfrwt>
<totfact> 0.13045674E+04</totfact>
</mgrwt>
</event>
<event>
 7    1  0.7037933E-004  0.1486273E+03  0.7546771E-02  0.1324021E+00
          1   -1    0    0  502    0 -0.00000000000E+00  0.00000000000E+00  0.20644287207E+04  0.20644287207E+04  0.00000000000E+00 0. -1.
          2   -1    0    0  503    0  0.00000000000E+00 -0.00000000000E+00 -0.20680196845E+04  0.20680196845E+04  0.00000000000E+00 0. -1.
         25    2    1    2    0    0  0.70351225973E+02 -0.97635070439E+02  0.11479567103E+02  0.17389773469E+03  0.12500695859E+03 0.  0.
          4    1    3    3  501    0  0.51147031209E+02  0.14399845101E+01 -0.35784539899E+02  0.62451889905E+02  0.12700000000E+01 0.  1.
         -4    1    3    3    0  501  0.19204194764E+02 -0.99075054950E+02  0.47264107002E+02  0.11144584479E+03  0.12700000000E+01 0.  1.
          2    1    1    2  502    0 -0.16432330839E+02 -0.41913480514E+02  0.19686661585E+04  0.19691808462E+04  0.00000000000E+00 0. -1.
          1    1    1    2  503    0 -0.53918895134E+02  0.13954855095E+03 -0.19837366894E+04  0.19893698244E+04  0.00000000000E+00 0. -1.
<mgrwt>
<rscale>  0 0.81799374E+02</rscale>
<asrwt>0</asrwt>
<pdfrwt beam="2">  1        2 0.31815687E+00 0.14862732E+03</pdfrwt>
<pdfrwt beam="1">  1        1 0.31760442E+00 0.45019566E+02</pdfrwt>
<totfact> 0.38603434E+00</totfact>
</mgrwt>
</event>
<event>
 7    1  0.7037933E-004  0.4075361E+02  0.7546771E-02  0.1577083E+00
          2   -1    0    0  503    0  0.00000000000E+00  0.00000000000E+00  0.27291983643E+03  0.27291983643E+03  0.00000000000E+00 0. -1.
         -2   -1    0    0    0  501 -0.00000000000E+00 -0.00000000000E+00 -0.12804143485E+03  0.12804143485E+03  0.00000000000E+00 0.  1.
         25    2    1    2    0    0  0.22303691907E+02 -0.17779187082E+02 -0.10173894518E+02  0.12861622845E+03  0.12500028770E+03 0.  0.
          4    1    3    3  502    0  0.41622196586E+02  0.34475039596E+02 -0.38243819121E+02  0.66220376054E+02  0.12700000000E+01 0.  1.
         -4    1    3    3    0  502 -0.19318504679E+02 -0.52254226678E+02  0.28069924604E+02  0.62395852394E+02  0.12700000000E+01 0.  1.
          1    1    1    2  503    0 -0.94435047358E+01 -0.23266826935E+02  0.20494103207E+03  0.20647361004E+03  0.00000000000E+00 0. -1.
         -1    1    1    2    0  501 -0.12860187171E+02  0.41046014017E+02 -0.49888735976E+02  0.65871432792E+02  0.00000000000E+00 0.  1.
<mgrwt>
<rscale>  0 0.31989586E+02</rscale>
<asrwt>0</asrwt>
<pdfrwt beam="1">  1        2 0.41987667E-01 0.25110257E+02</pdfrwt>
<pdfrwt beam="2">  1       -2 0.19698682E-01 0.40753609E+02</pdfrwt>
<totfact> 0.23509444E+03</totfact>
</mgrwt>
</event>
<event>
 7    1  0.7037933E-004  0.1353152E+03  0.7546771E-02  0.1228047E+00
          2   -1    0    0  503    0  0.00000000000E+00  0.00000000000E+00  0.10474809941E+04  0.10474809941E+04  0.00000000000E+00 0. -1.
          1   -1    0    0  502    0 -0.00000000000E+00 -0.00000000000E+00 -0.28497670592E+03  0.28497670592E+03  0.00000000000E+00 0. -1.
         25    2    1    2    0    0  0.69061741060E+02  0.54761592651E+02  0.10098183635E+03  0.18325235405E+03  0.12496294604E+03 0.  0.
          4    1    3    3  501    0  0.38629400054E+02 -0.28046919997E+02  0.79017802488E+02  0.92327061471E+02  0.12700000000E+01 0.  1.
         -4    1    3    3    0  501  0.30432341006E+02  0.82808512649E+02  0.21964033867E+02  0.90925292575E+02  0.12700000000E+01 0.  1.
          2    1    1    2  502    0  0.45627469843E+02 -0.12739046576E+03 -0.21946097101E+03  0.25782419314E+03  0.00000000000E+00 0. -1.
          3    1    1    2  503    0 -0.11468921090E+03  0.72628873108E+02  0.88098342285E+03  0.89138115284E+03  0.00000000000E+00 0. -1.
<mgrwt>
<rscale>  0 0.12960249E+03</rscale>
<asrwt>0</asrwt>
<pdfrwt beam="1">  1        2 0.16115092E+00 0.12413097E+03</pdfrwt>
<pdfrwt beam="2">  1        1 0.43842571E-01 0.13531518E+03</pdfrwt>
<totfact> 0.32686780E+02</totfact>
</mgrwt>
</event>
<event>
 7    1  0.7037933E-004  0.8086378E+02  0.7546771E-02  0.1354655E+00
          1   -1    0    0  502    0 -0.00000000000E+00  0.00000000000E+00  0.17067480426E+04  0.17067480426E+04  0.00000000000E+00 0. -1.
          2   -1    0    0  503    0  0.00000000000E+00 -0.00000000000E+00 -0.96990317461E+03  0.96990317461E+03  0.00000000000E+00 0. -1.
         25    2    1    2    0    0 -0.43272922057E+02  0.10822144304E+02 -0.19024544132E+03  0.23196240858E+03  0.12499426572E+03 0.  0.
          4    1    3    3  501    0 -0.15963058104E+02  0.96169675600E+01 -0.20150625695E+03  0.20237018006E+03  0.12700000000E+01 0.  1.
         -4    1    3    3    0  501 -0.27309863953E+02  0.12051767438E+01  0.11260815630E+02  0.29592228519E+02  0.12700000000E+01 0.  1.
          2    1    1    2  502    0 -0.31064136362E+02 -0.55314654221E+02  0.16828170638E+04  0.16840124589E+04  0.00000000000E+00 0. -1.
          1    1    1    2  503    0  0.74337058419E+02  0.44492509917E+02 -0.75572675445E+03  0.76067634976E+03  0.00000000000E+00 0. -1.
<mgrwt>
<rscale>  0 0.71624265E+02</rscale>
<asrwt>0</asrwt>
<pdfrwt beam="2">  1        2 0.14921587E+00 0.80863783E+02</pdfrwt>
<pdfrwt beam="1">  1        1 0.26257662E+00 0.63440457E+02</pdfrwt>
<totfact> 0.24372508E+01</totfact>
</mgrwt>
</event>
<event>
 7    1  0.7037933E-004  0.8716967E+02  0.7546771E-02  0.1360521E+00
          1   -1    0    0  502    0 -0.00000000000E+00  0.00000000000E+00  0.63461429830E+03  0.63461429830E+03  0.00000000000E+00 0. -1.
          2   -1    0    0  503    0  0.00000000000E+00 -0.00000000000E+00 -0.58648521389E+02  0.58648521389E+02  0.00000000000E+00 0. -1.
         25    2    1    2    0    0  0.20652017052E+02 -0.31934753604E+02  0.59679866529E+02  0.14368161753E+03  0.12504553751E+03 0.  0.
          4    1    3    3  501    0  0.73654207754E+02 -0.16650274339E+02  0.34231684230E+02  0.82919208031E+02  0.12700000000E+01 0.  1.
         -4    1    3    3    0  501 -0.53002190701E+02 -0.15284479265E+02  0.25448182300E+02  0.60762409497E+02  0.12700000000E+01 0.  1.
          2    1    1    2  502    0 -0.65508938973E+02  0.65476298451E+02  0.46334089335E+03  0.47250751337E+03  0.00000000000E+00 0. -1.
          1    1    1    2  503    0  0.44856921921E+02 -0.33541544847E+02  0.52945017039E+02  0.77073688793E+02  0.00000000000E+00 0. -1.
<mgrwt>
<rscale>  0 0.69874307E+02</rscale>
<asrwt>0</asrwt>
<pdfrwt beam="2">  1        2 0.90228499E-02 0.56010523E+02</pdfrwt>
<pdfrwt beam="1">  1        1 0.97632964E-01 0.87169671E+02</pdfrwt>
<totfact> 0.30190790E+03</totfact>
</mgrwt>
</event>
<event>
 7    1  0.7037933E-004  0.8916762E+02  0.7546771E-02  0.1380697E+00
         -2   -1    0    0    0  501 -0.00000000000E+00  0.00000000000E+00  0.37322045846E+03  0.37322045846E+03  0.00000000000E+00 0.  1.
          2   -1    0    0  503    0  0.00000000000E+00 -0.00000000000E+00 -0.36031356049E+03  0.36031356049E+03  0.00000000000E+00 0. -1.
         25    2    1    2    0    0  0.52625567976E+02 -0.68405643210E+02  0.21731444907E+03  0.26513934439E+03  0.12499807896E+03 0.  0.
          4    1    3    3  502    0  0.66765711416E+02 -0.15780518082E+02  0.19414280675E+03  0.20591194061E+03  0.12700000000E+01 0. -1.
         -4    1    3    3    0  502 -0.14140143440E+02 -0.52625125129E+02  0.23171642317E+02  0.59227403784E+02  0.12700000000E+01 0. -1.
          1    1    1    2  503    0 -0.11038271463E+02  0.88848065080E+02 -0.32610557287E+03  0.33817253993E+03  0.00000000000E+00 0. -1.
         -1    1    1    2    0  501 -0.41587296513E+02 -0.20442421869E+02  0.12169802177E+03  0.13022213463E+03  0.00000000000E+00 0.  1.
<mgrwt>
<rscale>  0 0.64280851E+02</rscale>
<asrwt>0</asrwt>
<pdfrwt beam="2">  1        2 0.55432855E-01 0.89167622E+02</pdfrwt>
<pdfrwt beam="1">  1       -2 0.57418532E-01 0.46340003E+02</pdfrwt>
<totfact> 0.26421007E+02</totfact>
</mgrwt>
</event>
<event>
 7    1  0.7037933E-004  0.1290122E+03  0.7546771E-02  0.1357684E+00
          1   -1    0    0  502    0 -0.00000000000E+00  0.00000000000E+00  0.67214545122E+03  0.67214545122E+03  0.00000000000E+00 0. -1.
          2   -1    0    0  503    0  0.00000000000E+00 -0.00000000000E+00 -0.94641399306E+02  0.94641399306E+02  0.00000000000E+00 0. -1.
         25    2    1    2    0    0 -0.14862635712E+03  0.42718328000E+02  0.35859593053E+03  0.41003888616E+03  0.12500478868E+03 0.  0.
          4    1    3    3  501    0 -0.48028121152E+02 -0.39697682740E+00  0.16407349199E+02  0.50770779192E+02  0.12700000000E+01 0. -1.
         -4    1    3    3    0  501 -0.10059823597E+03  0.43115304828E+02  0.34218858134E+03  0.35926810697E+03  0.12700000000E+01 0. -1.
          2    1    1    2  502    0  0.11438560661E+03 -0.24557418032E+02  0.26904237658E+03  0.29337848281E+03  0.00000000000E+00 0. -1.
          1    1    1    2  503    0  0.34240750508E+02 -0.18160909969E+02 -0.50134255206E+02  0.63369481545E+02  0.00000000000E+00 0. -1.
<mgrwt>
<rscale>  0 0.70713246E+02</rscale>
<asrwt>0</asrwt>
<pdfrwt beam="2">  1        2 0.14560216E-01 0.38758840E+02</pdfrwt>
<pdfrwt beam="1">  1        1 0.10340699E+00 0.12901220E+03</pdfrwt>
<totfact> 0.15323768E+03</totfact>
</mgrwt>
</event>
<event>
 7    1  0.7037933E-004  0.4766740E+02  0.7546771E-02  0.1482582E+00
          2   -1    0    0  503    0  0.00000000000E+00  0.00000000000E+00  0.32312102679E+03  0.32312102679E+03  0.00000000000E+00 0. -1.
          1   -1    0    0  502    0 -0.00000000000E+00 -0.00000000000E+00 -0.20084222955E+04  0.20084222955E+04  0.00000000000E+00 0. -1.
         25    2    1    2    0    0 -0.54518991658E+02 -0.41448082006E+02 -0.73283475045E+03  0.74656869152E+03  0.12501110246E+03 0.  0.
          4    1    3    3  501    0 -0.11376015612E+02 -0.13612132801E+02 -0.64179323378E+03  0.64203961849E+03  0.12700000000E+01 0. -1.
         -4    1    3    3    0  501 -0.43142976046E+02 -0.27835949205E+02 -0.91041516678E+02  0.10452907303E+03  0.12700000000E+01 0. -1.
          2    1    1    2  502    0  0.69133028562E+01  0.39473803135E+02 -0.12666072691E+04  0.12672410777E+04  0.00000000000E+00 0. -1.
          1    1    1    2  503    0  0.47605688802E+02  0.19742788718E+01  0.31414075085E+03  0.31773355304E+03  0.00000000000E+00 0. -1.
<mgrwt>
<rscale>  0 0.43706439E+02</rscale>
<asrwt>0</asrwt>
<pdfrwt beam="1">  1        2 0.49710927E-01 0.47667401E+02</pdfrwt>
<pdfrwt beam="2">  1        1 0.30898804E+00 0.40074617E+02</pdfrwt>
<totfact> 0.57886892E+01</totfact>
</mgrwt>
</event>
<event>
 7    1  0.7037933E-004  0.9746815E+02  0.7546771E-02  0.1374301E+00
          1   -1    0    0  502    0 -0.00000000000E+00  0.00000000000E+00  0.10410369504E+04  0.10410369504E+04  0.00000000000E+00 0. -1.
          2   -1    0    0  503    0  0.00000000000E+00 -0.00000000000E+00 -0.13761531739E+03  0.13761531739E+03  0.00000000000E+00 0. -1.
         25    2    1    2    0    0 -0.87813964515E+02 -0.10652708423E+03  0.23546029847E+03  0.30021021047E+03  0.12500122509E+03 0.  0.
          4    1    3    3  501    0 -0.26867772456E+02 -0.28703877278E+02 -0.55377931542E+01  0.39724926942E+02  0.12700000000E+01 0. -1.
         -4    1    3    3    0  501 -0.60946192059E+02 -0.77823206950E+02  0.24099809163E+03  0.26048528353E+03  0.12700000000E+01 0. -1.
          2    1    1    2  502    0  0.55345520167E+02  0.75844487250E+02  0.76545983092E+03  0.77119664522E+03  0.00000000000E+00 0. -1.
          1    1    1    2  503    0  0.32468444348E+02  0.30682596978E+02 -0.97498496342E+02  0.10724541214E+03  0.00000000000E+00 0. -1.
<mgrwt>
<rscale>  0 0.65985863E+02</rscale>
<asrwt>0</asrwt>
<pdfrwt beam="2">  1        2 0.21171588E-01 0.44672381E+02</pdfrwt>
<pdfrwt beam="1">  1        1 0.16015953E+00 0.97468146E+02</pdfrwt>
<totfact> 0.52964828E+02</totfact>
</mgrwt>
</event>
<event>
 7    1  0.7037933E-004  0.5271543E+02  0.7546771E-02  0.1432526E+00
          1   -1    0    0  502    0 -0.00000000000E+00  0.00000000000E+00  0.49893317659E+03  0.49893317659E+03  0.00000000000E+00 0. -1.
          2   -1    0    0  503    0  0.00000000000E+00 -0.00000000000E+00 -0.50174285550E+03  0.50174285550E+03  0.00000000000E+00 0. -1.
         25    2    1    2    0    0  0.33712521081E+02 -0.17643913437E+02 -0.27342273405E+03  0.30304135219E+03  0.12500491143E+03 0.  0.
          4    1    3    3  501    0  0.47225838657E+02  0.43991405240E+02 -0.10589251401E+03  0.12401758341E+03  0.12700000000E+01 0.  1.
         -4    1    3    3    0  501 -0.13513317576E+02 -0.61635318677E+02 -0.16753022005E+03  0.17902376878E+03  0.12700000000E+01 0.  1.
          2    1    1    2  502    0  0.49869191105E+01  0.52673093174E+02  0.47945641444E+03  0.48236684945E+03  0.00000000000E+00 0. -1.
          1    1    1    2  503    0 -0.38699440191E+02 -0.35029179737E+02 -0.20884335929E+03  0.21526783045E+03  0.00000000000E+00 0. -1.
<mgrwt>
<rscale>  0 0.52456361E+02</rscale>
<asrwt>0</asrwt>
<pdfrwt beam="2">  1        2 0.77191208E-01 0.52198564E+02</pdfrwt>
<pdfrwt beam="1">  1        1 0.76758951E-01 0.52715430E+02</pdfrwt>
<totfact> 0.40787861E+02</totfact>
</mgrwt>
</event>
<event>
 7    1  0.7037933E-004  0.4496961E+02  0.7546771E-02  0.1505713E+00
          2   -1    0    0  503    0  0.00000000000E+00  0.00000000000E+00  0.39958583675E+03  0.39958583675E+03  0.00000000000E+00 0. -1.
          1   -1    0    0  502    0 -0.00000000000E+00 -0.00000000000E+00 -0.25253936482E+03  0.25253936482E+03  0.00000000000E+00 0. -1.
         25    2    1    2    0    0  0.22054658865E+02  0.43648028712E+01  0.12233165265E+03  0.17634630314E+03  0.12501010322E+03 0.  0.
          4    1    3    3  501    0  0.68657754140E+02 -0.24766205970E+01  0.10629739282E+03  0.12657317834E+03  0.12700000000E+01 0. -1.
         -4    1    3    3    0  501 -0.46603095275E+02  0.68414234681E+01  0.16034259829E+02  0.49773124802E+02  0.12700000000E+01 0. -1.
          2    1    1    2  502    0 -0.20574889217E+02 -0.40524362947E+02 -0.22190834726E+03  0.22651460139E+03  0.00000000000E+00 0. -1.
          1    1    1    2  503    0 -0.14797696483E+01  0.36159560076E+02  0.24662316655E+03  0.24926429704E+03  0.00000000000E+00 0. -1.
<mgrwt>
<rscale>  0 0.40341572E+02</rscale>
<asrwt>0</asrwt>
<pdfrwt beam="1">  1        2 0.61474744E-01 0.36189826E+02</pdfrwt>
<pdfrwt beam="2">  1        1 0.38852210E-01 0.44969612E+02</pdfrwt>
<totfact> 0.11769353E+03</totfact>
</mgrwt>
</event>
<event>
 7    1  0.7037933E-004  0.1513132E+03  0.7546771E-02  0.1311116E+00
         -2   -1    0    0    0  501 -0.00000000000E+00  0.00000000000E+00  0.10831954533E+04  0.10831954533E+04  0.00000000000E+00 0.  1.
          2   -1    0    0  503    0  0.00000000000E+00 -0.00000000000E+00 -0.48167548071E+03  0.48167548071E+03  0.00000000000E+00 0. -1.
         25    2    1    2    0    0 -0.18441528817E+03 -0.75259389115E+02 -0.94738577242E+02  0.25352502654E+03  0.12500626746E+03 0.  0.
          4    1    3    3  502    0  0.17519102429E+01 -0.40433795152E+02 -0.38691891918E+02  0.56005681677E+02  0.12700000000E+01 0.  1.
         -4    1    3    3    0  502 -0.18616719841E+03 -0.34825593964E+02 -0.56046685324E+02  0.19751934487E+03  0.12700000000E+01 0.  1.
          1    1    1    2  503    0  0.44193375116E+02  0.22620342322E+02 -0.29990456422E+03  0.30398598969E+03  0.00000000000E+00 0. -1.
         -1    1    1    2    0  501  0.14022191306E+03  0.52639046794E+02  0.99616311400E+03  0.10073599177E+04  0.00000000000E+00 0.  1.
<mgrwt>
<rscale>  0 0.86672415E+02</rscale>
<asrwt>0</asrwt>
<pdfrwt beam="2">  1        2 0.74103920E-01 0.49646090E+02</pdfrwt>
<pdfrwt beam="1">  1       -2 0.16664545E+00 0.15131317E+03</pdfrwt>
<totfact> 0.16657589E+01</totfact>
</mgrwt>
</event>
<event>
 7    1  0.7037933E-004  0.5097813E+02  0.7546771E-02  0.1445605E+00
         -2   -1    0    0    0  501 -0.00000000000E+00  0.00000000000E+00  0.40091958909E+02  0.40091958909E+02  0.00000000000E+00 0.  1.
          2   -1    0    0  503    0  0.00000000000E+00 -0.00000000000E+00 -0.23549429416E+04  0.23549429416E+04  0.00000000000E+00 0. -1.
         25    2    1    2    0    0 -0.47004361422E+02 -0.42002756801E+02 -0.18960790558E+04  0.19012405520E+04  0.12500483562E+03 0.  0.
          4    1    3    3  502    0 -0.40703882795E+02 -0.68122486757E+02 -0.17915119388E+04  0.17932691151E+04  0.12700000000E+01 0. -1.
         -4    1    3    3    0  502 -0.63004786270E+01  0.26119729956E+02 -0.10456711704E+03  0.10797143691E+03  0.12700000000E+01 0. -1.
          1    1    1    2  503    0  0.51293419129E+02 -0.67538996248E+01 -0.43811991207E+03  0.44116401412E+03  0.00000000000E+00 0. -1.
         -1    1    1    2    0  501 -0.42890577070E+01  0.48756656426E+02  0.19347985258E+02  0.52630334365E+02  0.00000000000E+00 0.  1.
<mgrwt>
<rscale>  0 0.49951196E+02</rscale>
<asrwt>0</asrwt>
<pdfrwt beam="2">  1        2 0.36229885E+00 0.50978135E+02</pdfrwt>
<pdfrwt beam="1">  1       -2 0.61679947E-02 0.48944944E+02</pdfrwt>
<totfact> 0.72898374E+02</totfact>
</mgrwt>
</event>
<event>
 7    1  0.7037933E-004  0.5726078E+02  0.7546771E-02  0.1492101E+00
          2   -1    0    0  503    0  0.00000000000E+00  0.00000000000E+00  0.11971256911E+04  0.11971256911E+04  0.00000000000E+00 0. -1.
          1   -1    0    0  502    0 -0.00000000000E+00 -0.00000000000E+00 -0.12636395231E+04  0.12636395231E+04  0.00000000000E+00 0. -1.
         25    2    1    2    0    0  0.18778439084E+02 -0.18590693967E+02 -0.10388701732E+03  0.16467002480E+03  0.12500184408E+03 0.  0.
          4    1    3    3  501    0  0.28972644565E+02  0.38643056190E+02 -0.93996342920E+02  0.10568644808E+03  0.12700000000E+01 0. -1.
         -4    1    3    3    0  501 -0.10194205481E+02 -0.57233750157E+02 -0.98906743981E+01  0.58983576718E+02  0.12700000000E+01 0. -1.
          2    1    1    2  502    0  0.25624746807E+02 -0.17821331940E+02 -0.11284385156E+04  0.11288701037E+04  0.00000000000E+00 0. -1.
          1    1    1    2  503    0 -0.44403185891E+02  0.36412025907E+02  0.11658117010E+04  0.11672250857E+04  0.00000000000E+00 0. -1.
<mgrwt>
<rscale>  0 0.42275985E+02</rscale>
<asrwt>0</asrwt>
<pdfrwt beam="1">  1        2 0.18417318E+00 0.57260781E+02</pdfrwt>
<pdfrwt beam="2">  1        1 0.19440608E+00 0.31212618E+02</pdfrwt>
<totfact> 0.37671416E+01</totfact>
</mgrwt>
</event>
<event>
 7    1  0.7037933E-004  0.1346285E+03  0.7546771E-02  0.1275176E+00
          1   -1    0    0  502    0 -0.00000000000E+00  0.00000000000E+00  0.24197720617E+03  0.24197720617E+03  0.00000000000E+00 0. -1.
          2   -1    0    0  503    0  0.00000000000E+00 -0.00000000000E+00 -0.26940396394E+03  0.26940396394E+03  0.00000000000E+00 0. -1.
         25    2    1    2    0    0  0.11922709516E+03 -0.13588938925E+03  0.54714052785E+01  0.21985470363E+03  0.12500051240E+03 0.  0.
          4    1    3    3  501    0 -0.15173553364E+02  0.38155837215E+01 -0.18785465577E+02  0.24480645779E+02  0.12700000000E+01 0.  1.
         -4    1    3    3    0  501  0.13440064852E+03 -0.13970497297E+03  0.24256870855E+02  0.19537405785E+03  0.12700000000E+01 0.  1.
          2    1    1    2  502    0 -0.44091859932E+02  0.11494327754E+03  0.85398039759E+02  0.14982948428E+03  0.00000000000E+00 0. -1.
          1    1    1    2  503    0 -0.75135235228E+02  0.20946111705E+02 -0.11829620281E+03  0.14169698221E+03  0.00000000000E+00 0. -1.
<mgrwt>
<rscale>  0 0.10247470E+03</rscale>
<asrwt>0</asrwt>
<pdfrwt beam="2">  1        2 0.41446764E-01 0.78000277E+02</pdfrwt>
<pdfrwt beam="1">  1        1 0.37227263E-01 0.13462855E+03</pdfrwt>
<totfact> 0.18871890E+03</totfact>
</mgrwt>
</event>
<event>
 7    1  0.7037933E-004  0.7243870E+02  0.7546771E-02  0.1393546E+00
          1   -1    0    0  502    0 -0.00000000000E+00  0.00000000000E+00  0.91317254568E+03  0.91317254568E+03  0.00000000000E+00 0. -1.
          2   -1    0    0  503    0  0.00000000000E+00 -0.00000000000E+00 -0.26414426144E+04  0.26414426144E+04  0.00000000000E+00 0. -1.
         25    2    1    2    0    0 -0.56325492134E+02 -0.45794765021E+02  0.51123588160E+02  0.15332517869E+03  0.12500107034E+03 0.  0.
          4    1    3    3  501    0  0.31068676659E+02 -0.38735571085E+02  0.42211676397E+02  0.65185471241E+02  0.12700000000E+01 0.  1.
         -4    1    3    3    0  501 -0.87394168793E+02 -0.70591939364E+01  0.89119117623E+01  0.88139707450E+02  0.12700000000E+01 0.  1.
          2    1    1    2  502    0  0.44504220595E+02 -0.25763494080E+02  0.80962459152E+03  0.81125604002E+03  0.00000000000E+00 0. -1.
          1    1    1    2  503    0  0.11821271539E+02  0.71558259101E+02 -0.25890182484E+04  0.25900339413E+04  0.00000000000E+00 0. -1.
<mgrwt>
<rscale>  0 0.61033241E+02</rscale>
<asrwt>0</asrwt>
<pdfrwt beam="2">  1        2 0.40637578E+00 0.72438703E+02</pdfrwt>
<pdfrwt beam="1">  1        1 0.14048809E+00 0.51423567E+02</pdfrwt>
<totfact> 0.11357293E+01</totfact>
</mgrwt>
</event>
<event>
 7    1  0.7037933E-004  0.3515813E+02  0.7546771E-02  0.1552352E+00
          1   -1    0    0  503    0  0.00000000000E+00  0.00000000000E+00  0.94719548360E+02  0.94719548360E+02  0.00000000000E+00 0. -1.
         -1   -1    0    0    0  501 -0.00000000000E+00 -0.00000000000E+00 -0.14350937639E+03  0.14350937639E+03  0.00000000000E+00 0.  1.
         25    2    1    2    0    0  0.65771644741E+01 -0.18162958653E+02  0.13882179493E+02  0.12724035516E+03  0.12499696362E+03 0.  0.
          4    1    3    3  502    0  0.46993961586E+02  0.18754763834E+02  0.41924672099E+02  0.65722634020E+02  0.12700000000E+01 0.  1.
         -4    1    3    3    0  502 -0.40416797111E+02 -0.36917722487E+02 -0.28042492606E+02  0.61517721137E+02  0.12700000000E+01 0.  1.
          2    1    1    2  503    0 -0.19682354756E+02  0.49550615475E+02 -0.54002081301E+02  0.75887307026E+02  0.00000000000E+00 0. -1.
         -2    1    1    2    0  501  0.13105190282E+02 -0.31387656822E+02 -0.86699262221E+01  0.35101262567E+02  0.00000000000E+00 0.  1.
<mgrwt>
<rscale>  0 0.34581175E+02</rscale>
<asrwt>0</asrwt>
<pdfrwt beam="1">  1        1 0.14572238E-01 0.35158130E+02</pdfrwt>
<pdfrwt beam="2">  1       -1 0.22078366E-01 0.34013689E+02</pdfrwt>
<totfact> 0.55688176E+03</totfact>
</mgrwt>
</event>
<event>
 7    1  0.7037933E-004  0.5173767E+02  0.7546771E-02  0.1437762E+00
         -1   -1    0    0    0  501 -0.00000000000E+00  0.00000000000E+00  0.93903467124E+03  0.93903467124E+03  0.00000000000E+00 0.  1.
          1   -1    0    0  503    0  0.00000000000E+00 -0.00000000000E+00 -0.24462786172E+04  0.24462786172E+04  0.00000000000E+00 0. -1.
         25    2    1    2    0    0  0.76719593627E+02  0.64202175837E+02  0.34455073097E+03  0.37993405635E+03  0.12500746194E+03 0.  0.
          4    1    3    3  502    0 -0.90640032394E+01  0.41792598816E+01 -0.75599822020E+01  0.12585253227E+02  0.12700000000E+01 0. -1.
         -4    1    3    3    0  502  0.85783596867E+02  0.60022915955E+02  0.35211071317E+03  0.36734880313E+03  0.12700000000E+01 0. -1.
          2    1    1    2  503    0 -0.30946186079E+02 -0.41419004152E+02 -0.24271779936E+04  0.24277286119E+04  0.00000000000E+00 0. -1.
         -2    1    1    2    0  501 -0.45773407548E+02 -0.22783171685E+02  0.57538331675E+03  0.57765062013E+03  0.00000000000E+00 0.  1.
<mgrwt>
<rscale>  0 0.51432942E+02</rscale>
<asrwt>0</asrwt>
<pdfrwt beam="2">  1        1 0.37635056E+00 0.51737671E+02</pdfrwt>
<pdfrwt beam="1">  1       -1 0.14446687E+00 0.51130008E+02</pdfrwt>
<totfact> 0.10312504E+00</totfact>
</mgrwt>
</event>
<event>
 7    1  0.7037933E-004  0.3540111E+02  0.7546771E-02  0.1605400E+00
          1   -1    0    0  503    0  0.00000000000E+00  0.00000000000E+00  0.38525890754E+03  0.38525890754E+03  0.00000000000E+00 0. -1.
         -1   -1    0    0    0  501 -0.00000000000E+00 -0.00000000000E+00 -0.59968235510E+02  0.59968235510E+02  0.00000000000E+00 0.  1.
         25    2    1    2    0    0 -0.27014945107E+02  0.17051656149E+02  0.28613871312E+03  0.31388014558E+03  0.12499926561E+03 0.  0.
          4    1    3    3  502    0  0.23469229211E+02 -0.94217870505E+00  0.78643881951E+00  0.23535585960E+02  0.12700000000E+01 0. -1.
         -4    1    3    3    0  502 -0.50484174318E+02  0.17993834854E+02  0.28535227430E+03  0.29034455962E+03  0.12700000000E+01 0. -1.
          2    1    1    2  503    0  0.17171289580E+02  0.17238212851E+02  0.76154981202E+02  0.79947422285E+02  0.00000000000E+00 0. -1.
         -2    1    1    2    0  501  0.98436555271E+01 -0.34289869000E+02 -0.37003022296E+02  0.51399575185E+02  0.00000000000E+00 0.  1.
<mgrwt>
<rscale>  0 0.29348813E+02</rscale>
<asrwt>0</asrwt>
<pdfrwt beam="1">  1        1 0.59270600E-01 0.24331239E+02</pdfrwt>
<pdfrwt beam="2">  1       -1 0.92258826E-02 0.35401109E+02</pdfrwt>
<totfact> 0.38762331E+03</totfact>
</mgrwt>
</event>
<event>
 7    1  0.7037933E-004  0.1488387E+03  0.7546771E-02  0.1255838E+00
          2   -1    0    0  503    0  0.00000000000E+00  0.00000000000E+00  0.60946043780E+03  0.60946043780E+03  0.00000000000E+00 0. -1.
          1   -1    0    0  502    0 -0.00000000000E+00 -0.00000000000E+00 -0.21982409921E+04  0.21982409921E+04  0.00000000000E+00 0. -1.
         25    2    1    2    0    0  0.79283233423E+02 -0.11447691567E+03  0.37318094705E+02  0.19081498255E+03  0.12500768796E+03 0.  0.
          4    1    3    3  501    0  0.39480953097E+02 -0.13321983287E+03  0.45163710798E+02  0.14610832694E+03  0.12700000000E+01 0.  1.
         -4    1    3    3    0  501  0.39802280326E+02  0.18742917200E+02 -0.78456160927E+01  0.44706655614E+02  0.12700000000E+01 0.  1.
          2    1    1    2  502    0  0.63110089974E+02  0.57203963042E+02 -0.21087245581E+04  0.21104441331E+04  0.00000000000E+00 0. -1.
          1    1    1    2  503    0 -0.14239332340E+03  0.57272952627E+02  0.48262590906E+03  0.50644231433E+03  0.00000000000E+00 0. -1.
<mgrwt>
<rscale>  0 0.11259523E+03</rscale>
<asrwt>0</asrwt>
<pdfrwt beam="1">  1        2 0.93763143E-01 0.14883874E+03</pdfrwt>
<pdfrwt beam="2">  1        1 0.33819093E+00 0.85177326E+02</pdfrwt>
<totfact> 0.20041567E+01</totfact>
</mgrwt>
</event>
<event>
 7    1  0.7037933E-004  0.5773880E+02  0.7546771E-02  0.1491071E+00
          1   -1    0    0  502    0 -0.00000000000E+00  0.00000000000E+00  0.50180757212E+03  0.50180757212E+03  0.00000000000E+00 0. -1.
          2   -1    0    0  503    0  0.00000000000E+00 -0.00000000000E+00 -0.54205206981E+02  0.54205206981E+02  0.00000000000E+00 0. -1.
         25    2    1    2    0    0 -0.47688609002E+02  0.61435687271E+02  0.18801059244E+03  0.23879602485E+03  0.12500804580E+03 0.  0.
          4    1    3    3  501    0  0.38152740430E+02 -0.51053269168E+01  0.53014401221E+02  0.65527365292E+02  0.12700000000E+01 0.  1.
         -4    1    3    3    0  501 -0.85841349432E+02  0.66541014188E+02  0.13499619122E+03  0.17326865956E+03  0.12700000000E+01 0.  1.
          2    1    1    2  502    0  0.47059635013E+02 -0.30265372978E+02  0.27625651882E+03  0.28186568830E+03  0.00000000000E+00 0. -1.
          1    1    1    2  503    0  0.62897398888E+00 -0.31170314293E+02 -0.16664746114E+02  0.35351065959E+02  0.00000000000E+00 0. -1.
<mgrwt>
<rscale>  0 0.42427618E+02</rscale>
<asrwt>0</asrwt>
<pdfrwt beam="2">  1        2 0.83392629E-02 0.31176660E+02</pdfrwt>
<pdfrwt beam="1">  1        1 0.77201162E-01 0.57738797E+02</pdfrwt>
<totfact> 0.43393659E+03</totfact>
</mgrwt>
</event>
<event>
 7    1  0.7037933E-004  0.1167720E+03  0.7546771E-02  0.1333723E+00
          2   -1    0    0  503    0  0.00000000000E+00  0.00000000000E+00  0.64022749197E+03  0.64022749197E+03  0.00000000000E+00 0. -1.
         -2   -1    0    0    0  501 -0.00000000000E+00 -0.00000000000E+00 -0.12089526518E+03  0.12089526518E+03  0.00000000000E+00 0.  1.
         25    2    1    2    0    0 -0.10511174612E+03 -0.12076564976E+03  0.23056896503E+03  0.30727715539E+03  0.12499752501E+03 0.  0.
          4    1    3    3  502    0 -0.12873731029E+03 -0.95720216539E+02  0.21785740525E+03  0.27055335303E+03  0.12700000000E+01 0. -1.
         -4    1    3    3    0  502  0.23625564172E+02 -0.25045433219E+02  0.12711559775E+02  0.36723802357E+02  0.12700000000E+01 0. -1.
          1    1    1    2  503    0  0.67586703929E+02  0.83898150888E+02  0.35400595518E+03  0.37003659086E+03  0.00000000000E+00 0. -1.
         -1    1    1    2    0  501  0.37525042186E+02  0.36867498871E+02 -0.65242693413E+02  0.83809010899E+02  0.00000000000E+00 0.  1.
<mgrwt>
<rscale>  0 0.78376337E+02</rscale>
<asrwt>0</asrwt>
<pdfrwt beam="1">  1        2 0.98496535E-01 0.11677196E+03</pdfrwt>
<pdfrwt beam="2">  1       -2 0.18599272E-01 0.52605525E+02</pdfrwt>
<totfact> 0.10680447E+03</totfact>
</mgrwt>
</event>
<event>
 7    1  0.7037933E-004  0.5015745E+02  0.7546771E-02  0.1539886E+00
         -1   -1    0    0    0  501 -0.00000000000E+00  0.00000000000E+00  0.19951207020E+03  0.19951207020E+03  0.00000000000E+00 0.  1.
          1   -1    0    0  503    0  0.00000000000E+00 -0.00000000000E+00 -0.39385590818E+03  0.39385590818E+03  0.00000000000E+00 0. -1.
         25    2    1    2    0    0 -0.27049762604E+02 -0.28172545801E+02 -0.20135660448E+02  0.13250312723E+03  0.12500500754E+03 0.  0.
          4    1    3    3  502    0  0.15549020161E+02 -0.63708812756E+01  0.47067628769E+02  0.49993346899E+02  0.12700000000E+01 0. -1.
         -4    1    3    3    0  502 -0.42598782765E+02 -0.21801664526E+02 -0.67203289218E+02  0.82509780334E+02  0.12700000000E+01 0. -1.
          2    1    1    2  503    0 -0.21953987853E+02  0.13628633806E+02 -0.31242857491E+03  0.31349534552E+03  0.00000000000E+00 0. -1.
         -2    1    1    2    0  501  0.49003750457E+02  0.14543911995E+02  0.13822039738E+03  0.14736950562E+03  0.00000000000E+00 0.  1.
<mgrwt>
<rscale>  0 0.36001109E+02</rscale>
<asrwt>0</asrwt>
<pdfrwt beam="2">  1        1 0.60593216E-01 0.25840225E+02</pdfrwt>
<pdfrwt beam="1">  1       -1 0.30694165E-01 0.50157453E+02</pdfrwt>
<totfact> 0.60911563E+02</totfact>
</mgrwt>
</event>
<event>
 7    1  0.7037933E-004  0.2508362E+02  0.7546771E-02  0.1687633E+00
          1   -1    0    0  502    0 -0.00000000000E+00  0.00000000000E+00  0.11353210069E+03  0.11353210069E+03  0.00000000000E+00 0. -1.
          2   -1    0    0  503    0  0.00000000000E+00 -0.00000000000E+00 -0.18412882120E+03  0.18412882120E+03  0.00000000000E+00 0. -1.
         25    2    1    2    0    0  0.42652337790E+02 -0.87003264978E+01 -0.14674707452E+02  0.13317307476E+03  0.12499921281E+03 0.  0.
          4    1    3    3  501    0  0.38319056865E+02  0.70443378192E+00 -0.68415396401E+02  0.78429112647E+02  0.12700000000E+01 0.  1.
         -4    1    3    3    0  501  0.43332809253E+01 -0.94047602798E+01  0.53740688949E+02  0.54743962117E+02  0.12700000000E+01 0.  1.
          2    1    1    2  502    0 -0.18130690920E+02  0.11618098158E+02  0.50678854848E+02  0.55064039870E+02  0.00000000000E+00 0. -1.
          1    1    1    2  503    0 -0.24521646870E+02 -0.29177716603E+01 -0.10660086791E+03  0.10942380726E+03  0.00000000000E+00 0. -1.
<mgrwt>
<rscale>  0 0.23241004E+02</rscale>
<asrwt>0</asrwt>
<pdfrwt beam="2">  1        2 0.28327511E-01 0.25083620E+02</pdfrwt>
<pdfrwt beam="1">  1        1 0.17466477E-01 0.21533745E+02</pdfrwt>
<totfact> 0.64046266E+03</totfact>
</mgrwt>
</event>
<event>
 7    1  0.7037933E-004  0.1386614E+03  0.7546771E-02  0.1347175E+00
          1   -1    0    0  502    0 -0.00000000000E+00  0.00000000000E+00  0.17357113330E+04  0.17357113330E+04  0.00000000000E+00 0. -1.
          2   -1    0    0  503    0  0.00000000000E+00 -0.00000000000E+00 -0.11543982191E+04  0.11543982191E+04  0.00000000000E+00 0. -1.
         25    2    1    2    0    0 -0.42412428117E+02 -0.92702525192E+02  0.72019328262E+03  0.73803501227E+03  0.12499897108E+03 0.  0.
          4    1    3    3  501    0 -0.58369377475E+02 -0.11759570953E+03  0.56608972812E+03  0.58111524529E+03  0.12700000000E+01 0.  1.
         -4    1    3    3    0  501  0.15956949359E+02  0.24893184340E+02  0.15410355450E+03  0.15691976698E+03  0.12700000000E+01 0.  1.
          2    1    1    2  502    0 -0.34214047359E+00 -0.39429911223E+02  0.10019986107E+04  0.10027741773E+04  0.00000000000E+00 0. -1.
          1    1    1    2  503    0  0.42754568590E+02  0.13213243641E+03 -0.11408787794E+04  0.11493003625E+04  0.00000000000E+00 0. -1.
<mgrwt>
<rscale>  0 0.73943308E+02</rscale>
<asrwt>0</asrwt>
<pdfrwt beam="2">  1        2 0.17759973E+00 0.13866141E+03</pdfrwt>
<pdfrwt beam="1">  1        1 0.26703251E+00 0.39431396E+02</pdfrwt>
<totfact> 0.18823604E+01</totfact>
</mgrwt>
</event>
<event>
 7    1  0.7037933E-004  0.5277400E+02  0.7546771E-02  0.1510077E+00
          2   -1    0    0  503    0  0.00000000000E+00  0.00000000000E+00  0.13009738030E+04  0.13009738030E+04  0.00000000000E+00 0. -1.
          1   -1    0    0  502    0 -0.00000000000E+00 -0.00000000000E+00 -0.17239556556E+03  0.17239556556E+03  0.00000000000E+00 0. -1.
         25    2    1    2    0    0  0.53596777789E+01 -0.29458872526E+02  0.35492763589E+03  0.37748662434E+03  0.12500389401E+03 0.  0.
          4    1    3    3  501    0 -0.48287392586E+02 -0.50636978373E+02  0.21612399597E+03  0.22717167604E+03  0.12700000000E+01 0. -1.
         -4    1    3    3    0  501  0.53647070365E+02  0.21178105847E+02  0.13880363992E+03  0.15031494830E+03  0.12700000000E+01 0. -1.
          2    1    1    2  502    0 -0.18558141646E+02 -0.23490411844E+02 -0.15892093277E+03  0.16171600707E+03  0.00000000000E+00 0. -1.
          1    1    1    2  503    0  0.13198463868E+02  0.52949284370E+02  0.93257153431E+03  0.93416673713E+03  0.00000000000E+00 0. -1.
<mgrwt>
<rscale>  0 0.39747675E+02</rscale>
<asrwt>0</asrwt>
<pdfrwt beam="1">  1        2 0.20014981E+00 0.52773999E+02</pdfrwt>
<pdfrwt beam="2">  1        1 0.26522396E-01 0.29936668E+02</pdfrwt>
<totfact> 0.44863755E+02</totfact>
</mgrwt>
</event>
<event>
 7    1  0.7037933E-004  0.8150370E+02  0.7546771E-02  0.1410859E+00
          2   -1    0    0  503    0  0.00000000000E+00  0.00000000000E+00  0.30462516273E+03  0.30462516273E+03  0.00000000000E+00 0. -1.
          1   -1    0    0  502    0 -0.00000000000E+00 -0.00000000000E+00 -0.13889448549E+04  0.13889448549E+04  0.00000000000E+00 0. -1.
         25    2    1    2    0    0 -0.21672232058E+00 -0.56341173283E+02  0.29077407021E+02  0.14016072372E+03  0.12500063240E+03 0.  0.
          4    1    3    3  501    0  0.60221696770E+02 -0.18423706938E+02 -0.30133519008E+00  0.62990391665E+02  0.12700000000E+01 0.  1.
         -4    1    3    3    0  501 -0.60438419090E+02 -0.37917466344E+02  0.29378742211E+02  0.77170332058E+02  0.12700000000E+01 0.  1.
          2    1    1    2  502    0  0.32346681478E+02 -0.23303359423E+02 -0.13247107662E+04  0.13253105177E+04  0.00000000000E+00 0. -1.
          1    1    1    2  503    0 -0.32129959157E+02  0.79644532706E+02  0.21131366696E+03  0.22809877622E+03  0.00000000000E+00 0. -1.
<mgrwt>
<rscale>  0 0.57002493E+02</rscale>
<asrwt>0</asrwt>
<pdfrwt beam="1">  1        2 0.46865410E-01 0.81503701E+02</pdfrwt>
<pdfrwt beam="2">  1        1 0.21368382E+00 0.39866707E+02</pdfrwt>
<totfact> 0.14750064E+02</totfact>
</mgrwt>
</event>
<event>
 7    1  0.7037933E-004  0.1416420E+03  0.7546771E-02  0.1388157E+00
          1   -1    0    0  502    0 -0.00000000000E+00  0.00000000000E+00  0.13174317458E+04  0.13174317458E+04  0.00000000000E+00 0. -1.
          2   -1    0    0  503    0  0.00000000000E+00 -0.00000000000E+00 -0.20124877757E+04  0.20124877757E+04  0.00000000000E+00 0. -1.
         25    2    1    2    0    0  0.24122056186E+02  0.11322109456E+03  0.41160357998E+02  0.17527408687E+03  0.12500376238E+03 0.  0.
          4    1    3    3  501    0 -0.35978281024E+02  0.67866263169E+02  0.60199289586E+02  0.97600377810E+02  0.12700000000E+01 0.  1.
         -4    1    3    3    0  501  0.60100337210E+02  0.45354831387E+02 -0.19038931588E+02  0.77673709058E+02  0.12700000000E+01 0.  1.
          2    1    1    2  502    0  0.13259249872E+02  0.24048380581E+02  0.12064570637E+04  0.12067695633E+04  0.00000000000E+00 0. -1.
          1    1    1    2  503    0 -0.37381306058E+02 -0.13726947514E+03 -0.19426734516E+04  0.19478758714E+04  0.00000000000E+00 0. -1.
<mgrwt>
<rscale>  0 0.62367431E+02</rscale>
<asrwt>0</asrwt>
<pdfrwt beam="2">  1        2 0.30961350E+00 0.14164196E+03</pdfrwt>
<pdfrwt beam="1">  1        1 0.20268181E+00 0.27461470E+02</pdfrwt>
<totfact> 0.12502753E+01</totfact>
</mgrwt>
</event>
<event>
 7    1  0.7037933E-004  0.1347169E+03  0.7546771E-02  0.1271667E+00
         -1   -1    0    0    0  501 -0.00000000000E+00  0.00000000000E+00  0.30318710401E+03  0.30318710401E+03  0.00000000000E+00 0.  1.
          1   -1    0    0  503    0  0.00000000000E+00 -0.00000000000E+00 -0.16467378460E+04  0.16467378460E+04  0.00000000000E+00 0. -1.
         25    2    1    2    0    0  0.11991605845E+02 -0.16443046005E+03 -0.63035574792E+02  0.21627540495E+03  0.12498156781E+03 0.  0.
          4    1    3    3  502    0  0.38087905385E+02 -0.83899149290E+02 -0.88603228393E+02  0.12783544411E+03  0.12700000000E+01 0. -1.
         -4    1    3    3    0  502 -0.26096299540E+02 -0.80531310764E+02  0.25567653601E+02  0.88439960842E+02  0.12700000000E+01 0. -1.
          2    1    1    2  503    0 -0.73560446528E+02  0.11237653557E+03 -0.14968062696E+04  0.15028202267E+04  0.00000000000E+00 0. -1.
         -2    1    1    2    0  501  0.61568840683E+02  0.52053924479E+02  0.21629110245E+03  0.23082931832E+03  0.00000000000E+00 0.  1.
<mgrwt>
<rscale>  0 0.10421852E+03</rscale>
<asrwt>0</asrwt>
<pdfrwt beam="2">  1        1 0.25334428E+00 0.13471687E+03</pdfrwt>
<pdfrwt beam="1">  1       -1 0.46644170E-01 0.80624644E+02</pdfrwt>
<totfact> 0.29242857E+01</totfact>
</mgrwt>
</event>
<event>
 7    1  0.7037933E-004  0.8346929E+02  0.7546771E-02  0.1471191E+00
          1   -1    0    0  503    0  0.00000000000E+00  0.00000000000E+00  0.79795969200E+03  0.79795969200E+03  0.00000000000E+00 0. -1.
         -1   -1    0    0    0  501 -0.00000000000E+00 -0.00000000000E+00 -0.74061425203E+02  0.74061425203E+02  0.00000000000E+00 0.  1.
         25    2    1    2    0    0 -0.57430068665E+02 -0.23954025855E+02  0.19795092376E+03  0.24224198433E+03  0.12499841045E+03 0.  0.
          4    1    3    3  502    0 -0.89828483505E+02 -0.19364979682E+01  0.89072479761E+02  0.12652440881E+03  0.12700000000E+01 0. -1.
         -4    1    3    3    0  502  0.32398414840E+02 -0.22017527887E+02  0.10887844400E+03  0.11571757553E+03  0.12700000000E+01 0. -1.
          2    1    1    2  503    0 -0.22319085332E+02 -0.10839212391E+02  0.54092248429E+03  0.54149124103E+03  0.00000000000E+00 0. -1.
         -2    1    1    2    0  501  0.79749153997E+02  0.34793238245E+02 -0.14975141252E+02  0.88287891844E+02  0.00000000000E+00 0.  1.
<mgrwt>
<rscale>  0 0.45508584E+02</rscale>
<asrwt>0</asrwt>
<pdfrwt beam="1">  1        1 0.12276302E+00 0.24811894E+02</pdfrwt>
<pdfrwt beam="2">  1       -1 0.11394066E-01 0.83469290E+02</pdfrwt>
<totfact> 0.12176197E+03</totfact>
</mgrwt>
</event>
<event>
 7    1  0.7037933E-004  0.1032589E+03  0.7546771E-02  0.1410889E+00
          1   -1    0    0  502    0 -0.00000000000E+00  0.00000000000E+00  0.65911477418E+03  0.65911477418E+03  0.00000000000E+00 0. -1.
          2   -1    0    0  503    0  0.00000000000E+00 -0.00000000000E+00 -0.73672706633E+02  0.73672706633E+02  0.00000000000E+00 0. -1.
         25    2    1    2    0    0  0.73287394735E+02  0.59163365464E+02  0.26734514927E+03  0.30979044076E+03  0.12500136922E+03 0.  0.
          4    1    3    3  501    0  0.30646348535E+02  0.86361542050E+02  0.10317155826E+03  0.13799818100E+03  0.12700000000E+01 0.  1.
         -4    1    3    3    0  501  0.42641046200E+02 -0.27198176587E+02  0.16417359100E+03  0.17179225976E+03  0.12700000000E+01 0.  1.
          2    1    1    2  502    0 -0.61592775105E+02 -0.88369062974E+02  0.35703961459E+03  0.37293437441E+03  0.00000000000E+00 0. -1.
          1    1    1    2  503    0 -0.11694619630E+02  0.29205697510E+02 -0.38942696307E+02  0.50062665640E+02  0.00000000000E+00 0. -1.
<mgrwt>
<rscale>  0 0.56995909E+02</rscale>
<asrwt>0</asrwt>
<pdfrwt beam="2">  1        2 0.11334263E-01 0.31460084E+02</pdfrwt>
<pdfrwt beam="1">  1        1 0.10140227E+00 0.10325890E+03</pdfrwt>
<totfact> 0.20805335E+03</totfact>
</mgrwt>
</event>
<event>
 7    1  0.7037933E-004  0.6308403E+02  0.7546771E-02  0.1482555E+00
         -1   -1    0    0    0  501 -0.00000000000E+00  0.00000000000E+00  0.29436887661E+03  0.29436887661E+03  0.00000000000E+00 0.  1.
          1   -1    0    0  503    0  0.00000000000E+00 -0.00000000000E+00 -0.49202027708E+02  0.49202027708E+02  0.00000000000E+00 0. -1.
         25    2    1    2    0    0  0.41923231229E+02  0.31184684716E+02  0.12169511131E+03  0.18211560911E+03  0.12500541223E+03 0.  0.
          4    1    3    3  502    0  0.62166282349E+02  0.41398367678E+02  0.19190557200E+02  0.77125624102E+02  0.12700000000E+01 0.  1.
         -4    1    3    3    0  502 -0.20243051120E+02 -0.10213682961E+02  0.10250455411E+03  0.10498998501E+03  0.12700000000E+01 0.  1.
          2    1    1    2  503    0  0.24612622754E+02 -0.17649894367E+02  0.15794359096E+02  0.34157894391E+02  0.00000000000E+00 0. -1.
         -2    1    1    2    0  501 -0.66535853983E+02 -0.13534790350E+02  0.10767737849E+03  0.12729740081E+03  0.00000000000E+00 0.  1.
<mgrwt>
<rscale>  0 0.43710681E+02</rscale>
<asrwt>0</asrwt>
<pdfrwt beam="2">  1        1 0.75695429E-02 0.30286960E+02</pdfrwt>
<pdfrwt beam="1">  1       -1 0.45287518E-01 0.63084035E+02</pdfrwt>
<totfact> 0.39053186E+03</totfact>
</mgrwt>
</event>
<event>
 7    1  0.7037933E-004  0.9433693E+02  0.7546771E-02  0.1344543E+00
          2   -1    0    0  503    0  0.00000000000E+00  0.00000000000E+00  0.19039965848E+03  0.19039965848E+03  0.00000000000E+00 0. -1.
         -2   -1    0    0    0  501 -0.00000000000E+00 -0.00000000000E+00 -0.82580608604E+03  0.82580608604E+03  0.00000000000E+00 0.  1.
         25    2    1    2    0    0 -0.35902976330E+02 -0.50991384161E+01 -0.60918380420E+03  0.62293394158E+03  0.12500705323E+03 0.  0.
          4    1    3    3  502    0  0.31150406593E+02  0.33585640125E+02 -0.13741974003E+03  0.14485903805E+03  0.12700000000E+01 0. -1.
         -4    1    3    3    0  502 -0.67053382923E+02 -0.38684778541E+02 -0.47176406417E+03  0.47807490354E+03  0.12700000000E+01 0. -1.
          3    1    1    2  503    0  0.94795045077E+02  0.11893965050E+02  0.16632132918E+03  0.19180811118E+03  0.00000000000E+00 0. -1.
         -1    1    1    2    0  501 -0.58892068747E+02 -0.67948266342E+01 -0.19254395255E+03  0.20146369175E+03  0.00000000000E+00 0.  1.
<mgrwt>
<rscale>  0 0.74783376E+02</rscale>
<asrwt>0</asrwt>
<pdfrwt beam="1">  1        2 0.29292256E-01 0.94336929E+02</pdfrwt>
<pdfrwt beam="2">  1       -2 0.12704709E+00 0.59282758E+02</pdfrwt>
<totfact> 0.90954292E+01</totfact>
</mgrwt>
</event>
<event>
 7    1  0.7037933E-004  0.9363559E+02  0.7546771E-02  0.1384511E+00
          1   -1    0    0  502    0 -0.00000000000E+00  0.00000000000E+00  0.13527750609E+03  0.13527750609E+03  0.00000000000E+00 0. -1.
          2   -1    0    0  503    0  0.00000000000E+00 -0.00000000000E+00 -0.13343212867E+04  0.13343212867E+04  0.00000000000E+00 0. -1.
         25    2    1    2    0    0 -0.34546562112E+02  0.12262714548E+03 -0.48695593322E+03  0.51863890126E+03  0.12501738776E+03 0.  0.
          4    1    3    3  501    0 -0.76350126319E+02  0.83403181953E+02 -0.38933726037E+03  0.40542637773E+03  0.12700000000E+01 0.  1.
         -4    1    3    3    0  501  0.41803564207E+02  0.39223963522E+02 -0.97618672847E+02  0.11321252353E+03  0.12700000000E+01 0.  1.
          2    1    1    2  502    0 -0.39325913271E+01 -0.42601501193E+02  0.11314505436E+03  0.12096345111E+03  0.00000000000E+00 0. -1.
          1    1    1    2  503    0  0.38479153439E+02 -0.80025644283E+02 -0.82523290177E+03  0.82999644045E+03  0.00000000000E+00 0. -1.
<mgrwt>
<rscale>  0 0.63292786E+02</rscale>
<asrwt>0</asrwt>
<pdfrwt beam="2">  1        2 0.20528020E+00 0.93635595E+02</pdfrwt>
<pdfrwt beam="1">  1        1 0.20811924E-01 0.42782627E+02</pdfrwt>
<totfact> 0.56165176E+02</totfact>
</mgrwt>
</event>
<event>
 7    1  0.7037933E-004  0.8203317E+02  0.7546771E-02  0.1393076E+00
         -2   -1    0    0    0  501 -0.00000000000E+00  0.00000000000E+00  0.57934220175E+02  0.57934220175E+02  0.00000000000E+00 0.  1.
          2   -1    0    0  503    0  0.00000000000E+00 -0.00000000000E+00 -0.10146238515E+04  0.10146238515E+04  0.00000000000E+00 0. -1.
         25    2    1    2    0    0  0.62022672653E+02  0.28609386672E+02 -0.23233459065E+03  0.27252500707E+03  0.12500083413E+03 0.  0.
          4    1    3    3  502    0  0.78940449607E+01 -0.32741849045E+02 -0.93139630757E+01  0.34967233704E+02  0.12700000000E+01 0.  1.
         -4    1    3    3    0  502  0.54128627692E+02  0.61351235717E+02 -0.22302062758E+03  0.23755777336E+03  0.12700000000E+01 0.  1.
          1    1    1    2  503    0  0.23907341841E+02 -0.38807219108E+02 -0.71101895085E+03  0.71247842754E+03  0.00000000000E+00 0. -1.
         -1    1    1    2    0  501 -0.85930014494E+02  0.10197832436E+02 -0.13336089805E+02  0.87554637048E+02  0.00000000000E+00 0.  1.
<mgrwt>
<rscale>  0 0.61148133E+02</rscale>
<asrwt>0</asrwt>
<pdfrwt beam="2">  1        2 0.15609597E+00 0.45580273E+02</pdfrwt>
<pdfrwt beam="1">  1       -2 0.89129572E-02 0.82033168E+02</pdfrwt>
<totfact> 0.20800735E+03</totfact>
</mgrwt>
</event>
<event>
 7    1  0.7037933E-004  0.6355776E+02  0.7546771E-02  0.1441992E+00
          2   -1    0    0  503    0  0.00000000000E+00  0.00000000000E+00  0.71701153294E+02  0.71701153294E+02  0.00000000000E+00 0. -1.
          1   -1    0    0  502    0 -0.00000000000E+00 -0.00000000000E+00 -0.75375771668E+03  0.75375771668E+03  0.00000000000E+00 0. -1.
         25    2    1    2    0    0  0.97949488810E+02 -0.13520996605E+02 -0.34599847487E+03  0.38094154967E+03  0.12499839977E+03 0.  0.
          4    1    3    3  501    0  0.18901345709E+02 -0.61400345626E+02 -0.17727330656E+03  0.18855954347E+03  0.12700000000E+01 0. -1.
         -4    1    3    3    0  501  0.79048143101E+02  0.47879349021E+02 -0.16872516831E+03  0.19238200620E+03  0.12700000000E+01 0. -1.
          2    1    1    2  502    0 -0.39657852651E+02 -0.73104927085E+01 -0.37116753348E+03  0.37335174633E+03  0.00000000000E+00 0. -1.
          1    1    1    2  503    0 -0.58291636159E+02  0.20831489314E+02  0.35109444963E+02  0.71165573971E+02  0.00000000000E+00 0. -1.
<mgrwt>
<rscale>  0 0.50626399E+02</rscale>
<asrwt>0</asrwt>
<pdfrwt beam="1">  1        2 0.11030947E-01 0.63557765E+02</pdfrwt>
<pdfrwt beam="2">  1        1 0.11596272E+00 0.40326029E+02</pdfrwt>
<totfact> 0.19529701E+03</totfact>
</mgrwt>
</event>
<event>
 7    1  0.7037933E-004  0.5858425E+02  0.7546771E-02  0.1523070E+00
          1   -1    0    0  502    0 -0.00000000000E+00  0.00000000000E+00  0.67866907695E+03  0.67866907695E+03  0.00000000000E+00 0. -1.
          2   -1    0    0  503    0  0.00000000000E+00 -0.00000000000E+00 -0.25332509797E+03  0.25332509797E+03  0.00000000000E+00 0. -1.
         25    2    1    2    0    0  0.37996876022E+02  0.12048183828E+02 -0.64507015179E+01  0.13135763685E+03  0.12499718352E+03 0.  0.
          4    1    3    3  501    0  0.62951854119E+02  0.30779075463E+01 -0.49927236682E+02  0.80416113526E+02  0.12700000000E+01 0.  1.
         -4    1    3    3    0  501 -0.24954978097E+02  0.89702762813E+01  0.43476535164E+02  0.50941523321E+02  0.12700000000E+01 0.  1.
          2    1    1    2  502    0  0.11833880744E+02  0.21696098357E+02  0.61104950424E+03  0.61154906430E+03  0.00000000000E+00 0. -1.
          1    1    1    2  503    0 -0.49830756766E+02 -0.33744282185E+02 -0.17925482374E+03  0.18908747376E+03  0.00000000000E+00 0. -1.
<mgrwt>
<rscale>  0 0.38050323E+02</rscale>
<asrwt>0</asrwt>
<pdfrwt beam="2">  1        2 0.38973092E-01 0.58584252E+02</pdfrwt>
<pdfrwt beam="1">  1        1 0.10441063E+00 0.24713588E+02</pdfrwt>
<totfact> 0.57090890E+02</totfact>
</mgrwt>
</event>
<event>
 7    1  0.7037933E-004  0.6690826E+02  0.7546771E-02  0.1395029E+00
          1   -1    0    0  502    0 -0.00000000000E+00  0.00000000000E+00  0.12821423983E+04  0.12821423983E+04  0.00000000000E+00 0. -1.
          2   -1    0    0  503    0  0.00000000000E+00 -0.00000000000E+00 -0.51138670462E+03  0.51138670462E+03  0.00000000000E+00 0. -1.
         25    2    1    2    0    0 -0.85881395102E+02 -0.46091453321E+02  0.25673980869E+02  0.16059123549E+03  0.12502142028E+03 0.  0.
          4    1    3    3  501    0 -0.69385415751E+02 -0.54987257527E+02 -0.36404319178E+02  0.95733075602E+02  0.12700000000E+01 0. -1.
         -4    1    3    3    0  501 -0.16495979350E+02  0.88958042061E+01  0.62078300047E+02  0.64858159887E+02  0.12700000000E+01 0. -1.
          2    1    1    2  502    0  0.66478142803E+02 -0.53924799707E+01  0.11863648051E+04  0.11882381383E+04  0.00000000000E+00 0. -1.
          1    1    1    2  503    0  0.19403252299E+02  0.51483933292E+02 -0.44128309231E+03  0.44469972920E+03  0.00000000000E+00 0. -1.
<mgrwt>
<rscale>  0 0.60673062E+02</rscale>
<asrwt>0</asrwt>
<pdfrwt beam="2">  1        2 0.78674878E-01 0.55018920E+02</pdfrwt>
<pdfrwt beam="1">  1        1 0.19725268E+00 0.66908264E+02</pdfrwt>
<totfact> 0.95888109E+01</totfact>
</mgrwt>
</event>
<event>
 7    1  0.7037933E-004  0.7460344E+02  0.7546771E-02  0.1447248E+00
          1   -1    0    0  502    0 -0.00000000000E+00  0.00000000000E+00  0.75889404360E+01  0.75889404360E+01  0.00000000000E+00 0. -1.
          2   -1    0    0  503    0  0.00000000000E+00 -0.00000000000E+00 -0.29178697332E+04  0.29178697332E+04  0.00000000000E+00 0. -1.
         25    2    1    2    0    0 -0.52090111178E+02  0.36898341302E+02 -0.87329700028E+03  0.88449670499E+03  0.12494760167E+03 0.  0.
          4    1    3    3  501    0 -0.20653503029E+02 -0.90521210831E+00 -0.17019553154E+02  0.26807922073E+02  0.12700000000E+01 0. -1.
         -4    1    3    3    0  501 -0.31436608150E+02  0.37803553410E+02 -0.85627744712E+03  0.85768878291E+03  0.12700000000E+01 0. -1.
          2    1    1    2  502    0 -0.32795778124E+02  0.40164628471E+01 -0.49479641786E+03  0.49589836677E+03  0.00000000000E+00 0. -1.
          1    1    1    2  503    0  0.84885889303E+02 -0.40914804149E+02 -0.15421873746E+04  0.15450636019E+04  0.00000000000E+00 0. -1.
<mgrwt>
<rscale>  0 0.49648345E+02</rscale>
<asrwt>0</asrwt>
<pdfrwt beam="2">  1        2 0.44890410E+00 0.33040809E+02</pdfrwt>
<pdfrwt beam="1">  1        1 0.11675265E-02 0.74603445E+02</pdfrwt>
<totfact> 0.47918712E+03</totfact>
</mgrwt>
</event>
<event>
 7    1  0.7037933E-004  0.8696058E+02  0.7546771E-02  0.1371657E+00
         -2   -1    0    0    0  501  0.00000000000E+00  0.00000000000E+00  0.12081371781E+03  0.12081371781E+03  0.00000000000E+00 0.  1.
         -1   -1    0    0    0  502 -0.00000000000E+00 -0.00000000000E+00 -0.15356615321E+04  0.15356615321E+04  0.00000000000E+00 0.  1.
         25    2    1    2    0    0 -0.26493421192E+02  0.38820400359E+02 -0.57567252769E+03  0.59095926332E+03  0.12500026766E+03 0.  0.
          4    1    3    3  503    0 -0.73720946827E+02  0.47835044741E+01 -0.27841858679E+03  0.28805586661E+03  0.12700000000E+01 0. -1.
         -4    1    3    3    0  503  0.47227525634E+02  0.34036895885E+02 -0.29725394090E+03  0.30290339671E+03  0.12700000000E+01 0. -1.
         -2    1    1    2    0  502 -0.51060578866E+02  0.33948394056E+01 -0.93431475379E+03  0.93571510985E+03  0.00000000000E+00 0.  1.
         -1    1    1    2    0  501  0.77554000058E+02 -0.42215239765E+02  0.95139467169E+02  0.12980087676E+03  0.00000000000E+00 0.  1.
<mgrwt>
<rscale>  0 0.66708777E+02</rscale>
<asrwt>0</asrwt>
<pdfrwt beam="1">  1       -2 0.18586728E-01 0.86960583E+02</pdfrwt>
<pdfrwt beam="2">  1       -1 0.23625559E+00 0.51173310E+02</pdfrwt>
<totfact> 0.19505560E+01</totfact>
</mgrwt>
</event>
<event>
 7    1  0.7037933E-004  0.6675314E+02  0.7546771E-02  0.1391878E+00
          2   -1    0    0  503    0  0.00000000000E+00  0.00000000000E+00  0.14291466319E+03  0.14291466319E+03  0.00000000000E+00 0. -1.
          1   -1    0    0  502    0 -0.00000000000E+00 -0.00000000000E+00 -0.15782419072E+04  0.15782419072E+04  0.00000000000E+00 0. -1.
         25    2    1    2    0    0  0.72464330362E+02 -0.23644951229E+01 -0.13231821897E+03  0.19593258880E+03  0.12499919309E+03 0.  0.
          4    1    3    3  501    0  0.98125138058E+02 -0.30432780920E+02 -0.75298006579E+02  0.12738170814E+03  0.12700000000E+01 0.  1.
         -4    1    3    3    0  501 -0.25660807696E+02  0.28068285797E+02 -0.57020212390E+02  0.68550880667E+02  0.12700000000E+01 0.  1.
          2    1    1    2  502    0 -0.24972779539E+02  0.50741275916E+02 -0.14031528038E+04  0.14042920308E+04  0.00000000000E+00 0. -1.
          1    1    1    2  503    0 -0.47491550823E+02 -0.48376780793E+02  0.10014377874E+03  0.12093195086E+03  0.00000000000E+00 0. -1.
<mgrwt>
<rscale>  0 0.61442124E+02</rscale>
<asrwt>0</asrwt>
<pdfrwt beam="1">  1        2 0.21986871E-01 0.66753140E+02</pdfrwt>
<pdfrwt beam="2">  1        1 0.24280645E+00 0.56553663E+02</pdfrwt>
<totfact> 0.24081112E+02</totfact>
</mgrwt>
</event>
<event>
 7    1  0.7037933E-004  0.5572138E+02  0.7546771E-02  0.1457894E+00
          1   -1    0    0  502    0 -0.00000000000E+00  0.00000000000E+00  0.51366649008E+03  0.51366649008E+03  0.00000000000E+00 0. -1.
          2   -1    0    0  503    0  0.00000000000E+00 -0.00000000000E+00 -0.72842219063E+03  0.72842219063E+03  0.00000000000E+00 0. -1.
         25    2    1    2    0    0 -0.49686988008E+02 -0.61842096075E+02 -0.22733422806E+03  0.27129078994E+03  0.12499839934E+03 0.  0.
          4    1    3    3  501    0  0.41184457448E+02 -0.70411441556E+01 -0.69262033792E+02  0.80898575212E+02  0.12700000000E+01 0.  1.
         -4    1    3    3    0  501 -0.90871445456E+02 -0.54800951919E+02 -0.15807219427E+03  0.19039221473E+03  0.12700000000E+01 0.  1.
          2    1    1    2  502    0  0.93792947595E+01  0.54838458460E+02  0.48923536985E+03  0.49238854049E+03  0.00000000000E+00 0. -1.
          1    1    1    2  503    0  0.40307693248E+02  0.70036376143E+01 -0.47665684235E+03  0.47840935027E+03  0.00000000000E+00 0. -1.
<mgrwt>
<rscale>  0 0.47745704E+02</rscale>
<asrwt>0</asrwt>
<pdfrwt beam="2">  1        2 0.11206495E+00 0.40911625E+02</pdfrwt>
<pdfrwt beam="1">  1        1 0.79025613E-01 0.55721380E+02</pdfrwt>
<totfact> 0.26304436E+02</totfact>
</mgrwt>
</event>
<event>
 7    1  0.7037933E-004  0.7057735E+02  0.7546771E-02  0.1425483E+00
         -2   -1    0    0    0  501 -0.00000000000E+00  0.00000000000E+00  0.32338286010E+02  0.32338286010E+02  0.00000000000E+00 0.  1.
          2   -1    0    0  503    0  0.00000000000E+00 -0.00000000000E+00 -0.70403279196E+03  0.70403279196E+03  0.00000000000E+00 0. -1.
         25    2    1    2    0    0 -0.13100520248E+02 -0.10096446031E+03 -0.44516662338E+03  0.47345982493E+03  0.12500174949E+03 0.  0.
          4    1    3    3  502    0 -0.92909891334E+01 -0.11283732356E+03 -0.44670575821E+03  0.46083210759E+03  0.12700000000E+01 0.  1.
         -4    1    3    3    0  502 -0.38095311142E+01  0.11872863252E+02  0.15391348329E+01  0.12627717337E+02  0.12700000000E+01 0.  1.
          1    1    1    2  503    0  0.21238921486E+02  0.35220882184E+02 -0.17276961107E+03  0.17759769378E+03  0.00000000000E+00 0. -1.
         -1    1    1    2    0  501 -0.81384012389E+01  0.65743578122E+02 -0.53758271508E+02  0.85313559265E+02  0.00000000000E+00 0.  1.
<mgrwt>
<rscale>  0 0.53877478E+02</rscale>
<asrwt>0</asrwt>
<pdfrwt beam="2">  1        2 0.10831273E+00 0.41129093E+02</pdfrwt>
<pdfrwt beam="1">  1       -2 0.49751212E-02 0.70577355E+02</pdfrwt>
<totfact> 0.76976004E+03</totfact>
</mgrwt>
</event>
<event>
 7    1  0.7037933E-004  0.1342027E+03  0.7546771E-02  0.1262326E+00
          2   -1    0    0  503    0  0.00000000000E+00  0.00000000000E+00  0.18126613377E+04  0.18126613377E+04  0.00000000000E+00 0. -1.
         -2   -1    0    0    0  501 -0.00000000000E+00 -0.00000000000E+00 -0.15363393152E+03  0.15363393152E+03  0.00000000000E+00 0.  1.
         25    2    1    2    0    0  0.10093837992E+02  0.72170803580E+02 -0.24704421529E+02  0.14678890330E+03  0.12500465285E+03 0.  0.
          4    1    3    3  502    0  0.51933063253E+02  0.53129257321E+02 -0.54362330837E+02  0.92068653495E+02  0.12700000000E+01 0. -1.
         -4    1    3    3    0  502 -0.41839225260E+02  0.19041546260E+02  0.29657909308E+02  0.54720249807E+02  0.12700000000E+01 0. -1.
          1    1    1    2  503    0 -0.94762704637E+02 -0.98346824563E+02  0.17187854553E+04  0.17242028620E+04  0.00000000000E+00 0. -1.
         -1    1    1    2    0  501  0.84668866644E+02  0.26176020983E+02 -0.35053627565E+02  0.95303503917E+02  0.00000000000E+00 0.  1.
<mgrwt>
<rscale>  0 0.10905697E+03</rscale>
<asrwt>0</asrwt>
<pdfrwt beam="1">  1        2 0.27887096E+00 0.13420275E+03</pdfrwt>
<pdfrwt beam="2">  1       -2 0.23635991E-01 0.88622802E+02</pdfrwt>
<totfact> 0.15290678E+02</totfact>
</mgrwt>
</event>
<event>
 7    1  0.7037933E-004  0.6660251E+02  0.7546771E-02  0.1479339E+00
          1   -1    0    0  502    0 -0.00000000000E+00  0.00000000000E+00  0.20902414468E+04  0.20902414468E+04  0.00000000000E+00 0. -1.
          2   -1    0    0  503    0  0.00000000000E+00 -0.00000000000E+00 -0.15916732084E+03  0.15916732084E+03  0.00000000000E+00 0. -1.
         25    2    1    2    0    0  0.43281649000E+02  0.79816357448E+02  0.58785472498E+03  0.60781668956E+03  0.12499599341E+03 0.  0.
          4    1    3    3  501    0  0.44654481948E+02 -0.21525558856E+02  0.25868092030E+03  0.26339097150E+03  0.12700000000E+01 0. -1.
         -4    1    3    3    0  501 -0.13728329482E+01  0.10134191630E+03  0.32917380468E+03  0.34442571806E+03  0.12700000000E+01 0. -1.
          2    1    1    2  502    0 -0.20128247001E+02 -0.61787066107E+02  0.14902477373E+04  0.14916638718E+04  0.00000000000E+00 0. -1.
          1    1    1    2  503    0 -0.23153401999E+02 -0.18029291341E+02 -0.14702833630E+03  0.14992820631E+03  0.00000000000E+00 0. -1.
<mgrwt>
<rscale>  0 0.44209250E+02</rscale>
<asrwt>0</asrwt>
<pdfrwt beam="2">  1        2 0.24487282E-01 0.29345108E+02</pdfrwt>
<pdfrwt beam="1">  1        1 0.32157559E+00 0.66602509E+02</pdfrwt>
<totfact> 0.98088354E+01</totfact>
</mgrwt>
</event>
<event>
 7    1  0.7037933E-004  0.5114928E+02  0.7546771E-02  0.1464061E+00
          2   -1    0    0  503    0  0.00000000000E+00  0.00000000000E+00  0.44323215856E+03  0.44323215856E+03  0.00000000000E+00 0. -1.
          1   -1    0    0  502    0 -0.00000000000E+00 -0.00000000000E+00 -0.55278747130E+03  0.55278747130E+03  0.00000000000E+00 0. -1.
         25    2    1    2    0    0 -0.81615313250E+02  0.20263762006E+02  0.87880927084E+02  0.17441285233E+03  0.12500042522E+03 0.  0.
          4    1    3    3  501    0 -0.37246402692E+02 -0.45947607687E+02  0.71904338659E+02  0.93114574497E+02  0.12700000000E+01 0.  1.
         -4    1    3    3    0  501 -0.44368910558E+02  0.66211369693E+02  0.15976588425E+02  0.81298277832E+02  0.12700000000E+01 0.  1.
          2    1    1    2  502    0  0.50179158764E+02  0.85135668322E+01 -0.50678585181E+03  0.50933518275E+03  0.00000000000E+00 0. -1.
          1    1    1    2  503    0  0.31436154486E+02 -0.28777328838E+02  0.30934961199E+03  0.31227159478E+03  0.00000000000E+00 0. -1.
<mgrwt>
<rscale>  0 0.46689651E+02</rscale>
<asrwt>0</asrwt>
<pdfrwt beam="1">  1        2 0.68189563E-01 0.42618851E+02</pdfrwt>
<pdfrwt beam="2">  1        1 0.85044226E-01 0.51149279E+02</pdfrwt>
<totfact> 0.40858092E+02</totfact>
</mgrwt>
</event>
<event>
 7    1  0.7037933E-004  0.7189900E+02  0.7546771E-02  0.1403485E+00
          1   -1    0    0  502    0 -0.00000000000E+00  0.00000000000E+00  0.10909618671E+03  0.10909618671E+03  0.00000000000E+00 0. -1.
          2   -1    0    0  503    0  0.00000000000E+00 -0.00000000000E+00 -0.70857706842E+03  0.70857706842E+03  0.00000000000E+00 0. -1.
         25    2    1    2    0    0 -0.34884672430E+02 -0.11962179074E+01 -0.13565307344E+03  0.18773573285E+03  0.12499831098E+03 0.  0.
          4    1    3    3  501    0 -0.63932181510E+02 -0.44209806774E+02 -0.85299835118E+02  0.11541016255E+03  0.12700000000E+01 0.  1.
         -4    1    3    3    0  501  0.29047509080E+02  0.43013588866E+02 -0.50353238319E+02  0.72325570306E+02  0.12700000000E+01 0.  1.
          2    1    1    2  502    0  0.69283139014E+02 -0.32109893175E+02  0.64187423095E+02  0.99755821258E+02  0.00000000000E+00 0. -1.
          1    1    1    2  503    0 -0.34398466584E+02  0.33306111083E+02 -0.52801523137E+03  0.53018170102E+03  0.00000000000E+00 0. -1.
<mgrwt>
<rscale>  0 0.58673395E+02</rscale>
<asrwt>0</asrwt>
<pdfrwt beam="2">  1        2 0.10901185E+00 0.47880597E+02</pdfrwt>
<pdfrwt beam="1">  1        1 0.16784029E-01 0.71899004E+02</pdfrwt>
<totfact> 0.18038439E+03</totfact>
</mgrwt>
</event>
<event>
 7    1  0.7037933E-004  0.5824368E+02  0.7546771E-02  0.1497607E+00
          2   -1    0    0  503    0  0.00000000000E+00  0.00000000000E+00  0.84173281938E+03  0.84173281938E+03  0.00000000000E+00 0. -1.
          1   -1    0    0  502    0 -0.00000000000E+00 -0.00000000000E+00 -0.12832535454E+04  0.12832535454E+04  0.00000000000E+00 0. -1.
         25    2    1    2    0    0  0.21021430056E+02 -0.21294810795E+02 -0.59960118670E+03  0.61322311455E+03  0.12500254255E+03 0.  0.
          4    1    3    3  501    0  0.50258164980E+02 -0.28732916593E+02 -0.12609618615E+03  0.13875635014E+03  0.12700000000E+01 0.  1.
         -4    1    3    3    0  501 -0.29236734923E+02  0.74381057983E+01 -0.47350500055E+03  0.47446676441E+03  0.12700000000E+01 0.  1.
          2    1    1    2  502    0  0.11002013002E+02 -0.27413289209E+02 -0.67550078033E+03  0.67614631327E+03  0.00000000000E+00 0. -1.
          1    1    1    2  503    0 -0.32023443058E+02  0.48708100004E+02  0.83358124102E+03  0.83561693694E+03  0.00000000000E+00 0. -1.
<mgrwt>
<rscale>  0 0.41478195E+02</rscale>
<asrwt>0</asrwt>
<pdfrwt beam="1">  1        2 0.12949736E+00 0.58243684E+02</pdfrwt>
<pdfrwt beam="2">  1        1 0.19742362E+00 0.29538665E+02</pdfrwt>
<totfact> 0.58701806E+01</totfact>
</mgrwt>
</event>
<event>
 7    1  0.7037933E-004  0.8289423E+02  0.7546771E-02  0.1378040E+00
          2   -1    0    0  503    0  0.00000000000E+00  0.00000000000E+00  0.32367841924E+04  0.32367841924E+04  0.00000000000E+00 0. -1.
          1   -1    0    0  502    0 -0.00000000000E+00 -0.00000000000E+00 -0.41705864042E+03  0.41705864042E+03  0.00000000000E+00 0. -1.
         25    2    1    2    0    0  0.78263347901E+02  0.10760912969E+03 -0.58296723834E+02  0.19165196002E+03  0.12500835713E+03 0.  0.
          4    1    3    3  501    0  0.94139043155E+02  0.41435906337E+02 -0.67408183352E+02  0.12298198999E+03  0.12700000000E+01 0.  1.
         -4    1    3    3    0  501 -0.15875695254E+02  0.66173223354E+02  0.91114595183E+01  0.68669970026E+02  0.12700000000E+01 0.  1.
          2    1    1    2  502    0 -0.34555241018E+02 -0.37427621769E+02 -0.28931971143E+03  0.29376995588E+03  0.00000000000E+00 0. -1.
          1    1    1    2  503    0 -0.43708106883E+02 -0.70181507923E+02  0.31673419872E+04  0.31684209169E+04  0.00000000000E+00 0. -1.
<mgrwt>
<rscale>  0 0.64981832E+02</rscale>
<asrwt>0</asrwt>
<pdfrwt beam="1">  1        2 0.49796678E+00 0.82894230E+02</pdfrwt>
<pdfrwt beam="2">  1        1 0.64162870E-01 0.50940078E+02</pdfrwt>
<totfact> 0.14706114E+01</totfact>
</mgrwt>
</event>
<event>
 7    1  0.7037933E-004  0.1438660E+03  0.7546771E-02  0.1308498E+00
          1   -1    0    0  502    0 -0.00000000000E+00  0.00000000000E+00  0.10768864550E+04  0.10768864550E+04  0.00000000000E+00 0. -1.
          2   -1    0    0  503    0  0.00000000000E+00 -0.00000000000E+00 -0.45155834387E+03  0.45155834387E+03  0.00000000000E+00 0. -1.
         25    2    1    2    0    0 -0.18747527619E+02  0.90854233969E+02 -0.13583440278E+03  0.20659665585E+03  0.12500092642E+03 0.  0.
          4    1    3    3  501    0 -0.29102103425E+02  0.10055378883E+03 -0.43825052497E+02  0.11349116705E+03  0.12700000000E+01 0.  1.
         -4    1    3    3    0  501  0.10354575806E+02 -0.96995548611E+01 -0.92009350286E+02  0.93105488800E+02  0.12700000000E+01 0.  1.
          2    1    1    2  502    0  0.40897640721E+02 -0.13952255432E+03  0.10338215749E+04  0.10439953107E+04  0.00000000000E+00 0. -1.
          1    1    1    2  503    0 -0.22150113102E+02  0.48668320353E+02 -0.27265906093E+03  0.27785283231E+03  0.00000000000E+00 0. -1.
<mgrwt>
<rscale>  0 0.87708452E+02</rscale>
<asrwt>0</asrwt>
<pdfrwt beam="2">  1        2 0.69470515E-01 0.53471796E+02</pdfrwt>
<pdfrwt beam="1">  1        1 0.16567484E+00 0.14386598E+03</pdfrwt>
<totfact> 0.14219634E+02</totfact>
</mgrwt>
</event>
<event>
 7    1  0.7037933E-004  0.4659798E+02  0.7546771E-02  0.1490407E+00
          2   -1    0    0  503    0  0.00000000000E+00  0.00000000000E+00  0.69662964651E+03  0.69662964651E+03  0.00000000000E+00 0. -1.
          1   -1    0    0  502    0 -0.00000000000E+00 -0.00000000000E+00 -0.81982113762E+02  0.81982113762E+02  0.00000000000E+00 0. -1.
         25    2    1    2    0    0 -0.56455261384E+02 -0.46581780618E+02  0.31367050208E+03  0.34550469768E+03  0.12500901337E+03 0.  0.
          4    1    3    3  501    0 -0.85747765986E+02  0.45616290518E+01  0.18940426996E+03  0.20796412722E+03  0.12700000000E+01 0.  1.
         -4    1    3    3    0  501  0.29292504601E+02 -0.51143409670E+02  0.12426623212E+03  0.13754057047E+03  0.12700000000E+01 0.  1.
          2    1    1    2  502    0  0.17856640132E+02  0.42542845449E+02 -0.56830202814E+02  0.73201265341E+02  0.00000000000E+00 0. -1.
          1    1    1    2  503    0  0.38598621252E+02  0.40389351693E+01  0.35780723348E+03  0.35990579724E+03  0.00000000000E+00 0. -1.
<mgrwt>
<rscale>  0 0.42525732E+02</rscale>
<asrwt>0</asrwt>
<pdfrwt beam="1">  1        2 0.10717379E+00 0.38809362E+02</pdfrwt>
<pdfrwt beam="2">  1        1 0.12612633E-01 0.46597981E+02</pdfrwt>
<totfact> 0.25902073E+03</totfact>
</mgrwt>
</event>
<event>
 7    1  0.7037933E-004  0.3699999E+03  0.7546771E-02  0.1220074E+00
         -1   -1    0    0    0  501 -0.00000000000E+00  0.00000000000E+00  0.34677244867E+03  0.34677244867E+03  0.00000000000E+00 0.  1.
          1   -1    0    0  503    0  0.00000000000E+00 -0.00000000000E+00 -0.10555092929E+04  0.10555092929E+04  0.00000000000E+00 0. -1.
         25    2    1    2    0    0 -0.25055276747E+03  0.22918170565E+03 -0.15971563932E+03  0.39552889258E+03  0.12503229955E+03 0.  0.
          4    1    3    3  502    0 -0.22151109363E+03  0.24195586628E+03 -0.13279729232E+03  0.35390187846E+03  0.12700000000E+01 0.  1.
         -4    1    3    3    0  502 -0.29041673836E+02 -0.12774160636E+02 -0.26918346997E+02  0.41627014116E+02  0.12700000000E+01 0.  1.
          2    1    1    2  503    0 -0.29675495159E+02  0.39408262384E+02 -0.61159487538E+03  0.61358123973E+03  0.00000000000E+00 0. -1.
         -2    1    1    2    0  501  0.28022826263E+03 -0.26858996803E+03  0.62573670453E+02  0.39317160927E+03  0.00000000000E+00 0.  1.
<mgrwt>
<rscale>  0 0.13510306E+03</rscale>
<asrwt>0</asrwt>
<pdfrwt beam="2">  1        1 0.16238604E+00 0.49331999E+02</pdfrwt>
<pdfrwt beam="1">  1       -1 0.53349608E-01 0.36999993E+03</pdfrwt>
<totfact> 0.59951447E+01</totfact>
</mgrwt>
</event>
<event>
 7    1  0.7037933E-004  0.9672672E+02  0.7546771E-02  0.1390086E+00
          2   -1    0    0  503    0  0.00000000000E+00  0.00000000000E+00  0.45998103958E+03  0.45998103958E+03  0.00000000000E+00 0. -1.
          1   -1    0    0  502    0 -0.00000000000E+00 -0.00000000000E+00 -0.18716583117E+04  0.18716583117E+04  0.00000000000E+00 0. -1.
         25    2    1    2    0    0  0.40563770081E+02 -0.73415255266E+02 -0.75178961414E+03  0.76671355670E+03  0.12500733958E+03 0.  0.
          4    1    3    3  501    0  0.25794521981E+02 -0.48018752565E+02 -0.72464755534E+03  0.72669584443E+03  0.12700000000E+01 0.  1.
         -4    1    3    3    0  501  0.14769248101E+02 -0.25396502701E+02 -0.27142058803E+02  0.40017712265E+02  0.12700000000E+01 0.  1.
          2    1    1    2  502    0  0.36663885861E+02  0.14947809878E+02 -0.11068651886E+04  0.11075731233E+04  0.00000000000E+00 0. -1.
          1    1    1    2  503    0 -0.77227655943E+02  0.58467445388E+02  0.44697753068E+03  0.45735267130E+03  0.00000000000E+00 0. -1.
<mgrwt>
<rscale>  0 0.61885286E+02</rscale>
<asrwt>0</asrwt>
<pdfrwt beam="1">  1        2 0.70766314E-01 0.96726716E+02</pdfrwt>
<pdfrwt beam="2">  1        1 0.28794743E+00 0.39593908E+02</pdfrwt>
<totfact> 0.48547300E+01</totfact>
</mgrwt>
</event>
<event>
 7    1  0.7037933E-004  0.4695779E+02  0.7546771E-02  0.1567869E+00
          2   -1    0    0  503    0  0.00000000000E+00  0.00000000000E+00  0.46946330942E+03  0.46946330942E+03  0.00000000000E+00 0. -1.
          1   -1    0    0  502    0 -0.00000000000E+00 -0.00000000000E+00 -0.21120654038E+04  0.21120654038E+04  0.00000000000E+00 0. -1.
         25    2    1    2    0    0  0.68139541457E+02  0.25016181136E+01 -0.28496310258E+03  0.31855802444E+03  0.12500395954E+03 0.  0.
          4    1    3    3  501    0  0.57984307907E+02 -0.34452289985E+02 -0.26847149875E+03  0.27681708544E+03  0.12700000000E+01 0. -1.
         -4    1    3    3    0  501  0.10155233550E+02  0.36953908099E+02 -0.16491603836E+02  0.41740939009E+02  0.12700000000E+01 0. -1.
          2    1    1    2  502    0 -0.46319578163E+02  0.50244826105E+01 -0.18097105890E+04  0.18103102398E+04  0.00000000000E+00 0. -1.
          1    1    1    2  503    0 -0.21819963294E+02 -0.75261007240E+01  0.45207159720E+03  0.45266044888E+03  0.00000000000E+00 0. -1.
<mgrwt>
<rscale>  0 0.32921931E+02</rscale>
<asrwt>0</asrwt>
<pdfrwt beam="1">  1        2 0.72225123E-01 0.23081443E+02</pdfrwt>
<pdfrwt beam="2">  1        1 0.32493315E+00 0.46957791E+02</pdfrwt>
<totfact> 0.33514862E+01</totfact>
</mgrwt>
</event>
<event>
 7    1  0.7037933E-004  0.1155608E+03  0.7546771E-02  0.1317926E+00
          1   -1    0    0  502    0 -0.00000000000E+00  0.00000000000E+00  0.40858692470E+03  0.40858692470E+03  0.00000000000E+00 0. -1.
          2   -1    0    0  503    0  0.00000000000E+00 -0.00000000000E+00 -0.12175913552E+04  0.12175913552E+04  0.00000000000E+00 0. -1.
         25    2    1    2    0    0  0.61156233375E+02 -0.10691972060E+02 -0.19490412134E+03  0.23972093312E+03  0.12499642440E+03 0.  0.
          4    1    3    3  501    0 -0.29623057057E+02  0.23832656035E+02 -0.84521357115E+02  0.92687613582E+02  0.12700000000E+01 0. -1.
         -4    1    3    3    0  501  0.90779290432E+02 -0.34524628094E+02 -0.11038276422E+03  0.14703331954E+03  0.12700000000E+01 0. -1.
          2    1    1    2  502    0 -0.11704177921E+03 -0.14097226055E+02  0.37621702327E+03  0.39425468730E+03  0.00000000000E+00 0. -1.
          1    1    1    2  503    0  0.55885545834E+02  0.24789198115E+02 -0.99031733243E+03  0.99220265949E+03  0.00000000000E+00 0. -1.
<mgrwt>
<rscale>  0 0.84053620E+02</rscale>
<asrwt>0</asrwt>
<pdfrwt beam="2">  1        2 0.18732174E+00 0.61136720E+02</pdfrwt>
<pdfrwt beam="1">  1        1 0.62859528E-01 0.11556084E+03</pdfrwt>
<totfact> 0.17554196E+02</totfact>
</mgrwt>
</event>
<event>
 7    1  0.7037933E-004  0.1330068E+03  0.7546771E-02  0.1290720E+00
          1   -1    0    0  502    0 -0.00000000000E+00  0.00000000000E+00  0.67125335202E+03  0.67125335202E+03  0.00000000000E+00 0. -1.
          2   -1    0    0  503    0  0.00000000000E+00 -0.00000000000E+00 -0.23820384191E+04  0.23820384191E+04  0.00000000000E+00 0. -1.
         25    2    1    2    0    0 -0.74507144684E+02 -0.71438542462E+02  0.24927368509E+03  0.29733156931E+03  0.12495564042E+03 0.  0.
          4    1    3    3  501    0 -0.23216278278E+02 -0.79660992846E+02  0.22531821262E+03  0.24011409621E+03  0.12700000000E+01 0. -1.
         -4    1    3    3    0  501 -0.51290866407E+02  0.82224503836E+01  0.23955472466E+02  0.57217473101E+02  0.12700000000E+01 0. -1.
          2    1    1    2  502    0  0.37781109540E+02 -0.56711370411E+02  0.39313316323E+03  0.39899533306E+03  0.00000000000E+00 0. -1.
          1    1    1    2  503    0  0.36726035144E+02  0.12814991287E+03 -0.23531919154E+04  0.23569648687E+04  0.00000000000E+00 0. -1.
<mgrwt>
<rscale>  0 0.95202947E+02</rscale>
<asrwt>0</asrwt>
<pdfrwt beam="2">  1        2 0.36646745E+00 0.13300678E+03</pdfrwt>
<pdfrwt beam="1">  1        1 0.10326975E+00 0.68143905E+02</pdfrwt>
<totfact> 0.22044957E+01</totfact>
</mgrwt>
</event>
<event>
 7    1  0.7037933E-004  0.1236518E+03  0.7546771E-02  0.1377850E+00
          2   -1    0    0  503    0  0.00000000000E+00  0.00000000000E+00  0.14291279565E+04  0.14291279565E+04  0.00000000000E+00 0. -1.
         -2   -1    0    0    0  501 -0.00000000000E+00 -0.00000000000E+00 -0.76037546211E+02  0.76037546211E+02  0.00000000000E+00 0.  1.
         25    2    1    2    0    0 -0.10417438082E+00  0.95980004242E+02  0.34353947616E+03  0.37796589090E+03  0.12500668357E+03 0.  0.
          4    1    3    3  502    0 -0.40627317944E+02  0.78664116356E+02  0.31048601880E+03  0.32286499180E+03  0.12700000000E+01 0. -1.
         -4    1    3    3    0  502  0.40523143563E+02  0.17315887886E+02  0.33053457363E+02  0.55100899096E+02  0.12700000000E+01 0. -1.
          1    1    1    2  503    0  0.36032339118E+01 -0.13000302820E+03  0.10590654132E+04  0.10670207683E+04  0.00000000000E+00 0. -1.
         -1    1    1    2    0  501 -0.34990595309E+01  0.34023023962E+02 -0.49514479008E+02  0.60178843529E+02  0.00000000000E+00 0.  1.
<mgrwt>
<rscale>  0 0.65032279E+02</rscale>
<asrwt>0</asrwt>
<pdfrwt beam="1">  1        2 0.21986582E+00 0.12365178E+03</pdfrwt>
<pdfrwt beam="2">  1       -2 0.11698085E-01 0.34202479E+02</pdfrwt>
<totfact> 0.71693071E+02</totfact>
</mgrwt>
</event>
<event>
 7    1  0.7037933E-004  0.5713829E+02  0.7546771E-02  0.1481333E+00
          1   -1    0    0  503    0  0.00000000000E+00  0.00000000000E+00  0.24907637356E+02  0.24907637356E+02  0.00000000000E+00 0. -1.
         -1   -1    0    0    0  501 -0.00000000000E+00 -0.00000000000E+00 -0.10487782715E+04  0.10487782715E+04  0.00000000000E+00 0.  1.
         25    2    1    2    0    0  0.40101485861E+02 -0.41451844925E+02 -0.28689892605E+03  0.31821618232E+03  0.12499664116E+03 0.  0.
          4    1    3    3  502    0 -0.65170811715E+01 -0.64762841511E+01 -0.24791435712E+03  0.24808779892E+03  0.12700000000E+01 0.  1.
         -4    1    3    3    0  502  0.46618567033E+02 -0.34975560774E+02 -0.38984568930E+02  0.70128383400E+02  0.12700000000E+01 0.  1.
          2    1    1    2  503    0 -0.57982562702E+02  0.12854156560E+02 -0.91295141430E+02  0.10891285400E+03  0.00000000000E+00 0. -1.
         -2    1    1    2    0  501  0.17881076841E+02  0.28597688365E+02 -0.64567656665E+03  0.64655687253E+03  0.00000000000E+00 0.  1.
<mgrwt>
<rscale>  0 0.43899266E+02</rscale>
<asrwt>0</asrwt>
<pdfrwt beam="1">  1        1 0.38319434E-02 0.57138288E+02</pdfrwt>
<pdfrwt beam="2">  1       -1 0.16135054E+00 0.33727744E+02</pdfrwt>
<totfact> 0.74858333E+02</totfact>
</mgrwt>
</event>
<event>
 7    1  0.7037933E-004  0.8934085E+02  0.7546771E-02  0.1382219E+00
          1   -1    0    0  502    0 -0.00000000000E+00  0.00000000000E+00  0.86206264525E+02  0.86206264525E+02  0.00000000000E+00 0. -1.
          2   -1    0    0  503    0  0.00000000000E+00 -0.00000000000E+00 -0.33724850139E+03  0.33724850139E+03  0.00000000000E+00 0. -1.
         25    2    1    2    0    0  0.47827309177E+02  0.62644963751E+02 -0.15926407549E+03  0.21725925021E+03  0.12499877228E+03 0.  0.
          4    1    3    3  501    0  0.57975841069E+02  0.46243561910E+02 -0.17644358583E+03  0.19139910409E+03  0.12700000000E+01 0.  1.
         -4    1    3    3    0  501 -0.10148531892E+02  0.16401401840E+02  0.17179510338E+02  0.25860146120E+02  0.12700000000E+01 0.  1.
          2    1    1    2  502    0 -0.85816888739E+02 -0.37277178869E+02  0.10528132304E+02  0.94153959168E+02  0.00000000000E+00 0. -1.
          1    1    1    2  503    0  0.37989579562E+02 -0.25367784881E+02 -0.10230629368E+03  0.11204155654E+03  0.00000000000E+00 0. -1.
<mgrwt>
<rscale>  0 0.63883946E+02</rscale>
<asrwt>0</asrwt>
<pdfrwt beam="2">  1        2 0.51884384E-01 0.45680769E+02</pdfrwt>
<pdfrwt beam="1">  1        1 0.13262502E-01 0.89340846E+02</pdfrwt>
<totfact> 0.53904478E+03</totfact>
</mgrwt>
</event>
<event>
 7    1  0.7037933E-004  0.1004461E+03  0.7546771E-02  0.1328519E+00
          1   -1    0    0  502    0 -0.00000000000E+00  0.00000000000E+00  0.42546096299E+03  0.42546096299E+03  0.00000000000E+00 0. -1.
          2   -1    0    0  503    0  0.00000000000E+00 -0.00000000000E+00 -0.44239787272E+03  0.44239787272E+03  0.00000000000E+00 0. -1.
         25    2    1    2    0    0 -0.47082679069E+02 -0.78653967881E+02  0.83294735284E+01  0.15523350677E+03  0.12499934464E+03 0.  0.
          4    1    3    3  501    0 -0.24250927331E+02 -0.11138485438E+03 -0.18968467138E+01  0.11401712235E+03  0.12700000000E+01 0.  1.
         -4    1    3    3    0  501 -0.22831751738E+02  0.32730886499E+02  0.10226320242E+02  0.41216384414E+02  0.12700000000E+01 0.  1.
          2    1    1    2  502    0  0.59586043074E+02 -0.23397686888E+02  0.33341204779E+03  0.33950190264E+03  0.00000000000E+00 0. -1.
          1    1    1    2  503    0 -0.12503364005E+02  0.10205165477E+03 -0.35867843105E+03  0.37312342630E+03  0.00000000000E+00 0. -1.
<mgrwt>
<rscale>  0 0.80187773E+02</rscale>
<asrwt>0</asrwt>
<pdfrwt beam="2">  1        2 0.68061211E-01 0.10044610E+03</pdfrwt>
<pdfrwt beam="1">  1        1 0.65455533E-01 0.64015219E+02</pdfrwt>
<totfact> 0.56251148E+02</totfact>
</mgrwt>
</event>
<event>
 7    1  0.7037933E-004  0.6357848E+02  0.7546771E-02  0.1540517E+00
         -2   -1    0    0    0  501 -0.00000000000E+00  0.00000000000E+00  0.10386583884E+03  0.10386583884E+03  0.00000000000E+00 0.  1.
          2   -1    0    0  503    0  0.00000000000E+00 -0.00000000000E+00 -0.15639486979E+04  0.15639486979E+04  0.00000000000E+00 0. -1.
         25    2    1    2    0    0 -0.70689605503E+02 -0.14650130156E+02 -0.28822917933E+03  0.32235495836E+03  0.12500005087E+03 0.  0.
          4    1    3    3  502    0 -0.70432372086E+02  0.15332993144E+02 -0.64850139515E+02  0.96968929104E+02  0.12700000000E+01 0. -1.
         -4    1    3    3    0  502 -0.25723341648E+00 -0.29983123301E+02 -0.22337903982E+03  0.22538602925E+03  0.12700000000E+01 0. -1.
          1    1    1    2  503    0  0.74825842080E+01  0.18872709498E+02 -0.12470053257E+04  0.12471705780E+04  0.00000000000E+00 0. -1.
         -1    1    1    2    0  501  0.63207021295E+02 -0.42225793414E+01  0.75151645955E+02  0.98289000438E+02  0.00000000000E+00 0.  1.
<mgrwt>
<rscale>  0 0.35927227E+02</rscale>
<asrwt>0</asrwt>
<pdfrwt beam="2">  1        2 0.24060748E+00 0.20301927E+02</pdfrwt>
<pdfrwt beam="1">  1       -2 0.15979361E-01 0.63578481E+02</pdfrwt>
<totfact> 0.46021315E+02</totfact>
</mgrwt>
</event>
<event>
 7    1  0.7037933E-004  0.3477551E+02  0.7546771E-02  0.1561867E+00
         -2   -1    0    0    0  501  0.00000000000E+00  0.00000000000E+00  0.95794042846E+02  0.95794042846E+02  0.00000000000E+00 0.  1.
         -1   -1    0    0    0  502 -0.00000000000E+00 -0.00000000000E+00 -0.11092970010E+04  0.11092970010E+04  0.00000000000E+00 0.  1.
         25    2    1    2    0    0  0.41528269853E+02 -0.46395866610E+02 -0.17029456656E+03  0.22023416269E+03  0.12500269349E+03 0.  0.
          4    1    3    3  503    0 -0.71887843867E+01 -0.44244769588E+02 -0.18638629495E+01  0.44881679358E+02  0.12700000000E+01 0. -1.
         -4    1    3    3    0  503  0.48717054239E+02 -0.21510970212E+01 -0.16843070361E+03  0.17535248333E+03  0.12700000000E+01 0. -1.
         -2    1    1    2    0  502 -0.11248358317E+02  0.30350242140E+02 -0.90958261514E+03  0.91015833597E+03  0.00000000000E+00 0.  1.
         -1    1    1    2    0  501 -0.30279911535E+02  0.16045624470E+02  0.66374223528E+02  0.74698545208E+02  0.00000000000E+00 0.  1.
<mgrwt>
<rscale>  0 0.33549969E+02</rscale>
<asrwt>0</asrwt>
<pdfrwt beam="1">  1       -2 0.14737544E-01 0.34775509E+02</pdfrwt>
<pdfrwt beam="2">  1       -1 0.17066108E+00 0.32367619E+02</pdfrwt>
<totfact> 0.73381409E+01</totfact>
</mgrwt>
</event>
<event>
 7    1  0.7037933E-004  0.1037650E+03  0.7546771E-02  0.1332231E+00
          1   -1    0    0  503    0  0.00000000000E+00  0.00000000000E+00  0.17533027850E+04  0.17533027850E+04  0.00000000000E+00 0. -1.
         -1   -1    0    0    0  501 -0.00000000000E+00 -0.00000000000E+00 -0.17472704409E+03  0.17472704409E+03  0.00000000000E+00 0.  1.
         25    2    1    2    0    0  0.33626936234E+02  0.35473206909E+02  0.32557019623E+02  0.13810644664E+03  0.12499724728E+03 0.  0.
          4    1    3    3  502    0  0.58946699941E+02 -0.15784495383E+02 -0.15987316000E+02  0.63095728075E+02  0.12700000000E+01 0. -1.
         -4    1    3    3    0  502 -0.25319763707E+02  0.51257702291E+02  0.48544335624E+02  0.75010718564E+02  0.12700000000E+01 0. -1.
          2    1    1    2  503    0 -0.90625793321E+02 -0.54141873706E+02  0.16588157229E+04  0.16621714651E+04  0.00000000000E+00 0. -1.
         -2    1    1    2    0  501  0.56998857087E+02  0.18668666798E+02 -0.11279700157E+03  0.12775191737E+03  0.00000000000E+00 0.  1.
<mgrwt>
<rscale>  0 0.78890042E+02</rscale>
<asrwt>0</asrwt>
<pdfrwt beam="1">  1        1 0.26973888E+00 0.10376495E+03</pdfrwt>
<pdfrwt beam="2">  1       -1 0.26881085E-01 0.59978236E+02</pdfrwt>
<totfact> 0.65058160E+01</totfact>
</mgrwt>
</event>
<event>
 7    1  0.7037933E-004  0.3219217E+02  0.7546771E-02  0.1621512E+00
          2   -1    0    0  503    0  0.00000000000E+00  0.00000000000E+00  0.57794972637E+03  0.57794972637E+03  0.00000000000E+00 0. -1.
         -2   -1    0    0    0  501 -0.00000000000E+00 -0.00000000000E+00 -0.81052838751E+03  0.81052838751E+03  0.00000000000E+00 0.  1.
         25    2    1    2    0    0 -0.30663625483E+02 -0.29657984389E+02  0.62400390326E+02  0.14606873363E+03  0.12498964864E+03 0.  0.
          4    1    3    3  502    0  0.19001480888E+02 -0.30473723372E+01  0.83644070481E+02  0.85838721920E+02  0.12700000000E+01 0. -1.
         -4    1    3    3    0  502 -0.49665106371E+02 -0.26610612052E+02 -0.21243680155E+02  0.60230011715E+02  0.12700000000E+01 0. -1.
          1    1    1    2  503    0 -0.10698956594E+01  0.24301356389E+02  0.47306569845E+03  0.47369067507E+03  0.00000000000E+00 0. -1.
         -1    1    1    2    0  501  0.31733521142E+02  0.53566279997E+01 -0.76804474991E+03  0.76871870518E+03  0.00000000000E+00 0.  1.
<mgrwt>
<rscale>  0 0.27983412E+02</rscale>
<asrwt>0</asrwt>
<pdfrwt beam="1">  1        2 0.88915342E-01 0.24324897E+02</pdfrwt>
<pdfrwt beam="2">  1       -2 0.12469668E+00 0.32192175E+02</pdfrwt>
<totfact> 0.30624596E+01</totfact>
</mgrwt>
</event>
<event>
 7    1  0.7037933E-004  0.1902644E+03  0.7546771E-02  0.1372919E+00
          1   -1    0    0  503    0  0.00000000000E+00  0.00000000000E+00  0.20788450195E+03  0.20788450195E+03  0.00000000000E+00 0. -1.
         -1   -1    0    0    0  501 -0.00000000000E+00 -0.00000000000E+00 -0.30373761510E+03  0.30373761510E+03  0.00000000000E+00 0.  1.
         25    2    1    2    0    0 -0.18102520645E+03  0.32334727183E+02 -0.13194279252E+03  0.25854795679E+03  0.12498994164E+03 0.  0.
          4    1    3    3  502    0 -0.79128016292E+02  0.76335801550E+02 -0.51213328412E+02  0.12129639511E+03  0.12700000000E+01 0. -1.
         -4    1    3    3    0  502 -0.10189719016E+03 -0.44001074367E+02 -0.80729464105E+02  0.13725156167E+03  0.12700000000E+01 0. -1.
          2    1    1    2  503    0  0.18463528816E+03 -0.55198058594E+02  0.75823614039E+02  0.20708992190E+03  0.00000000000E+00 0. -1.
         -2    1    1    2    0  501 -0.36100817088E+01  0.22863331411E+02 -0.39733934675E+02  0.45984238364E+02  0.00000000000E+00 0.  1.
<mgrwt>
<rscale>  0 0.66362425E+02</rscale>
<asrwt>0</asrwt>
<pdfrwt beam="1">  1        1 0.31982231E-01 0.19026438E+03</pdfrwt>
<pdfrwt beam="2">  1       -1 0.46728864E-01 0.23146590E+02</pdfrwt>
<totfact> 0.65001176E+02</totfact>
</mgrwt>
</event>
<event>
 7    1  0.7037933E-004  0.6062299E+02  0.7546771E-02  0.1439652E+00
          1   -1    0    0  502    0 -0.00000000000E+00  0.00000000000E+00  0.30672747862E+03  0.30672747862E+03  0.00000000000E+00 0. -1.
          2   -1    0    0  503    0  0.00000000000E+00 -0.00000000000E+00 -0.14277268783E+04  0.14277268783E+04  0.00000000000E+00 0. -1.
         25    2    1    2    0    0 -0.22417415456E+02 -0.39303813465E+02 -0.42690577315E+03  0.44712658169E+03  0.12500524242E+03 0.  0.
          4    1    3    3  501    0  0.26380459580E+02  0.80094141865E+01 -0.18790657026E+02  0.33388337106E+02  0.12700000000E+01 0.  1.
         -4    1    3    3    0  501 -0.48797875035E+02 -0.47313227652E+02 -0.40811511612E+03  0.41373824458E+03  0.12700000000E+01 0.  1.
          2    1    1    2  502    0  0.36763730999E+02 -0.22347565107E+02  0.29403898023E+03  0.29716982935E+03  0.00000000000E+00 0. -1.
          1    1    1    2  503    0 -0.14346315543E+02  0.61651378572E+02 -0.98813260678E+03  0.99015794590E+03  0.00000000000E+00 0. -1.
<mgrwt>
<rscale>  0 0.51070422E+02</rscale>
<asrwt>0</asrwt>
<pdfrwt beam="2">  1        2 0.21965029E+00 0.60622994E+02</pdfrwt>
<pdfrwt beam="1">  1        1 0.47188842E-01 0.43023082E+02</pdfrwt>
<totfact> 0.19516664E+02</totfact>
</mgrwt>
</event>
<event>
 7    1  0.7037933E-004  0.6310623E+02  0.7546771E-02  0.1391114E+00
         -2   -1    0    0    0  501 -0.00000000000E+00  0.00000000000E+00  0.14603009980E+03  0.14603009980E+03  0.00000000000E+00 0.  1.
          2   -1    0    0  503    0  0.00000000000E+00 -0.00000000000E+00 -0.12821319252E+04  0.12821319252E+04  0.00000000000E+00 0. -1.
         25    2    1    2    0    0 -0.27393681988E+02 -0.11738912101E+03 -0.48931038167E+02  0.18041478732E+03  0.12499851776E+03 0.  0.
          4    1    3    3  502    0  0.41573603978E+02 -0.90506103128E+02 -0.26919801915E+02  0.10317949354E+03  0.12700000000E+01 0. -1.
         -4    1    3    3    0  502 -0.68967285966E+02 -0.26883017882E+02 -0.22011236251E+02  0.77235293780E+02  0.12700000000E+01 0. -1.
          1    1    1    2  503    0  0.24796819657E+02  0.57255905594E+02 -0.11552171344E+04  0.11569009243E+04  0.00000000000E+00 0. -1.
         -1    1    1    2    0  501  0.25968623304E+01  0.60133215417E+02  0.68046347187E+02  0.90846313386E+02  0.00000000000E+00 0.  1.
<mgrwt>
<rscale>  0 0.61630489E+02</rscale>
<asrwt>0</asrwt>
<pdfrwt beam="2">  1        2 0.19725106E+00 0.63106226E+02</pdfrwt>
<pdfrwt beam="1">  1       -2 0.22466170E-01 0.60189262E+02</pdfrwt>
<totfact> 0.32683917E+02</totfact>
</mgrwt>
</event>
<event>
 7    1  0.7037933E-004  0.1320642E+03  0.7546771E-02  0.1281600E+00
          1   -1    0    0  503    0  0.00000000000E+00  0.00000000000E+00  0.63470576201E+03  0.63470576201E+03  0.00000000000E+00 0. -1.
         -1   -1    0    0    0  501 -0.00000000000E+00 -0.00000000000E+00 -0.45034444516E+03  0.45034444516E+03  0.00000000000E+00 0.  1.
         25    2    1    2    0    0 -0.62565930692E+02  0.93985756785E+02 -0.68459544075E+02  0.18182137736E+03  0.12499794370E+03 0.  0.
          4    1    3    3  502    0  0.15857755956E+02  0.59112219562E+02 -0.73720441001E+02  0.95822957828E+02  0.12700000000E+01 0. -1.
         -4    1    3    3    0  502 -0.78423686648E+02  0.34873537223E+02  0.52608969264E+01  0.85998419534E+02  0.12700000000E+01 0. -1.
          2    1    1    2  503    0  0.12414155317E+03 -0.51538758634E+02  0.56574400516E+03  0.58149260378E+03  0.00000000000E+00 0. -1.
         -2    1    1    2    0  501 -0.61575622483E+02 -0.42446998151E+02 -0.31292314424E+03  0.32173622603E+03  0.00000000000E+00 0.  1.
<mgrwt>
<rscale>  0 0.99382432E+02</rscale>
<asrwt>0</asrwt>
<pdfrwt beam="1">  1        1 0.97647040E-01 0.13206417E+03</pdfrwt>
<pdfrwt beam="2">  1       -1 0.69283761E-01 0.74788401E+02</pdfrwt>
<totfact> 0.76197813E+01</totfact>
</mgrwt>
</event>
<event>
 7    1  0.7037933E-004  0.7765128E+02  0.7546771E-02  0.1485365E+00
          2   -1    0    0  503    0  0.00000000000E+00  0.00000000000E+00  0.31048124938E+03  0.31048124938E+03  0.00000000000E+00 0. -1.
         -2   -1    0    0    0  501 -0.00000000000E+00 -0.00000000000E+00 -0.38380581519E+03  0.38380581519E+03  0.00000000000E+00 0.  1.
         25    2    1    2    0    0  0.75904632936E+02  0.60655863489E+02 -0.31890389058E+02  0.16150251620E+03  0.12500167498E+03 0.  0.
          4    1    3    3  502    0  0.66365219894E+02  0.76963592458E+02  0.22341384618E+02  0.10406001798E+03  0.12700000000E+01 0.  1.
         -4    1    3    3    0  502  0.95394130422E+01 -0.16307728969E+02 -0.54231773676E+02  0.57442498217E+02  0.12700000000E+01 0.  1.
          1    1    1    2  503    0 -0.66025985060E+02 -0.38646930091E+02  0.23918904433E+03  0.25112629260E+03  0.00000000000E+00 0. -1.
         -1    1    1    2    0  501 -0.98786478763E+01 -0.22008933397E+02 -0.28062322108E+03  0.28165825577E+03  0.00000000000E+00 0.  1.
<mgrwt>
<rscale>  0 0.43281419E+02</rscale>
<asrwt>0</asrwt>
<pdfrwt beam="1">  1        2 0.47766346E-01 0.77651284E+02</pdfrwt>
<pdfrwt beam="2">  1       -2 0.59047048E-01 0.24124279E+02</pdfrwt>
<totfact> 0.29066125E+02</totfact>
</mgrwt>
</event>
<event>
 7    1  0.7037933E-004  0.5618782E+03  0.7546771E-02  0.1175532E+00
          2   -1    0    0  503    0  0.00000000000E+00  0.00000000000E+00  0.79722366102E+03  0.79722366102E+03  0.00000000000E+00 0. -1.
          1   -1    0    0  502    0 -0.00000000000E+00 -0.00000000000E+00 -0.11581363278E+04  0.11581363278E+04  0.00000000000E+00 0. -1.
         25    2    1    2    0    0  0.11677321500E+03  0.55027731710E+03 -0.96531653663E+02  0.58428209560E+03  0.12500439043E+03 0.  0.
          4    1    3    3  501    0  0.54669230741E+02  0.41263972894E+03 -0.24476726405E+02  0.41696641799E+03  0.12700000000E+01 0. -1.
         -4    1    3    3    0  501  0.62103984257E+02  0.13763758815E+03 -0.72054927258E+02  0.16731567761E+03  0.12700000000E+01 0. -1.
          2    1    1    2  502    0 -0.64633635159E+02 -0.55859693164E+03 -0.71934933861E+03  0.91305613726E+03  0.00000000000E+00 0. -1.
          1    1    1    2  503    0 -0.52139579838E+02  0.83196145390E+01  0.45496832548E+03  0.45802175599E+03  0.00000000000E+00 0. -1.
<mgrwt>
<rscale>  0 0.17224024E+03</rscale>
<asrwt>0</asrwt>
<pdfrwt beam="1">  1        2 0.12264979E+00 0.52799164E+02</pdfrwt>
<pdfrwt beam="2">  1        1 0.17817482E+00 0.56187820E+03</pdfrwt>
<totfact> 0.60867678E+01</totfact>
</mgrwt>
</event>
<event>
 7    1  0.7037933E-004  0.7131062E+02  0.7546771E-02  0.1368798E+00
          1   -1    0    0  502    0 -0.00000000000E+00  0.00000000000E+00  0.61562699914E+02  0.61562699914E+02  0.00000000000E+00 0. -1.
          2   -1    0    0  503    0  0.00000000000E+00 -0.00000000000E+00 -0.27621709406E+04  0.27621709406E+04  0.00000000000E+00 0. -1.
         25    2    1    2    0    0  0.54598098252E+01  0.12328581639E+03 -0.66679466652E+03  0.68954317296E+03  0.12500183211E+03 0.  0.
          4    1    3    3  501    0  0.57866565240E+02  0.10289786906E+03 -0.48972173742E+03  0.50375143060E+03  0.12700000000E+01 0.  1.
         -4    1    3    3    0  501 -0.52406755415E+02  0.20387947326E+02 -0.17707292909E+03  0.18579174235E+03  0.12700000000E+01 0.  1.
          2    1    1    2  502    0 -0.27284357444E+02 -0.57779481020E+02  0.29036181564E+02  0.70185500126E+02  0.00000000000E+00 0. -1.
          1    1    1    2  503    0  0.21824547619E+02 -0.65506335366E+02 -0.20628497557E+04  0.20640049674E+04  0.00000000000E+00 0. -1.
<mgrwt>
<rscale>  0 0.67502431E+02</rscale>
<asrwt>0</asrwt>
<pdfrwt beam="2">  1        2 0.42494942E+00 0.71310621E+02</pdfrwt>
<pdfrwt beam="1">  1        1 0.94711836E-02 0.63897610E+02</pdfrwt>
<totfact> 0.29775045E+02</totfact>
</mgrwt>
</event>
<event>
 7    1  0.7037933E-004  0.8489352E+02  0.7546771E-02  0.1395438E+00
          2   -1    0    0  503    0  0.00000000000E+00  0.00000000000E+00  0.16980154992E+04  0.16980154992E+04  0.00000000000E+00 0. -1.
         -2   -1    0    0    0  501 -0.00000000000E+00 -0.00000000000E+00 -0.48232594834E+02  0.48232594834E+02  0.00000000000E+00 0.  1.
         25    2    1    2    0    0 -0.49256668303E+02 -0.32368072289E+02  0.11153472928E+04  0.11238760685E+04  0.12499568964E+03 0.  0.
          4    1    3    3  502    0 -0.12372066041E+02 -0.60901682059E+02  0.26270467696E+03  0.26995822471E+03  0.12700000000E+01 0.  1.
         -4    1    3    3    0  502 -0.36884602262E+02  0.28533609770E+02  0.85264261584E+03  0.85391784383E+03  0.12700000000E+01 0.  1.
          1    1    1    2  503    0 -0.36401854552E+02  0.23302157437E+02  0.53449037123E+03  0.53623506272E+03  0.00000000000E+00 0. -1.
         -1    1    1    2    0  501  0.85658522854E+02  0.90659148522E+01 -0.54759695016E-01  0.86136962730E+02  0.00000000000E+00 0.  1.
<mgrwt>
<rscale>  0 0.60574030E+02</rscale>
<asrwt>0</asrwt>
<pdfrwt beam="1">  1        2 0.26123311E+00 0.43221355E+02</pdfrwt>
<pdfrwt beam="2">  1       -2 0.74204005E-02 0.84893522E+02</pdfrwt>
<totfact> 0.12431809E+03</totfact>
</mgrwt>
</event>
<event>
 7    1  0.7037933E-004  0.7130377E+02  0.7546771E-02  0.1445737E+00
          1   -1    0    0  502    0 -0.00000000000E+00  0.00000000000E+00  0.71450667967E+02  0.71450667967E+02  0.00000000000E+00 0. -1.
          2   -1    0    0  503    0  0.00000000000E+00 -0.00000000000E+00 -0.92351029203E+03  0.92351029203E+03  0.00000000000E+00 0. -1.
         25    2    1    2    0    0  0.74921154040E+02 -0.59491836358E+02 -0.97955577449E+02  0.18540485111E+03  0.12500882267E+03 0.  0.
          4    1    3    3  501    0  0.95624419377E+02 -0.21325520702E+02 -0.26030819231E+02  0.10138058919E+03  0.12700000000E+01 0.  1.
         -4    1    3    3    0  501 -0.20703265337E+02 -0.38166315656E+02 -0.71924758218E+02  0.84024261920E+02  0.12700000000E+01 0.  1.
          2    1    1    2  502    0 -0.34931890411E+02  0.13686695195E+01  0.14408805739E+02  0.37811690081E+02  0.00000000000E+00 0. -1.
          1    1    1    2  503    0 -0.39989263629E+02  0.58123166838E+02 -0.76851285235E+03  0.77174441880E+03  0.00000000000E+00 0. -1.
<mgrwt>
<rscale>  0 0.49926812E+02</rscale>
<asrwt>0</asrwt>
<pdfrwt beam="2">  1        2 0.14207850E+00 0.71303770E+02</pdfrwt>
<pdfrwt beam="1">  1        1 0.10992411E-01 0.34958693E+02</pdfrwt>
<totfact> 0.21058318E+03</totfact>
</mgrwt>
</event>
<event>
 7    1  0.7037933E-004  0.5945293E+02  0.7546771E-02  0.1527285E+00
          1   -1    0    0  502    0 -0.00000000000E+00  0.00000000000E+00  0.17501487534E+04  0.17501487534E+04  0.00000000000E+00 0. -1.
          2   -1    0    0  503    0  0.00000000000E+00 -0.00000000000E+00 -0.47357813928E+02  0.47357813928E+02  0.00000000000E+00 0. -1.
         25    2    1    2    0    0 -0.50809972514E+02 -0.58099282323E+02  0.41784279026E+03  0.44291604388E+03  0.12499937857E+03 0.  0.
          4    1    3    3  501    0 -0.24524082009E+02 -0.24238528018E+02  0.14710781584E+02  0.37509423265E+02  0.12700000000E+01 0. -1.
         -4    1    3    3    0  501 -0.26285890505E+02 -0.33860754305E+02  0.40313200867E+03  0.40540662061E+03  0.12700000000E+01 0. -1.
          2    1    1    2  502    0  0.22694837681E+02  0.67601594493E+01  0.12949860970E+04  0.12952025892E+04  0.00000000000E+00 0. -1.
          1    1    1    2  503    0  0.28115134833E+02  0.51339122874E+02 -0.10037947822E+02  0.59387934301E+02  0.00000000000E+00 0. -1.
<mgrwt>
<rscale>  0 0.37521484E+02</rscale>
<asrwt>0</asrwt>
<pdfrwt beam="2">  1        2 0.72858189E-02 0.59452930E+02</pdfrwt>
<pdfrwt beam="1">  1        1 0.26925360E+00 0.23680275E+02</pdfrwt>
<totfact> 0.75583554E+02</totfact>
</mgrwt>
</event>
<event>
 7    1  0.7037933E-004  0.6726619E+02  0.7546771E-02  0.1477111E+00
         -1   -1    0    0    0  501 -0.00000000000E+00  0.00000000000E+00  0.77665390347E+03  0.77665390347E+03  0.00000000000E+00 0.  1.
          1   -1    0    0  503    0  0.00000000000E+00 -0.00000000000E+00 -0.44451158327E+03  0.44451158327E+03  0.00000000000E+00 0. -1.
         25    2    1    2    0    0 -0.17258207337E+02 -0.68333829172E+02  0.52527876753E+02  0.15280679570E+03  0.12499352402E+03 0.  0.
          4    1    3    3  502    0 -0.53840029577E+02 -0.25607882491E+02 -0.18276519188E+02  0.62371118991E+02  0.12700000000E+01 0.  1.
         -4    1    3    3    0  502  0.36581822239E+02 -0.42725946680E+02  0.70804395941E+02  0.90435676714E+02  0.12700000000E+01 0.  1.
          2    1    1    2  503    0 -0.12185002109E+02  0.66239081027E+02 -0.39116967002E+03  0.39692543491E+03  0.00000000000E+00 0. -1.
         -2    1    1    2    0  501  0.29443209447E+02  0.20947481443E+01  0.67078411347E+03  0.67143325613E+03  0.00000000000E+00 0.  1.
<mgrwt>
<rscale>  0 0.44559382E+02</rscale>
<asrwt>0</asrwt>
<pdfrwt beam="2">  1        1 0.68386397E-01 0.67266187E+02</pdfrwt>
<pdfrwt beam="1">  1       -1 0.11948522E+00 0.29517631E+02</pdfrwt>
<totfact> 0.41151160E+01</totfact>
</mgrwt>
</event>
<event>
 7    1  0.7037933E-004  0.9752005E+02  0.7546771E-02  0.1338588E+00
          1   -1    0    0  502    0 -0.00000000000E+00  0.00000000000E+00  0.28862637742E+03  0.28862637742E+03  0.00000000000E+00 0. -1.
          2   -1    0    0  503    0  0.00000000000E+00 -0.00000000000E+00 -0.32498654745E+03  0.32498654745E+03  0.00000000000E+00 0. -1.
         25    2    1    2    0    0  0.13440177473E+03 -0.59006907414E+02 -0.71664647662E+02  0.20568453576E+03  0.12499861740E+03 0.  0.
          4    1    3    3  501    0  0.31921553483E+02 -0.78149336080E+02 -0.11218528876E+02  0.85169082399E+02  0.12700000000E+01 0. -1.
         -4    1    3    3    0  501  0.10248022125E+03  0.19142428666E+02 -0.60446118787E+02  0.12051545336E+03  0.12700000000E+01 0. -1.
          2    1    1    2  502    0 -0.47353255047E+02  0.37456398774E+02  0.20624100752E+03  0.21489687238E+03  0.00000000000E+00 0. -1.
          1    1    1    2  503    0 -0.87048519687E+02  0.21550508640E+02 -0.17093652989E+03  0.19303151674E+03  0.00000000000E+00 0. -1.
<mgrwt>
<rscale>  0 0.76732730E+02</rscale>
<asrwt>0</asrwt>
<pdfrwt beam="2">  1        2 0.49997930E-01 0.97520050E+02</pdfrwt>
<pdfrwt beam="1">  1        1 0.44404058E-01 0.60376424E+02</pdfrwt>
<totfact> 0.12478457E+03</totfact>
</mgrwt>
</event>
<event>
 7    1  0.7037933E-004  0.1015496E+03  0.7546771E-02  0.1318558E+00
          1   -1    0    0  502    0 -0.00000000000E+00  0.00000000000E+00  0.55965609828E+03  0.55965609828E+03  0.00000000000E+00 0. -1.
          2   -1    0    0  503    0  0.00000000000E+00 -0.00000000000E+00 -0.70630247750E+03  0.70630247750E+03  0.00000000000E+00 0. -1.
         25    2    1    2    0    0 -0.94207451853E+02  0.31341887392E+02  0.21369303181E+03  0.26673288501E+03  0.12499744881E+03 0.  0.
          4    1    3    3  501    0 -0.27690893348E+02  0.22334240290E+02  0.19332555564E+03  0.19657565268E+03  0.12700000000E+01 0. -1.
         -4    1    3    3    0  501 -0.66516558506E+02  0.90076471022E+01  0.20367476169E+02  0.70157232323E+02  0.12700000000E+01 0. -1.
          2    1    1    2  502    0  0.41067846219E+02  0.55670638679E+02  0.31180774983E+03  0.31938982585E+03  0.00000000000E+00 0. -1.
          1    1    1    2  503    0  0.53139605634E+02 -0.87012526071E+02 -0.67214716086E+03  0.67983586492E+03  0.00000000000E+00 0. -1.
<mgrwt>
<rscale>  0 0.83816124E+02</rscale>
<asrwt>0</asrwt>
<pdfrwt beam="2">  1        2 0.10866192E+00 0.10154965E+03</pdfrwt>
<pdfrwt beam="1">  1        1 0.86100938E-01 0.69179390E+02</pdfrwt>
<totfact> 0.23597950E+02</totfact>
</mgrwt>
</event>
<event>
 7    1  0.7037933E-004  0.6625707E+02  0.7546771E-02  0.1412243E+00
         -1   -1    0    0    0  501 -0.00000000000E+00  0.00000000000E+00  0.20715053536E+03  0.20715053536E+03  0.00000000000E+00 0.  1.
          1   -1    0    0  503    0  0.00000000000E+00 -0.00000000000E+00 -0.26732429712E+04  0.26732429712E+04  0.00000000000E+00 0. -1.
         25    2    1    2    0    0  0.39650792935E+02  0.59404072191E+02 -0.31300793035E+02  0.14732843229E+03  0.12499959257E+03 0.  0.
          4    1    3    3  502    0  0.39464640007E+02  0.95841670682E+02 -0.37722118570E+02  0.11030709306E+03  0.12700000000E+01 0. -1.
         -4    1    3    3    0  502  0.18615292803E+00 -0.36437598491E+02  0.64213255349E+01  0.37021339230E+02  0.12700000000E+01 0. -1.
          2    1    1    2  503    0 -0.47968210516E+02  0.72635877976E+01 -0.25761218834E+04  0.25765786747E+04  0.00000000000E+00 0. -1.
         -2    1    1    2    0  501  0.83174175808E+01 -0.66667659988E+02  0.14133024061E+03  0.15648639952E+03  0.00000000000E+00 0.  1.
<mgrwt>
<rscale>  0 0.56696245E+02</rscale>
<asrwt>0</asrwt>
<pdfrwt beam="2">  1        1 0.41126816E+00 0.48515038E+02</pdfrwt>
<pdfrwt beam="1">  1       -1 0.31869312E-01 0.66257068E+02</pdfrwt>
<totfact> 0.14486557E+01</totfact>
</mgrwt>
</event>
<event>
 7    1  0.7037933E-004  0.2736946E+03  0.7546771E-02  0.1261768E+00
          2   -1    0    0  503    0  0.00000000000E+00  0.00000000000E+00  0.16721281980E+04  0.16721281980E+04  0.00000000000E+00 0. -1.
          1   -1    0    0  502    0 -0.00000000000E+00 -0.00000000000E+00 -0.19309402123E+03  0.19309402123E+03  0.00000000000E+00 0. -1.
         25    2    1    2    0    0  0.26746496665E+03  0.12151633107E+02  0.11736584590E+04  0.12102829904E+04  0.12500227134E+03 0.  0.
          4    1    3    3  501    0  0.28802853660E+02  0.46132629202E+02  0.22011548827E+03  0.22673831818E+03  0.12700000000E+01 0. -1.
         -4    1    3    3    0  501  0.23866211299E+03 -0.33980996094E+02  0.95354297071E+03  0.98354467217E+03  0.12700000000E+01 0. -1.
          2    1    1    2  502    0  0.17668870652E+02  0.39961585164E+02 -0.12705031055E+03  0.13435363296E+03  0.00000000000E+00 0. -1.
          1    1    1    2  503    0 -0.28513383730E+03 -0.52113218272E+02  0.43242602837E+03  0.52058559594E+03  0.00000000000E+00 0. -1.
<mgrwt>
<rscale>  0 0.10935567E+03</rscale>
<asrwt>0</asrwt>
<pdfrwt beam="1">  1        2 0.25725048E+00 0.27369464E+03</pdfrwt>
<pdfrwt beam="2">  1        1 0.29706774E-01 0.43693447E+02</pdfrwt>
<totfact> 0.22371785E+02</totfact>
</mgrwt>
</event>
<event>
 7    1  0.7037933E-004  0.3620380E+02  0.7546771E-02  0.1598360E+00
          2   -1    0    0  503    0  0.00000000000E+00  0.00000000000E+00  0.58061550237E+03  0.58061550237E+03  0.00000000000E+00 0. -1.
          1   -1    0    0  502    0 -0.00000000000E+00 -0.00000000000E+00 -0.11748654329E+04  0.11748654329E+04  0.00000000000E+00 0. -1.
         25    2    1    2    0    0 -0.50047955168E+01 -0.41322268051E+02 -0.10563882046E+03  0.16892712316E+03  0.12507691528E+03 0.  0.
          4    1    3    3  501    0  0.34754766812E+02 -0.60126365727E+02 -0.10378975541E+03  0.12488794938E+03  0.12700000000E+01 0.  1.
         -4    1    3    3    0  501 -0.39759562329E+02  0.18804097676E+02 -0.18490650557E+01  0.44039173784E+02  0.12700000000E+01 0.  1.
          2    1    1    2  502    0 -0.19812690663E+02  0.14947269271E+02 -0.10368365255E+04  0.10371335228E+04  0.00000000000E+00 0. -1.
          1    1    1    2  503    0  0.24817486179E+02  0.26374998781E+02  0.54822541542E+03  0.54942028930E+03  0.00000000000E+00 0. -1.
<mgrwt>
<rscale>  0 0.29975458E+02</rscale>
<asrwt>0</asrwt>
<pdfrwt beam="1">  1        2 0.89325464E-01 0.36203799E+02</pdfrwt>
<pdfrwt beam="2">  1        1 0.18074852E+00 0.24818613E+02</pdfrwt>
<totfact> 0.10780829E+02</totfact>
</mgrwt>
</event>
<event>
 7    1  0.7037933E-004  0.9917863E+02  0.7546771E-02  0.1411494E+00
         -1   -1    0    0    0  501 -0.00000000000E+00  0.00000000000E+00  0.12305144711E+04  0.12305144711E+04  0.00000000000E+00 0.  1.
          1   -1    0    0  503    0  0.00000000000E+00 -0.00000000000E+00 -0.95448609246E+03  0.95448609246E+03  0.00000000000E+00 0. -1.
         25    2    1    2    0    0  0.36310954221E+02  0.65219573643E+02  0.63372672355E+02  0.15878759230E+03  0.12500130273E+03 0.  0.
          4    1    3    3  502    0  0.62477089987E+02 -0.57121759204E+01  0.44174222433E+01  0.62905820449E+02  0.12700000000E+01 0.  1.
         -4    1    3    3    0  502 -0.26166135766E+02  0.70931749563E+02  0.58955250112E+02  0.95881771848E+02  0.12700000000E+01 0.  1.
          2    1    1    2  503    0 -0.67927727552E+02 -0.73167032075E+02 -0.90379190167E+03  0.90928949861E+03  0.00000000000E+00 0. -1.
         -2    1    1    2    0  501  0.31616773331E+02  0.79474584323E+01  0.11164476080E+04  0.11169234727E+04  0.00000000000E+00 0.  1.
<mgrwt>
<rscale>  0 0.56861740E+02</rscale>
<asrwt>0</asrwt>
<pdfrwt beam="2">  1        1 0.14684401E+00 0.99178631E+02</pdfrwt>
<pdfrwt beam="1">  1       -1 0.18930992E+00 0.32600344E+02</pdfrwt>
<totfact> 0.44021262E+00</totfact>
</mgrwt>
</event>
<event>
 7    1  0.7037933E-004  0.1235132E+03  0.7546771E-02  0.1289422E+00
          2   -1    0    0  503    0  0.00000000000E+00  0.00000000000E+00  0.10949993555E+04  0.10949993555E+04  0.00000000000E+00 0. -1.
          1   -1    0    0  502    0 -0.00000000000E+00 -0.00000000000E+00 -0.85829852187E+02  0.85829852187E+02  0.00000000000E+00 0. -1.
         25    2    1    2    0    0  0.14125916896E+02 -0.76071302119E+02  0.37047004825E+03  0.39857106848E+03  0.12499782175E+03 0.  0.
          4    1    3    3  501    0 -0.50769918366E+02 -0.17922165784E+02  0.19991283124E+03  0.20703995177E+03  0.12700000000E+01 0.  1.
         -4    1    3    3    0  501  0.64895835262E+02 -0.58149136335E+02  0.17055721702E+03  0.19153111671E+03  0.12700000000E+01 0.  1.
          2    1    1    2  502    0  0.28542935838E+02 -0.68575485939E+02 -0.41810885158E+02  0.85237588983E+02  0.00000000000E+00 0. -1.
          1    1    1    2  503    0 -0.42668852733E+02  0.14464678806E+03  0.68051034019E+03  0.69702055020E+03  0.00000000000E+00 0. -1.
<mgrwt>
<rscale>  0 0.95782980E+02</rscale>
<asrwt>0</asrwt>
<pdfrwt beam="1">  1        2 0.16846143E+00 0.12351324E+03</pdfrwt>
<pdfrwt beam="2">  1        1 0.13204593E-01 0.74278506E+02</pdfrwt>
<totfact> 0.13534711E+03</totfact>
</mgrwt>
</event>
<event>
 7    1  0.7037933E-004  0.3674205E+02  0.7546771E-02  0.1569052E+00
          1   -1    0    0  503    0  0.00000000000E+00  0.00000000000E+00  0.12138534128E+04  0.12138534128E+04  0.00000000000E+00 0. -1.
         -1   -1    0    0    0  501 -0.00000000000E+00 -0.00000000000E+00 -0.32394468740E+02  0.32394468740E+02  0.00000000000E+00 0.  1.
         25    2    1    2    0    0 -0.23612908504E+02 -0.56874228573E+02  0.53600176882E+03  0.55380971458E+03  0.12496021954E+03 0.  0.
          4    1    3    3  502    0 -0.19685141027E+02  0.35354981283E+02  0.25054544861E+03  0.25379541800E+03  0.12700000000E+01 0. -1.
         -4    1    3    3    0  502 -0.39277674771E+01 -0.92229209856E+02  0.28545632020E+03  0.30001429658E+03  0.12700000000E+01 0. -1.
          2    1    1    2  503    0  0.20578141083E+02  0.20830705773E+02  0.65449937218E+03  0.65515403256E+03  0.00000000000E+00 0. -1.
         -2    1    1    2    0  501  0.30347674211E+01  0.36043522800E+02 -0.90421969715E+01  0.37284134363E+02  0.00000000000E+00 0.  1.
<mgrwt>
<rscale>  0 0.32800072E+02</rscale>
<asrwt>0</asrwt>
<pdfrwt beam="1">  1        1 0.18674664E+00 0.29281021E+02</pdfrwt>
<pdfrwt beam="2">  1       -1 0.49837653E-02 0.36742050E+02</pdfrwt>
<totfact> 0.19526019E+03</totfact>
</mgrwt>
</event>
<event>
 7    1  0.7037933E-004  0.1449473E+03  0.7546771E-02  0.1311772E+00
          2   -1    0    0  503    0  0.00000000000E+00  0.00000000000E+00  0.15133429284E+04  0.15133429284E+04  0.00000000000E+00 0. -1.
          1   -1    0    0  502    0 -0.00000000000E+00 -0.00000000000E+00 -0.37311707643E+03  0.37311707643E+03  0.00000000000E+00 0. -1.
         25    2    1    2    0    0  0.81600856277E+02 -0.57769109895E+02  0.22150952848E+03  0.27330151941E+03  0.12502511548E+03 0.  0.
          4    1    3    3  501    0  0.32013606722E+02 -0.55627760212E+02  0.21358483804E+03  0.22302335004E+03  0.12700000000E+01 0. -1.
         -4    1    3    3    0  501  0.49587249555E+02 -0.21413496831E+01  0.79246904415E+01  0.50278169373E+02  0.12700000000E+01 0. -1.
          2    1    1    2  502    0 -0.10596041876E+03  0.10316615283E+03 -0.33091911184E+03  0.36246147935E+03  0.00000000000E+00 0. -1.
          1    1    1    2  503    0  0.24359562486E+02 -0.45397042939E+02  0.12496354353E+04  0.12506970061E+04  0.00000000000E+00 0. -1.
<mgrwt>
<rscale>  0 0.86415518E+02</rscale>
<asrwt>0</asrwt>
<pdfrwt beam="1">  1        2 0.23282199E+00 0.51519703E+02</pdfrwt>
<pdfrwt beam="2">  1        1 0.57402628E-01 0.14494730E+03</pdfrwt>
<totfact> 0.14047848E+02</totfact>
</mgrwt>
</event>
<event>
 7    1  0.7037933E-004  0.1068533E+03  0.7546771E-02  0.1404595E+00
          1   -1    0    0  502    0 -0.00000000000E+00  0.00000000000E+00  0.12062538787E+03  0.12062538787E+03  0.00000000000E+00 0. -1.
          2   -1    0    0  503    0  0.00000000000E+00 -0.00000000000E+00 -0.53428370301E+03  0.53428370301E+03  0.00000000000E+00 0. -1.
         25    2    1    2    0    0  0.64972158749E+02  0.11084565668E+03 -0.36913932118E+03  0.41036192750E+03  0.12499972835E+03 0.  0.
          4    1    3    3  501    0 -0.29568386462E+02  0.16197243462E+02 -0.27713223978E+02  0.43660919104E+02  0.12700000000E+01 0. -1.
         -4    1    3    3    0  501  0.94540545210E+02  0.94648413214E+02 -0.34142609720E+03  0.36670100840E+03  0.12700000000E+01 0. -1.
          2    1    1    2  502    0 -0.69550016905E+02 -0.79238025525E+02  0.69408622368E+02  0.12622767684E+03  0.00000000000E+00 0. -1.
          1    1    1    2  503    0  0.45778581565E+01 -0.31607631151E+02 -0.11392761633E+03  0.11831948654E+03  0.00000000000E+00 0. -1.
<mgrwt>
<rscale>  0 0.58417627E+02</rscale>
<asrwt>0</asrwt>
<pdfrwt beam="2">  1        2 0.82197492E-01 0.31937425E+02</pdfrwt>
<pdfrwt beam="1">  1        1 0.18557752E-01 0.10685330E+03</pdfrwt>
<totfact> 0.22113119E+03</totfact>
</mgrwt>
</event>
<event>
 7    1  0.7037933E-004  0.7973600E+02  0.7546771E-02  0.1469893E+00
          1   -1    0    0  502    0 -0.00000000000E+00  0.00000000000E+00  0.38788189631E+02  0.38788189631E+02  0.00000000000E+00 0. -1.
          2   -1    0    0  503    0  0.00000000000E+00 -0.00000000000E+00 -0.14046160326E+04  0.14046160326E+04  0.00000000000E+00 0. -1.
         25    2    1    2    0    0 -0.33900947844E+02  0.85262062478E+02 -0.73711190848E+03  0.75324446699E+03  0.12499747142E+03 0.  0.
          4    1    3    3  501    0 -0.72208011658E+02  0.56711452231E+02 -0.61988711071E+03  0.62665128156E+03  0.12700000000E+01 0. -1.
         -4    1    3    3    0  501  0.38307063814E+02  0.28550610247E+02 -0.11722479777E+03  0.12659318542E+03  0.12700000000E+01 0. -1.
          2    1    1    2  502    0  0.85301029433E+01 -0.78658902404E+02 -0.20974318851E+02  0.81852963507E+02  0.00000000000E+00 0. -1.
          1    1    1    2  503    0  0.25370844901E+02 -0.66031600735E+01 -0.60774161568E+03  0.60830679178E+03  0.00000000000E+00 0. -1.
<mgrwt>
<rscale>  0 0.45720492E+02</rscale>
<asrwt>0</asrwt>
<pdfrwt beam="2">  1        2 0.21609476E+00 0.26216054E+02</pdfrwt>
<pdfrwt beam="1">  1        1 0.59674143E-02 0.79736004E+02</pdfrwt>
<totfact> 0.29553193E+03</totfact>
</mgrwt>
</event>
<event>
 7    1  0.7037933E-004  0.6606960E+02  0.7546771E-02  0.1409815E+00
         -2   -1    0    0    0  501 -0.00000000000E+00  0.00000000000E+00  0.38450869684E+03  0.38450869684E+03  0.00000000000E+00 0.  1.
          2   -1    0    0  503    0  0.00000000000E+00 -0.00000000000E+00 -0.99102101258E+03  0.99102101258E+03  0.00000000000E+00 0. -1.
         25    2    1    2    0    0 -0.68454464291E+02 -0.24327309391E+02 -0.24070941042E+02  0.14656684728E+03  0.12499839541E+03 0.  0.
          4    1    3    3  502    0  0.19248284117E+02  0.31109650231E+02  0.89383505515E+01  0.37680416525E+02  0.12700000000E+01 0. -1.
         -4    1    3    3    0  502 -0.87702748408E+02 -0.55436959622E+02 -0.33009291594E+02  0.10888643075E+03  0.12700000000E+01 0. -1.
          1    1    1    2  503    0  0.32076661676E+02  0.58017326674E+02 -0.90257803211E+03  0.90500940683E+03  0.00000000000E+00 0. -1.
         -1    1    1    2    0  501  0.36377802616E+02 -0.33690017282E+02  0.32013665741E+03  0.32395345531E+03  0.00000000000E+00 0.  1.
<mgrwt>
<rscale>  0 0.57235078E+02</rscale>
<asrwt>0</asrwt>
<pdfrwt beam="2">  1        2 0.15246477E+00 0.66069597E+02</pdfrwt>
<pdfrwt beam="1">  1       -2 0.59155185E-01 0.49581870E+02</pdfrwt>
<totfact> 0.79589922E+01</totfact>
</mgrwt>
</event>
<event>
 7    1  0.7037933E-004  0.9390456E+02  0.7546771E-02  0.1336391E+00
          2   -1    0    0  503    0  0.00000000000E+00  0.00000000000E+00  0.52369658640E+03  0.52369658640E+03  0.00000000000E+00 0. -1.
         -2   -1    0    0    0  501 -0.00000000000E+00 -0.00000000000E+00 -0.87362983274E+02  0.87362983274E+02  0.00000000000E+00 0.  1.
         25    2    1    2    0    0 -0.77453062092E+02  0.78450921789E+02  0.12356502711E+02  0.16712584701E+03  0.12499936648E+03 0.  0.
          4    1    3    3  502    0  0.23484805193E+02  0.38249982232E+02  0.34015734989E+02  0.56331876789E+02  0.12700000000E+01 0. -1.
         -4    1    3    3    0  502 -0.10093786729E+03  0.40200939557E+02 -0.21659232278E+02  0.11079397022E+03  0.12700000000E+01 0. -1.
          1    1    1    2  503    0  0.62448617522E+02 -0.13591364733E+02  0.23668734630E+03  0.24516413874E+03  0.00000000000E+00 0. -1.
         -1    1    1    2    0  501  0.15004444571E+02 -0.64859557056E+02  0.18728975411E+03  0.19876958393E+03  0.00000000000E+00 0.  1.
<mgrwt>
<rscale>  0 0.77469281E+02</rscale>
<asrwt>0</asrwt>
<pdfrwt beam="1">  1        2 0.80568704E-01 0.63910524E+02</pdfrwt>
<pdfrwt beam="2">  1       -2 0.13440459E-01 0.93904558E+02</pdfrwt>
<totfact> 0.23567400E+03</totfact>
</mgrwt>
</event>
<event>
 7    1  0.7037933E-004  0.5052041E+02  0.7546771E-02  0.1526118E+00
          2   -1    0    0  503    0  0.00000000000E+00  0.00000000000E+00  0.41334169547E+03  0.41334169547E+03  0.00000000000E+00 0. -1.
          1   -1    0    0  502    0 -0.00000000000E+00 -0.00000000000E+00 -0.22546839851E+03  0.22546839851E+03  0.00000000000E+00 0. -1.
         25    2    1    2    0    0  0.29081230246E+02 -0.20249108216E+02  0.51085114914E+02  0.13960795765E+03  0.12499979415E+03 0.  0.
          4    1    3    3  501    0  0.37866088687E+02 -0.65058008790E+02  0.61586382014E+01  0.75537586039E+02  0.12700000000E+01 0.  1.
         -4    1    3    3    0  501 -0.87848584409E+01  0.44808900574E+02  0.44926476713E+02  0.64070371610E+02  0.12700000000E+01 0.  1.
          2    1    1    2  502    0  0.22290599225E+02  0.17082626728E+02 -0.17801629384E+03  0.18021788985E+03  0.00000000000E+00 0. -1.
          1    1    1    2  503    0 -0.51371829471E+02  0.31664814881E+01  0.31480447589E+03  0.31898424649E+03  0.00000000000E+00 0. -1.
<mgrwt>
<rscale>  0 0.37666874E+02</rscale>
<asrwt>0</asrwt>
<pdfrwt beam="1">  1        2 0.63591030E-01 0.50520405E+02</pdfrwt>
<pdfrwt beam="2">  1        1 0.34687446E-01 0.28083571E+02</pdfrwt>
<totfact> 0.12873527E+03</totfact>
</mgrwt>
</event>
<event>
 7    1  0.7037933E-004  0.3879786E+02  0.7546771E-02  0.1583713E+00
          2   -1    0    0  503    0  0.00000000000E+00  0.00000000000E+00  0.33623256409E+03  0.33623256409E+03  0.00000000000E+00 0. -1.
         -2   -1    0    0    0  501 -0.00000000000E+00 -0.00000000000E+00 -0.43575487902E+03  0.43575487902E+03  0.00000000000E+00 0.  1.
         25    2    1    2    0    0  0.11339161186E+02  0.48516287747E+02  0.18748933389E+02  0.13586449465E+03  0.12500092660E+03 0.  0.
          4    1    3    3  502    0 -0.69573897176E+01  0.18133626793E+02 -0.52649603701E+02  0.56132231046E+02  0.12700000000E+01 0. -1.
         -4    1    3    3    0  502  0.18296550903E+02  0.30382660953E+02  0.71398537090E+02  0.79732263608E+02  0.12700000000E+01 0. -1.
          1    1    1    2  503    0 -0.22584810607E+02 -0.11443763130E+02  0.25730815286E+03  0.25855080529E+03  0.00000000000E+00 0. -1.
         -1    1    1    2    0  501  0.11245649421E+02 -0.37072524617E+02 -0.37557940117E+03  0.37757214317E+03  0.00000000000E+00 0.  1.
<mgrwt>
<rscale>  0 0.31341807E+02</rscale>
<asrwt>0</asrwt>
<pdfrwt beam="1">  1        2 0.51728087E-01 0.25318637E+02</pdfrwt>
<pdfrwt beam="2">  1       -2 0.67039212E-01 0.38797857E+02</pdfrwt>
<totfact> 0.20577444E+02</totfact>
</mgrwt>
</event>
<event>
 7    1  0.7037933E-004  0.1064717E+03  0.7546771E-02  0.1270031E+00
          2   -1    0    0  503    0  0.00000000000E+00  0.00000000000E+00  0.47863858322E+03  0.47863858322E+03  0.00000000000E+00 0. -1.
          1   -1    0    0  502    0 -0.00000000000E+00 -0.00000000000E+00 -0.72121978490E+03  0.72121978490E+03  0.00000000000E+00 0. -1.
         25    2    1    2    0    0 -0.88492444736E+02 -0.61471710390E+02 -0.30309041415E+02  0.16779068368E+03  0.12500156633E+03 0.  0.
          4    1    3    3  501    0 -0.32405339568E+02  0.58488383729E+01  0.42555483967E+02  0.53822830272E+02  0.12700000000E+01 0. -1.
         -4    1    3    3    0  501 -0.56087105168E+02 -0.67320548763E+02 -0.72864525382E+02  0.11396785341E+03  0.12700000000E+01 0. -1.
          2    1    1    2  502    0 -0.86621907751E+01  0.10611872297E+03 -0.61051062073E+03  0.61972528990E+03  0.00000000000E+00 0. -1.
          1    1    1    2  503    0  0.97154635511E+02 -0.44647012578E+02  0.39823846047E+03  0.41234239453E+03  0.00000000000E+00 0. -1.
<mgrwt>
<rscale>  0 0.10504517E+03</rscale>
<asrwt>0</asrwt>
<pdfrwt beam="1">  1        2 0.73636705E-01 0.10363778E+03</pdfrwt>
<pdfrwt beam="2">  1        1 0.11095689E+00 0.10647167E+03</pdfrwt>
<totfact> 0.25428874E+02</totfact>
</mgrwt>
</event>
<event>
 7    1  0.7037933E-004  0.1096187E+03  0.7546771E-02  0.1426346E+00
          2   -1    0    0  503    0  0.00000000000E+00  0.00000000000E+00  0.60855219189E+03  0.60855219189E+03  0.00000000000E+00 0. -1.
          1   -1    0    0  502    0 -0.00000000000E+00 -0.00000000000E+00 -0.15091004349E+04  0.15091004349E+04  0.00000000000E+00 0. -1.
         25    2    1    2    0    0 -0.12942062642E+03 -0.25386600784E+01 -0.14070887743E+03  0.22842641716E+03  0.12499398599E+03 0.  0.
          4    1    3    3  501    0 -0.66648216255E+02 -0.16613344020E+02 -0.14849210135E+03  0.16361388998E+03  0.12700000000E+01 0. -1.
         -4    1    3    3    0  501 -0.62772410162E+02  0.14074683942E+02  0.77832239221E+01  0.64812527186E+02  0.12700000000E+01 0. -1.
          2    1    1    2  502    0  0.21126793016E+02  0.15675473541E+02 -0.13191320152E+04  0.13193943062E+04  0.00000000000E+00 0. -1.
          1    1    1    2  503    0  0.10829383340E+03 -0.13136813462E+02  0.55929264960E+03  0.56983190339E+03  0.00000000000E+00 0. -1.
<mgrwt>
<rscale>  0 0.53700516E+02</rscale>
<asrwt>0</asrwt>
<pdfrwt beam="1">  1        2 0.93623414E-01 0.10961865E+03</pdfrwt>
<pdfrwt beam="2">  1        1 0.23216930E+00 0.26307069E+02</pdfrwt>
<totfact> 0.61917749E+01</totfact>
</mgrwt>
</event>
<event>
 7    1  0.7037933E-004  0.4402368E+02  0.7546771E-02  0.1509243E+00
          2   -1    0    0  503    0  0.00000000000E+00  0.00000000000E+00  0.96655484564E+03  0.96655484564E+03  0.00000000000E+00 0. -1.
          1   -1    0    0  502    0 -0.00000000000E+00 -0.00000000000E+00 -0.52737967914E+03  0.52737967914E+03  0.00000000000E+00 0. -1.
         25    2    1    2    0    0  0.59809501308E+01  0.67751911054E+02 -0.21790274319E+03  0.26025680417E+03  0.12500362160E+03 0.  0.
          4    1    3    3  501    0 -0.40276190844E+02 -0.98609722838E+01 -0.28287871251E+02  0.50211820154E+02  0.12700000000E+01 0. -1.
         -4    1    3    3    0  501  0.46257140975E+02  0.77612883338E+02 -0.18961487194E+03  0.21004498402E+03  0.12700000000E+01 0. -1.
          2    1    1    2  502    0 -0.23492284860E+02 -0.27397700018E+02 -0.28665606761E+03  0.28891905876E+03  0.00000000000E+00 0. -1.
          1    1    1    2  503    0  0.17511334729E+02 -0.40354211036E+02  0.94373397731E+03  0.94475866184E+03  0.00000000000E+00 0. -1.
<mgrwt>
<rscale>  0 0.39860191E+02</rscale>
<asrwt>0</asrwt>
<pdfrwt beam="1">  1        2 0.14870075E+00 0.44023678E+02</pdfrwt>
<pdfrwt beam="2">  1        1 0.81135335E-01 0.36090462E+02</pdfrwt>
<totfact> 0.18257347E+02</totfact>
</mgrwt>
</event>
<event>
 7    1  0.7037933E-004  0.7277806E+02  0.7546771E-02  0.1355042E+00
          2   -1    0    0  503    0  0.00000000000E+00  0.00000000000E+00  0.22455178213E+04  0.22455178213E+04  0.00000000000E+00 0. -1.
          1   -1    0    0  502    0 -0.00000000000E+00 -0.00000000000E+00 -0.32322857483E+03  0.32322857483E+03  0.00000000000E+00 0. -1.
         25    2    1    2    0    0 -0.20904906221E+02  0.14976448505E+02  0.12570589467E+02  0.12822400505E+03  0.12498826600E+03 0.  0.
          4    1    3    3  501    0 -0.78016427103E+01  0.70047726555E+02  0.13795743720E+01  0.70505785223E+02  0.12700000000E+01 0. -1.
         -4    1    3    3    0  501 -0.13103263510E+02 -0.55071278050E+02  0.11191015095E+02  0.57718219823E+02  0.12700000000E+01 0. -1.
          2    1    1    2  502    0  0.57958664444E+02  0.47662719738E+02 -0.25947520924E+03  0.27010798923E+03  0.00000000000E+00 0. -1.
          1    1    1    2  503    0 -0.37053758224E+02 -0.62639168243E+02  0.21691938663E+04  0.21704144019E+04  0.00000000000E+00 0. -1.
<mgrwt>
<rscale>  0 0.71506939E+02</rscale>
<asrwt>0</asrwt>
<pdfrwt beam="1">  1        2 0.34546427E+00 0.72778063E+02</pdfrwt>
<pdfrwt beam="2">  1        1 0.49727474E-01 0.70258016E+02</pdfrwt>
<totfact> 0.70537989E+01</totfact>
</mgrwt>
</event>
<event>
 7    1  0.7037933E-004  0.4364140E+02  0.7546771E-02  0.1525353E+00
          1   -1    0    0  502    0 -0.00000000000E+00  0.00000000000E+00  0.11159958364E+04  0.11159958364E+04  0.00000000000E+00 0. -1.
          2   -1    0    0  503    0  0.00000000000E+00 -0.00000000000E+00 -0.73493810978E+03  0.73493810978E+03  0.00000000000E+00 0. -1.
         25    2    1    2    0    0  0.36786827066E+01  0.13173821184E+02  0.26684634841E+03  0.29498961463E+03  0.12499926723E+03 0.  0.
          4    1    3    3  501    0  0.41399798457E+02  0.54708478170E+02  0.16509460397E+03  0.17878702989E+03  0.12700000000E+01 0.  1.
         -4    1    3    3    0  501 -0.37721115750E+02 -0.41534656986E+02  0.10175174444E+03  0.11620258474E+03  0.12700000000E+01 0.  1.
          2    1    1    2  502    0 -0.27342564850E+02 -0.35706576357E+02  0.83410148453E+03  0.83531303230E+03  0.00000000000E+00 0. -1.
          1    1    1    2  503    0  0.23663882143E+02  0.22532755173E+02 -0.71989010629E+03  0.72063129928E+03  0.00000000000E+00 0. -1.
<mgrwt>
<rscale>  0 0.37762618E+02</rscale>
<asrwt>0</asrwt>
<pdfrwt beam="2">  1        2 0.11306740E+00 0.32675746E+02</pdfrwt>
<pdfrwt beam="1">  1        1 0.17169167E+00 0.43641401E+02</pdfrwt>
<totfact> 0.87129444E+01</totfact>
</mgrwt>
</event>
<event>
 7    1  0.7037933E-004  0.7007155E+02  0.7546771E-02  0.1415990E+00
          2   -1    0    0  503    0  0.00000000000E+00  0.00000000000E+00  0.31243445073E+04  0.31243445073E+04  0.00000000000E+00 0. -1.
         -2   -1    0    0    0  501 -0.00000000000E+00 -0.00000000000E+00 -0.88198256406E+02  0.88198256406E+02  0.00000000000E+00 0.  1.
         25    2    1    2    0    0 -0.28080877057E+02  0.12974188909E+02  0.21049229160E+04  0.21088568467E+04  0.12497940832E+03 0.  0.
          4    1    3    3  502    0 -0.61680467851E+02  0.30375508572E+02  0.68796478288E+03  0.69139301922E+03  0.12700000000E+01 0. -1.
         -4    1    3    3    0  502  0.33599590794E+02 -0.17401319663E+02  0.14169581331E+04  0.14174638275E+04  0.12700000000E+01 0. -1.
          1    1    1    2  503    0 -0.16661961570E+02  0.41327723233E+02  0.10025241353E+04  0.10035139478E+04  0.00000000000E+00 0. -1.
         -1    1    1    2    0  501  0.44742838627E+02 -0.54301912142E+02 -0.71300800369E+02  0.10017196915E+03  0.00000000000E+00 0.  1.
<mgrwt>
<rscale>  0 0.55878390E+02</rscale>
<asrwt>0</asrwt>
<pdfrwt beam="1">  1        2 0.48066830E+00 0.44560091E+02</pdfrwt>
<pdfrwt beam="2">  1       -2 0.13568965E-01 0.70071548E+02</pdfrwt>
<totfact> 0.90046021E+01</totfact>
</mgrwt>
</event>
<event>
 7    1  0.7037933E-004  0.4836587E+02  0.7546771E-02  0.1585492E+00
          2   -1    0    0  503    0  0.00000000000E+00  0.00000000000E+00  0.46414899719E+04  0.46414899719E+04  0.00000000000E+00 0. -1.
          1   -1    0    0  502    0 -0.00000000000E+00 -0.00000000000E+00 -0.15842418616E+02  0.15842418616E+02  0.00000000000E+00 0. -1.
         25    2    1    2    0    0 -0.12645736838E+02 -0.30050493728E+02  0.11014141946E+04  0.11089649911E+04  0.12500870619E+03 0.  0.
          4    1    3    3  501    0  0.41699525094E+02 -0.55228959005E+02  0.60820940171E+03  0.61213509746E+03  0.12700000000E+01 0.  1.
         -4    1    3    3    0  501 -0.54345261932E+02  0.25178465277E+02  0.49320479291E+03  0.49682989369E+03  0.12700000000E+01 0.  1.
          2    1    1    2  502    0 -0.18417315845E+02 -0.80242788909E+01 -0.34142833635E+01  0.20377534335E+02  0.00000000000E+00 0. -1.
          1    1    1    2  503    0  0.31063052683E+02  0.38074772618E+02  0.35276476421E+04  0.35279898651E+04  0.00000000000E+00 0. -1.
<mgrwt>
<rscale>  0 0.31171210E+02</rscale>
<asrwt>0</asrwt>
<pdfrwt beam="1">  1        2 0.71407429E+00 0.48365867E+02</pdfrwt>
<pdfrwt beam="2">  1        1 0.24372989E-02 0.20089464E+02</pdfrwt>
<totfact> 0.84670570E+01</totfact>
</mgrwt>
</event>
<event>
 7    1  0.7037933E-004  0.1077152E+03  0.7546771E-02  0.1434429E+00
          1   -1    0    0  502    0 -0.00000000000E+00  0.00000000000E+00  0.82272364062E+02  0.82272364062E+02  0.00000000000E+00 0. -1.
          2   -1    0    0  503    0  0.00000000000E+00 -0.00000000000E+00 -0.11453923291E+04  0.11453923291E+04  0.00000000000E+00 0. -1.
         25    2    1    2    0    0 -0.64776123974E+02  0.87635167962E+02 -0.40288268984E+03  0.43567932293E+03  0.12500456692E+03 0.  0.
          4    1    3    3  501    0 -0.96822749064E+02  0.49608640101E+02 -0.32971974473E+03  0.34720654497E+03  0.12700000000E+01 0. -1.
         -4    1    3    3    0  501  0.32046625090E+02  0.38026527861E+02 -0.73162945113E+02  0.88472777952E+02  0.12700000000E+01 0. -1.
          2    1    1    2  502    0 -0.17689390077E+02 -0.17922047408E+02  0.59281807653E+02  0.64408439068E+02  0.00000000000E+00 0. -1.
          1    1    1    2  503    0  0.82465514051E+02 -0.69713120553E+02 -0.71951908281E+03  0.72757693113E+03  0.00000000000E+00 0. -1.
<mgrwt>
<rscale>  0 0.52081125E+02</rscale>
<asrwt>0</asrwt>
<pdfrwt beam="2">  1        2 0.17621419E+00 0.10771519E+03</pdfrwt>
<pdfrwt beam="1">  1        1 0.12657288E-01 0.25181626E+02</pdfrwt>
<totfact> 0.12531722E+03</totfact>
</mgrwt>
</event>
<event>
 7    1  0.7037933E-004  0.1082523E+03  0.7546771E-02  0.1284070E+00
          2   -1    0    0  503    0  0.00000000000E+00  0.00000000000E+00  0.81872962410E+03  0.81872962410E+03  0.00000000000E+00 0. -1.
          1   -1    0    0  502    0 -0.00000000000E+00 -0.00000000000E+00 -0.48059291317E+03  0.48059291317E+03  0.00000000000E+00 0. -1.
         25    2    1    2    0    0  0.73772037450E+02  0.33869228759E+02 -0.18166361716E+02  0.15014702264E+03  0.12499869417E+03 0.  0.
          4    1    3    3  501    0 -0.22809773125E+02 -0.14788310645E+02 -0.30981850876E+02  0.41236729568E+02  0.12700000000E+01 0. -1.
         -4    1    3    3    0  501  0.96581810575E+02  0.48657539403E+02  0.12815489161E+02  0.10891029307E+03  0.12700000000E+01 0. -1.
          2    1    1    2  502    0 -0.49030179405E+02  0.74432316279E+02 -0.38724723479E+03  0.39737205369E+03  0.00000000000E+00 0. -1.
          1    1    1    2  503    0 -0.24741858045E+02 -0.10830154504E+03  0.74355030744E+03  0.75180346094E+03  0.00000000000E+00 0. -1.
<mgrwt>
<rscale>  0 0.98226814E+02</rscale>
<asrwt>0</asrwt>
<pdfrwt beam="1">  1        2 0.12595840E+00 0.10825226E+03</pdfrwt>
<pdfrwt beam="2">  1        1 0.73937371E-01 0.89129839E+02</pdfrwt>
<totfact> 0.23813685E+02</totfact>
</mgrwt>
</event>
<event>
 7    1  0.7037933E-004  0.8965498E+02  0.7546771E-02  0.1426825E+00
          2   -1    0    0  503    0  0.00000000000E+00  0.00000000000E+00  0.49744030002E+03  0.49744030002E+03  0.00000000000E+00 0. -1.
          1   -1    0    0  502    0 -0.00000000000E+00 -0.00000000000E+00 -0.24459244328E+03  0.24459244328E+03  0.00000000000E+00 0. -1.
         25    2    1    2    0    0  0.29668410091E+02  0.70627436744E+02 -0.10862538179E+03  0.18246557971E+03  0.12500305929E+03 0.  0.
          4    1    3    3  501    0 -0.72625079076E+01 -0.54239584320E+00 -0.10170814475E+03  0.10197645720E+03  0.12700000000E+01 0. -1.
         -4    1    3    3    0  501  0.36930917998E+02  0.71169832588E+02 -0.69172370400E+01  0.80489122514E+02  0.12700000000E+01 0. -1.
          2    1    1    2  502    0 -0.25458120381E+02  0.19466543231E+02 -0.91890683187E+02  0.97318856627E+02  0.00000000000E+00 0. -1.
          1    1    1    2  503    0 -0.42102897100E+01 -0.90093979976E+02  0.45336392172E+03  0.46224830696E+03  0.00000000000E+00 0. -1.
<mgrwt>
<rscale>  0 0.53602667E+02</rscale>
<asrwt>0</asrwt>
<pdfrwt beam="1">  1        2 0.76529277E-01 0.89654983E+02</pdfrwt>
<pdfrwt beam="2">  1        1 0.37629607E-01 0.32047811E+02</pdfrwt>
<totfact> 0.96119013E+02</totfact>
</mgrwt>
</event>
<event>
 7    1  0.7037933E-004  0.1745166E+03  0.7546771E-02  0.1211771E+00
          1   -1    0    0  502    0 -0.00000000000E+00  0.00000000000E+00  0.50496493588E+03  0.50496493588E+03  0.00000000000E+00 0. -1.
          2   -1    0    0  503    0  0.00000000000E+00 -0.00000000000E+00 -0.10501094669E+04  0.10501094669E+04  0.00000000000E+00 0. -1.
         25    2    1    2    0    0 -0.17221263818E+03  0.13101964280E+03 -0.15245241424E+03  0.29272503176E+03  0.12499146397E+03 0.  0.
          4    1    3    3  501    0 -0.23782128212E+02  0.10267330618E+02  0.21832927411E+02  0.33901287876E+02  0.12700000000E+01 0.  1.
         -4    1    3    3    0  501 -0.14843050997E+03  0.12075231218E+03 -0.17428534165E+03  0.25882374389E+03  0.12700000000E+01 0.  1.
          2    1    1    2  502    0  0.11013306175E+03  0.30152025282E+02  0.41807608327E+03  0.43338902538E+03  0.00000000000E+00 0. -1.
          1    1    1    2  503    0  0.62079576431E+02 -0.16117166808E+03 -0.81076820002E+03  0.82896034560E+03  0.00000000000E+00 0. -1.
<mgrwt>
<rscale>  0 0.14116425E+03</rscale>
<asrwt>0</asrwt>
<pdfrwt beam="2">  1        2 0.16155530E+00 0.17451657E+03</pdfrwt>
<pdfrwt beam="1">  1        1 0.77686915E-01 0.11418597E+03</pdfrwt>
<totfact> 0.15623377E+02</totfact>
</mgrwt>
</event>
<event>
 7    1  0.7037933E-004  0.1189473E+03  0.7546771E-02  0.1286722E+00
          2   -1    0    0  503    0  0.00000000000E+00  0.00000000000E+00  0.17840408724E+03  0.17840408724E+03  0.00000000000E+00 0. -1.
          1   -1    0    0  502    0 -0.00000000000E+00 -0.00000000000E+00 -0.23945121211E+04  0.23945121211E+04  0.00000000000E+00 0. -1.
         25    2    1    2    0    0 -0.43101717275E+02  0.14628315564E+03  0.66223595542E+01  0.19729611131E+03  0.12500152093E+03 0.  0.
          4    1    3    3  501    0  0.12259766236E+02 -0.28136429302E+01 -0.31328062897E+02  0.33782819296E+02  0.12700000000E+01 0. -1.
         -4    1    3    3    0  501 -0.55361483512E+02  0.14909679857E+03  0.37950422452E+02  0.16351329201E+03  0.12700000000E+01 0. -1.
          2    1    1    2  502    0 -0.29569655148E+02 -0.11501921196E+03 -0.22767371100E+04  0.22798323736E+04  0.00000000000E+00 0. -1.
          1    1    1    2  503    0  0.72671372423E+02 -0.31263943674E+02  0.54006716521E+02  0.95787723500E+02  0.00000000000E+00 0. -1.
<mgrwt>
<rscale>  0 0.97005401E+02</rscale>
<asrwt>0</asrwt>
<pdfrwt beam="1">  1        2 0.27446782E-01 0.79111077E+02</pdfrwt>
<pdfrwt beam="2">  1        1 0.36838650E+00 0.11894728E+03</pdfrwt>
<totfact> 0.53416479E+01</totfact>
</mgrwt>
</event>
<event>
 7    1  0.7037933E-004  0.6080384E+02  0.7546771E-02  0.1407904E+00
          1   -1    0    0  502    0 -0.00000000000E+00  0.00000000000E+00  0.17273683059E+03  0.17273683059E+03  0.00000000000E+00 0. -1.
          2   -1    0    0  503    0  0.00000000000E+00 -0.00000000000E+00 -0.16660844876E+04  0.16660844876E+04  0.00000000000E+00 0. -1.
         25    2    1    2    0    0 -0.37235028243E+02 -0.69363542339E+02 -0.17903733584E+03  0.23211692180E+03  0.12500459763E+03 0.  0.
          4    1    3    3  501    0  0.17489823121E+02 -0.51273592148E+02 -0.12125817771E+02  0.55529483351E+02  0.12700000000E+01 0.  1.
         -4    1    3    3    0  501 -0.54724851364E+02 -0.18089950191E+02 -0.16691151807E+03  0.17658743845E+03  0.12700000000E+01 0.  1.
          2    1    1    2  502    0 -0.16393444921E+02  0.58657927314E+02  0.13931717566E+03  0.15204858732E+03  0.00000000000E+00 0. -1.
          1    1    1    2  503    0  0.53628473164E+02  0.10705615025E+02 -0.14536274968E+04  0.14546558091E+04  0.00000000000E+00 0. -1.
<mgrwt>
<rscale>  0 0.57664154E+02</rscale>
<asrwt>0</asrwt>
<pdfrwt beam="2">  1        2 0.25632068E+00 0.54686592E+02</pdfrwt>
<pdfrwt beam="1">  1        1 0.26574898E-01 0.60803837E+02</pdfrwt>
<totfact> 0.30011325E+02</totfact>
</mgrwt>
</event>
<event>
 7    1  0.7037933E-004  0.4748224E+02  0.7546771E-02  0.1522139E+00
          2   -1    0    0  503    0  0.00000000000E+00  0.00000000000E+00  0.10219174624E+04  0.10219174624E+04  0.00000000000E+00 0. -1.
          1   -1    0    0  502    0 -0.00000000000E+00 -0.00000000000E+00 -0.41924154866E+03  0.41924154866E+03  0.00000000000E+00 0. -1.
         25    2    1    2    0    0 -0.55132428577E+02 -0.54438588240E+02 -0.12917595698E+03  0.19574569900E+03  0.12500722477E+03 0.  0.
          4    1    3    3  501    0 -0.67485326392E+02 -0.81704217670E+02 -0.63468745452E+02  0.12353033236E+03  0.12700000000E+01 0.  1.
         -4    1    3    3    0  501  0.12352897815E+02  0.27265629430E+02 -0.65707211523E+02  0.72215366639E+02  0.12700000000E+01 0.  1.
          2    1    1    2  502    0  0.24840367249E+02  0.18008854173E+02 -0.25529401979E+03  0.25713109344E+03  0.00000000000E+00 0. -1.
          1    1    1    2  503    0  0.30292061327E+02  0.36429734068E+02  0.98714589054E+03  0.98828221865E+03  0.00000000000E+00 0. -1.
<mgrwt>
<rscale>  0 0.38168480E+02</rscale>
<asrwt>0</asrwt>
<pdfrwt beam="1">  1        2 0.15721807E+00 0.47482244E+02</pdfrwt>
<pdfrwt beam="2">  1        1 0.64498700E-01 0.30681634E+02</pdfrwt>
<totfact> 0.22428406E+02</totfact>
</mgrwt>
</event>
<event>
 7    1  0.7037933E-004  0.7042666E+02  0.7546771E-02  0.1430101E+00
         -2   -1    0    0    0  501 -0.00000000000E+00  0.00000000000E+00  0.36747450288E+02  0.36747450288E+02  0.00000000000E+00 0.  1.
          2   -1    0    0  503    0  0.00000000000E+00 -0.00000000000E+00 -0.51818937466E+03  0.51818937466E+03  0.00000000000E+00 0. -1.
         25    2    1    2    0    0 -0.50569101619E+02 -0.69758737905E+02 -0.24752780038E+03  0.29037486145E+03  0.12499613052E+03 0.  0.
          4    1    3    3  502    0 -0.58434593899E+02 -0.19181990324E+02 -0.32972547586E+02  0.69795073689E+02  0.12700000000E+01 0. -1.
         -4    1    3    3    0  502  0.78654922798E+01 -0.50576747581E+02 -0.21455525280E+03  0.22057978776E+03  0.12700000000E+01 0. -1.
          3    1    1    2  503    0  0.60581934180E+02  0.31244326719E+02 -0.20309491713E+03  0.21422867237E+03  0.00000000000E+00 0. -1.
         -3    1    1    2    0  501 -0.10012832561E+02  0.38514411187E+02 -0.30819206864E+02  0.50333291137E+02  0.00000000000E+00 0.  1.
<mgrwt>
<rscale>  0 0.52939651E+02</rscale>
<asrwt>0</asrwt>
<pdfrwt beam="2">  1        2 0.79721431E-01 0.70426664E+02</pdfrwt>
<pdfrwt beam="1">  1       -2 0.56534547E-02 0.39794682E+02</pdfrwt>
<totfact> 0.82858016E+03</totfact>
</mgrwt>
</event>
<event>
 7    1  0.7037933E-004  0.8416796E+02  0.7546771E-02  0.1360194E+00
          1   -1    0    0  502    0 -0.00000000000E+00  0.00000000000E+00  0.95172672311E+03  0.95172672311E+03  0.00000000000E+00 0. -1.
          2   -1    0    0  503    0  0.00000000000E+00 -0.00000000000E+00 -0.11354385023E+04  0.11354385023E+04  0.00000000000E+00 0. -1.
         25    2    1    2    0    0 -0.11943099576E+03  0.68641133314E+01 -0.11091498181E+03  0.20551829751E+03  0.12499903449E+03 0.  0.
          4    1    3    3  501    0  0.24369940349E+02 -0.92504971282E+01 -0.59936643069E+01  0.26776904257E+02  0.12700000000E+01 0.  1.
         -4    1    3    3    0  501 -0.14380093611E+03  0.16114610460E+02 -0.10492131751E+03  0.17874139326E+03  0.12700000000E+01 0.  1.
          2    1    1    2  502    0  0.42777315162E+02 -0.39415137456E+02  0.90171201964E+03  0.90358619850E+03  0.00000000000E+00 0. -1.
          1    1    1    2  503    0  0.76653680598E+02  0.32551024125E+02 -0.97450881703E+03  0.97806072940E+03  0.00000000000E+00 0. -1.
<mgrwt>
<rscale>  0 0.69970247E+02</rscale>
<asrwt>0</asrwt>
<pdfrwt beam="2">  1        2 0.17468285E+00 0.84167965E+02</pdfrwt>
<pdfrwt beam="1">  1        1 0.14641950E+00 0.58167446E+02</pdfrwt>
<totfact> 0.61226977E+01</totfact>
</mgrwt>
</event>
<event>
 7    1  0.7037933E-004  0.1304654E+03  0.7546771E-02  0.1352006E+00
          1   -1    0    0  502    0 -0.00000000000E+00  0.00000000000E+00  0.47324181593E+03  0.47324181593E+03  0.00000000000E+00 0. -1.
          2   -1    0    0  503    0  0.00000000000E+00 -0.00000000000E+00 -0.13584472805E+04  0.13584472805E+04  0.00000000000E+00 0. -1.
         25    2    1    2    0    0 -0.64576059838E+02  0.71493807465E+02 -0.11467931639E+03  0.19508520834E+03  0.12500184357E+03 0.  0.
          4    1    3    3  501    0 -0.16224380493E+02  0.42680878545E+02  0.19429009636E+02  0.49638565966E+02  0.12700000000E+01 0. -1.
         -4    1    3    3    0  501 -0.48351679345E+02  0.28812928920E+02 -0.13410832602E+03  0.14544664237E+03  0.12700000000E+01 0. -1.
          2    1    1    2  502    0  0.10277510464E+03 -0.84067376340E+02  0.42251400512E+03  0.44288613709E+03  0.00000000000E+00 0. -1.
          1    1    1    2  503    0 -0.38199044806E+02  0.12573568875E+02 -0.11930401533E+04  0.11937177510E+04  0.00000000000E+00 0. -1.
<mgrwt>
<rscale>  0 0.72434055E+02</rscale>
<asrwt>0</asrwt>
<pdfrwt beam="2">  1        2 0.20899189E+00 0.40215192E+02</pdfrwt>
<pdfrwt beam="1">  1        1 0.72806433E-01 0.13046543E+03</pdfrwt>
<totfact> 0.12684035E+02</totfact>
</mgrwt>
</event>
<event>
 7    1  0.7037933E-004  0.1121113E+03  0.7546771E-02  0.1256857E+00
          1   -1    0    0  502    0 -0.00000000000E+00  0.00000000000E+00  0.14639739038E+04  0.14639739038E+04  0.00000000000E+00 0. -1.
          2   -1    0    0  503    0  0.00000000000E+00 -0.00000000000E+00 -0.43829144200E+03  0.43829144200E+03  0.00000000000E+00 0. -1.
         25    2    1    2    0    0  0.49655368224E+02 -0.10633830610E+03 -0.21615097266E+02  0.17281785051E+03  0.12500122434E+03 0.  0.
          4    1    3    3  501    0  0.21067295247E+02 -0.12451601866E+03 -0.42200051293E+02  0.13315602525E+03  0.12700000000E+01 0. -1.
         -4    1    3    3    0  501  0.28588072977E+02  0.18177712557E+02  0.20584954027E+02  0.39661825256E+02  0.12700000000E+01 0. -1.
          2    1    1    2  502    0 -0.11178063561E+03  0.61217172290E+01  0.13758401666E+04  0.13803871015E+04  0.00000000000E+00 0. -1.
          1    1    1    2  503    0  0.62125267385E+02  0.10021658887E+03 -0.32854260756E+03  0.34906039379E+03  0.00000000000E+00 0. -1.
<mgrwt>
<rscale>  0 0.11202971E+03</rscale>
<asrwt>0</asrwt>
<pdfrwt beam="2">  1        2 0.67429453E-01 0.11211134E+03</pdfrwt>
<pdfrwt beam="1">  1        1 0.22522675E+00 0.11194814E+03</pdfrwt>
<totfact> 0.81648151E+01</totfact>
</mgrwt>
</event>
<event>
 7    1  0.7037933E-004  0.4291424E+02  0.7546771E-02  0.1526372E+00
          1   -1    0    0  502    0 -0.00000000000E+00  0.00000000000E+00  0.15344556840E+02  0.15344556840E+02  0.00000000000E+00 0. -1.
          2   -1    0    0  503    0  0.00000000000E+00 -0.00000000000E+00 -0.19579610799E+04  0.19579610799E+04  0.00000000000E+00 0. -1.
         25    2    1    2    0    0 -0.12618978105E+02  0.45629269243E+02 -0.14500505929E+04  0.14561980978E+04  0.12499963744E+03 0.  0.
          4    1    3    3  501    0 -0.29300889933E+02  0.63276021153E+02 -0.13849394039E+04  0.13866943291E+04  0.12700000000E+01 0.  1.
         -4    1    3    3    0  501  0.16681911828E+02 -0.17646751911E+02 -0.65111189047E+02  0.69503768778E+02  0.12700000000E+01 0.  1.
          2    1    1    2  502    0  0.36545516489E+02 -0.22894261092E+02 -0.28102830079E+02  0.51473206864E+02  0.00000000000E+00 0. -1.
          1    1    1    2  503    0 -0.23926538384E+02 -0.22735008151E+02 -0.46446310007E+03  0.46563433203E+03  0.00000000000E+00 0. -1.
<mgrwt>
<rscale>  0 0.37635139E+02</rscale>
<asrwt>0</asrwt>
<pdfrwt beam="2">  1        2 0.30122461E+00 0.33005452E+02</pdfrwt>
<pdfrwt beam="1">  1        1 0.23607024E-02 0.42914236E+02</pdfrwt>
<totfact> 0.50806589E+03</totfact>
</mgrwt>
</event>
<event>
 7    1  0.7037933E-004  0.1937780E+03  0.7546771E-02  0.1193790E+00
          2   -1    0    0  503    0  0.00000000000E+00  0.00000000000E+00  0.23550186766E+04  0.23550186766E+04  0.00000000000E+00 0. -1.
          1   -1    0    0  502    0 -0.00000000000E+00 -0.00000000000E+00 -0.79146834880E+03  0.79146834880E+03  0.00000000000E+00 0. -1.
         25    2    1    2    0    0  0.11598497045E+03  0.18453795097E+03  0.48074874648E+03  0.54245029413E+03  0.12500478248E+03 0.  0.
          4    1    3    3  501    0  0.45974705536E+02  0.11694945774E+01  0.44174526076E+02  0.63781211346E+02  0.12700000000E+01 0.  1.
         -4    1    3    3    0  501  0.70010264916E+02  0.18336845640E+03  0.43657422040E+03  0.47866908278E+03  0.12700000000E+01 0.  1.
          2    1    1    2  502    0 -0.12445232786E+03  0.10524207233E+02 -0.75027087116E+03  0.76059550417E+03  0.00000000000E+00 0. -1.
          1    1    1    2  503    0  0.84673574099E+01 -0.19506215821E+03  0.18330724525E+04  0.18434412271E+04  0.00000000000E+00 0. -1.
<mgrwt>
<rscale>  0 0.15557055E+03</rscale>
<asrwt>0</asrwt>
<pdfrwt beam="1">  1        2 0.36231056E+00 0.19377800E+03</pdfrwt>
<pdfrwt beam="2">  1        1 0.12176436E+00 0.12489652E+03</pdfrwt>
<totfact> 0.16750496E+01</totfact>
</mgrwt>
</event>
<event>
 7    1  0.7037933E-004  0.4065534E+02  0.7546771E-02  0.1555691E+00
          1   -1    0    0  502    0 -0.00000000000E+00  0.00000000000E+00  0.25605374306E+02  0.25605374306E+02  0.00000000000E+00 0. -1.
          2   -1    0    0  503    0  0.00000000000E+00 -0.00000000000E+00 -0.10139105403E+04  0.10139105403E+04  0.00000000000E+00 0. -1.
         25    2    1    2    0    0  0.11885332809E+02  0.26733508690E+02 -0.30238259669E+03  0.32850546430E+03  0.12499865468E+03 0.  0.
          4    1    3    3  501    0  0.20729222582E+02  0.50455433853E+00 -0.29997351269E+03  0.30069199601E+03  0.12700000000E+01 0. -1.
         -4    1    3    3    0  501 -0.88438897726E+01  0.26228954352E+02 -0.24090839911E+01  0.27813468291E+02  0.12700000000E+01 0. -1.
          2    1    1    2  502    0  0.13272691895E+02 -0.40738625668E+02 -0.25295165252E+02  0.49755857510E+02  0.00000000000E+00 0. -1.
          1    1    1    2  503    0 -0.25158024704E+02  0.14005116978E+02 -0.66062740408E+03  0.66125459282E+03  0.00000000000E+00 0. -1.
<mgrwt>
<rscale>  0 0.34214212E+02</rscale>
<asrwt>0</asrwt>
<pdfrwt beam="2">  1        2 0.15598621E+00 0.28793567E+02</pdfrwt>
<pdfrwt beam="1">  1        1 0.39392889E-02 0.40655341E+02</pdfrwt>
<totfact> 0.75031119E+03</totfact>
</mgrwt>
</event>
<event>
 7    1  0.7037933E-004  0.9508885E+02  0.7546771E-02  0.1344484E+00
          2   -1    0    0  503    0  0.00000000000E+00  0.00000000000E+00  0.26324043863E+03  0.26324043863E+03  0.00000000000E+00 0. -1.
          1   -1    0    0  502    0 -0.00000000000E+00 -0.00000000000E+00 -0.11316643800E+04  0.11316643800E+04  0.00000000000E+00 0. -1.
         25    2    1    2    0    0 -0.11612513530E+02  0.13120849444E+03 -0.16940260039E+02  0.18239596561E+03  0.12502318336E+03 0.  0.
          4    1    3    3  501    0 -0.11110496209E+02  0.11236084793E+03  0.42020242356E+02  0.12048118916E+03  0.12700000000E+01 0. -1.
         -4    1    3    3    0  501 -0.50201732142E+00  0.18847646512E+02 -0.58960502394E+02  0.61914776451E+02  0.12700000000E+01 0. -1.
          2    1    1    2  502    0 -0.29932102433E+02 -0.89535294877E+02 -0.10249731661E+04  0.10293116588E+04  0.00000000000E+00 0. -1.
          1    1    1    2  503    0  0.41544615963E+02 -0.41673199561E+02  0.17348948471E+03  0.18319719425E+03  0.00000000000E+00 0. -1.
<mgrwt>
<rscale>  0 0.74802431E+02</rscale>
<asrwt>0</asrwt>
<pdfrwt beam="1">  1        2 0.40498529E-01 0.58843952E+02</pdfrwt>
<pdfrwt beam="2">  1        1 0.17410221E+00 0.95088851E+02</pdfrwt>
<totfact> 0.23366630E+02</totfact>
</mgrwt>
</event>
<event>
 7    1  0.7037933E-004  0.7295195E+02  0.7546771E-02  0.1371495E+00
          2   -1    0    0  503    0  0.00000000000E+00  0.00000000000E+00  0.23803440011E+04  0.23803440011E+04  0.00000000000E+00 0. -1.
          1   -1    0    0  502    0 -0.00000000000E+00 -0.00000000000E+00 -0.14252822108E+02  0.14252822108E+02  0.00000000000E+00 0. -1.
         25    2    1    2    0    0 -0.33250836077E+02  0.18537940580E+02  0.81141888377E+03  0.82187277299E+03  0.12499990683E+03 0.  0.
          4    1    3    3  501    0 -0.29825218537E+02  0.43790649966E+02  0.77811654088E+03  0.77991930915E+03  0.12700000000E+01 0.  1.
         -4    1    3    3    0  501 -0.34256175406E+01 -0.25252709387E+02  0.33302342887E+02  0.41953463846E+02  0.12700000000E+01 0.  1.
          2    1    1    2  502    0  0.78972692456E+01  0.60568895395E+02  0.11126699380E+03  0.12693030316E+03  0.00000000000E+00 0. -1.
          1    1    1    2  503    0  0.25353566832E+02 -0.79106835975E+02  0.14434053014E+04  0.14457937471E+04  0.00000000000E+00 0. -1.
<mgrwt>
<rscale>  0 0.66753424E+02</rscale>
<asrwt>0</asrwt>
<pdfrwt beam="1">  1        2 0.36620645E+00 0.72951952E+02</pdfrwt>
<pdfrwt beam="2">  1        1 0.21927438E-02 0.61081568E+02</pdfrwt>
<totfact> 0.33039135E+03</totfact>
</mgrwt>
</event>
<event>
 7    1  0.7037933E-004  0.1024595E+03  0.7546771E-02  0.1314464E+00
         -2   -1    0    0    0  501 -0.00000000000E+00  0.00000000000E+00  0.40252486467E+03  0.40252486467E+03  0.00000000000E+00 0.  1.
          2   -1    0    0  503    0  0.00000000000E+00 -0.00000000000E+00 -0.30669524597E+04  0.30669524597E+04  0.00000000000E+00 0. -1.
         25    2    1    2    0    0 -0.52712316799E+02 -0.76795382185E+01 -0.90575258250E+03  0.91588748183E+03  0.12499830005E+03 0.  0.
          4    1    3    3  502    0 -0.79497901929E+02 -0.33211404989E+02 -0.42125260680E+03  0.42997474980E+03  0.12700000000E+01 0.  1.
         -4    1    3    3    0  502  0.26785585130E+02  0.25531866770E+02 -0.48449997570E+03  0.48591273202E+03  0.12700000000E+01 0.  1.
          1    1    1    2  503    0 -0.15430605483E+02 -0.69439780995E+02 -0.21488724070E+04  0.21500494432E+04  0.00000000000E+00 0. -1.
         -1    1    1    2    0  501  0.68142922282E+02  0.77119319213E+02  0.39019739446E+03  0.40354039933E+03  0.00000000000E+00 0.  1.
<mgrwt>
<rscale>  0 0.85371597E+02</rscale>
<asrwt>0</asrwt>
<pdfrwt beam="2">  1        2 0.47183885E+00 0.71133584E+02</pdfrwt>
<pdfrwt beam="1">  1       -2 0.61926902E-01 0.10245947E+03</pdfrwt>
<totfact> 0.59755349E+00</totfact>
</mgrwt>
</event>
<event>
 7    1  0.7037933E-004  0.1024131E+03  0.7546771E-02  0.1379716E+00
          2   -1    0    0  503    0  0.00000000000E+00  0.00000000000E+00  0.11061007756E+04  0.11061007756E+04  0.00000000000E+00 0. -1.
          1   -1    0    0  502    0 -0.00000000000E+00 -0.00000000000E+00 -0.75926295046E+03  0.75926295046E+03  0.00000000000E+00 0. -1.
         25    2    1    2    0    0 -0.71177462204E+02 -0.10901339043E+02  0.76503257134E+03  0.77851446802E+03  0.12499948559E+03 0.  0.
          4    1    3    3  501    0 -0.14290379621E+01 -0.46099288176E+02  0.11669092247E+03  0.12548135641E+03  0.12700000000E+01 0.  1.
         -4    1    3    3    0  501 -0.69748424242E+02  0.35197949133E+02  0.64834164886E+03  0.65303311161E+03  0.12700000000E+01 0.  1.
          2    1    1    2  502    0  0.91651684146E+02  0.46042704615E+02 -0.74777130312E+03  0.75477273641E+03  0.00000000000E+00 0. -1.
          1    1    1    2  503    0 -0.20474221942E+02 -0.35141365573E+02  0.32957655694E+03  0.33207652164E+03  0.00000000000E+00 0. -1.
<mgrwt>
<rscale>  0 0.64538482E+02</rscale>
<asrwt>0</asrwt>
<pdfrwt beam="1">  1        2 0.17016935E+00 0.40670743E+02</pdfrwt>
<pdfrwt beam="2">  1        1 0.11680968E+00 0.10241307E+03</pdfrwt>
<totfact> 0.90672545E+01</totfact>
</mgrwt>
</event>
<event>
 7    1  0.7037933E-004  0.4792556E+02  0.7546771E-02  0.1466184E+00
          2   -1    0    0  503    0  0.00000000000E+00  0.00000000000E+00  0.34477100014E+02  0.34477100014E+02  0.00000000000E+00 0. -1.
          1   -1    0    0  502    0 -0.00000000000E+00 -0.00000000000E+00 -0.62881803610E+03  0.62881803610E+03  0.00000000000E+00 0. -1.
         25    2    1    2    0    0  0.82239656997E+01 -0.20616839772E+02 -0.36817177318E+03  0.38947510395E+03  0.12509082434E+03 0.  0.
          4    1    3    3  501    0 -0.37192056296E+02 -0.54363346105E+02 -0.24867220181E+03  0.25725104335E+03  0.12700000000E+01 0. -1.
         -4    1    3    3    0  501  0.45416021996E+02  0.33746506333E+02 -0.11949957137E+03  0.13222406060E+03  0.12700000000E+01 0. -1.
          2    1    1    2  502    0  0.42299663950E+02  0.14740352643E+02 -0.21769363881E+03  0.22225449365E+03  0.00000000000E+00 0. -1.
          1    1    1    2  503    0 -0.50523629650E+02  0.58764871289E+01 -0.84755240893E+01  0.51565538517E+02  0.00000000000E+00 0. -1.
<mgrwt>
<rscale>  0 0.46333547E+02</rscale>
<asrwt>0</asrwt>
<pdfrwt beam="1">  1        2 0.53041691E-02 0.47925563E+02</pdfrwt>
<pdfrwt beam="2">  1        1 0.96741239E-01 0.44794414E+02</pdfrwt>
<totfact> 0.59383482E+03</totfact>
</mgrwt>
</event>
<event>
 7    1  0.7037933E-004  0.6941677E+02  0.7546771E-02  0.1492335E+00
          2   -1    0    0  503    0  0.00000000000E+00  0.00000000000E+00  0.15640483482E+04  0.15640483482E+04  0.00000000000E+00 0. -1.
          1   -1    0    0  502    0 -0.00000000000E+00 -0.00000000000E+00 -0.93412129400E+03  0.93412129400E+03  0.00000000000E+00 0. -1.
         25    2    1    2    0    0 -0.44429884349E+02  0.82304670882E+02 -0.17855653170E+03  0.23718397092E+03  0.12500291026E+03 0.  0.
          4    1    3    3  501    0 -0.70759127091E+02  0.99581768544E+02 -0.15729764986E+03  0.19916713144E+03  0.12700000000E+01 0.  1.
         -4    1    3    3    0  501  0.26329242742E+02 -0.17277097662E+02 -0.21258881844E+02  0.38016839483E+02  0.12700000000E+01 0.  1.
          2    1    1    2  502    0  0.18237032417E+02 -0.18115101742E+02 -0.72524029879E+03  0.72569569191E+03  0.00000000000E+00 0. -1.
          1    1    1    2  503    0  0.26192851932E+02 -0.64189569140E+02  0.15337238847E+04  0.15352899794E+04  0.00000000000E+00 0. -1.
<mgrwt>
<rscale>  0 0.42241652E+02</rscale>
<asrwt>0</asrwt>
<pdfrwt beam="1">  1        2 0.24062282E+00 0.69416775E+02</pdfrwt>
<pdfrwt beam="2">  1        1 0.14371097E+00 0.25704985E+02</pdfrwt>
<totfact> 0.40290661E+01</totfact>
</mgrwt>
</event>
<event>
 7    1  0.7037933E-004  0.8953151E+02  0.7546771E-02  0.1473059E+00
          2   -1    0    0  503    0  0.00000000000E+00  0.00000000000E+00  0.10776773183E+03  0.10776773183E+03  0.00000000000E+00 0. -1.
         -2   -1    0    0    0  501 -0.00000000000E+00 -0.00000000000E+00 -0.73141982028E+03  0.73141982028E+03  0.00000000000E+00 0.  1.
         25    2    1    2    0    0  0.10621880768E+03 -0.14933683253E+02 -0.42266503978E+03  0.45362519069E+03  0.12499851109E+03 0.  0.
          4    1    3    3  502    0  0.21260945316E+02  0.43999600129E+02 -0.22820025033E+03  0.23337729058E+03  0.12700000000E+01 0. -1.
         -4    1    3    3    0  502  0.84957862361E+02 -0.58933283382E+02 -0.19446478946E+03  0.22024790012E+03  0.12700000000E+01 0. -1.
          1    1    1    2  503    0 -0.88709807931E+02  0.29024017148E+00  0.70379379863E+02  0.11323767647E+03  0.00000000000E+00 0. -1.
         -1    1    1    2    0  501 -0.17508999747E+02  0.14643443082E+02 -0.27136642854E+03  0.27232468495E+03  0.00000000000E+00 0.  1.
<mgrwt>
<rscale>  0 0.45206038E+02</rscale>
<asrwt>0</asrwt>
<pdfrwt beam="1">  1        2 0.16579652E-01 0.89531510E+02</pdfrwt>
<pdfrwt beam="2">  1       -2 0.11252612E+00 0.22825326E+02</pdfrwt>
<totfact> 0.23253952E+02</totfact>
</mgrwt>
</event>
<event>
 7    1  0.7037933E-004  0.7200118E+02  0.7546771E-02  0.1522684E+00
          2   -1    0    0  503    0  0.00000000000E+00  0.00000000000E+00  0.14989082457E+04  0.14989082457E+04  0.00000000000E+00 0. -1.
         -2   -1    0    0    0  501 -0.00000000000E+00 -0.00000000000E+00 -0.10653738420E+02  0.10653738420E+02  0.00000000000E+00 0.  1.
         25    2    1    2    0    0 -0.42224548954E+02  0.43375884239E+02  0.67237348439E+03  0.68656741649E+03  0.12499734003E+03 0.  0.
          4    1    3    3  502    0  0.21325355668E+02 -0.32779731532E+02  0.16357644660E+03  0.16819080943E+03  0.12700000000E+01 0.  1.
         -4    1    3    3    0  502 -0.63549904622E+02  0.76155615771E+02  0.50879703779E+03  0.51837660707E+03  0.12700000000E+01 0.  1.
          3    1    1    2  503    0 -0.16367564689E+02  0.11769939034E+02  0.31941953964E+03  0.32005510610E+03  0.00000000000E+00 0. -1.
         -3    1    1    2    0  501  0.58592113643E+02 -0.55145823273E+02  0.49646148327E+03  0.50293946154E+03  0.00000000000E+00 0.  1.
<mgrwt>
<rscale>  0 0.38099203E+02</rscale>
<asrwt>0</asrwt>
<pdfrwt beam="1">  1        2 0.23060110E+00 0.20160075E+02</pdfrwt>
<pdfrwt beam="2">  1       -2 0.16390379E-02 0.72001183E+02</pdfrwt>
<totfact> 0.14834099E+04</totfact>
</mgrwt>
</event>
<event>
 7    1  0.7037933E-004  0.1254553E+03  0.7546771E-02  0.1374469E+00
          1   -1    0    0  502    0 -0.00000000000E+00  0.00000000000E+00  0.37564321874E+04  0.37564321874E+04  0.00000000000E+00 0. -1.
          2   -1    0    0  503    0  0.00000000000E+00 -0.00000000000E+00 -0.24989641595E+04  0.24989641595E+04  0.00000000000E+00 0. -1.
         25    2    1    2    0    0  0.98778353097E+02 -0.70158602221E+02  0.65579487823E+02  0.18602354394E+03  0.12499878868E+03 0.  0.
          4    1    3    3  501    0 -0.21189813803E+02 -0.25058767561E+02 -0.13402327294E+02  0.35470908045E+02  0.12700000000E+01 0.  1.
         -4    1    3    3    0  501  0.11996816690E+03 -0.45099834661E+02  0.78981815117E+02  0.15055263590E+03  0.12700000000E+01 0.  1.
          2    1    1    2  502    0 -0.78369783702E+02  0.98171352771E+02  0.36294208907E+04  0.36315940631E+04  0.00000000000E+00 0. -1.
          1    1    1    2  503    0 -0.20408569395E+02 -0.28012750550E+02 -0.24375323506E+04  0.24377787398E+04  0.00000000000E+00 0. -1.
<mgrwt>
<rscale>  0 0.65940233E+02</rscale>
<asrwt>0</asrwt>
<pdfrwt beam="2">  1        2 0.38445602E+00 0.34658677E+02</pdfrwt>
<pdfrwt beam="1">  1        1 0.57791265E+00 0.12545529E+03</pdfrwt>
<totfact> 0.16913688E-01</totfact>
</mgrwt>
</event>
<event>
 7    1  0.7037933E-004  0.8713550E+02  0.7546771E-02  0.1427128E+00
          1   -1    0    0  502    0 -0.00000000000E+00  0.00000000000E+00  0.10292139217E+04  0.10292139217E+04  0.00000000000E+00 0. -1.
          2   -1    0    0  503    0  0.00000000000E+00 -0.00000000000E+00 -0.10449094697E+04  0.10449094697E+04  0.00000000000E+00 0. -1.
         25    2    1    2    0    0  0.82781297690E+02  0.38383753939E+02  0.76106961745E+02  0.17245192235E+03  0.12498535947E+03 0.  0.
          4    1    3    3  501    0  0.97225451376E+02  0.69517419282E+02  0.51231826747E+02  0.13004527270E+03  0.12700000000E+01 0. -1.
         -4    1    3    3    0  501 -0.14444153685E+02 -0.31133665343E+02  0.24875134998E+02  0.42406649650E+02  0.12700000000E+01 0. -1.
          2    1    1    2  502    0 -0.22195892679E+02  0.24282849553E+02  0.90272863018E+03  0.90332789959E+03  0.00000000000E+00 0. -1.
          1    1    1    2  503    0 -0.60585405011E+02 -0.62666603492E+02 -0.99453113995E+03  0.99834356953E+03  0.00000000000E+00 0. -1.
<mgrwt>
<rscale>  0 0.53540930E+02</rscale>
<asrwt>0</asrwt>
<pdfrwt beam="2">  1        2 0.16075530E+00 0.87135495E+02</pdfrwt>
<pdfrwt beam="1">  1        1 0.15834060E+00 0.32898548E+02</pdfrwt>
<totfact> 0.63048775E+01</totfact>
</mgrwt>
</event>
<event>
 7    1  0.7037933E-004  0.6908839E+02  0.7546771E-02  0.1436107E+00
          2   -1    0    0  503    0  0.00000000000E+00  0.00000000000E+00  0.57288119079E+03  0.57288119079E+03  0.00000000000E+00 0. -1.
          1   -1    0    0  502    0 -0.00000000000E+00 -0.00000000000E+00 -0.32377180272E+03  0.32377180272E+03  0.00000000000E+00 0. -1.
         25    2    1    2    0    0 -0.34944427435E+02  0.53118921795E+02  0.23061684693E-01  0.14024359460E+03  0.12500212972E+03 0.  0.
          4    1    3    3  501    0 -0.27085488968E+02  0.92123256490E+02  0.15988784686E+02  0.97352823455E+02  0.12700000000E+01 0. -1.
         -4    1    3    3    0  501 -0.78589384671E+01 -0.39004334695E+02 -0.15965723001E+02  0.42890771149E+02  0.12700000000E+01 0. -1.
          2    1    1    2  502    0  0.11873872699E+00 -0.70152350231E+02 -0.24804205671E+03  0.25777165911E+03  0.00000000000E+00 0. -1.
          1    1    1    2  503    0  0.34825688708E+02  0.17033428436E+02  0.49712838309E+03  0.49863773980E+03  0.00000000000E+00 0. -1.
<mgrwt>
<rscale>  0 0.51753516E+02</rscale>
<asrwt>0</asrwt>
<pdfrwt beam="1">  1        2 0.88135567E-01 0.38768109E+02</pdfrwt>
<pdfrwt beam="2">  1        1 0.49811047E-01 0.69088394E+02</pdfrwt>
<totfact> 0.60341342E+02</totfact>
</mgrwt>
</event>
<event>
 7    1  0.7037933E-004  0.4775112E+02  0.7546771E-02  0.1541692E+00
          1   -1    0    0  503    0  0.00000000000E+00  0.00000000000E+00  0.15805426593E+04  0.15805426593E+04  0.00000000000E+00 0. -1.
         -1   -1    0    0    0  501 -0.00000000000E+00 -0.00000000000E+00 -0.34135827146E+03  0.34135827146E+03  0.00000000000E+00 0.  1.
         25    2    1    2    0    0 -0.37917506044E+02  0.13989559944E+01  0.68017898424E+03  0.69260934416E+03  0.12499823467E+03 0.  0.
          4    1    3    3  502    0  0.32867579889E+02 -0.12640381557E+02  0.45005726347E+03  0.45143461360E+03  0.12700000000E+01 0.  1.
         -4    1    3    3    0  502 -0.70785085933E+02  0.14039337551E+02  0.23012172077E+03  0.24117473056E+03  0.12700000000E+01 0.  1.
          2    1    1    2  503    0  0.42645184851E+02  0.25006719226E+02  0.89292687574E+03  0.89429433254E+03  0.00000000000E+00 0. -1.
         -2    1    1    2    0  501 -0.47276788064E+01 -0.26405675220E+02 -0.33392147218E+03  0.33499725403E+03  0.00000000000E+00 0.  1.
<mgrwt>
<rscale>  0 0.35790368E+02</rscale>
<asrwt>0</asrwt>
<pdfrwt beam="1">  1        1 0.24316040E+00 0.47751119E+02</pdfrwt>
<pdfrwt beam="2">  1       -1 0.52516658E-01 0.26825559E+02</pdfrwt>
<totfact> 0.29083698E+01</totfact>
</mgrwt>
</event>
<event>
 7    1  0.7037933E-004  0.4197491E+02  0.7546771E-02  0.1522058E+00
          2   -1    0    0  503    0  0.00000000000E+00  0.00000000000E+00  0.10821574365E+02  0.10821574365E+02  0.00000000000E+00 0. -1.
          1   -1    0    0  502    0 -0.00000000000E+00 -0.00000000000E+00 -0.22870412749E+04  0.22870412749E+04  0.00000000000E+00 0. -1.
         25    2    1    2    0    0  0.28795182790E+02 -0.57013647947E+02 -0.11723649718E+04  0.11807383197E+04  0.12499453535E+03 0.  0.
          4    1    3    3  501    0 -0.39114772370E+02 -0.56707727248E+02 -0.45832453452E+03  0.46347462022E+03  0.12700000000E+01 0. -1.
         -4    1    3    3    0  501  0.67909955159E+02 -0.30592069879E+00 -0.71404043727E+03  0.71726369946E+03  0.12700000000E+01 0. -1.
          2    1    1    2  502    0  0.55325649765E+01  0.34282342129E+02 -0.10434228116E+04  0.10440005038E+04  0.00000000000E+00 0. -1.
          1    1    1    2  503    0 -0.34327747766E+02  0.22731305818E+02 -0.60431917127E+02  0.73124025727E+02  0.00000000000E+00 0. -1.
<mgrwt>
<rscale>  0 0.38178746E+02</rscale>
<asrwt>0</asrwt>
<pdfrwt beam="1">  1        2 0.16648578E-02 0.41974911E+02</pdfrwt>
<pdfrwt beam="2">  1        1 0.35185245E+00 0.34725902E+02</pdfrwt>
<totfact> 0.21803905E+03</totfact>
</mgrwt>
</event>
<event>
 7    1  0.7037933E-004  0.8280624E+02  0.7546771E-02  0.1435870E+00
          1   -1    0    0  503    0  0.00000000000E+00  0.00000000000E+00  0.23001503350E+04  0.23001503350E+04  0.00000000000E+00 0. -1.
         -1   -1    0    0    0  501 -0.00000000000E+00 -0.00000000000E+00 -0.34514882442E+02  0.34514882442E+02  0.00000000000E+00 0.  1.
         25    2    1    2    0    0  0.55272547758E+02  0.37580152968E+02  0.90747055279E+03  0.91847424874E+03  0.12499927592E+03 0.  0.
          4    1    3    3  502    0  0.27652145196E+02  0.19044241054E+02  0.49315051314E+02  0.59673372934E+02  0.12700000000E+01 0. -1.
         -4    1    3    3    0  502  0.27620402562E+02  0.18535911914E+02  0.85815550148E+03  0.85880087581E+03  0.12700000000E+01 0. -1.
          2    1    1    2  503    0 -0.72935854220E+01  0.31571709825E+02  0.13255193013E+04  0.13259153017E+04  0.00000000000E+00 0. -1.
         -2    1    1    2    0  501 -0.47978962336E+02 -0.69151862793E+02  0.32645598526E+02  0.90275667030E+02  0.00000000000E+00 0.  1.
<mgrwt>
<rscale>  0 0.51799513E+02</rscale>
<asrwt>0</asrwt>
<pdfrwt beam="1">  1        1 0.35386916E+00 0.32403229E+02</pdfrwt>
<pdfrwt beam="2">  1       -1 0.53099837E-02 0.82806239E+02</pdfrwt>
<totfact> 0.42210883E+02</totfact>
</mgrwt>
</event>
<event>
 7    1  0.7037933E-004  0.9507815E+02  0.7546771E-02  0.1303923E+00
          2   -1    0    0  503    0  0.00000000000E+00  0.00000000000E+00  0.23443701394E+04  0.23443701394E+04  0.00000000000E+00 0. -1.
         -2   -1    0    0    0  501 -0.00000000000E+00 -0.00000000000E+00 -0.13713370422E+03  0.13713370422E+03  0.00000000000E+00 0.  1.
         25    2    1    2    0    0  0.39430104026E+02 -0.17361325591E+03  0.12252300357E+04  0.12443910320E+04  0.12499641775E+03 0.  0.
          4    1    3    3  502    0  0.37916944366E+02 -0.18210411780E+03  0.89890494339E+03  0.91794951634E+03  0.12700000000E+01 0.  1.
         -4    1    3    3    0  502  0.15131596596E+01  0.84908618981E+01  0.32632509231E+03  0.32644151568E+03  0.12700000000E+01 0.  1.
          1    1    1    2  503    0 -0.23074645236E+02  0.81143670935E+02  0.10904235548E+04  0.10936819754E+04  0.00000000000E+00 0. -1.
         -1    1    1    2    0  501 -0.16355458790E+02  0.92469584972E+02 -0.10841715535E+03  0.14343083612E+03  0.00000000000E+00 0.  1.
<mgrwt>
<rscale>  0 0.89559270E+02</rscale>
<asrwt>0</asrwt>
<pdfrwt beam="1">  1        2 0.36067230E+00 0.84360741E+02</pdfrwt>
<pdfrwt beam="2">  1       -2 0.21097495E-01 0.95078146E+02</pdfrwt>
<totfact> 0.10500751E+02</totfact>
</mgrwt>
</event>
<event>
 7    1  0.7037933E-004  0.4235398E+03  0.7546771E-02  0.1220062E+00
          1   -1    0    0  502    0 -0.00000000000E+00  0.00000000000E+00  0.72389693356E+03  0.72389693356E+03  0.00000000000E+00 0. -1.
          2   -1    0    0  503    0  0.00000000000E+00 -0.00000000000E+00 -0.91834610130E+03  0.91834610130E+03  0.00000000000E+00 0. -1.
         25    2    1    2    0    0 -0.15637458734E+03 -0.35692691250E+03  0.19350271053E+03  0.45268023640E+03  0.12500505994E+03 0.  0.
          4    1    3    3  501    0  0.14457105807E+02 -0.27155354340E+01  0.14168722417E+02  0.20463324167E+02  0.12700000000E+01 0. -1.
         -4    1    3    3    0  501 -0.17083169315E+03 -0.35421137707E+03  0.17933398811E+03  0.43221691223E+03  0.12700000000E+01 0. -1.
          2    1    1    2  502    0 -0.62603627912E+00 -0.43097088453E+02  0.34081581027E+03  0.34353044623E+03  0.00000000000E+00 0. -1.
          1    1    1    2  503    0  0.15700062362E+03  0.40002400096E+03 -0.72876768854E+03  0.84603235223E+03  0.00000000000E+00 0. -1.
<mgrwt>
<rscale>  0 0.13511202E+03</rscale>
<asrwt>0</asrwt>
<pdfrwt beam="2">  1        2 0.14128402E+00 0.42353983E+03</pdfrwt>
<pdfrwt beam="1">  1        1 0.11136876E+00 0.43101635E+02</pdfrwt>
<totfact> 0.11571950E+02</totfact>
</mgrwt>
</event>
<event>
 7    1  0.7037933E-004  0.1065700E+03  0.7546771E-02  0.1428433E+00
         -2   -1    0    0    0  501 -0.00000000000E+00  0.00000000000E+00  0.95006625546E+02  0.95006625546E+02  0.00000000000E+00 0.  1.
          2   -1    0    0  503    0  0.00000000000E+00 -0.00000000000E+00 -0.76187306280E+03  0.76187306280E+03  0.00000000000E+00 0. -1.
         25    2    1    2    0    0  0.76958214360E+02  0.41270204298E+02 -0.56937027277E+03  0.58943530276E+03  0.12500268842E+03 0.  0.
          4    1    3    3  502    0 -0.27026509189E+02 -0.75959900052E+00 -0.39898075242E+02  0.48212845774E+02  0.12700000000E+01 0.  1.
         -4    1    3    3    0  502  0.10398472355E+03  0.42029803298E+02 -0.52947219752E+03  0.54122245699E+03  0.12700000000E+01 0.  1.
          3    1    1    2  503    0  0.25488338556E+02 -0.77253646280E+01 -0.14659219845E+03  0.14899197732E+03  0.00000000000E+00 0. -1.
         -3    1    1    2    0  501 -0.10244655292E+03 -0.33544839670E+02  0.49096033958E+02  0.11845240826E+03  0.00000000000E+00 0.  1.
<mgrwt>
<rscale>  0 0.53275876E+02</rscale>
<asrwt>0</asrwt>
<pdfrwt beam="2">  1        2 0.11721124E+00 0.26633375E+02</pdfrwt>
<pdfrwt beam="1">  1       -2 0.14616404E-01 0.10657001E+03</pdfrwt>
<totfact> 0.14050845E+03</totfact>
</mgrwt>
</event>
<event>
 7    1  0.7037933E-004  0.3760710E+02  0.7546771E-02  0.1571263E+00
          1   -1    0    0  503    0  0.00000000000E+00  0.00000000000E+00  0.60423101444E+03  0.60423101444E+03  0.00000000000E+00 0. -1.
         -1   -1    0    0    0  501 -0.00000000000E+00 -0.00000000000E+00 -0.15686816082E+03  0.15686816082E+03  0.00000000000E+00 0.  1.
         25    2    1    2    0    0 -0.24120554006E+02 -0.41171549671E+02  0.46275021497E+03  0.48170390785E+03  0.12499598293E+03 0.  0.
          4    1    3    3  502    0 -0.24040698455E+02 -0.80160981159E+02  0.39273376424E+03  0.40155343425E+03  0.12700000000E+01 0.  1.
         -4    1    3    3    0  502 -0.79855550380E-01  0.38989431489E+02  0.70016450735E+02  0.80150473600E+02  0.12700000000E+01 0.  1.
          2    1    1    2  503    0  0.27962099229E+02  0.37660151013E+01  0.12804459336E+03  0.13111628332E+03  0.00000000000E+00 0. -1.
         -2    1    1    2    0  501 -0.38415452236E+01  0.37405534569E+02 -0.14343195473E+03  0.14827898409E+03  0.00000000000E+00 0.  1.
<mgrwt>
<rscale>  0 0.32574039E+02</rscale>
<asrwt>0</asrwt>
<pdfrwt beam="1">  1        1 0.92958616E-01 0.28214568E+02</pdfrwt>
<pdfrwt beam="2">  1       -1 0.24133564E-01 0.37607098E+02</pdfrwt>
<totfact> 0.52698137E+02</totfact>
</mgrwt>
</event>
<event>
 7    1  0.7037933E-004  0.1308802E+03  0.7546771E-02  0.1417803E+00
          2   -1    0    0  503    0  0.00000000000E+00  0.00000000000E+00  0.19991318006E+04  0.19991318006E+04  0.00000000000E+00 0. -1.
         -2   -1    0    0    0  501 -0.00000000000E+00 -0.00000000000E+00 -0.71793268060E+02  0.71793268060E+02  0.00000000000E+00 0.  1.
         25    2    1    2    0    0  0.13037761285E+03  0.33262235747E+02  0.11568586488E+04  0.11713459042E+04  0.12499838282E+03 0.  0.
          4    1    3    3  502    0  0.25051259846E+02  0.55612479295E+02  0.21942614951E+03  0.22774933911E+03  0.12700000000E+01 0.  1.
         -4    1    3    3    0  502  0.10532635300E+03 -0.22350243548E+02  0.93743249933E+03  0.94359656512E+03  0.12700000000E+01 0.  1.
          1    1    1    2  503    0 -0.12878602088E+03 -0.97911064686E+01  0.82769753261E+03  0.83771409826E+03  0.00000000000E+00 0. -1.
         -1    1    1    2    0  501 -0.15915919624E+01 -0.23471129279E+02 -0.57217648869E+02  0.61865066206E+02  0.00000000000E+00 0.  1.
<mgrwt>
<rscale>  0 0.55488394E+02</rscale>
<asrwt>0</asrwt>
<pdfrwt beam="1">  1        2 0.30755870E+00 0.13088025E+03</pdfrwt>
<pdfrwt beam="2">  1       -2 0.11045120E-01 0.23525031E+02</pdfrwt>
<totfact> 0.38360393E+02</totfact>
</mgrwt>
</event>
<event>
 7    1  0.7037933E-004  0.1379486E+03  0.7546771E-02  0.1364000E+00
          2   -1    0    0  503    0  0.00000000000E+00  0.00000000000E+00  0.28548837288E+04  0.28548837288E+04  0.00000000000E+00 0. -1.
         -2   -1    0    0    0  501 -0.00000000000E+00 -0.00000000000E+00 -0.52297782024E+02  0.52297782024E+02  0.00000000000E+00 0.  1.
         25    2    1    2    0    0  0.86407964112E+02 -0.60600682233E+02  0.17698549766E+04  0.17773998194E+04  0.12499880320E+03 0.  0.
          4    1    3    3  502    0  0.34890645759E+02 -0.89990619836E+02  0.13397542558E+04  0.13432269904E+04  0.12700000000E+01 0.  1.
         -4    1    3    3    0  502  0.51517318353E+02  0.29389937603E+02  0.43010072083E+03  0.43417282905E+03  0.12700000000E+01 0.  1.
          1    1    1    2  503    0  0.26157527784E+02 -0.22305681504E+02  0.97963336620E+03  0.98023634490E+03  0.00000000000E+00 0. -1.
         -1    1    1    2    0  501 -0.11256549190E+03  0.82906363737E+02  0.53097603920E+02  0.14954534649E+03  0.00000000000E+00 0.  1.
<mgrwt>
<rscale>  0 0.68863783E+02</rscale>
<asrwt>0</asrwt>
<pdfrwt beam="1">  1        2 0.43921276E+00 0.34376732E+02</pdfrwt>
<pdfrwt beam="2">  1       -2 0.80458148E-02 0.13794856E+03</pdfrwt>
<totfact> 0.31405249E+02</totfact>
</mgrwt>
</event>
<event>
 7    1  0.7037933E-004  0.9699270E+02  0.7546771E-02  0.1310050E+00
          2   -1    0    0  503    0  0.00000000000E+00  0.00000000000E+00  0.12722536326E+04  0.12722536326E+04  0.00000000000E+00 0. -1.
          1   -1    0    0  502    0 -0.00000000000E+00 -0.00000000000E+00 -0.76296271101E+02  0.76296271101E+02  0.00000000000E+00 0. -1.
         25    2    1    2    0    0 -0.12211024208E+03  0.27218564072E+01  0.66276151340E+03  0.68541653626E+03  0.12499873924E+03 0.  0.
          4    1    3    3  501    0  0.24799119276E+02  0.23299598542E+01  0.59351244697E+02  0.64378631369E+02  0.12700000000E+01 0.  1.
         -4    1    3    3    0  501 -0.14690936136E+03  0.39189655302E+00  0.60341026870E+03  0.62103790489E+03  0.12700000000E+01 0.  1.
          2    1    1    2  502    0  0.73208225308E+02 -0.63748317981E+02 -0.24389525127E+02  0.10009066507E+03  0.00000000000E+00 0. -1.
          1    1    1    2  503    0  0.48902016774E+02  0.61026461573E+02  0.55758537325E+03  0.56304270239E+03  0.00000000000E+00 0. -1.
<mgrwt>
<rscale>  0 0.87092335E+02</rscale>
<asrwt>0</asrwt>
<pdfrwt beam="1">  1        2 0.19573131E+00 0.78202534E+02</pdfrwt>
<pdfrwt beam="2">  1        1 0.11737889E-01 0.96992699E+02</pdfrwt>
<totfact> 0.13152690E+03</totfact>
</mgrwt>
</event>
<event>
 7    1  0.7037933E-004  0.2251141E+02  0.7546771E-02  0.1701967E+00
          1   -1    0    0  503    0  0.00000000000E+00  0.00000000000E+00  0.17726280086E+04  0.17726280086E+04  0.00000000000E+00 0. -1.
         -1   -1    0    0    0  501 -0.00000000000E+00 -0.00000000000E+00 -0.24016703195E+02  0.24016703195E+02  0.00000000000E+00 0.  1.
         25    2    1    2    0    0 -0.21547059451E+02 -0.39081989937E+02  0.19671228349E+03  0.23730260504E+03  0.12500050469E+03 0.  0.
          4    1    3    3  502    0 -0.58926149833E+02 -0.23295516401E+01  0.38034083419E+02  0.70184915377E+02  0.12700000000E+01 0. -1.
         -4    1    3    3    0  502  0.37379090382E+02 -0.36752438296E+02  0.15867820007E+03  0.16711768966E+03  0.12700000000E+01 0. -1.
          2    1    1    2  503    0  0.11383633200E+02  0.19316711607E+02  0.15216022517E+04  0.15217674378E+04  0.00000000000E+00 0. -1.
         -2    1    1    2    0  501  0.10163426251E+02  0.19765278330E+02  0.30296770251E+02  0.37574668971E+02  0.00000000000E+00 0.  1.
<mgrwt>
<rscale>  0 0.22367867E+02</rscale>
<asrwt>0</asrwt>
<pdfrwt beam="1">  1        1 0.27271190E+00 0.22511405E+02</pdfrwt>
<pdfrwt beam="2">  1       -1 0.36948788E-02 0.22225244E+02</pdfrwt>
<totfact> 0.13078012E+03</totfact>
</mgrwt>
</event>
<event>
 7    1  0.7037933E-004  0.1546343E+03  0.7546771E-02  0.1402499E+00
          2   -1    0    0  503    0  0.00000000000E+00  0.00000000000E+00  0.15683007272E+04  0.15683007272E+04  0.00000000000E+00 0. -1.
          1   -1    0    0  502    0 -0.00000000000E+00 -0.00000000000E+00 -0.20985440961E+04  0.20985440961E+04  0.00000000000E+00 0. -1.
         25    2    1    2    0    0  0.34864302280E+02 -0.13236454676E+03 -0.46954349630E+03  0.50480773120E+03  0.12499543092E+03 0.  0.
          4    1    3    3  501    0 -0.33886319520E+02 -0.10488720711E+03 -0.30704248802E+03  0.32623045721E+03  0.12700000000E+01 0.  1.
         -4    1    3    3    0  501  0.68750621800E+02 -0.27477339654E+02 -0.16250100828E+03  0.17857727399E+03  0.12700000000E+01 0.  1.
          2    1    1    2  502    0 -0.34442939244E+02  0.15479689651E+03 -0.16073852101E+04  0.16151890320E+04  0.00000000000E+00 0. -1.
          1    1    1    2  503    0 -0.42136303636E+00 -0.22432349751E+02  0.15466853375E+04  0.15468480601E+04  0.00000000000E+00 0. -1.
<mgrwt>
<rscale>  0 0.58901814E+02</rscale>
<asrwt>0</asrwt>
<pdfrwt beam="1">  1        2 0.24127703E+00 0.22436307E+02</pdfrwt>
<pdfrwt beam="2">  1        1 0.32285294E+00 0.15463435E+03</pdfrwt>
<totfact> 0.67055749E+00</totfact>
</mgrwt>
</event>
<event>
 7    1  0.7037933E-004  0.4654732E+02  0.7546771E-02  0.1476760E+00
          1   -1    0    0  503    0  0.00000000000E+00  0.00000000000E+00  0.21127319537E+04  0.21127319537E+04  0.00000000000E+00 0. -1.
         -1   -1    0    0    0  501 -0.00000000000E+00 -0.00000000000E+00 -0.24737823381E+03  0.24737823381E+03  0.00000000000E+00 0.  1.
         25    2    1    2    0    0  0.36544055144E+01 -0.73619440737E+01  0.10276938748E+03  0.16203334463E+03  0.12500281945E+03 0.  0.
          4    1    3    3  502    0 -0.65733561768E+01  0.24051199998E+02  0.12149796291E+03  0.12403643466E+03  0.12700000000E+01 0. -1.
         -4    1    3    3    0  502  0.10227761691E+02 -0.31413144071E+02 -0.18728575431E+02  0.37996909971E+02  0.12700000000E+01 0. -1.
          2    1    1    2  503    0 -0.46415581237E+02  0.69997625266E+01  0.19779499240E+04  0.19785068372E+04  0.00000000000E+00 0. -1.
         -2    1    1    2    0  501  0.42761175723E+02  0.36218154714E+00 -0.21536559164E+03  0.21957000566E+03  0.00000000000E+00 0.  1.
<mgrwt>
<rscale>  0 0.44614903E+02</rscale>
<asrwt>0</asrwt>
<pdfrwt beam="1">  1        1 0.32503567E+00 0.46547321E+02</pdfrwt>
<pdfrwt beam="2">  1       -1 0.38058191E-01 0.42762710E+02</pdfrwt>
<totfact> 0.24086325E+01</totfact>
</mgrwt>
</event>
<event>
 7    1  0.7037933E-004  0.1738557E+03  0.7546771E-02  0.1301616E+00
          1   -1    0    0  502    0 -0.00000000000E+00  0.00000000000E+00  0.62457803853E+03  0.62457803853E+03  0.00000000000E+00 0. -1.
          2   -1    0    0  503    0  0.00000000000E+00 -0.00000000000E+00 -0.14772487650E+04  0.14772487650E+04  0.00000000000E+00 0. -1.
         25    2    1    2    0    0  0.13434080873E+03  0.16631933317E+01 -0.62398063677E+03  0.65040376474E+03  0.12499201183E+03 0.  0.
          4    1    3    3  501    0 -0.18417202570E+02  0.22536933077E+02 -0.88854113483E+02  0.93508144489E+02  0.12700000000E+01 0. -1.
         -4    1    3    3    0  501  0.15275801131E+03 -0.20873739746E+02 -0.53512652328E+03  0.55689562025E+03  0.12700000000E+01 0. -1.
          2    1    1    2  502    0 -0.17277705492E+03  0.25597339409E+02  0.59820700824E+03  0.62318437015E+03  0.00000000000E+00 0. -1.
          1    1    1    2  503    0  0.38436246183E+02 -0.27260532741E+02 -0.82689709794E+03  0.82823866865E+03  0.00000000000E+00 0. -1.
<mgrwt>
<rscale>  0 0.90512029E+02</rscale>
<asrwt>0</asrwt>
<pdfrwt beam="2">  1        2 0.22726904E+00 0.47121987E+02</pdfrwt>
<pdfrwt beam="1">  1        1 0.96088929E-01 0.17385573E+03</pdfrwt>
<totfact> 0.74851948E+01</totfact>
</mgrwt>
</event>
<event>
 7    1  0.7037933E-004  0.1773311E+03  0.7546771E-02  0.1242699E+00
          2   -1    0    0  503    0  0.00000000000E+00  0.00000000000E+00  0.99669788747E+03  0.99669788747E+03  0.00000000000E+00 0. -1.
          1   -1    0    0  502    0 -0.00000000000E+00 -0.00000000000E+00 -0.39252104577E+03  0.39252104577E+03  0.00000000000E+00 0. -1.
         25    2    1    2    0    0 -0.16825432597E+03  0.28753820756E+02  0.27951955042E+02  0.21340850721E+03  0.12500231495E+03 0.  0.
          4    1    3    3  501    0 -0.83613570885E+02 -0.32521441753E+02 -0.29129383486E+02  0.94334549833E+02  0.12700000000E+01 0. -1.
         -4    1    3    3    0  501 -0.84640755086E+02  0.61275262510E+02  0.57081338528E+02  0.11907395738E+03  0.12700000000E+01 0. -1.
          2    1    1    2  502    0 -0.35136013678E+01 -0.81455245724E+02 -0.28479941687E+03  0.29623978514E+03  0.00000000000E+00 0. -1.
          1    1    1    2  503    0  0.17176792734E+03  0.52701424968E+02  0.86102430353E+03  0.87957064089E+03  0.00000000000E+00 0. -1.
<mgrwt>
<rscale>  0 0.12024135E+03</rscale>
<asrwt>0</asrwt>
<pdfrwt beam="1">  1        2 0.15333814E+00 0.17733113E+03</pdfrwt>
<pdfrwt beam="2">  1        1 0.60387854E-01 0.81530991E+02</pdfrwt>
<totfact> 0.23237128E+02</totfact>
</mgrwt>
</event>
<event>
 7    1  0.7037933E-004  0.1334201E+03  0.7546771E-02  0.1271157E+00
          2   -1    0    0  503    0  0.00000000000E+00  0.00000000000E+00  0.14734328543E+03  0.14734328543E+03  0.00000000000E+00 0. -1.
          1   -1    0    0  502    0 -0.00000000000E+00 -0.00000000000E+00 -0.18023595989E+04  0.18023595989E+04  0.00000000000E+00 0. -1.
         25    2    1    2    0    0 -0.11984112076E+03  0.56246329529E+02 -0.56110407149E+02  0.19052242420E+03  0.12499949009E+03 0.  0.
          4    1    3    3  501    0 -0.12706061330E+03  0.84003907013E+01 -0.62224151883E+02  0.14173363748E+03  0.12700000000E+01 0.  1.
         -4    1    3    3    0  501  0.72194925446E+01  0.47845938828E+02  0.61137447341E+01  0.48788786720E+02  0.12700000000E+01 0.  1.
          2    1    1    2  502    0 -0.20523698623E+02 -0.79193484669E+02 -0.16140738345E+04  0.16161457773E+04  0.00000000000E+00 0. -1.
          1    1    1    2  503    0  0.14036481938E+03  0.22947155140E+02  0.15167928183E+02  0.14303468284E+03  0.00000000000E+00 0. -1.
<mgrwt>
<rscale>  0 0.10447517E+03</rscale>
<asrwt>0</asrwt>
<pdfrwt beam="1">  1        2 0.22668200E-01 0.13342011E+03</pdfrwt>
<pdfrwt beam="2">  1        1 0.27728606E+00 0.81809720E+02</pdfrwt>
<totfact> 0.16586173E+02</totfact>
</mgrwt>
</event>
<event>
 7    1  0.7037933E-004  0.9558183E+02  0.7546771E-02  0.1438933E+00
          1   -1    0    0  502    0 -0.00000000000E+00  0.00000000000E+00  0.16893307589E+04  0.16893307589E+04  0.00000000000E+00 0. -1.
          2   -1    0    0  503    0  0.00000000000E+00 -0.00000000000E+00 -0.44169762865E+03  0.44169762865E+03  0.00000000000E+00 0. -1.
         25    2    1    2    0    0 -0.79393568660E+02 -0.23120564397E+02 -0.11652886560E+03  0.18984316666E+03  0.12499420853E+03 0.  0.
          4    1    3    3  501    0 -0.68811556981E+02 -0.17868035637E+02  0.15953920425E+01  0.71122818051E+02  0.12700000000E+01 0. -1.
         -4    1    3    3    0  501 -0.10582011679E+02 -0.52525287598E+01 -0.11812425765E+03  0.11872034861E+03  0.12700000000E+01 0. -1.
          2    1    1    2  502    0 -0.61995950812E+01 -0.26724907233E+02  0.16440546082E+04  0.16442834945E+04  0.00000000000E+00 0. -1.
          1    1    1    2  503    0  0.85593163741E+02  0.49845471630E+02 -0.27989261230E+03  0.29690172640E+03  0.00000000000E+00 0. -1.
<mgrwt>
<rscale>  0 0.51207875E+02</rscale>
<asrwt>0</asrwt>
<pdfrwt beam="2">  1        2 0.67953482E-01 0.95581831E+02</pdfrwt>
<pdfrwt beam="1">  1        1 0.25989704E+00 0.27434570E+02</pdfrwt>
<totfact> 0.68391542E+01</totfact>
</mgrwt>
</event>
<event>
 7    1  0.7037933E-004  0.6194094E+02  0.7546771E-02  0.1437926E+00
          1   -1    0    0  502    0 -0.00000000000E+00  0.00000000000E+00  0.22320152337E+02  0.22320152337E+02  0.00000000000E+00 0. -1.
          2   -1    0    0  503    0  0.00000000000E+00 -0.00000000000E+00 -0.23735762232E+04  0.23735762232E+04  0.00000000000E+00 0. -1.
         25    2    1    2    0    0  0.96069574988E+01 -0.28192413990E+02 -0.37215478855E+03  0.39371423434E+03  0.12499842336E+03 0.  0.
          4    1    3    3  501    0  0.57484489650E+02  0.88731796539E+01 -0.25812002889E+03  0.26459546875E+03  0.12700000000E+01 0.  1.
         -4    1    3    3    0  501 -0.47877532151E+02 -0.37065593644E+02 -0.11403475966E+03  0.12911876559E+03  0.12700000000E+01 0.  1.
          2    1    1    2  502    0 -0.10381622858E+02  0.70840559959E+02 -0.10213143726E+03  0.12472767738E+03  0.00000000000E+00 0. -1.
          1    1    1    2  503    0  0.77466535940E+00 -0.42648145969E+02 -0.18769698450E+04  0.18774544638E+04  0.00000000000E+00 0. -1.
<mgrwt>
<rscale>  0 0.51401381E+02</rscale>
<asrwt>0</asrwt>
<pdfrwt beam="2">  1        2 0.36516555E+00 0.42655181E+02</pdfrwt>
<pdfrwt beam="1">  1        1 0.34338698E-02 0.61940940E+02</pdfrwt>
<totfact> 0.19577972E+03</totfact>
</mgrwt>
</event>
<event>
 7    1  0.7037933E-004  0.5642303E+02  0.7546771E-02  0.1522251E+00
          2   -1    0    0  503    0  0.00000000000E+00  0.00000000000E+00  0.13238779619E+04  0.13238779619E+04  0.00000000000E+00 0. -1.
         -2   -1    0    0    0  501 -0.00000000000E+00 -0.00000000000E+00 -0.14002258379E+03  0.14002258379E+03  0.00000000000E+00 0.  1.
         25    2    1    2    0    0  0.38771167743E+02  0.61231745550E+02  0.89565945684E+03  0.90723910755E+03  0.12499762210E+03 0.  0.
          4    1    3    3  502    0 -0.33930496337E+02 -0.16565797403E+02  0.25727004658E+03  0.26002921758E+03  0.12700000000E+01 0.  1.
         -4    1    3    3    0  502  0.72701664079E+02  0.77797542952E+02  0.63838941025E+03  0.64720988997E+03  0.12700000000E+01 0.  1.
          1    1    1    2  503    0 -0.38622908362E+02 -0.35431700229E+02  0.41954303422E+03  0.42280431880E+03  0.00000000000E+00 0. -1.
         -1    1    1    2    0  501 -0.14825938126E+00 -0.25800045321E+02 -0.13134711294E+03  0.13385711934E+03  0.00000000000E+00 0.  1.
<mgrwt>
<rscale>  0 0.38154172E+02</rscale>
<asrwt>0</asrwt>
<pdfrwt beam="1">  1        2 0.20367352E+00 0.56423034E+02</pdfrwt>
<pdfrwt beam="2">  1       -2 0.21541937E-01 0.25800471E+02</pdfrwt>
<totfact> 0.32218644E+02</totfact>
</mgrwt>
</event>
<event>
 7    1  0.7037933E-004  0.1299606E+03  0.7546771E-02  0.1258278E+00
          2   -1    0    0  503    0  0.00000000000E+00  0.00000000000E+00  0.29270408387E+04  0.29270408387E+04  0.00000000000E+00 0. -1.
          1   -1    0    0  502    0 -0.00000000000E+00 -0.00000000000E+00 -0.80332651668E+02  0.80332651668E+02  0.00000000000E+00 0. -1.
         25    2    1    2    0    0  0.47312088434E+02  0.75396055232E+01  0.98292643909E+03  0.99199975772E+03  0.12499542113E+03 0.  0.
          4    1    3    3  501    0  0.21234166164E+02 -0.25952760707E+02  0.65541560042E+02  0.73632496859E+02  0.12700000000E+01 0. -1.
         -4    1    3    3    0  501  0.26077922270E+02  0.33492366230E+02  0.91738487905E+03  0.91836726087E+03  0.12700000000E+01 0. -1.
          2    1    1    2  502    0 -0.10941813874E+03 -0.79727694851E+02 -0.13156074589E+02  0.13602175087E+03  0.00000000000E+00 0. -1.
          1    1    1    2  503    0  0.62106050309E+02  0.72188089328E+02  0.18769378225E+04  0.18793519818E+04  0.00000000000E+00 0. -1.
<mgrwt>
<rscale>  0 0.11124668E+03</rscale>
<asrwt>0</asrwt>
<pdfrwt beam="1">  1        2 0.45031389E+00 0.95227526E+02</pdfrwt>
<pdfrwt beam="2">  1        1 0.12358872E-01 0.12996057E+03</pdfrwt>
<totfact> 0.17027530E+02</totfact>
</mgrwt>
</event>
<event>
 7    1  0.7037933E-004  0.7380035E+02  0.7546771E-02  0.1425725E+00
          1   -1    0    0  502    0 -0.00000000000E+00  0.00000000000E+00  0.55067331450E+03  0.55067331450E+03  0.00000000000E+00 0. -1.
          2   -1    0    0  503    0  0.00000000000E+00 -0.00000000000E+00 -0.44234698123E+03  0.44234698123E+03  0.00000000000E+00 0. -1.
         25    2    1    2    0    0 -0.16745981577E+02  0.35258069893E+02 -0.17524144155E+03  0.21876340924E+03  0.12499722794E+03 0.  0.
          4    1    3    3  501    0 -0.12652876157E+02 -0.46661352718E+02 -0.74912612720E+02  0.89167760749E+02  0.12700000000E+01 0.  1.
         -4    1    3    3    0  501 -0.40931054207E+01  0.81919422611E+02 -0.10032882883E+03  0.12959564849E+03  0.12700000000E+01 0.  1.
          2    1    1    2  502    0  0.51479490341E+02 -0.53559844545E+02  0.52470836967E+03  0.52994119303E+03  0.00000000000E+00 0. -1.
          1    1    1    2  503    0 -0.34733508764E+02  0.18301774652E+02 -0.24114059485E+03  0.24431569346E+03  0.00000000000E+00 0. -1.
<mgrwt>
<rscale>  0 0.53827727E+02</rscale>
<asrwt>0</asrwt>
<pdfrwt beam="2">  1        2 0.68053382E-01 0.39260305E+02</pdfrwt>
<pdfrwt beam="1">  1        1 0.84718971E-01 0.73800347E+02</pdfrwt>
<totfact> 0.40740642E+02</totfact>
</mgrwt>
</event>
<event>
 7    1  0.7037933E-004  0.5351325E+02  0.7546771E-02  0.1540394E+00
          1   -1    0    0  502    0 -0.00000000000E+00  0.00000000000E+00  0.75911072077E+02  0.75911072077E+02  0.00000000000E+00 0. -1.
          2   -1    0    0  503    0  0.00000000000E+00 -0.00000000000E+00 -0.95254609779E+03  0.95254609779E+03  0.00000000000E+00 0. -1.
         25    2    1    2    0    0 -0.30559800074E+02  0.44650587706E+01 -0.22881331622E+03  0.26255354816E+03  0.12499997535E+03 0.  0.
          4    1    3    3  501    0  0.57607275244E+01  0.15472755518E+02 -0.22361374781E+03  0.22422603161E+03  0.12700000000E+01 0. -1.
         -4    1    3    3    0  501 -0.36320527598E+02 -0.11007696748E+02 -0.51995684174E+01  0.38327516544E+02  0.12700000000E+01 0. -1.
          2    1    1    2  502    0 -0.24118061475E+02  0.10260996245E+01  0.55455986541E+02  0.60482230556E+02  0.00000000000E+00 0. -1.
          1    1    1    2  503    0  0.54677861549E+02 -0.54911583952E+01 -0.70327769603E+03  0.70542139116E+03  0.00000000000E+00 0. -1.
<mgrwt>
<rscale>  0 0.35941665E+02</rscale>
<asrwt>0</asrwt>
<pdfrwt beam="2">  1        2 0.14654556E+00 0.53513246E+02</pdfrwt>
<pdfrwt beam="1">  1        1 0.11678626E-01 0.24139879E+02</pdfrwt>
<totfact> 0.18449822E+03</totfact>
</mgrwt>
</event>
<event>
 7    1  0.7037933E-004  0.4583788E+02  0.7546771E-02  0.1584835E+00
         -2   -1    0    0    0  501 -0.00000000000E+00  0.00000000000E+00  0.34173706075E+02  0.34173706075E+02  0.00000000000E+00 0.  1.
          2   -1    0    0  503    0  0.00000000000E+00 -0.00000000000E+00 -0.44866733415E+03  0.44866733415E+03  0.00000000000E+00 0. -1.
         25    2    1    2    0    0  0.12014502952E+02  0.57554751058E+02 -0.21523952721E+03  0.25575450824E+03  0.12500166702E+03 0.  0.
          4    1    3    3  502    0 -0.49647569646E+02  0.43720579523E+02 -0.15459321335E+03  0.16815779720E+03  0.12700000000E+01 0. -1.
         -4    1    3    3    0  502  0.61662072598E+02  0.13834171535E+02 -0.60646313861E+02  0.87596711034E+02  0.12700000000E+01 0. -1.
          3    1    1    2  503    0 -0.16368570012E+02 -0.13602809947E+02 -0.17578980158E+03  0.17707349001E+03  0.00000000000E+00 0. -1.
         -3    1    1    2    0  501  0.43540670600E+01 -0.43951941112E+02 -0.23464299276E+02  0.50013041979E+02  0.00000000000E+00 0.  1.
<mgrwt>
<rscale>  0 0.31234086E+02</rscale>
<asrwt>0</asrwt>
<pdfrwt beam="2">  1        2 0.69025746E-01 0.21283010E+02</pdfrwt>
<pdfrwt beam="1">  1       -2 0.52574931E-02 0.45837884E+02</pdfrwt>
<totfact> 0.10975978E+04</totfact>
</mgrwt>
</event>
<event>
 7    1  0.7037933E-004  0.7964599E+02  0.7546771E-02  0.1377535E+00
          2   -1    0    0  503    0  0.00000000000E+00  0.00000000000E+00  0.24576505933E+03  0.24576505933E+03  0.00000000000E+00 0. -1.
          1   -1    0    0  502    0 -0.00000000000E+00 -0.00000000000E+00 -0.16164594366E+04  0.16164594366E+04  0.00000000000E+00 0. -1.
         25    2    1    2    0    0 -0.11538717569E+02  0.60312475279E+02  0.69156845675E+02  0.15548998403E+03  0.12499491650E+03 0.  0.
          4    1    3    3  501    0 -0.65049040629E+02  0.54243094582E+02  0.49726823713E+02  0.98224543232E+02  0.12700000000E+01 0. -1.
         -4    1    3    3    0  501  0.53510323060E+02  0.60693806977E+01  0.19430021962E+02  0.57265440795E+02  0.12700000000E+01 0. -1.
          2    1    1    2  502    0 -0.41047633196E+02 -0.68610546837E+02 -0.15669230005E+04  0.15689614414E+04  0.00000000000E+00 0. -1.
          1    1    1    2  503    0  0.52586350765E+02  0.82980715574E+01  0.12707177757E+03  0.13777307042E+03  0.00000000000E+00 0. -1.
<mgrwt>
<rscale>  0 0.65116179E+02</rscale>
<asrwt>0</asrwt>
<pdfrwt beam="1">  1        2 0.37810010E-01 0.53237039E+02</pdfrwt>
<pdfrwt beam="2">  1        1 0.24868606E+00 0.79645993E+02</pdfrwt>
<totfact> 0.12296960E+02</totfact>
</mgrwt>
</event>
<event>
 7    1  0.7037933E-004  0.4765294E+02  0.7546771E-02  0.1508087E+00
          1   -1    0    0  503    0  0.00000000000E+00  0.00000000000E+00  0.11458658727E+04  0.11458658727E+04  0.00000000000E+00 0. -1.
         -1   -1    0    0    0  501 -0.00000000000E+00 -0.00000000000E+00 -0.27545301498E+03  0.27545301498E+03  0.00000000000E+00 0.  1.
         25    2    1    2    0    0  0.75320020215E+02  0.29790393821E+02  0.46082753003E+03  0.48430261216E+03  0.12500573867E+03 0.  0.
          4    1    3    3  502    0  0.50863171137E+02 -0.44077404318E+02  0.26889793697E+03  0.27719594722E+03  0.12700000000E+01 0.  1.
         -4    1    3    3    0  502  0.24456849078E+02  0.73867798139E+02  0.19192959307E+03  0.20710666494E+03  0.12700000000E+01 0.  1.
          2    1    1    2  503    0 -0.31952149582E+02 -0.10407971679E+02  0.67073764795E+03  0.67157892917E+03  0.00000000000E+00 0. -1.
         -2    1    1    2    0  501 -0.43367870633E+02 -0.19382422142E+02 -0.26115232023E+03  0.26543734638E+03  0.00000000000E+00 0.  1.
<mgrwt>
<rscale>  0 0.40016941E+02</rscale>
<asrwt>0</asrwt>
<pdfrwt beam="1">  1        1 0.17628706E+00 0.33604549E+02</pdfrwt>
<pdfrwt beam="2">  1       -1 0.42377387E-01 0.47652940E+02</pdfrwt>
<totfact> 0.82234267E+01</totfact>
</mgrwt>
</event>
<event>
 7    1  0.7037933E-004  0.4889025E+02  0.7546771E-02  0.1471179E+00
          2   -1    0    0  503    0  0.00000000000E+00  0.00000000000E+00  0.13455283928E+03  0.13455283928E+03  0.00000000000E+00 0. -1.
          1   -1    0    0  502    0 -0.00000000000E+00 -0.00000000000E+00 -0.16689248093E+04  0.16689248093E+04  0.00000000000E+00 0. -1.
         25    2    1    2    0    0  0.37423150802E+02  0.60515159623E+02 -0.11215395966E+04  0.11307238635E+04  0.12499124773E+03 0.  0.
          4    1    3    3  501    0  0.54240977382E+02  0.51223877568E+01 -0.19776674827E+03  0.20513805621E+03  0.12700000000E+01 0.  1.
         -4    1    3    3    0  501 -0.16817826581E+02  0.55392771867E+02 -0.92377284832E+03  0.92558580730E+03  0.12700000000E+01 0.  1.
          2    1    1    2  502    0  0.24205028767E+01 -0.46119421918E+02 -0.53832542817E+03  0.54030281003E+03  0.00000000000E+00 0. -1.
          1    1    1    2  503    0 -0.39843653678E+02 -0.14395737705E+02  0.12549305474E+03  0.13245097505E+03  0.00000000000E+00 0. -1.
<mgrwt>
<rscale>  0 0.45510581E+02</rscale>
<asrwt>0</asrwt>
<pdfrwt beam="1">  1        2 0.20700437E-01 0.42364537E+02</pdfrwt>
<pdfrwt beam="2">  1        1 0.25675766E+00 0.48890254E+02</pdfrwt>
<totfact> 0.22535277E+02</totfact>
</mgrwt>
</event>
<event>
 7    1  0.7037933E-004  0.1388831E+03  0.7546771E-02  0.1390802E+00
          2   -1    0    0  503    0  0.00000000000E+00  0.00000000000E+00  0.61240042980E+03  0.61240042980E+03  0.00000000000E+00 0. -1.
          1   -1    0    0  502    0 -0.00000000000E+00 -0.00000000000E+00 -0.14073592464E+04  0.14073592464E+04  0.00000000000E+00 0. -1.
         25    2    1    2    0    0  0.11191688324E+03  0.12082206476E+03  0.50628309060E+02  0.21287909979E+03  0.12502369920E+03 0.  0.
          4    1    3    3  501    0  0.12363410342E+03  0.84066188560E+02  0.37588806118E+00  0.14951344347E+03  0.12700000000E+01 0. -1.
         -4    1    3    3    0  501 -0.11717220183E+02  0.36755876201E+02  0.50252420999E+02  0.63365656316E+02  0.12700000000E+01 0. -1.
          2    1    1    2  502    0 -0.89099116490E+02 -0.10562081762E+03 -0.13222394651E+04  0.13294403381E+04  0.00000000000E+00 0. -1.
          1    1    1    2  503    0 -0.22817766746E+02 -0.15201247140E+02  0.47665233945E+03  0.47744023825E+03  0.00000000000E+00 0. -1.
<mgrwt>
<rscale>  0 0.61707783E+02</rscale>
<asrwt>0</asrwt>
<pdfrwt beam="1">  1        2 0.94215452E-01 0.27417666E+02</pdfrwt>
<pdfrwt beam="2">  1        1 0.21651680E+00 0.13888310E+03</pdfrwt>
<totfact> 0.62311856E+01</totfact>
</mgrwt>
</event>
<event>
 7    1  0.7037933E-004  0.3648501E+02  0.7546771E-02  0.1630048E+00
          2   -1    0    0  503    0  0.00000000000E+00  0.00000000000E+00  0.56524624060E+03  0.56524624060E+03  0.00000000000E+00 0. -1.
          1   -1    0    0  502    0 -0.00000000000E+00 -0.00000000000E+00 -0.30690675260E+03  0.30690675260E+03  0.00000000000E+00 0. -1.
         25    2    1    2    0    0 -0.23248414320E+02  0.14802215183E+02 -0.17345993443E+02  0.12917136886E+03  0.12499905881E+03 0.  0.
          4    1    3    3  501    0 -0.74152755479E+02 -0.23710687093E+01 -0.12038976583E+02  0.75171822973E+02  0.12700000000E+01 0. -1.
         -4    1    3    3    0  501  0.50904341159E+02  0.17173283892E+02 -0.53070168603E+01  0.53999545891E+02  0.12700000000E+01 0. -1.
          2    1    1    2  502    0  0.36828877210E+02  0.45056047100E+00 -0.23198998363E+03  0.23489555489E+03  0.00000000000E+00 0. -1.
          1    1    1    2  503    0 -0.13580462891E+02 -0.15252775654E+02  0.50767546507E+03  0.50808606946E+03  0.00000000000E+00 0. -1.
<mgrwt>
<rscale>  0 0.27296757E+02</rscale>
<asrwt>0</asrwt>
<pdfrwt beam="1">  1        2 0.86960960E-01 0.20422442E+02</pdfrwt>
<pdfrwt beam="2">  1        1 0.47216423E-01 0.36485007E+02</pdfrwt>
<totfact> 0.65819598E+02</totfact>
</mgrwt>
</event>
<event>
 7    1  0.7037933E-004  0.2824791E+02  0.7546771E-02  0.1651603E+00
          2   -1    0    0  503    0  0.00000000000E+00  0.00000000000E+00  0.46525234955E+03  0.46525234955E+03  0.00000000000E+00 0. -1.
          1   -1    0    0  502    0 -0.00000000000E+00 -0.00000000000E+00 -0.78109498083E+03  0.78109498083E+03  0.00000000000E+00 0. -1.
         25    2    1    2    0    0 -0.26965022311E+02 -0.31868865901E+02 -0.47102103028E+03  0.48910928637E+03  0.12499738399E+03 0.  0.
          4    1    3    3  501    0  0.17020935767E+01 -0.38089128461E+02 -0.45311572961E+03  0.45471876600E+03  0.12700000000E+01 0. -1.
         -4    1    3    3    0  501 -0.28667115887E+02  0.62202625601E+01 -0.17905300674E+02  0.34390520377E+02  0.12700000000E+01 0. -1.
          2    1    1    2  502    0  0.40761243330E+01  0.27395906330E+02 -0.30009360826E+03  0.30136908300E+03  0.00000000000E+00 0. -1.
          1    1    1    2  503    0  0.22888897977E+02  0.44729595711E+01  0.45527200726E+03  0.45586896101E+03  0.00000000000E+00 0. -1.
<mgrwt>
<rscale>  0 0.25666979E+02</rscale>
<asrwt>0</asrwt>
<pdfrwt beam="1">  1        2 0.71577285E-01 0.23321857E+02</pdfrwt>
<pdfrwt beam="2">  1        1 0.12016846E+00 0.28247914E+02</pdfrwt>
<totfact> 0.25226362E+02</totfact>
</mgrwt>
</event>
<event>
 7    1  0.7037933E-004  0.1611384E+03  0.7546771E-02  0.1288918E+00
          1   -1    0    0  503    0  0.00000000000E+00  0.00000000000E+00  0.15078688327E+04  0.15078688327E+04  0.00000000000E+00 0. -1.
         -1   -1    0    0    0  501 -0.00000000000E+00 -0.00000000000E+00 -0.70957695493E+02  0.70957695493E+02  0.00000000000E+00 0.  1.
         25    2    1    2    0    0 -0.83008112670E+02  0.14486858843E+03  0.14750934676E+03  0.25544093413E+03  0.12495522704E+03 0.  0.
          4    1    3    3  502    0  0.24116772302E+00  0.11598190828E+03  0.57453354578E+02  0.12943864207E+03  0.12700000000E+01 0.  1.
         -4    1    3    3    0  502 -0.83249280393E+02  0.28886680153E+02  0.90055992179E+02  0.12600229206E+03  0.12700000000E+01 0.  1.
          2    1    1    2  503    0 -0.36622417294E+02 -0.43944807357E+02  0.92532505346E+03  0.92709158237E+03  0.00000000000E+00 0. -1.
         -2    1    1    2    0  501  0.11963052996E+03 -0.10092378107E+03  0.36407673696E+03  0.39629401166E+03  0.00000000000E+00 0.  1.
<mgrwt>
<rscale>  0 0.96009523E+02</rscale>
<asrwt>0</asrwt>
<pdfrwt beam="1">  1        1 0.23197980E+00 0.57204436E+02</pdfrwt>
<pdfrwt beam="2">  1       -1 0.10916570E-01 0.16113835E+03</pdfrwt>
<totfact> 0.42522130E+02</totfact>
</mgrwt>
</event>
<event>
 7    1  0.7037933E-004  0.1194042E+03  0.7546771E-02  0.1393315E+00
          1   -1    0    0  502    0 -0.00000000000E+00  0.00000000000E+00  0.32918208511E+03  0.32918208511E+03  0.00000000000E+00 0. -1.
          2   -1    0    0  503    0  0.00000000000E+00 -0.00000000000E+00 -0.55504088266E+03  0.55504088266E+03  0.00000000000E+00 0. -1.
         25    2    1    2    0    0  0.12244100814E+03  0.46479560920E+02  0.11651047911E+02  0.18141837604E+03  0.12499892075E+03 0.  0.
          4    1    3    3  501    0 -0.83530157529E+01  0.48519751051E+02  0.11620584711E+02  0.50602272708E+02  0.12700000000E+01 0. -1.
         -4    1    3    3    0  501  0.13079402390E+03 -0.20401901306E+01  0.30463199235E-01  0.13081610333E+03  0.12700000000E+01 0. -1.
          2    1    1    2  502    0 -0.24029399945E+02  0.19986198744E+02  0.22404642009E+03  0.22621595558E+03  0.00000000000E+00 0. -1.
          1    1    1    2  503    0 -0.98411608199E+02 -0.66465759664E+02 -0.46155626555E+03  0.47658863615E+03  0.00000000000E+00 0. -1.
<mgrwt>
<rscale>  0 0.61089690E+02</rscale>
<asrwt>0</asrwt>
<pdfrwt beam="2">  1        2 0.85390905E-01 0.11940421E+03</pdfrwt>
<pdfrwt beam="1">  1        1 0.50643398E-01 0.31254763E+02</pdfrwt>
<totfact> 0.59914534E+02</totfact>
</mgrwt>
</event>
<event>
 7    1  0.7037933E-004  0.9250362E+02  0.7546771E-02  0.1486032E+00
          1   -1    0    0  502    0 -0.00000000000E+00  0.00000000000E+00  0.44977592699E+03  0.44977592699E+03  0.00000000000E+00 0. -1.
          2   -1    0    0  503    0  0.00000000000E+00 -0.00000000000E+00 -0.35298902782E+03  0.35298902782E+03  0.00000000000E+00 0. -1.
         25    2    1    2    0    0 -0.47267091038E+02 -0.78550671862E+02  0.41782059248E+02  0.16054690028E+03  0.12500072307E+03 0.  0.
          4    1    3    3  501    0  0.31794211281E+02 -0.17504400598E+02 -0.21587240778E+02  0.42248050555E+02  0.12700000000E+01 0. -1.
         -4    1    3    3    0  501 -0.79061302319E+02 -0.61046271264E+02  0.63369300026E+02  0.11829884972E+03  0.12700000000E+01 0. -1.
          2    1    1    2  502    0 -0.16636095305E+02  0.11380846644E+02  0.34098759933E+03  0.34158282485E+03  0.00000000000E+00 0. -1.
          1    1    1    2  503    0  0.63903186343E+02  0.67169825218E+02 -0.28598275941E+03  0.30063522968E+03  0.00000000000E+00 0. -1.
<mgrwt>
<rscale>  0 0.43180397E+02</rscale>
<asrwt>0</asrwt>
<pdfrwt beam="2">  1        2 0.54306004E-01 0.92503624E+02</pdfrwt>
<pdfrwt beam="1">  1        1 0.69196297E-01 0.20156471E+02</pdfrwt>
<totfact> 0.67792554E+02</totfact>
</mgrwt>
</event>
<event>
 7    1  0.7037933E-004  0.5795058E+02  0.7546771E-02  0.1426621E+00
          2   -1    0    0  503    0  0.00000000000E+00  0.00000000000E+00  0.30128478378E+03  0.30128478378E+03  0.00000000000E+00 0. -1.
          1   -1    0    0  502    0 -0.00000000000E+00 -0.00000000000E+00 -0.55658417367E+03  0.55658417367E+03  0.00000000000E+00 0. -1.
         25    2    1    2    0    0  0.60104262639E+02 -0.19380438635E+01  0.35379431054E+02  0.14315116563E+03  0.12499709468E+03 0.  0.
          4    1    3    3  501    0 -0.14018284017E+02 -0.46422566618E+02 -0.29078596633E+01  0.48596661676E+02  0.12700000000E+01 0. -1.
         -4    1    3    3    0  501  0.74122546656E+02  0.44484522755E+02  0.38287290718E+02  0.94554503954E+02  0.12700000000E+01 0. -1.
          2    1    1    2  502    0 -0.39239832929E+02 -0.43124103554E+02 -0.49806661924E+03  0.50146765598E+03  0.00000000000E+00 0. -1.
          1    1    1    2  503    0 -0.20864429709E+02  0.45062147417E+02  0.20738779829E+03  0.21325013584E+03  0.00000000000E+00 0. -1.
<mgrwt>
<rscale>  0 0.53644316E+02</rscale>
<asrwt>0</asrwt>
<pdfrwt beam="1">  1        2 0.46351505E-01 0.49658046E+02</pdfrwt>
<pdfrwt beam="2">  1        1 0.85628335E-01 0.57950581E+02</pdfrwt>
<totfact> 0.59887136E+02</totfact>
</mgrwt>
</event>
<event>
 7    1  0.7037933E-004  0.9822026E+02  0.7546771E-02  0.1350815E+00
          1   -1    0    0  502    0 -0.00000000000E+00  0.00000000000E+00  0.42746157125E+03  0.42746157125E+03  0.00000000000E+00 0. -1.
          2   -1    0    0  503    0  0.00000000000E+00 -0.00000000000E+00 -0.13408996293E+04  0.13408996293E+04  0.00000000000E+00 0. -1.
         25    2    1    2    0    0 -0.43920708270E+02  0.43066803708E+02 -0.24005856265E+02  0.14137486078E+03  0.12500716751E+03 0.  0.
          4    1    3    3  501    0 -0.23567345872E+02 -0.43822572781E+02 -0.41820481711E+01  0.49949375407E+02  0.12700000000E+01 0. -1.
         -4    1    3    3    0  501 -0.20353362398E+02  0.86889376489E+02 -0.19823808094E+02  0.91425485369E+02  0.12700000000E+01 0. -1.
          2    1    1    2  502    0  0.14133894186E+02  0.52078134420E+02  0.36481428699E+03  0.36878362631E+03  0.00000000000E+00 0. -1.
          1    1    1    2  503    0  0.29786814084E+02 -0.95144938128E+02 -0.12542464888E+04  0.12582027135E+04  0.00000000000E+00 0. -1.
<mgrwt>
<rscale>  0 0.72802218E+02</rscale>
<asrwt>0</asrwt>
<pdfrwt beam="2">  1        2 0.20629225E+00 0.98220256E+02</pdfrwt>
<pdfrwt beam="1">  1        1 0.65763318E-01 0.53962015E+02</pdfrwt>
<totfact> 0.13972881E+02</totfact>
</mgrwt>
</event>
<event>
 7    1  0.7037933E-004  0.5355558E+02  0.7546771E-02  0.1479477E+00
         -2   -1    0    0    0  501 -0.00000000000E+00  0.00000000000E+00  0.86182978000E+03  0.86182978000E+03  0.00000000000E+00 0.  1.
          2   -1    0    0  503    0  0.00000000000E+00 -0.00000000000E+00 -0.85612434167E+03  0.85612434167E+03  0.00000000000E+00 0. -1.
         25    2    1    2    0    0 -0.40320311599E+01  0.83940097566E+02 -0.96340682582E+02  0.17879769688E+03  0.12499956813E+03 0.  0.
          4    1    3    3  502    0  0.26777353282E+02  0.10809607870E+03 -0.73822315153E+02  0.13361562780E+03  0.12700000000E+01 0. -1.
         -4    1    3    3    0  502 -0.30809384442E+02 -0.24155981132E+02 -0.22518367428E+02  0.45182069074E+02  0.12700000000E+01 0. -1.
          1    1    1    2  503    0  0.17127057314E+02 -0.32185130873E+02 -0.71722335667E+03  0.71814940096E+03  0.00000000000E+00 0. -1.
         -1    1    1    2    0  501 -0.13095026154E+02 -0.51754966693E+02  0.81926947758E+03  0.82100702383E+03  0.00000000000E+00 0.  1.
<mgrwt>
<rscale>  0 0.44187710E+02</rscale>
<asrwt>0</asrwt>
<pdfrwt beam="2">  1        2 0.13171144E+00 0.36458452E+02</pdfrwt>
<pdfrwt beam="1">  1       -2 0.13258920E+00 0.53555584E+02</pdfrwt>
<totfact> 0.16626038E+01</totfact>
</mgrwt>
</event>
<event>
 7    1  0.7037933E-004  0.1468620E+03  0.7546771E-02  0.1299689E+00
          1   -1    0    0  502    0 -0.00000000000E+00  0.00000000000E+00  0.10660542411E+04  0.10660542411E+04  0.00000000000E+00 0. -1.
          2   -1    0    0  503    0  0.00000000000E+00 -0.00000000000E+00 -0.27528245710E+03  0.27528245710E+03  0.00000000000E+00 0. -1.
         25    2    1    2    0    0 -0.14406663986E+03 -0.78825927184E+02  0.80598112652E+02  0.22156522477E+03  0.12500547807E+03 0.  0.
          4    1    3    3  501    0 -0.16450472966E+03 -0.52249609153E+02  0.63577904491E+02  0.18394453125E+03  0.12700000000E+01 0. -1.
         -4    1    3    3    0  501  0.20438089803E+02 -0.26576318031E+02  0.17020208161E+02  0.37620693517E+02  0.12700000000E+01 0. -1.
          2    1    1    2  502    0  0.96482366031E+02  0.10980871972E+03  0.90505668020E+03  0.91678481459E+03  0.00000000000E+00 0. -1.
          1    1    1    2  503    0  0.47584273830E+02 -0.30982792535E+02 -0.19488300882E+03  0.20298665886E+03  0.00000000000E+00 0. -1.
<mgrwt>
<rscale>  0 0.91318782E+02</rscale>
<asrwt>0</asrwt>
<pdfrwt beam="2">  1        2 0.42351148E-01 0.56782009E+02</pdfrwt>
<pdfrwt beam="1">  1        1 0.16400834E+00 0.14686201E+03</pdfrwt>
<totfact> 0.24058053E+02</totfact>
</mgrwt>
</event>
<event>
 7    1  0.7037933E-004  0.2093806E+03  0.7546771E-02  0.1211413E+00
         -2   -1    0    0    0  501 -0.00000000000E+00  0.00000000000E+00  0.18762110062E+03  0.18762110062E+03  0.00000000000E+00 0.  1.
          2   -1    0    0  503    0  0.00000000000E+00 -0.00000000000E+00 -0.19279041990E+04  0.19279041990E+04  0.00000000000E+00 0. -1.
         25    2    1    2    0    0 -0.56584710159E+02  0.17957295241E+03 -0.25026597134E+03  0.33720338906E+03  0.12499917811E+03 0.  0.
          4    1    3    3  502    0  0.48489207991E+01  0.13848597051E+03 -0.21379471568E+03  0.25477768626E+03  0.12700000000E+01 0. -1.
         -4    1    3    3    0  502 -0.61433630958E+02  0.41086981894E+02 -0.36471255653E+02  0.82425702804E+02  0.12700000000E+01 0. -1.
          1    1    1    2  503    0 -0.93602461845E+02 -0.19125556173E+02 -0.15480676888E+04  0.15510128229E+04  0.00000000000E+00 0. -1.
         -1    1    1    2    0  501  0.15018717200E+03 -0.16044739623E+03  0.58050561764E+02  0.22730908762E+03  0.00000000000E+00 0.  1.
<mgrwt>
<rscale>  0 0.14143362E+03</rscale>
<asrwt>0</asrwt>
<pdfrwt beam="2">  1        2 0.29660065E+00 0.95536421E+02</pdfrwt>
<pdfrwt beam="1">  1       -2 0.28864785E-01 0.20938055E+03</pdfrwt>
<totfact> 0.99339854E+01</totfact>
</mgrwt>
</event>
<event>
 7    1  0.7037933E-004  0.4962487E+02  0.7546771E-02  0.1459183E+00
         -2   -1    0    0    0  501 -0.00000000000E+00  0.00000000000E+00  0.33099845061E+02  0.33099845061E+02  0.00000000000E+00 0.  1.
          2   -1    0    0  503    0  0.00000000000E+00 -0.00000000000E+00 -0.52686727890E+03  0.52686727890E+03  0.00000000000E+00 0. -1.
         25    2    1    2    0    0 -0.43926879478E+02 -0.44205547485E+02 -0.17788617735E+03  0.22614930452E+03  0.12496525387E+03 0.  0.
          4    1    3    3  502    0 -0.20154765450E+02 -0.76989202567E+02 -0.54977655175E+02  0.96735243581E+02  0.12700000000E+01 0. -1.
         -4    1    3    3    0  502 -0.23772114027E+02  0.32783655082E+02 -0.12290852218E+03  0.12941406094E+03  0.12700000000E+01 0. -1.
          1    1    1    2  503    0  0.45184022115E+02 -0.54281658748E+01 -0.23135421887E+03  0.23578769143E+03  0.00000000000E+00 0. -1.
         -1    1    1    2    0  501 -0.12571426368E+01  0.49633713360E+02 -0.84527037620E+02  0.98030128013E+02  0.00000000000E+00 0.  1.
<mgrwt>
<rscale>  0 0.47522351E+02</rscale>
<asrwt>0</asrwt>
<pdfrwt beam="2">  1        2 0.81056513E-01 0.45508909E+02</pdfrwt>
<pdfrwt beam="1">  1       -2 0.50922833E-02 0.49624873E+02</pdfrwt>
<totfact> 0.97868771E+03</totfact>
</mgrwt>
</event>
<event>
 7    1  0.7037933E-004  0.9674932E+02  0.7546771E-02  0.1379890E+00
          1   -1    0    0  502    0 -0.00000000000E+00  0.00000000000E+00  0.99254007847E+03  0.99254007847E+03  0.00000000000E+00 0. -1.
          2   -1    0    0  503    0  0.00000000000E+00 -0.00000000000E+00 -0.18846010392E+04  0.18846010392E+04  0.00000000000E+00 0. -1.
         25    2    1    2    0    0  0.70458584662E+02 -0.11175590458E+02 -0.37268462639E+03  0.39950955549E+03  0.12499899280E+03 0.  0.
          4    1    3    3  501    0  0.60043616132E+01 -0.60528967612E+02 -0.12835677590E+03  0.14204535578E+03  0.12700000000E+01 0. -1.
         -4    1    3    3    0  501  0.64454223049E+02  0.49353377154E+02 -0.24432785049E+03  0.25746419971E+03  0.12700000000E+01 0. -1.
          2    1    1    2  502    0 -0.81324642634E+02  0.52770325054E+02  0.97641833394E+03  0.98121922502E+03  0.00000000000E+00 0. -1.
          1    1    1    2  503    0  0.10866057971E+02 -0.41594734596E+02 -0.14957946683E+04  0.14964123372E+04  0.00000000000E+00 0. -1.
<mgrwt>
<rscale>  0 0.64492735E+02</rscale>
<asrwt>0</asrwt>
<pdfrwt beam="2">  1        2 0.28993862E+00 0.42990617E+02</pdfrwt>
<pdfrwt beam="1">  1        1 0.15269848E+00 0.96749319E+02</pdfrwt>
<totfact> 0.24544879E+01</totfact>
</mgrwt>
</event>
<event>
 7    1  0.7037933E-004  0.1648330E+03  0.7546771E-02  0.1246344E+00
          1   -1    0    0  503    0  0.00000000000E+00  0.00000000000E+00  0.21123813248E+04  0.21123813248E+04  0.00000000000E+00 0. -1.
         -1   -1    0    0    0  501 -0.00000000000E+00 -0.00000000000E+00 -0.35436679148E+02  0.35436679148E+02  0.00000000000E+00 0.  1.
         25    2    1    2    0    0 -0.20442253870E+03  0.18318657385E+02  0.62174989335E+03  0.66657489660E+03  0.12500006144E+03 0.  0.
          4    1    3    3  502    0 -0.76761177687E+02  0.58435474617E+02  0.35860228079E+03  0.37135453650E+03  0.12700000000E+01 0.  1.
         -4    1    3    3    0  502 -0.12766136101E+03 -0.40116817232E+02  0.26314761257E+03  0.29522036010E+03  0.12700000000E+01 0.  1.
          2    1    1    2  503    0  0.15122754662E+03  0.47398944189E+02  0.12391501372E+04  0.12492435685E+04  0.00000000000E+00 0. -1.
         -2    1    1    2    0  501  0.53194992079E+02 -0.65717601574E+02  0.21604461507E+03  0.23199953888E+03  0.00000000000E+00 0.  1.
<mgrwt>
<rscale>  0 0.11805271E+03</rscale>
<asrwt>0</asrwt>
<pdfrwt beam="1">  1        1 0.32498164E+00 0.16483299E+03</pdfrwt>
<pdfrwt beam="2">  1       -1 0.54517984E-02 0.84548864E+02</pdfrwt>
<totfact> 0.42468689E+02</totfact>
</mgrwt>
</event>
<event>
 7    1  0.7037933E-004  0.8452716E+02  0.7546771E-02  0.1487623E+00
          1   -1    0    0  502    0 -0.00000000000E+00  0.00000000000E+00  0.31576185120E+03  0.31576185120E+03  0.00000000000E+00 0. -1.
          2   -1    0    0  503    0  0.00000000000E+00 -0.00000000000E+00 -0.10155765438E+04  0.10155765438E+04  0.00000000000E+00 0. -1.
         25    2    1    2    0    0 -0.57049105642E+02  0.73519715286E+02  0.37588519548E+02  0.16030423335E+03  0.12499920575E+03 0.  0.
          4    1    3    3  501    0 -0.35696287381E+02  0.70547146178E+02 -0.33596469869E+02  0.85915426172E+02  0.12700000000E+01 0.  1.
         -4    1    3    3    0  501 -0.21352818261E+02  0.29725691078E+01  0.71184989417E+02  0.74388807176E+02  0.12700000000E+01 0.  1.
          2    1    1    2  502    0  0.21595156512E+02  0.30836668602E+01  0.21439420499E+03  0.21550112510E+03  0.00000000000E+00 0. -1.
          1    1    1    2  503    0  0.35453949130E+02 -0.76603382146E+02 -0.95179741716E+03  0.95553303657E+03  0.00000000000E+00 0. -1.
<mgrwt>
<rscale>  0 0.42940579E+02</rscale>
<asrwt>0</asrwt>
<pdfrwt beam="2">  1        2 0.15624254E+00 0.84527162E+02</pdfrwt>
<pdfrwt beam="1">  1        1 0.48578747E-01 0.21814211E+02</pdfrwt>
<totfact> 0.30546156E+02</totfact>
</mgrwt>
</event>
<event>
 7    1  0.7037933E-004  0.2864052E+03  0.7546771E-02  0.1280671E+00
          2   -1    0    0  503    0  0.00000000000E+00  0.00000000000E+00  0.50910490690E+03  0.50910490690E+03  0.00000000000E+00 0. -1.
          1   -1    0    0  502    0 -0.00000000000E+00 -0.00000000000E+00 -0.11014528948E+04  0.11014528948E+04  0.00000000000E+00 0. -1.
         25    2    1    2    0    0  0.28442699244E+03  0.27434471193E+02  0.36354276928E+02  0.31400307666E+03  0.12499973785E+03 0.  0.
          4    1    3    3  501    0  0.14031756455E+03  0.69607427729E+02  0.46800540399E+02  0.16348124173E+03  0.12700000000E+01 0.  1.
         -4    1    3    3    0  501  0.14410942789E+03 -0.42172956536E+02 -0.10446263470E+02  0.15052183492E+03  0.12700000000E+01 0.  1.
          2    1    1    2  502    0 -0.38499667160E+01  0.34577577340E+02 -0.90041352130E+03  0.90108542349E+03  0.00000000000E+00 0. -1.
          1    1    1    2  503    0 -0.28057702572E+03 -0.62012048533E+02  0.27171125650E+03  0.39546930151E+03  0.00000000000E+00 0. -1.
<mgrwt>
<rscale>  0 0.99821812E+02</rscale>
<asrwt>0</asrwt>
<pdfrwt beam="1">  1        2 0.78323833E-01 0.28640518E+03</pdfrwt>
<pdfrwt beam="2">  1        1 0.16945429E+00 0.34791250E+02</pdfrwt>
<totfact> 0.13028548E+02</totfact>
</mgrwt>
</event>
<event>
 7    1  0.7037933E-004  0.1244921E+03  0.7546771E-02  0.1312504E+00
          1   -1    0    0  502    0 -0.00000000000E+00  0.00000000000E+00  0.11920016268E+03  0.11920016268E+03  0.00000000000E+00 0. -1.
          2   -1    0    0  503    0  0.00000000000E+00 -0.00000000000E+00 -0.79910229802E+03  0.79910229802E+03  0.00000000000E+00 0. -1.
         25    2    1    2    0    0 -0.54318694402E+02  0.10479590861E+03 -0.24045481855E+03  0.29559349764E+03  0.12499717221E+03 0.  0.
          4    1    3    3  501    0 -0.91636041547E+02  0.86888815479E+02 -0.20643868943E+03  0.24200284246E+03  0.12700000000E+01 0. -1.
         -4    1    3    3    0  501  0.37317347145E+02  0.17907093131E+02 -0.34016129120E+02  0.53590655181E+02  0.12700000000E+01 0. -1.
          2    1    1    2  502    0 -0.74361715383E+00 -0.12757700630E+03  0.44492047612E+02  0.13511472090E+03  0.00000000000E+00 0. -1.
          1    1    1    2  503    0  0.55062311556E+02  0.22781097690E+02 -0.48393936441E+03  0.48759424216E+03  0.00000000000E+00 0. -1.
<mgrwt>
<rscale>  0 0.86129832E+02</rscale>
<asrwt>0</asrwt>
<pdfrwt beam="2">  1        2 0.12293882E+00 0.59588896E+02</pdfrwt>
<pdfrwt beam="1">  1        1 0.18338487E-01 0.12449212E+03</pdfrwt>
<totfact> 0.14218709E+03</totfact>
</mgrwt>
</event>
<event>
 7    1  0.7037933E-004  0.5670273E+02  0.7546771E-02  0.1415407E+00
          1   -1    0    0  502    0 -0.00000000000E+00  0.00000000000E+00  0.17937330339E+03  0.17937330339E+03  0.00000000000E+00 0. -1.
          2   -1    0    0  503    0  0.00000000000E+00 -0.00000000000E+00 -0.40797505485E+03  0.40797505485E+03  0.00000000000E+00 0. -1.
         25    2    1    2    0    0 -0.20738765422E+02 -0.19866121999E+02 -0.49246077408E+02  0.13738613975E+03  0.12500006424E+03 0.  0.
          4    1    3    3  501    0  0.41157648375E+01 -0.13547658940E+02  0.41085921419E+02  0.43475791216E+02  0.12700000000E+01 0. -1.
         -4    1    3    3    0  501 -0.24854530260E+02 -0.63184630585E+01 -0.90331998827E+02  0.93910348535E+02  0.12700000000E+01 0. -1.
          2    1    1    2  502    0 -0.33972998647E+02  0.43652867214E+02  0.12664611110E+03  0.13819904092E+03  0.00000000000E+00 0. -1.
          1    1    1    2  503    0  0.54711764070E+02 -0.23786745215E+02 -0.30600178516E+03  0.31176317758E+03  0.00000000000E+00 0. -1.
<mgrwt>
<rscale>  0 0.56004513E+02</rscale>
<asrwt>0</asrwt>
<pdfrwt beam="2">  1        2 0.62765392E-01 0.56702730E+02</pdfrwt>
<pdfrwt beam="1">  1        1 0.27595893E-01 0.55314894E+02</pdfrwt>
<totfact> 0.17431516E+03</totfact>
</mgrwt>
</event>
<event>
 7    1  0.7037933E-004  0.4957067E+02  0.7546771E-02  0.1505024E+00
          1   -1    0    0  502    0 -0.00000000000E+00  0.00000000000E+00  0.16143157388E+03  0.16143157388E+03  0.00000000000E+00 0. -1.
          2   -1    0    0  503    0  0.00000000000E+00 -0.00000000000E+00 -0.29304787766E+03  0.29304787766E+03  0.00000000000E+00 0. -1.
         25    2    1    2    0    0  0.36416644674E+01 -0.27727382618E+02 -0.63599273639E+02  0.14301011381E+03  0.12499982230E+03 0.  0.
          4    1    3    3  501    0 -0.21091901020E+02  0.45495485178E+02 -0.32014098727E+02  0.59508174880E+02  0.12700000000E+01 0. -1.
         -4    1    3    3    0  501  0.24733565488E+02 -0.73222867796E+02 -0.31585174912E+02  0.83501938925E+02  0.12700000000E+01 0. -1.
          2    1    1    2  502    0  0.24705526307E+02  0.44593559637E+02  0.11484738354E+03  0.12565377072E+03  0.00000000000E+00 0. -1.
          1    1    1    2  503    0 -0.28347190775E+02 -0.16866177019E+02 -0.18286441368E+03  0.18581556701E+03  0.00000000000E+00 0. -1.
<mgrwt>
<rscale>  0 0.40436423E+02</rscale>
<asrwt>0</asrwt>
<pdfrwt beam="2">  1        2 0.45084289E-01 0.32985317E+02</pdfrwt>
<pdfrwt beam="1">  1        1 0.24835627E-01 0.49570672E+02</pdfrwt>
<totfact> 0.27531370E+03</totfact>
</mgrwt>
</event>
<event>
 7    1  0.7037933E-004  0.1134092E+03  0.7546771E-02  0.1430837E+00
          2   -1    0    0  503    0  0.00000000000E+00  0.00000000000E+00  0.11686907619E+04  0.11686907619E+04  0.00000000000E+00 0. -1.
          1   -1    0    0  502    0 -0.00000000000E+00 -0.00000000000E+00 -0.69105664363E+03  0.69105664363E+03  0.00000000000E+00 0. -1.
         25    2    1    2    0    0  0.37184425587E+02 -0.12703347088E+03 -0.26175230873E+03  0.31883930436E+03  0.12499618652E+03 0.  0.
          4    1    3    3  501    0  0.51827486535E+02  0.13918607783E+01 -0.90085273133E+02  0.10394707775E+03  0.12700000000E+01 0. -1.
         -4    1    3    3    0  501 -0.14643060948E+02 -0.12842533165E+03 -0.17166703560E+03  0.21489222661E+03  0.12700000000E+01 0. -1.
          2    1    1    2  502    0  0.80423301048E+01  0.23221892283E+02 -0.39756895015E+03  0.39832776137E+03  0.00000000000E+00 0. -1.
          1    1    1    2  503    0 -0.45226755692E+02  0.10381157859E+03  0.11369553772E+04  0.11425803399E+04  0.00000000000E+00 0. -1.
<mgrwt>
<rscale>  0 0.52792438E+02</rscale>
<asrwt>0</asrwt>
<pdfrwt beam="1">  1        2 0.17979858E+00 0.11340918E+03</pdfrwt>
<pdfrwt beam="2">  1        1 0.10631641E+00 0.24575096E+02</pdfrwt>
<totfact> 0.95558187E+01</totfact>
</mgrwt>
</event>
<event>
 7    1  0.7037933E-004  0.3401428E+02  0.7546771E-02  0.1638544E+00
         -1   -1    0    0    0  501 -0.00000000000E+00  0.00000000000E+00  0.31366798235E+03  0.31366798235E+03  0.00000000000E+00 0.  1.
          1   -1    0    0  503    0  0.00000000000E+00 -0.00000000000E+00 -0.17874853625E+04  0.17874853625E+04  0.00000000000E+00 0. -1.
         25    2    1    2    0    0 -0.40738873899E+01  0.40995093183E+02  0.17426437530E+03  0.21835549736E+03  0.12495541807E+03 0.  0.
          4    1    3    3  502    0  0.31087095115E+02  0.72607534802E+02  0.77564614526E+02  0.11070747002E+03  0.12700000000E+01 0. -1.
         -4    1    3    3    0  502 -0.35160982505E+02 -0.31612441619E+02  0.96699760774E+02  0.10764802734E+03  0.12700000000E+01 0. -1.
          2    1    1    2  503    0 -0.14187540336E+02 -0.30912735452E+02 -0.17643476590E+04  0.17646754788E+04  0.00000000000E+00 0. -1.
         -2    1    1    2    0  501  0.18261427726E+02 -0.10082357731E+02  0.11626590352E+03  0.11812236876E+03  0.00000000000E+00 0.  1.
<mgrwt>
<rscale>  0 0.26637063E+02</rscale>
<asrwt>0</asrwt>
<pdfrwt beam="2">  1        1 0.27499775E+00 0.34014285E+02</pdfrwt>
<pdfrwt beam="1">  1       -1 0.48256613E-01 0.20859858E+02</pdfrwt>
<totfact> 0.26199139E+01</totfact>
</mgrwt>
</event>
<event>
 7    1  0.7037933E-004  0.1190038E+03  0.7546771E-02  0.1353076E+00
          2   -1    0    0  503    0  0.00000000000E+00  0.00000000000E+00  0.13049609848E+04  0.13049609848E+04  0.00000000000E+00 0. -1.
          1   -1    0    0  502    0 -0.00000000000E+00 -0.00000000000E+00 -0.36658145662E+03  0.36658145662E+03  0.00000000000E+00 0. -1.
         25    2    1    2    0    0 -0.14351504298E+03  0.45241312766E+02  0.14363164801E+03  0.24268820600E+03  0.12499668427E+03 0.  0.
          4    1    3    3  501    0 -0.66735462016E+02  0.37733597142E+02 -0.32831941571E+01  0.76745283293E+02  0.12700000000E+01 0.  1.
         -4    1    3    3    0  501 -0.76779580967E+02  0.75077156237E+01  0.14691484217E+03  0.16594292271E+03  0.12700000000E+01 0.  1.
          2    1    1    2  502    0  0.10185589918E+03 -0.58405069737E+02 -0.30573460631E+03  0.32750484861E+03  0.00000000000E+00 0. -1.
          1    1    1    2  503    0  0.41659143807E+02  0.13163756971E+02  0.11004824865E+04  0.11013493868E+04  0.00000000000E+00 0. -1.
<mgrwt>
<rscale>  0 0.72105557E+02</rscale>
<asrwt>0</asrwt>
<pdfrwt beam="1">  1        2 0.20076323E+00 0.43689458E+02</pdfrwt>
<pdfrwt beam="2">  1        1 0.56397148E-01 0.11900380E+03</pdfrwt>
<totfact> 0.18545231E+02</totfact>
</mgrwt>
</event>
<event>
 7    1  0.7037933E-004  0.1243623E+03  0.7546771E-02  0.1335991E+00
          2   -1    0    0  503    0  0.00000000000E+00  0.00000000000E+00  0.31241854487E+03  0.31241854487E+03  0.00000000000E+00 0. -1.
          1   -1    0    0  502    0 -0.00000000000E+00 -0.00000000000E+00 -0.13831722749E+04  0.13831722749E+04  0.00000000000E+00 0. -1.
         25    2    1    2    0    0  0.55305510312E+02 -0.70730681365E+02 -0.38949826802E+03  0.41880065743E+03  0.12499424432E+03 0.  0.
          4    1    3    3  501    0  0.88649268795E+02 -0.42354108004E+02 -0.18301574084E+03  0.20772322359E+03  0.12700000000E+01 0. -1.
         -4    1    3    3    0  501 -0.33343758482E+02 -0.28376573360E+02 -0.20648252718E+03  0.21107743384E+03  0.12700000000E+01 0. -1.
          2    1    1    2  502    0 -0.67956384951E+02  0.11747550979E+03 -0.97230929086E+03  0.98173515917E+03  0.00000000000E+00 0. -1.
          1    1    1    2  503    0  0.12650874638E+02 -0.46744828424E+02  0.29105382884E+03  0.29505500317E+03  0.00000000000E+00 0. -1.
<mgrwt>
<rscale>  0 0.77604288E+02</rscale>
<asrwt>0</asrwt>
<pdfrwt beam="1">  1        2 0.48064391E-01 0.48426476E+02</pdfrwt>
<pdfrwt beam="2">  1        1 0.21279574E+00 0.12436225E+03</pdfrwt>
<totfact> 0.12988619E+02</totfact>
</mgrwt>
</event>
<event>
 7    1  0.7037933E-004  0.4885258E+02  0.7546771E-02  0.1554088E+00
         -1   -1    0    0    0  501 -0.00000000000E+00  0.00000000000E+00  0.51705525307E+03  0.51705525307E+03  0.00000000000E+00 0.  1.
          1   -1    0    0  503    0  0.00000000000E+00 -0.00000000000E+00 -0.75743844359E+03  0.75743844359E+03  0.00000000000E+00 0. -1.
         25    2    1    2    0    0  0.21476619220E+02 -0.31556594386E+02 -0.51413749486E+02  0.14044793210E+03  0.12500073669E+03 0.  0.
          4    1    3    3  502    0 -0.11743001132E+02 -0.55057486144E+02  0.18731753555E+02  0.59344050648E+02  0.12700000000E+01 0.  1.
         -4    1    3    3    0  502  0.33219620352E+02  0.23500891758E+02 -0.70145503041E+02  0.81103881453E+02  0.12700000000E+01 0.  1.
          2    1    1    2  503    0  0.22301284892E+02  0.94185678758E+01 -0.66001186303E+03  0.66045568819E+03  0.00000000000E+00 0. -1.
         -2    1    1    2    0  501 -0.43777904111E+02  0.22138026510E+02  0.47104242200E+03  0.47359007637E+03  0.00000000000E+00 0.  1.
<mgrwt>
<rscale>  0 0.34389722E+02</rscale>
<asrwt>0</asrwt>
<pdfrwt beam="2">  1        1 0.11652899E+00 0.24208609E+02</pdfrwt>
<pdfrwt beam="1">  1       -1 0.79546962E-01 0.48852579E+02</pdfrwt>
<totfact> 0.49462616E+01</totfact>
</mgrwt>
</event>
<event>
 7    1  0.7037933E-004  0.9662304E+02  0.7546771E-02  0.1341353E+00
          2   -1    0    0  503    0  0.00000000000E+00  0.00000000000E+00  0.16997572890E+03  0.16997572890E+03  0.00000000000E+00 0. -1.
         -2   -1    0    0    0  501 -0.00000000000E+00 -0.00000000000E+00 -0.16506577938E+03  0.16506577938E+03  0.00000000000E+00 0.  1.
         25    2    1    2    0    0  0.73665157894E+02 -0.82514738590E+02 -0.10216058151E+02  0.16721490042E+03  0.12498486910E+03 0.  0.
          4    1    3    3  502    0  0.59014508190E+02  0.53703699014E+01 -0.41961644334E+02  0.72621935701E+02  0.12700000000E+01 0. -1.
         -4    1    3    3    0  502  0.14650649704E+02 -0.87885108492E+02  0.31745586184E+02  0.94592964715E+02  0.12700000000E+01 0. -1.
          1    1    1    2  503    0 -0.92444015609E+02  0.26061622908E+02  0.39076432470E+02  0.10369219732E+03  0.00000000000E+00 0. -1.
         -1    1    1    2    0  501  0.18778857715E+02  0.56453115682E+02 -0.23950424804E+02  0.64134410542E+02  0.00000000000E+00 0.  1.
<mgrwt>
<rscale>  0 0.75819144E+02</rscale>
<asrwt>0</asrwt>
<pdfrwt beam="1">  1        2 0.26150112E-01 0.96623036E+02</pdfrwt>
<pdfrwt beam="2">  1       -2 0.25394735E-01 0.59494536E+02</pdfrwt>
<totfact> 0.26433377E+03</totfact>
</mgrwt>
</event>
<event>
 7    1  0.7037933E-004  0.8311473E+02  0.7546771E-02  0.1384025E+00
          2   -1    0    0  503    0  0.00000000000E+00  0.00000000000E+00  0.62177784802E+03  0.62177784802E+03  0.00000000000E+00 0. -1.
          1   -1    0    0  502    0 -0.00000000000E+00 -0.00000000000E+00 -0.18260460850E+04  0.18260460850E+04  0.00000000000E+00 0. -1.
         25    2    1    2    0    0  0.75913223855E+02 -0.19952221456E+02  0.32546310855E+03  0.35736785762E+03  0.12499856773E+03 0.  0.
          4    1    3    3  501    0 -0.50575945379E+01  0.43194750715E+02  0.12059233258E+03  0.12820097242E+03  0.12700000000E+01 0.  1.
         -4    1    3    3    0  501  0.80970818393E+02 -0.63146972171E+02  0.20487077597E+03  0.22916688520E+03  0.12700000000E+01 0.  1.
          2    1    1    2  502    0 -0.15593406443E+02 -0.45807020409E+02 -0.18026604008E+04  0.18033097233E+04  0.00000000000E+00 0. -1.
          1    1    1    2  503    0 -0.60319817411E+02  0.65759241865E+02  0.27292905533E+03  0.28714635207E+03  0.00000000000E+00 0. -1.
<mgrwt>
<rscale>  0 0.63417577E+02</rscale>
<asrwt>0</asrwt>
<pdfrwt beam="1">  1        2 0.95658132E-01 0.83114731E+02</pdfrwt>
<pdfrwt beam="2">  1        1 0.28093016E+00 0.48388402E+02</pdfrwt>
<totfact> 0.36361509E+01</totfact>
</mgrwt>
</event>
<event>
 7    1  0.7037933E-004  0.8576350E+02  0.7546771E-02  0.1336300E+00
          2   -1    0    0  503    0  0.00000000000E+00  0.00000000000E+00  0.27641417852E+03  0.27641417852E+03  0.00000000000E+00 0. -1.
          1   -1    0    0  502    0 -0.00000000000E+00 -0.00000000000E+00 -0.83254105600E+03  0.83254105600E+03  0.00000000000E+00 0. -1.
         25    2    1    2    0    0 -0.90688543608E+01 -0.63618686246E+02 -0.12397066189E+03  0.18740913703E+03  0.12499551301E+03 0.  0.
          4    1    3    3  501    0  0.55536806206E+02 -0.31288813376E+02 -0.81928115340E+02  0.10381308043E+03  0.12700000000E+01 0. -1.
         -4    1    3    3    0  501 -0.64605660567E+02 -0.32329872871E+02 -0.42042546552E+02  0.83596056592E+02  0.12700000000E+01 0. -1.
          2    1    1    2  502    0  0.70032669270E+02  0.28804283492E-01 -0.66702962881E+03  0.67069598277E+03  0.00000000000E+00 0. -1.
          1    1    1    2  503    0 -0.60963814909E+02  0.63589881963E+02  0.23487341322E+03  0.25085011472E+03  0.00000000000E+00 0. -1.
<mgrwt>
<rscale>  0 0.77499982E+02</rscale>
<asrwt>0</asrwt>
<pdfrwt beam="1">  1        2 0.42525259E-01 0.85763497E+02</pdfrwt>
<pdfrwt beam="2">  1        1 0.12808324E+00 0.70032675E+02</pdfrwt>
<totfact> 0.37519900E+02</totfact>
</mgrwt>
</event>
<event>
 7    1  0.7037933E-004  0.2961963E+02  0.7546771E-02  0.1667987E+00
          1   -1    0    0  502    0 -0.00000000000E+00  0.00000000000E+00  0.83618214305E+03  0.83618214305E+03  0.00000000000E+00 0. -1.
          2   -1    0    0  503    0  0.00000000000E+00 -0.00000000000E+00 -0.56745423819E+03  0.56745423819E+03  0.00000000000E+00 0. -1.
         25    2    1    2    0    0  0.34160921807E+01  0.90325154927E+01  0.35896503969E+02  0.13040732683E+03  0.12499702345E+03 0.  0.
          4    1    3    3  501    0 -0.41254137351E+02  0.49934026062E+02  0.19160796121E+02  0.67557825715E+02  0.12700000000E+01 0. -1.
         -4    1    3    3    0  501  0.44670229531E+02 -0.40901510569E+02  0.16735707848E+02  0.62849501115E+02  0.12700000000E+01 0. -1.
          2    1    1    2  502    0  0.11944062524E+02  0.16413238374E+02  0.75246868057E+03  0.75274243289E+03  0.00000000000E+00 0. -1.
          1    1    1    2  503    0 -0.15360154705E+02 -0.25445753867E+02 -0.51963727968E+03  0.52048662152E+03  0.00000000000E+00 0. -1.
<mgrwt>
<rscale>  0 0.24520461E+02</rscale>
<asrwt>0</asrwt>
<pdfrwt beam="2">  1        2 0.87300652E-01 0.29619633E+02</pdfrwt>
<pdfrwt beam="1">  1        1 0.12864341E+00 0.20299138E+02</pdfrwt>
<totfact> 0.19018784E+02</totfact>
</mgrwt>
</event>
<event>
 7    1  0.7037933E-004  0.1049994E+03  0.7546771E-02  0.1401298E+00
         -1   -1    0    0    0  501 -0.00000000000E+00  0.00000000000E+00  0.20918155951E+03  0.20918155951E+03  0.00000000000E+00 0.  1.
          1   -1    0    0  503    0  0.00000000000E+00 -0.00000000000E+00 -0.18050896674E+03  0.18050896674E+03  0.00000000000E+00 0. -1.
         25    2    1    2    0    0 -0.67764890802E+02 -0.40628852654E+02  0.68299724313E+02  0.16289137588E+03  0.12500385555E+03 0.  0.
          4    1    3    3  502    0 -0.12193516100E+01 -0.57667838718E+02 -0.10181600345E+02  0.58586212767E+02  0.12700000000E+01 0.  1.
         -4    1    3    3    0  502 -0.66545539192E+02  0.17038986063E+02  0.78481324658E+02  0.10430516312E+03  0.12700000000E+01 0.  1.
          2    1    1    2  503    0  0.87152505438E+02  0.67773335457E+02 -0.10566179511E+03  0.15281753548E+03  0.00000000000E+00 0. -1.
         -2    1    1    2    0  501 -0.19387614636E+02 -0.27144482803E+02  0.66034663572E+02  0.73981614885E+02  0.00000000000E+00 0.  1.
<mgrwt>
<rscale>  0 0.59181809E+02</rscale>
<asrwt>0</asrwt>
<pdfrwt beam="2">  1        1 0.27770610E-01 0.10499943E+03</pdfrwt>
<pdfrwt beam="1">  1       -1 0.32181778E-01 0.33357196E+02</pdfrwt>
<totfact> 0.14392437E+03</totfact>
</mgrwt>
</event>
<event>
 7    1  0.7037933E-004  0.2742765E+02  0.7546771E-02  0.1637773E+00
          2   -1    0    0  503    0  0.00000000000E+00  0.00000000000E+00  0.32017364431E+04  0.32017364431E+04  0.00000000000E+00 0. -1.
          1   -1    0    0  502    0 -0.00000000000E+00 -0.00000000000E+00 -0.76895216797E+01  0.76895216797E+01  0.00000000000E+00 0. -1.
         25    2    1    2    0    0  0.81511178905E+01 -0.12848557921E+02  0.17372186686E+04  0.17417762552E+04  0.12499717741E+03 0.  0.
          4    1    3    3  501    0  0.57903017794E+02  0.24475861931E+02  0.97326989754E+03  0.97529879198E+03  0.12700000000E+01 0.  1.
         -4    1    3    3    0  501 -0.49751899903E+02 -0.37324419852E+02  0.76394877107E+03  0.76647746319E+03  0.12700000000E+01 0.  1.
          2    1    1    2  502    0  0.20395080232E+02  0.16099471002E+02  0.26783324937E+02  0.37316199685E+02  0.00000000000E+00 0. -1.
          1    1    1    2  503    0 -0.28546198123E+02 -0.32509130814E+01  0.14300449279E+04  0.14303335100E+04  0.00000000000E+00 0. -1.
<mgrwt>
<rscale>  0 0.26695912E+02</rscale>
<asrwt>0</asrwt>
<pdfrwt beam="1">  1        2 0.49257377E+00 0.27427653E+02</pdfrwt>
<pdfrwt beam="2">  1        1 0.11830059E-02 0.25983692E+02</pdfrwt>
<totfact> 0.28096572E+03</totfact>
</mgrwt>
</event>
<event>
 7    1  0.7037933E-004  0.1184981E+03  0.7546771E-02  0.1379822E+00
          1   -1    0    0  502    0 -0.00000000000E+00  0.00000000000E+00  0.42753349041E+03  0.42753349041E+03  0.00000000000E+00 0. -1.
          2   -1    0    0  503    0  0.00000000000E+00 -0.00000000000E+00 -0.12627749502E+04  0.12627749502E+04  0.00000000000E+00 0. -1.
         25    2    1    2    0    0  0.66142548741E+02 -0.76704856940E+02  0.28818454642E+03  0.33005095428E+03  0.12499931118E+03 0.  0.
          4    1    3    3  501    0 -0.79704135207E+00 -0.72596722858E+02  0.66576933654E+02  0.98514062140E+02  0.12700000000E+01 0. -1.
         -4    1    3    3    0  501  0.66939590093E+02 -0.41081340820E+01  0.22160761276E+03  0.23153689214E+03  0.12700000000E+01 0. -1.
          2    1    1    2  502    0 -0.16394081186E+02 -0.31058322721E+02  0.11290559548E+03  0.11824152739E+03  0.00000000000E+00 0. -1.
          1    1    1    2  503    0 -0.49748467555E+02  0.10776317966E+03 -0.12363316017E+04  0.12420159589E+04  0.00000000000E+00 0. -1.
<mgrwt>
<rscale>  0 0.64510486E+02</rscale>
<asrwt>0</asrwt>
<pdfrwt beam="2">  1        2 0.19427307E+00 0.11849806E+03</pdfrwt>
<pdfrwt beam="1">  1        1 0.65774384E-01 0.35119586E+02</pdfrwt>
<totfact> 0.15262356E+02</totfact>
</mgrwt>
</event>
<event>
 7    1  0.7037933E-004  0.5893304E+02  0.7546771E-02  0.1434799E+00
          1   -1    0    0  502    0 -0.00000000000E+00  0.00000000000E+00  0.32725271559E+03  0.32725271559E+03  0.00000000000E+00 0. -1.
          2   -1    0    0  503    0  0.00000000000E+00 -0.00000000000E+00 -0.55493309549E+03  0.55493309549E+03  0.00000000000E+00 0. -1.
         25    2    1    2    0    0 -0.92191202315E+02 -0.48408065013E+02  0.11869915336E+03  0.20139436349E+03  0.12501056793E+03 0.  0.
          4    1    3    3  501    0  0.73222385287E+00 -0.50890451795E+02  0.91198392824E+02  0.10444679980E+03  0.12700000000E+01 0.  1.
         -4    1    3    3    0  501 -0.92923426168E+02  0.24823867818E+01  0.27500760538E+02  0.96947563688E+02  0.12700000000E+01 0.  1.
          2    1    1    2  502    0  0.42127145603E+02  0.18218396932E+02  0.16235030616E+03  0.16871345025E+03  0.00000000000E+00 0. -1.
          1    1    1    2  503    0  0.50064056712E+02  0.30189668081E+02 -0.50872983943E+03  0.51207799734E+03  0.00000000000E+00 0. -1.
<mgrwt>
<rscale>  0 0.52008612E+02</rscale>
<asrwt>0</asrwt>
<pdfrwt beam="2">  1        2 0.85374321E-01 0.58933038E+02</pdfrwt>
<pdfrwt beam="1">  1        1 0.50346572E-01 0.45897782E+02</pdfrwt>
<totfact> 0.61187006E+02</totfact>
</mgrwt>
</event>
<event>
 7    1  0.7037933E-004  0.1070931E+03  0.7546771E-02  0.1445362E+00
         -1   -1    0    0    0  501 -0.00000000000E+00  0.00000000000E+00  0.28208593937E+03  0.28208593937E+03  0.00000000000E+00 0.  1.
          1   -1    0    0  503    0  0.00000000000E+00 -0.00000000000E+00 -0.15453473157E+03  0.15453473157E+03  0.00000000000E+00 0. -1.
         25    2    1    2    0    0  0.22561533613E+02  0.12082729356E+03  0.22033494988E+02  0.17668963065E+03  0.12500197203E+03 0.  0.
          4    1    3    3  502    0  0.65888026933E+02  0.66741279563E+02  0.44517832626E+02  0.10382235218E+03  0.12700000000E+01 0. -1.
         -4    1    3    3    0  502 -0.43326493320E+02  0.54086013993E+02 -0.22484337638E+02  0.72867278473E+02  0.12700000000E+01 0. -1.
          2    1    1    2  503    0 -0.97185241469E+01 -0.10133785342E+03 -0.42329765229E+02  0.11025252502E+03  0.00000000000E+00 0. -1.
         -2    1    1    2    0  501 -0.12843009466E+02 -0.19489440133E+02  0.14784747804E+03  0.14967851527E+03  0.00000000000E+00 0.  1.
<mgrwt>
<rscale>  0 0.49996126E+02</rscale>
<asrwt>0</asrwt>
<pdfrwt beam="2">  1        1 0.23774574E-01 0.10709314E+03</pdfrwt>
<pdfrwt beam="1">  1       -1 0.43397837E-01 0.23340548E+02</pdfrwt>
<totfact> 0.10568966E+03</totfact>
</mgrwt>
</event>
<event>
 7    1  0.7037933E-004  0.1016390E+03  0.7546771E-02  0.1398444E+00
          1   -1    0    0  502    0 -0.00000000000E+00  0.00000000000E+00  0.44442582582E+03  0.44442582582E+03  0.00000000000E+00 0. -1.
          2   -1    0    0  503    0  0.00000000000E+00 -0.00000000000E+00 -0.12166630687E+04  0.12166630687E+04  0.00000000000E+00 0. -1.
         25    2    1    2    0    0 -0.84990908678E+02 -0.10450775980E+03 -0.18227980730E+03  0.25883308851E+03  0.12499325239E+03 0.  0.
          4    1    3    3  501    0 -0.39819387341E+02  0.24500704736E+02 -0.53036958172E+02  0.70713506298E+02  0.12700000000E+01 0.  1.
         -4    1    3    3    0  501 -0.45171521337E+02 -0.12900846454E+03 -0.12924284913E+03  0.18811958221E+03  0.12700000000E+01 0.  1.
          2    1    1    2  502    0  0.21173366353E+02  0.28179674882E+02  0.40289347111E+03  0.40443238567E+03  0.00000000000E+00 0. -1.
          1    1    1    2  503    0  0.63817542325E+02  0.76328084919E+02 -0.99285090672E+03  0.99782342036E+03  0.00000000000E+00 0. -1.
<mgrwt>
<rscale>  0 0.59854398E+02</rscale>
<asrwt>0</asrwt>
<pdfrwt beam="2">  1        2 0.18717893E+00 0.10163901E+03</pdfrwt>
<pdfrwt beam="1">  1        1 0.68373206E-01 0.35247773E+02</pdfrwt>
<totfact> 0.15582441E+02</totfact>
</mgrwt>
</event>
<event>
 7    1  0.7037933E-004  0.8549251E+02  0.7546771E-02  0.1329449E+00
          2   -1    0    0  503    0  0.00000000000E+00  0.00000000000E+00  0.45953060650E+03  0.45953060650E+03  0.00000000000E+00 0. -1.
         -2   -1    0    0    0  501 -0.00000000000E+00 -0.00000000000E+00 -0.23316559758E+03  0.23316559758E+03  0.00000000000E+00 0.  1.
         25    2    1    2    0    0 -0.10402210534E+03  0.23304560092E+02 -0.18379266872E+02  0.16530630831E+03  0.12499870878E+03 0.  0.
          4    1    3    3  502    0 -0.65048299091E+02  0.63979938556E+02 -0.46408519065E+02  0.10237224865E+03  0.12700000000E+01 0. -1.
         -4    1    3    3    0  502 -0.38973806245E+02 -0.40675378464E+02  0.28029252192E+02  0.62934059656E+02  0.12700000000E+01 0. -1.
          1    1    1    2  503    0  0.73331559009E+02  0.44688226882E+02  0.37096376088E+03  0.38077377412E+03  0.00000000000E+00 0. -1.
         -1    1    1    2    0  501  0.30690546327E+02 -0.67992786974E+02 -0.12621948509E+03  0.14661612166E+03  0.00000000000E+00 0.  1.
<mgrwt>
<rscale>  0 0.79859930E+02</rscale>
<asrwt>0</asrwt>
<pdfrwt beam="1">  1        2 0.70697016E-01 0.85492507E+02</pdfrwt>
<pdfrwt beam="2">  1       -2 0.35871631E-01 0.74598450E+02</pdfrwt>
<totfact> 0.50401056E+02</totfact>
</mgrwt>
</event>
<event>
 7    1  0.7037933E-004  0.7784695E+02  0.7546771E-02  0.1437908E+00
          2   -1    0    0  503    0  0.00000000000E+00  0.00000000000E+00  0.10784923767E+02  0.10784923767E+02  0.00000000000E+00 0. -1.
          1   -1    0    0  502    0 -0.00000000000E+00 -0.00000000000E+00 -0.16666238558E+04  0.16666238558E+04  0.00000000000E+00 0. -1.
         25    2    1    2    0    0 -0.10704536676E+02  0.70158472458E+02 -0.89225863600E+03  0.90376271301E+03  0.12499907825E+03 0.  0.
          4    1    3    3  501    0  0.20759026325E+01 -0.23822674000E+02 -0.42958659561E+02  0.49182196977E+02  0.12700000000E+01 0. -1.
         -4    1    3    3    0  501 -0.12780439308E+02  0.93981146458E+02 -0.84929997644E+03  0.85458051604E+03  0.12700000000E+01 0. -1.
          2    1    1    2  502    0 -0.33943417903E+02 -0.24532931536E+00 -0.36197132913E+03  0.36355942969E+03  0.00000000000E+00 0. -1.
          1    1    1    2  503    0  0.44647954578E+02 -0.69913143143E+02 -0.40160896689E+03  0.41008663685E+03  0.00000000000E+00 0. -1.
<mgrwt>
<rscale>  0 0.51404869E+02</rscale>
<asrwt>0</asrwt>
<pdfrwt beam="1">  1        2 0.16592190E-02 0.77846949E+02</pdfrwt>
<pdfrwt beam="2">  1        1 0.25640368E+00 0.33944304E+02</pdfrwt>
<totfact> 0.57242955E+03</totfact>
</mgrwt>
</event>
<event>
 7    1  0.7037933E-004  0.5527084E+03  0.7546771E-02  0.1146223E+00
          1   -1    0    0  502    0 -0.00000000000E+00  0.00000000000E+00  0.13136136145E+04  0.13136136145E+04  0.00000000000E+00 0. -1.
          2   -1    0    0  503    0  0.00000000000E+00 -0.00000000000E+00 -0.20798267591E+04  0.20798267591E+04  0.00000000000E+00 0. -1.
         25    2    1    2    0    0 -0.11280267057E+03  0.60984576261E+03  0.78303757986E+03  0.10066831944E+04  0.12500762250E+03 0.  0.
          4    1    3    3  501    0 -0.31221452101E+02  0.46761314237E+03  0.57546347876E+03  0.74215676125E+03  0.12700000000E+01 0. -1.
         -4    1    3    3    0  501 -0.81581218469E+02  0.14223262024E+03  0.20757410109E+03  0.26452643311E+03  0.12700000000E+01 0. -1.
          2    1    1    2  502    0  0.38158579112E+02 -0.65101558370E+02  0.37653237166E+03  0.38401942265E+03  0.00000000000E+00 0. -1.
          1    1    1    2  503    0  0.74644091458E+02 -0.54474420424E+03 -0.19257830961E+04  0.20027377566E+04  0.00000000000E+00 0. -1.
<mgrwt>
<rscale>  0 0.20422453E+03</rscale>
<asrwt>0</asrwt>
<pdfrwt beam="2">  1        2 0.31997335E+00 0.55270836E+03</pdfrwt>
<pdfrwt beam="1">  1        1 0.20209440E+00 0.75460520E+02</pdfrwt>
<totfact> 0.92102861E+00</totfact>
</mgrwt>
</event>
<event>
 7    1  0.7037933E-004  0.8568750E+02  0.7546771E-02  0.1371621E+00
          2   -1    0    0  503    0  0.00000000000E+00  0.00000000000E+00  0.54916949381E+03  0.54916949381E+03  0.00000000000E+00 0. -1.
         -2   -1    0    0    0  501 -0.00000000000E+00 -0.00000000000E+00 -0.71395652972E+02  0.71395652972E+02  0.00000000000E+00 0.  1.
         25    2    1    2    0    0 -0.40943471062E+02 -0.24590209589E+02  0.18962685667E+03  0.23209145610E+03  0.12500821171E+03 0.  0.
          4    1    3    3  502    0 -0.12082304391E+02 -0.21165286413E+02  0.19979070152E+03  0.20127565362E+03  0.12700000000E+01 0. -1.
         -4    1    3    3    0  502 -0.28861166671E+02 -0.34249231758E+01 -0.10163844846E+02  0.30815802479E+02  0.12700000000E+01 0. -1.
          1    1    1    2  503    0  0.80935531338E+02  0.57746035686E+02  0.31477092065E+03  0.33009982938E+03  0.00000000000E+00 0. -1.
         -1    1    1    2    0  501 -0.39992060276E+02 -0.33155826097E+02 -0.26623936483E+02  0.58373861300E+02  0.00000000000E+00 0.  1.
<mgrwt>
<rscale>  0 0.66718507E+02</rscale>
<asrwt>0</asrwt>
<pdfrwt beam="1">  1        2 0.84487612E-01 0.85687497E+02</pdfrwt>
<pdfrwt beam="2">  1       -2 0.10983947E-01 0.51948760E+02</pdfrwt>
<totfact> 0.29426967E+03</totfact>
</mgrwt>
</event>
<event>
 7    1  0.7037933E-004  0.1195534E+03  0.7546771E-02  0.1252357E+00
          2   -1    0    0  503    0  0.00000000000E+00  0.00000000000E+00  0.86993778534E+03  0.86993778534E+03  0.00000000000E+00 0. -1.
          1   -1    0    0  502    0 -0.00000000000E+00 -0.00000000000E+00 -0.95735714328E+03  0.95735714328E+03  0.00000000000E+00 0. -1.
         25    2    1    2    0    0  0.16999065722E+02 -0.70405267476E+02 -0.14417844939E+03  0.20410397353E+03  0.12500054728E+03 0.  0.
          4    1    3    3  501    0 -0.52463058121E+02 -0.16208855979E+02 -0.41748913505E+02  0.68990464256E+02  0.12700000000E+01 0. -1.
         -4    1    3    3    0  501  0.69462123843E+02 -0.54196411498E+02 -0.10242953588E+03  0.13511350928E+03  0.12700000000E+01 0. -1.
          2    1    1    2  502    0 -0.12230308697E+03  0.13800704479E+02 -0.77407525128E+03  0.78379908087E+03  0.00000000000E+00 0. -1.
          1    1    1    2  503    0  0.10530402125E+03  0.56604562997E+02  0.83083434273E+03  0.83939187422E+03  0.00000000000E+00 0. -1.
<mgrwt>
<rscale>  0 0.11455649E+03</rscale>
<asrwt>0</asrwt>
<pdfrwt beam="1">  1        2 0.13383658E+00 0.11955339E+03</pdfrwt>
<pdfrwt beam="2">  1        1 0.14728571E+00 0.10976844E+03</pdfrwt>
<totfact> 0.82191315E+01</totfact>
</mgrwt>
</event>
<event>
 7    1  0.7037933E-004  0.5893250E+02  0.7546771E-02  0.1409218E+00
          2   -1    0    0  503    0  0.00000000000E+00  0.00000000000E+00  0.22188003684E+04  0.22188003684E+04  0.00000000000E+00 0. -1.
          1   -1    0    0  502    0 -0.00000000000E+00 -0.00000000000E+00 -0.19612313242E+04  0.19612313242E+04  0.00000000000E+00 0. -1.
         25    2    1    2    0    0  0.21688649898E+02 -0.82298815871E+01  0.97435692931E+03  0.98261590420E+03  0.12499784403E+03 0.  0.
          4    1    3    3  501    0 -0.52076450811E+02  0.40404374995E+01  0.41948535929E+03  0.42272669826E+03  0.12700000000E+01 0. -1.
         -4    1    3    3    0  501  0.73765100708E+02 -0.12270319087E+02  0.55487157002E+03  0.55988920594E+03  0.12700000000E+01 0. -1.
          2    1    1    2  502    0  0.39789830040E+02  0.39186736044E+02 -0.19557479499E+04  0.19565451373E+04  0.00000000000E+00 0. -1.
          1    1    1    2  503    0 -0.61478479938E+02 -0.30956854457E+02  0.12389600649E+04  0.12408706510E+04  0.00000000000E+00 0. -1.
<mgrwt>
<rscale>  0 0.57368751E+02</rscale>
<asrwt>0</asrwt>
<pdfrwt beam="1">  1        2 0.34135390E+00 0.58932502E+02</pdfrwt>
<pdfrwt beam="2">  1        1 0.30172790E+00 0.55846494E+02</pdfrwt>
<totfact> 0.40536289E+00</totfact>
</mgrwt>
</event>
<event>
 7    1  0.7037933E-004  0.5921591E+02  0.7546771E-02  0.1463367E+00
          2   -1    0    0  503    0  0.00000000000E+00  0.00000000000E+00  0.28127111063E+02  0.28127111063E+02  0.00000000000E+00 0. -1.
         -2   -1    0    0    0  501 -0.00000000000E+00 -0.00000000000E+00 -0.59759331817E+03  0.59759331817E+03  0.00000000000E+00 0.  1.
         25    2    1    2    0    0 -0.41689482784E+02 -0.50872541300E+02 -0.38589420971E+03  0.41093354526E+03  0.12500403633E+03 0.  0.
          4    1    3    3  502    0 -0.45159680219E+02 -0.22578887493E+02 -0.37795656171E+03  0.38131611337E+03  0.12700000000E+01 0.  1.
         -4    1    3    3    0  502  0.34701974350E+01 -0.28293653807E+02 -0.79376480057E+01  0.29617431891E+02  0.12700000000E+01 0.  1.
          1    1    1    2  503    0  0.35992102982E+02 -0.85694001228E+01 -0.23229820249E+02  0.43686275239E+02  0.00000000000E+00 0. -1.
         -1    1    1    2    0  501  0.56973798023E+01  0.59441941422E+02 -0.16034217715E+03  0.17110060873E+03  0.00000000000E+00 0.  1.
<mgrwt>
<rscale>  0 0.46806852E+02</rscale>
<asrwt>0</asrwt>
<pdfrwt beam="1">  1        2 0.43272479E-02 0.36998190E+02</pdfrwt>
<pdfrwt beam="2">  1       -2 0.91937433E-01 0.59215907E+02</pdfrwt>
<totfact> 0.16986406E+03</totfact>
</mgrwt>
</event>
<event>
 7    1  0.7037933E-004  0.7857130E+02  0.7546771E-02  0.1339689E+00
          1   -1    0    0  502    0 -0.00000000000E+00  0.00000000000E+00  0.76175538930E+02  0.76175538930E+02  0.00000000000E+00 0. -1.
          2   -1    0    0  503    0  0.00000000000E+00 -0.00000000000E+00 -0.26600963063E+04  0.26600963063E+04  0.00000000000E+00 0. -1.
         25    2    1    2    0    0 -0.87803612268E+02 -0.37985317955E+02 -0.18684239843E+04  0.18750418734E+04  0.12498593189E+03 0.  0.
          4    1    3    3  501    0 -0.16233404094E+02 -0.40315592555E+02 -0.14412495341E+04  0.14419052337E+04  0.12700000000E+01 0. -1.
         -4    1    3    3    0  501 -0.71570208174E+02  0.23302746000E+01 -0.42717445017E+03  0.43313663971E+03  0.12700000000E+01 0. -1.
          2    1    1    2  502    0  0.70897693384E+02 -0.34288794468E+02  0.49252477513E+02  0.92887086801E+02  0.00000000000E+00 0. -1.
          1    1    1    2  503    0  0.16905918884E+02  0.72274112422E+02 -0.76474926059E+03  0.76834288504E+03  0.00000000000E+00 0. -1.
<mgrwt>
<rscale>  0 0.76367259E+02</rscale>
<asrwt>0</asrwt>
<pdfrwt beam="2">  1        2 0.40924553E+00 0.74225046E+02</pdfrwt>
<pdfrwt beam="1">  1        1 0.11719315E-01 0.78571298E+02</pdfrwt>
<totfact> 0.25819330E+02</totfact>
</mgrwt>
</event>
<event>
 7    1  0.7037933E-004  0.9769101E+02  0.7546771E-02  0.1423160E+00
          2   -1    0    0  503    0  0.00000000000E+00  0.00000000000E+00  0.11208491886E+04  0.11208491886E+04  0.00000000000E+00 0. -1.
          1   -1    0    0  502    0 -0.00000000000E+00 -0.00000000000E+00 -0.12017569486E+04  0.12017569486E+04  0.00000000000E+00 0. -1.
         25    2    1    2    0    0 -0.60905234187E+01  0.11142788917E+03 -0.25707673257E+03  0.30686602370E+03  0.12500016446E+03 0.  0.
          4    1    3    3  501    0 -0.61680050324E+02  0.43878778420E+02 -0.15445512446E+03  0.17201097109E+03  0.12700000000E+01 0. -1.
         -4    1    3    3    0  501  0.55589526905E+02  0.67549110749E+02 -0.10262160811E+03  0.13485505261E+03  0.12700000000E+01 0. -1.
          2    1    1    2  502    0  0.25777986327E+02 -0.15821909808E+02 -0.91736236135E+03  0.91786084971E+03  0.00000000000E+00 0. -1.
          1    1    1    2  503    0 -0.19687462908E+02 -0.95605979361E+02  0.10935313339E+04  0.10978792638E+04  0.00000000000E+00 0. -1.
<mgrwt>
<rscale>  0 0.54357977E+02</rscale>
<asrwt>0</asrwt>
<pdfrwt beam="1">  1        2 0.17243834E+00 0.97691012E+02</pdfrwt>
<pdfrwt beam="2">  1        1 0.18488568E+00 0.30246279E+02</pdfrwt>
<totfact> 0.44012301E+01</totfact>
</mgrwt>
</event>
<event>
 7    1  0.7037933E-004  0.1334195E+03  0.7546771E-02  0.1328274E+00
          2   -1    0    0  503    0  0.00000000000E+00  0.00000000000E+00  0.30472357760E+04  0.30472357760E+04  0.00000000000E+00 0. -1.
          1   -1    0    0  502    0 -0.00000000000E+00 -0.00000000000E+00 -0.53041579201E+02  0.53041579201E+02  0.00000000000E+00 0. -1.
         25    2    1    2    0    0  0.11018969928E+03  0.22321985955E+02  0.25212406755E+03  0.30303821566E+03  0.12500229529E+03 0.  0.
          4    1    3    3  501    0  0.63466156513E+02  0.74506592740E+02  0.13988315025E+03  0.17072812893E+03  0.12700000000E+01 0. -1.
         -4    1    3    3    0  501  0.46723542766E+02 -0.52184606785E+02  0.11224091730E+03  0.13231008673E+03  0.12700000000E+01 0. -1.
          2    1    1    2  502    0 -0.13684016139E+03 -0.62602786935E+02  0.17957723250E+03  0.23429110340E+03  0.00000000000E+00 0. -1.
          1    1    1    2  503    0  0.26650462112E+02  0.40280800980E+02  0.25624928967E+04  0.25629480361E+04  0.00000000000E+00 0. -1.
<mgrwt>
<rscale>  0 0.80274666E+02</rscale>
<asrwt>0</asrwt>
<pdfrwt beam="1">  1        2 0.46880537E+00 0.48298965E+02</pdfrwt>
<pdfrwt beam="2">  1        1 0.81602454E-02 0.13341946E+03</pdfrwt>
<totfact> 0.28383073E+02</totfact>
</mgrwt>
</event>
<event>
 7    1  0.7037933E-004  0.1006838E+03  0.7546771E-02  0.1305922E+00
         -1   -1    0    0    0  501 -0.00000000000E+00  0.00000000000E+00  0.13950871930E+04  0.13950871930E+04  0.00000000000E+00 0.  1.
          1   -1    0    0  503    0  0.00000000000E+00 -0.00000000000E+00 -0.95727564477E+03  0.95727564477E+03  0.00000000000E+00 0. -1.
         25    2    1    2    0    0  0.11568663351E+03  0.13005720092E+03 -0.47998620874E+03  0.52565373463E+03  0.12500726166E+03 0.  0.
          4    1    3    3  502    0 -0.16794697576E+02  0.29083742634E+02 -0.27325433764E+02  0.43315334267E+02  0.12700000000E+01 0. -1.
         -4    1    3    3    0  502  0.13248133109E+03  0.10097345829E+03 -0.45266077497E+03  0.48233840036E+03  0.12700000000E+01 0. -1.
          2    1    1    2  503    0 -0.35369983488E+02 -0.69766809578E+02 -0.44923419738E+03  0.45599320998E+03  0.00000000000E+00 0. -1.
         -2    1    1    2    0  501 -0.80316650027E+02 -0.60290391341E+02  0.13670319544E+04  0.13707158932E+04  0.00000000000E+00 0.  1.
<mgrwt>
<rscale>  0 0.88744194E+02</rscale>
<asrwt>0</asrwt>
<pdfrwt beam="2">  1        1 0.14727318E+00 0.78220480E+02</pdfrwt>
<pdfrwt beam="1">  1       -1 0.21462880E+00 0.10068376E+03</pdfrwt>
<totfact> 0.27629933E+00</totfact>
</mgrwt>
</event>
<event>
 7    1  0.7037933E-004  0.6931161E+02  0.7546771E-02  0.1384175E+00
          2   -1    0    0  503    0  0.00000000000E+00  0.00000000000E+00  0.26628992829E+04  0.26628992829E+04  0.00000000000E+00 0. -1.
          1   -1    0    0  502    0 -0.00000000000E+00 -0.00000000000E+00 -0.56676292283E+02  0.56676292283E+02  0.00000000000E+00 0. -1.
         25    2    1    2    0    0  0.67259924620E+02 -0.60375090830E+02  0.11088518464E+04  0.11195287960E+04  0.12499303566E+03 0.  0.
          4    1    3    3  501    0  0.12018475929E+02  0.38767201645E+02  0.27168037393E+03  0.27469834030E+03  0.12700000000E+01 0. -1.
         -4    1    3    3    0  501  0.55241448691E+02 -0.99142292476E+02  0.83717147243E+03  0.84483045574E+03  0.12700000000E+01 0. -1.
          2    1    1    2  502    0 -0.69256456150E+02  0.24553642679E+01 -0.27147021124E+02  0.74427456547E+02  0.00000000000E+00 0. -1.
          1    1    1    2  503    0  0.19965315305E+01  0.57919726563E+02  0.15245181653E+04  0.15256193226E+04  0.00000000000E+00 0. -1.
<mgrwt>
<rscale>  0 0.63378970E+02</rscale>
<asrwt>0</asrwt>
<pdfrwt beam="1">  1        2 0.40967672E+00 0.57954127E+02</pdfrwt>
<pdfrwt beam="2">  1        1 0.87194317E-02 0.69311609E+02</pdfrwt>
<totfact> 0.38914632E+02</totfact>
</mgrwt>
</event>
<event>
 7    1  0.7037933E-004  0.9837921E+02  0.7546771E-02  0.1320026E+00
          2   -1    0    0  503    0  0.00000000000E+00  0.00000000000E+00  0.21385713228E+03  0.21385713228E+03  0.00000000000E+00 0. -1.
          1   -1    0    0  502    0 -0.00000000000E+00 -0.00000000000E+00 -0.18094285844E+03  0.18094285844E+03  0.00000000000E+00 0. -1.
         25    2    1    2    0    0 -0.84423728720E+02 -0.35013774947E+01 -0.38070617367E+02  0.15561344790E+03  0.12500619043E+03 0.  0.
          4    1    3    3  501    0  0.13299981261E+02 -0.11443719941E+02 -0.53531493508E+02  0.56347865308E+02  0.12700000000E+01 0.  1.
         -4    1    3    3    0  501 -0.97723709981E+02  0.79423424466E+01  0.15460876140E+02  0.99265582590E+02  0.12700000000E+01 0.  1.
          2    1    1    2  502    0  0.92775825561E+02  0.73481911326E+02 -0.24150490593E+02  0.12078986421E+03  0.00000000000E+00 0. -1.
          1    1    1    2  503    0 -0.83520968412E+01 -0.69980533831E+02  0.95135381791E+02  0.11839667861E+03  0.00000000000E+00 0. -1.
<mgrwt>
<rscale>  0 0.83267575E+02</rscale>
<asrwt>0</asrwt>
<pdfrwt beam="1">  1        2 0.32901097E-01 0.70477178E+02</pdfrwt>
<pdfrwt beam="2">  1        1 0.27837363E-01 0.98379208E+02</pdfrwt>
<totfact> 0.34197406E+03</totfact>
</mgrwt>
</event>
<event>
 7    1  0.7037933E-004  0.9564110E+02  0.7546771E-02  0.1339990E+00
          2   -1    0    0  503    0  0.00000000000E+00  0.00000000000E+00  0.45340342523E+04  0.45340342523E+04  0.00000000000E+00 0. -1.
          1   -1    0    0  502    0 -0.00000000000E+00 -0.00000000000E+00 -0.45187321806E+02  0.45187321806E+02  0.00000000000E+00 0. -1.
         25    2    1    2    0    0 -0.76271858302E+02 -0.64520517863E+02  0.87357047978E+03  0.88810491011E+03  0.12499861854E+03 0.  0.
          4    1    3    3  501    0 -0.44905474440E+02 -0.99400760464E+02  0.51118458745E+03  0.52269332133E+03  0.12700000000E+01 0.  1.
         -4    1    3    3    0  501 -0.31366383863E+02  0.34880242601E+02  0.36238589233E+03  0.36541158878E+03  0.12700000000E+01 0.  1.
          2    1    1    2  502    0  0.53179303499E+02 -0.29510586248E+02 -0.12465315647E+02  0.62082985717E+02  0.00000000000E+00 0. -1.
          1    1    1    2  503    0  0.23092554803E+02  0.94031104111E+02  0.36277417663E+04  0.36290336782E+04  0.00000000000E+00 0. -1.
<mgrwt>
<rscale>  0 0.76267727E+02</rscale>
<asrwt>0</asrwt>
<pdfrwt beam="1">  1        2 0.69754337E+00 0.95641097E+02</pdfrwt>
<pdfrwt beam="2">  1        1 0.69518993E-02 0.60818690E+02</pdfrwt>
<totfact> 0.25904661E+01</totfact>
</mgrwt>
</event>
<event>
 7    1  0.7037933E-004  0.1844504E+03  0.7546771E-02  0.1265126E+00
          2   -1    0    0  503    0  0.00000000000E+00  0.00000000000E+00  0.97520993586E+03  0.97520993586E+03  0.00000000000E+00 0. -1.
         -2   -1    0    0    0  501 -0.00000000000E+00 -0.00000000000E+00 -0.86447065845E+03  0.86447065845E+03  0.00000000000E+00 0.  1.
         25    2    1    2    0    0  0.12345179878E+03  0.11956515611E+03  0.12625311415E+03  0.24719280855E+03  0.12501304969E+03 0.  0.
          4    1    3    3  502    0  0.17556812046E+02  0.50965712001E+02 -0.16768107863E+02  0.56467050483E+02  0.12700000000E+01 0. -1.
         -4    1    3    3    0  502  0.10589498673E+03  0.68599444106E+02  0.14302122201E+03  0.19072575807E+03  0.12700000000E+01 0. -1.
          1    1    1    2  503    0  0.45735302237E+02 -0.42949917234E+02  0.77647894925E+03  0.77900960963E+03  0.00000000000E+00 0. -1.
         -3    1    1    2    0  501 -0.16918710101E+03 -0.76615238872E+02 -0.79199278599E+03  0.81347817612E+03  0.00000000000E+00 0.  1.
<mgrwt>
<rscale>  0 0.10757589E+03</rscale>
<asrwt>0</asrwt>
<pdfrwt beam="1">  1        2 0.15003230E+00 0.62740842E+02</pdfrwt>
<pdfrwt beam="2">  1       -2 0.13299549E+00 0.18445037E+03</pdfrwt>
<totfact> 0.13006792E+01</totfact>
</mgrwt>
</event>
<event>
 7    1  0.7037933E-004  0.6412310E+02  0.7546771E-02  0.1453430E+00
         -1   -1    0    0    0  502 -0.00000000000E+00  0.00000000000E+00  0.12236124441E+03  0.12236124441E+03  0.00000000000E+00 0.  1.
         -2   -1    0    0    0  501  0.00000000000E+00 -0.00000000000E+00 -0.13451045182E+04  0.13451045182E+04  0.00000000000E+00 0.  1.
         25    2    1    2    0    0 -0.52544378211E+02 -0.38249995913E+02 -0.35250225899E+03  0.37961378042E+03  0.12499922327E+03 0.  0.
          4    1    3    3  503    0  0.22033902700E+02  0.30264706021E+02 -0.12705581761E+03  0.13246221721E+03  0.12700000000E+01 0.  1.
         -4    1    3    3    0  503 -0.74578280910E+02 -0.68514701933E+02 -0.22544644138E+03  0.24715156321E+03  0.12700000000E+01 0.  1.
         -2    1    1    2    0  502 -0.12179416056E+02  0.34652238399E+02  0.10459822131E+03  0.11085983809E+03  0.00000000000E+00 0.  1.
         -1    1    1    2    0  501  0.64723794267E+02  0.35977575140E+01 -0.97483923606E+03  0.97699214407E+03  0.00000000000E+00 0.  1.
<mgrwt>
<rscale>  0 0.48531037E+02</rscale>
<asrwt>0</asrwt>
<pdfrwt beam="2">  1       -2 0.20693915E+00 0.64123103E+02</pdfrwt>
<pdfrwt beam="1">  1       -1 0.18824807E-01 0.36730312E+02</pdfrwt>
<totfact> 0.22076894E+01</totfact>
</mgrwt>
</event>
<event>
 7    1  0.7037933E-004  0.2033380E+03  0.7546771E-02  0.1242557E+00
          2   -1    0    0  503    0  0.00000000000E+00  0.00000000000E+00  0.34837874830E+04  0.34837874830E+04  0.00000000000E+00 0. -1.
          1   -1    0    0  502    0 -0.00000000000E+00 -0.00000000000E+00 -0.61947767031E+02  0.61947767031E+02  0.00000000000E+00 0. -1.
         25    2    1    2    0    0  0.32358283833E+02 -0.20022279031E+03  0.14525274730E+04  0.14719371079E+04  0.12500626200E+03 0.  0.
          4    1    3    3  501    0  0.62839040211E+02 -0.70894462469E+02  0.82976352394E+03  0.83515500858E+03  0.12700000000E+01 0. -1.
         -4    1    3    3    0  501 -0.30480756378E+02 -0.12932832784E+03  0.62276394905E+03  0.63678209933E+03  0.12700000000E+01 0. -1.
          2    1    1    2  502    0  0.68782036555E+02  0.18419285362E+02 -0.19743400210E+02  0.73892086706E+02  0.00000000000E+00 0. -1.
          1    1    1    2  503    0 -0.10114032039E+03  0.18180350494E+03  0.19890556432E+04  0.19999060554E+04  0.00000000000E+00 0. -1.
<mgrwt>
<rscale>  0 0.12032792E+03</rscale>
<asrwt>0</asrwt>
<pdfrwt beam="1">  1        2 0.53596715E+00 0.20333805E+03</pdfrwt>
<pdfrwt beam="2">  1        1 0.95304284E-02 0.71205608E+02</pdfrwt>
<totfact> 0.93710430E+01</totfact>
</mgrwt>
</event>
<event>
 7    1  0.7037933E-004  0.4075837E+03  0.7546771E-02  0.1179010E+00
          1   -1    0    0  502    0 -0.00000000000E+00  0.00000000000E+00  0.61425461811E+03  0.61425461811E+03  0.00000000000E+00 0. -1.
          2   -1    0    0  503    0  0.00000000000E+00 -0.00000000000E+00 -0.32691680288E+04  0.32691680288E+04  0.00000000000E+00 0. -1.
         25    2    1    2    0    0  0.21368096774E+03 -0.27893650392E+03 -0.18130318782E+03  0.41468306328E+03  0.12500427136E+03 0.  0.
          4    1    3    3  501    0  0.16792330568E+03 -0.28074477599E+03 -0.15958449585E+03  0.36398446403E+03  0.12700000000E+01 0. -1.
         -4    1    3    3    0  501  0.45757662062E+02  0.18082720665E+01 -0.21718691968E+02  0.50698599251E+02  0.12700000000E+01 0. -1.
          2    1    1    2  502    0  0.12014955346E+02 -0.68943633562E+02  0.48054882371E+03  0.48561791125E+03  0.00000000000E+00 0. -1.
          1    1    1    2  503    0 -0.22569592309E+03  0.34788013749E+03 -0.29541590465E+04  0.29831216724E+04  0.00000000000E+00 0. -1.
<mgrwt>
<rscale>  0 0.16888998E+03</rscale>
<asrwt>0</asrwt>
<pdfrwt beam="2">  1        2 0.50294893E+00 0.40758372E+03</pdfrwt>
<pdfrwt beam="1">  1        1 0.94500709E-01 0.69982739E+02</pdfrwt>
<totfact> 0.65833269E+00</totfact>
</mgrwt>
</event>
<event>
 7    1  0.7037933E-004  0.7346622E+02  0.7546771E-02  0.1436676E+00
          2   -1    0    0  503    0  0.00000000000E+00  0.00000000000E+00  0.17531542877E+04  0.17531542877E+04  0.00000000000E+00 0. -1.
         -2   -1    0    0    0  501 -0.00000000000E+00 -0.00000000000E+00 -0.54581616367E+02  0.54581616367E+02  0.00000000000E+00 0.  1.
         25    2    1    2    0    0  0.15696580568E+02  0.95917077489E+02  0.26054866884E+03  0.30489013999E+03  0.12500368090E+03 0.  0.
          4    1    3    3  502    0 -0.31848619312E+02  0.13829064058E+02  0.17078501347E+03  0.17428342231E+03  0.12700000000E+01 0.  1.
         -4    1    3    3    0  502  0.47545199880E+02  0.82088013431E+02  0.89763655364E+02  0.13060671769E+03  0.12700000000E+01 0.  1.
          1    1    1    2  503    0  0.11424205260E+02 -0.71785804933E+02  0.14590729867E+04  0.14608825055E+04  0.00000000000E+00 0. -1.
         -1    1    1    2    0  501 -0.27120785828E+02 -0.24131272556E+02 -0.21048984185E+02  0.41963258624E+02  0.00000000000E+00 0.  1.
<mgrwt>
<rscale>  0 0.51642918E+02</rscale>
<asrwt>0</asrwt>
<pdfrwt beam="1">  1        2 0.26971600E+00 0.73466216E+02</pdfrwt>
<pdfrwt beam="2">  1       -2 0.83971731E-02 0.36302277E+02</pdfrwt>
<totfact> 0.85178833E+02</totfact>
</mgrwt>
</event>
<event>
 7    1  0.7037933E-004  0.7722943E+02  0.7546771E-02  0.1469562E+00
          1   -1    0    0  503    0  0.00000000000E+00  0.00000000000E+00  0.65130838184E+03  0.65130838184E+03  0.00000000000E+00 0. -1.
         -1   -1    0    0    0  501 -0.00000000000E+00 -0.00000000000E+00 -0.66389943173E+02  0.66389943173E+02  0.00000000000E+00 0.  1.
         25    2    1    2    0    0  0.29116087270E+02  0.47041974478E+02  0.26320557821E+03  0.29658666460E+03  0.12500311725E+03 0.  0.
          4    1    3    3  502    0  0.37836879666E+02 -0.28776452830E+02  0.45210499684E+02  0.65614905944E+02  0.12700000000E+01 0.  1.
         -4    1    3    3    0  502 -0.87207923961E+01  0.75818427308E+02  0.21799507852E+03  0.23097175866E+03  0.12700000000E+01 0.  1.
          2    1    1    2  503    0  0.24062135886E+02  0.12534653196E+02  0.33843574191E+03  0.33952150936E+03  0.00000000000E+00 0. -1.
         -2    1    1    2    0  501 -0.53178223156E+02 -0.59576627674E+02 -0.16722881457E+02  0.81590151043E+02  0.00000000000E+00 0.  1.
<mgrwt>
<rscale>  0 0.45774774E+02</rscale>
<asrwt>0</asrwt>
<pdfrwt beam="1">  1        1 0.10020129E+00 0.27131235E+02</pdfrwt>
<pdfrwt beam="2">  1       -1 0.10213838E-01 0.77229435E+02</pdfrwt>
<totfact> 0.18680982E+03</totfact>
</mgrwt>
</event>
<event>
 7    1  0.7037933E-004  0.5408806E+02  0.7546771E-02  0.1492614E+00
          2   -1    0    0  503    0  0.00000000000E+00  0.00000000000E+00  0.67133986354E+02  0.67133986354E+02  0.00000000000E+00 0. -1.
         -2   -1    0    0    0  501 -0.00000000000E+00 -0.00000000000E+00 -0.25491712572E+03  0.25491712572E+03  0.00000000000E+00 0.  1.
         25    2    1    2    0    0  0.53369830105E+02 -0.45288850432E+01 -0.16321258682E+03  0.21244400308E+03  0.12500102553E+03 0.  0.
          4    1    3    3  502    0  0.75459466657E+02 -0.45814917851E+02 -0.11770483867E+03  0.14713660236E+03  0.12700000000E+01 0.  1.
         -4    1    3    3    0  502 -0.22089636552E+02  0.41286032808E+02 -0.45507748150E+02  0.65307400727E+02  0.12700000000E+01 0.  1.
          1    1    1    2  503    0 -0.27337838545E+01  0.32812289042E+02  0.18126986042E+02  0.37586001507E+02  0.00000000000E+00 0. -1.
         -1    1    1    2    0  501 -0.50636046251E+02 -0.28283403999E+02 -0.42697538583E+02  0.72021107480E+02  0.00000000000E+00 0.  1.
<mgrwt>
<rscale>  0 0.42200737E+02</rscale>
<asrwt>0</asrwt>
<pdfrwt beam="1">  1        2 0.10328306E-01 0.32925976E+02</pdfrwt>
<pdfrwt beam="2">  1       -2 0.39218019E-01 0.54088063E+02</pdfrwt>
<totfact> 0.32692062E+03</totfact>
</mgrwt>
</event>
<event>
 7    1  0.7037933E-004  0.1740913E+03  0.7546771E-02  0.1345893E+00
         -2   -1    0    0    0  501 -0.00000000000E+00  0.00000000000E+00  0.36908674659E+03  0.36908674659E+03  0.00000000000E+00 0.  1.
          2   -1    0    0  503    0  0.00000000000E+00 -0.00000000000E+00 -0.42633485724E+03  0.42633485724E+03  0.00000000000E+00 0. -1.
         25    2    1    2    0    0  0.18984822361E+03  0.15425048800E+01 -0.49507059786E+02  0.23263818463E+03  0.12499939459E+03 0.  0.
          4    1    3    3  502    0  0.14412329574E+03 -0.55218478929E+02 -0.36245903961E+02  0.15854331662E+03  0.12700000000E+01 0. -1.
         -4    1    3    3    0  502  0.45724927875E+02  0.56760983809E+02 -0.13261155826E+02  0.74094868014E+02  0.12700000000E+01 0. -1.
          1    1    1    2  503    0 -0.16827276581E+03 -0.24840587572E+02 -0.25881673713E+03  0.30970773630E+03  0.00000000000E+00 0. -1.
         -1    1    1    2    0  501 -0.21575457809E+02  0.23298082692E+02  0.25107568627E+03  0.25307568289E+03  0.00000000000E+00 0.  1.
<mgrwt>
<rscale>  0 0.74350872E+02</rscale>
<asrwt>0</asrwt>
<pdfrwt beam="2">  1        2 0.65589978E-01 0.17409128E+03</pdfrwt>
<pdfrwt beam="1">  1       -2 0.56782576E-01 0.31753756E+02</pdfrwt>
<totfact> 0.22466621E+02</totfact>
</mgrwt>
</event>
<event>
 7    1  0.7037933E-004  0.8206670E+02  0.7546771E-02  0.1356741E+00
         -2   -1    0    0    0  501  0.00000000000E+00  0.00000000000E+00  0.43092086919E+03  0.43092086919E+03  0.00000000000E+00 0.  1.
         -1   -1    0    0    0  502 -0.00000000000E+00 -0.00000000000E+00 -0.15504459798E+03  0.15504459798E+03  0.00000000000E+00 0.  1.
         25    2    1    2    0    0 -0.13153565393E+03  0.30318536375E+02  0.77958248834E+02  0.19980825539E+03  0.12500003383E+03 0.  0.
          4    1    3    3  503    0 -0.66272851043E+02 -0.44762432408E+02  0.13109870290E+02  0.81050895982E+02  0.12700000000E+01 0.  1.
         -4    1    3    3    0  503 -0.65262802886E+02  0.75080968783E+02  0.64848378544E+02  0.11875735941E+03  0.12700000000E+01 0.  1.
         -2    1    1    2    0  502  0.61348880293E+02  0.29038148127E+01 -0.78138638768E+02  0.99386941407E+02  0.00000000000E+00 0.  1.
         -1    1    1    2    0  501  0.70186773636E+02 -0.33222351187E+02  0.27605666114E+03  0.28677027037E+03  0.00000000000E+00 0.  1.
<mgrwt>
<rscale>  0 0.70995330E+02</rscale>
<asrwt>0</asrwt>
<pdfrwt beam="1">  1       -2 0.66295518E-01 0.82066700E+02</pdfrwt>
<pdfrwt beam="2">  1       -1 0.23853015E-01 0.61417565E+02</pdfrwt>
<totfact> 0.23434921E+02</totfact>
</mgrwt>
</event>
<event>
 7    1  0.7037933E-004  0.9398558E+02  0.7546771E-02  0.1374278E+00
          1   -1    0    0  503    0  0.00000000000E+00  0.00000000000E+00  0.59999970520E+03  0.59999970520E+03  0.00000000000E+00 0. -1.
         -1   -1    0    0    0  501 -0.00000000000E+00 -0.00000000000E+00 -0.54285910859E+02  0.54285910859E+02  0.00000000000E+00 0.  1.
         25    2    1    2    0    0 -0.51794949277E+02  0.10706432234E+03  0.38834441269E+03  0.42494789154E+03  0.12499536700E+03 0.  0.
          4    1    3    3  502    0 -0.88301681450E+02  0.63083216410E+02  0.30621450976E+03  0.32487785093E+03  0.12700000000E+01 0.  1.
         -4    1    3    3    0  502  0.36506732174E+02  0.43981105928E+02  0.82129902930E+02  0.10007004061E+03  0.12700000000E+01 0.  1.
          2    1    1    2  503    0  0.55179839479E+02 -0.60851786477E+02  0.16312980226E+03  0.18264470151E+03  0.00000000000E+00 0. -1.
         -2    1    1    2    0  501 -0.33848902025E+01 -0.46212535862E+02 -0.57604206060E+01  0.46693023012E+02  0.00000000000E+00 0.  1.
<mgrwt>
<rscale>  0 0.65992023E+02</rscale>
<asrwt>0</asrwt>
<pdfrwt beam="1">  1        1 0.92307642E-01 0.93985576E+02</pdfrwt>
<pdfrwt beam="2">  1       -1 0.83516790E-02 0.46336335E+02</pdfrwt>
<totfact> 0.25791955E+03</totfact>
</mgrwt>
</event>
<event>
 7    1  0.7037933E-004  0.1024611E+03  0.7546771E-02  0.1332164E+00
          2   -1    0    0  503    0  0.00000000000E+00  0.00000000000E+00  0.19914738546E+04  0.19914738546E+04  0.00000000000E+00 0. -1.
          1   -1    0    0  502    0 -0.00000000000E+00 -0.00000000000E+00 -0.27777741667E+02  0.27777741667E+02  0.00000000000E+00 0. -1.
         25    2    1    2    0    0 -0.40808035809E+02  0.32341237114E+02  0.10231549360E+04  0.10320745209E+04  0.12498216756E+03 0.  0.
          4    1    3    3  501    0 -0.55847357224E+02  0.68739671752E+02  0.84413059097E+03  0.84876506601E+03  0.12700000000E+01 0. -1.
         -4    1    3    3    0  501  0.15039321415E+02 -0.36398434638E+02  0.17902434502E+03  0.18330945486E+03  0.12700000000E+01 0. -1.
          2    1    1    2  502    0  0.64241080848E+02 -0.88419194149E+02  0.11228252371E+03  0.15669152974E+03  0.00000000000E+00 0. -1.
          1    1    1    2  503    0 -0.23433045039E+02  0.56077957034E+02  0.82825865325E+03  0.83048554566E+03  0.00000000000E+00 0. -1.
<mgrwt>
<rscale>  0 0.78913117E+02</rscale>
<asrwt>0</asrwt>
<pdfrwt beam="1">  1        2 0.30638048E+00 0.60777009E+02</pdfrwt>
<pdfrwt beam="2">  1        1 0.42735003E-02 0.10246111E+03</pdfrwt>
<totfact> 0.22674410E+03</totfact>
</mgrwt>
</event>
<event>
 7    1  0.7037933E-004  0.9974121E+02  0.7546771E-02  0.1301828E+00
          1   -1    0    0  502    0 -0.00000000000E+00  0.00000000000E+00  0.89228999426E+03  0.89228999426E+03  0.00000000000E+00 0. -1.
          2   -1    0    0  503    0  0.00000000000E+00 -0.00000000000E+00 -0.18316910416E+04  0.18316910416E+04  0.00000000000E+00 0. -1.
         25    2    1    2    0    0  0.17133296806E+03  0.11951126938E+02 -0.59814364336E+02  0.22068158715E+03  0.12499915739E+03 0.  0.
          4    1    3    3  501    0  0.14379637746E+03  0.55031532194E+02 -0.18786509815E+02  0.15511419521E+03  0.12700000000E+01 0. -1.
         -4    1    3    3    0  501  0.27536590603E+02 -0.43080405256E+02 -0.41027854521E+02  0.65567391938E+02  0.12700000000E+01 0. -1.
          2    1    1    2  502    0 -0.96143487520E+02  0.20711568881E+02  0.80787916761E+03  0.81384352841E+03  0.00000000000E+00 0. -1.
          1    1    1    2  503    0 -0.75189480540E+02 -0.32662695819E+02 -0.16874658506E+04  0.16894559203E+04  0.00000000000E+00 0. -1.
<mgrwt>
<rscale>  0 0.90424194E+02</rscale>
<asrwt>0</asrwt>
<pdfrwt beam="2">  1        2 0.28179862E+00 0.81977495E+02</pdfrwt>
<pdfrwt beam="1">  1        1 0.13727539E+00 0.99741214E+02</pdfrwt>
<totfact> 0.28806150E+01</totfact>
</mgrwt>
</event>
<event>
 7    1  0.7037933E-004  0.1640078E+03  0.7546771E-02  0.1343980E+00
          1   -1    0    0  502    0 -0.00000000000E+00  0.00000000000E+00  0.28321959426E+04  0.28321959426E+04  0.00000000000E+00 0. -1.
          2   -1    0    0  503    0  0.00000000000E+00 -0.00000000000E+00 -0.13106190798E+03  0.13106190798E+03  0.00000000000E+00 0. -1.
         25    2    1    2    0    0 -0.45077159873E+02 -0.19217268752E+03  0.20201925237E+04  0.20336602622E+04  0.12503574331E+03 0.  0.
          4    1    3    3  501    0  0.20643380755E+02 -0.15411288628E+03  0.12195707187E+04  0.12294434846E+04  0.12700000000E+01 0. -1.
         -4    1    3    3    0  501 -0.65720540628E+02 -0.38059801237E+02  0.80062180495E+03  0.80421677761E+03  0.12700000000E+01 0. -1.
          2    1    1    2  502    0  0.78875274186E+01  0.33344691581E+02  0.75120398310E+03  0.75198504359E+03  0.00000000000E+00 0. -1.
          1    1    1    2  503    0  0.37189632454E+02  0.15882799594E+03 -0.70262472203E+02  0.17761254476E+03  0.00000000000E+00 0. -1.
<mgrwt>
<rscale>  0 0.74964711E+02</rscale>
<asrwt>0</asrwt>
<pdfrwt beam="2">  1        2 0.20163373E-01 0.16400784E+03</pdfrwt>
<pdfrwt beam="1">  1        1 0.43572241E+00 0.34264873E+02</pdfrwt>
<totfact> 0.49228750E+01</totfact>
</mgrwt>
</event>
<event>
 7    1  0.7037933E-004  0.4104684E+02  0.7546771E-02  0.1604630E+00
         -1   -1    0    0    0  501 -0.00000000000E+00  0.00000000000E+00  0.35979831712E+03  0.35979831712E+03  0.00000000000E+00 0.  1.
          1   -1    0    0  503    0  0.00000000000E+00 -0.00000000000E+00 -0.29792392933E+03  0.29792392933E+03  0.00000000000E+00 0. -1.
         25    2    1    2    0    0 -0.54662968136E+02 -0.25978534075E+02  0.16884847339E+03  0.21862483565E+03  0.12499634987E+03 0.  0.
          4    1    3    3  502    0 -0.77116591052E+02 -0.45446756349E+02  0.16618181735E+03  0.18876012713E+03  0.12700000000E+01 0.  1.
         -4    1    3    3    0  502  0.22453622916E+02  0.19468222273E+02  0.26666560422E+01  0.29864708520E+02  0.12700000000E+01 0.  1.
          2    1    1    2  503    0  0.33786391898E+02  0.23046497098E+02 -0.27082509535E+03  0.27389577137E+03  0.00000000000E+00 0. -1.
         -2    1    1    2    0  501  0.20876576238E+02  0.29320369776E+01  0.16385100974E+03  0.16520163942E+03  0.00000000000E+00 0.  1.
<mgrwt>
<rscale>  0 0.29416451E+02</rscale>
<asrwt>0</asrwt>
<pdfrwt beam="2">  1        1 0.45834451E-01 0.41046839E+02</pdfrwt>
<pdfrwt beam="1">  1       -1 0.55353587E-01 0.21081468E+02</pdfrwt>
<totfact> 0.30830780E+02</totfact>
</mgrwt>
</event>
<event>
 7    1  0.7037933E-004  0.6149195E+02  0.7546771E-02  0.1395251E+00
         -2   -1    0    0    0  501 -0.00000000000E+00  0.00000000000E+00  0.96525400209E+01  0.96525400209E+01  0.00000000000E+00 0.  1.
          2   -1    0    0  503    0  0.00000000000E+00 -0.00000000000E+00 -0.27645621117E+04  0.27645621117E+04  0.00000000000E+00 0. -1.
         25    2    1    2    0    0  0.44543617881E+02 -0.34778197870E+02 -0.16254476683E+04  0.16312266168E+04  0.12500598325E+03 0.  0.
          4    1    3    3  502    0  0.62022987549E+02 -0.72370737126E+02 -0.10743376066E+04  0.10785579634E+04  0.12700000000E+01 0.  1.
         -4    1    3    3    0  502 -0.17479369669E+02  0.37592539256E+02 -0.55111006175E+03  0.55266865338E+03  0.12700000000E+01 0.  1.
          1    1    1    2  503    0  0.22624311808E+01  0.71931045861E+02 -0.97049776993E+03  0.97316243011E+03  0.00000000000E+00 0. -1.
         -1    1    1    2    0  501 -0.46806049061E+02 -0.37152847991E+02 -0.15896413343E+03  0.16982560484E+03  0.00000000000E+00 0.  1.
<mgrwt>
<rscale>  0 0.60619293E+02</rscale>
<asrwt>0</asrwt>
<pdfrwt beam="2">  1        2 0.42531803E+00 0.61491950E+02</pdfrwt>
<pdfrwt beam="1">  1       -2 0.14850034E-02 0.59759019E+02</pdfrwt>
<totfact> 0.34493522E+03</totfact>
</mgrwt>
</event>
<event>
 7    1  0.7037933E-004  0.4510258E+02  0.7546771E-02  0.1492417E+00
         -2   -1    0    0    0  501 -0.00000000000E+00  0.00000000000E+00  0.59739567082E+01  0.59739567082E+01  0.00000000000E+00 0.  1.
          2   -1    0    0  503    0  0.00000000000E+00 -0.00000000000E+00 -0.20729567356E+04  0.20729567356E+04  0.00000000000E+00 0. -1.
         25    2    1    2    0    0 -0.36506048496E+01  0.29778599053E+02 -0.11263895128E+04  0.11337012994E+04  0.12500083961E+03 0.  0.
          4    1    3    3  502    0  0.14843934447E+01  0.73896892427E+02 -0.46681875183E+03  0.47263549813E+03  0.12700000000E+01 0. -1.
         -4    1    3    3    0  502 -0.51349982943E+01 -0.44118293373E+02 -0.65957076098E+03  0.66106580131E+03  0.12700000000E+01 0. -1.
          1    1    1    2  503    0  0.46011882444E+02 -0.14294259829E+02 -0.45337094591E+03  0.45592393421E+03  0.00000000000E+00 0. -1.
         -1    1    1    2    0  501 -0.42361277594E+02 -0.15484339224E+02 -0.48722232021E+03  0.48930545870E+03  0.00000000000E+00 0.  1.
<mgrwt>
<rscale>  0 0.42229517E+02</rscale>
<asrwt>0</asrwt>
<pdfrwt beam="2">  1        2 0.31891680E+00 0.39539472E+02</pdfrwt>
<pdfrwt beam="1">  1       -2 0.91906918E-03 0.45102579E+02</pdfrwt>
<totfact> 0.15295488E+04</totfact>
</mgrwt>
</event>
<event>
 7    1  0.7037933E-004  0.5579937E+02  0.7546771E-02  0.1528841E+00
          2   -1    0    0  503    0  0.00000000000E+00  0.00000000000E+00  0.14746589873E+04  0.14746589873E+04  0.00000000000E+00 0. -1.
          1   -1    0    0  502    0 -0.00000000000E+00 -0.00000000000E+00 -0.35596623966E+03  0.35596623966E+03  0.00000000000E+00 0. -1.
         25    2    1    2    0    0  0.10569093041E+02 -0.38540532240E+02 -0.61217617481E+02  0.14480187299E+03  0.12499162923E+03 0.  0.
          4    1    3    3  501    0 -0.45361351598E+02 -0.40415231236E+02  0.14371812844E+01  0.60784221018E+02  0.12700000000E+01 0. -1.
         -4    1    3    3    0  501  0.55930444639E+02  0.18746989964E+01 -0.62654798766E+02  0.84017651968E+02  0.12700000000E+01 0. -1.
          2    1    1    2  502    0  0.24462320156E+02 -0.50218952281E+01 -0.25179337613E+03  0.25302871142E+03  0.00000000000E+00 0. -1.
          1    1    1    2  503    0 -0.35031413197E+02  0.43562427468E+02  0.14317037412E+04  0.14327946425E+04  0.00000000000E+00 0. -1.
<mgrwt>
<rscale>  0 0.37328923E+02</rscale>
<asrwt>0</asrwt>
<pdfrwt beam="1">  1        2 0.22687061E+00 0.55799374E+02</pdfrwt>
<pdfrwt beam="2">  1        1 0.54764038E-01 0.24972476E+02</pdfrwt>
<totfact> 0.15595931E+02</totfact>
</mgrwt>
</event>
<event>
 7    1  0.7037933E-004  0.8264992E+02  0.7546771E-02  0.1358808E+00
          1   -1    0    0  502    0 -0.00000000000E+00  0.00000000000E+00  0.35788208792E+03  0.35788208792E+03  0.00000000000E+00 0. -1.
          2   -1    0    0  503    0  0.00000000000E+00 -0.00000000000E+00 -0.40424296018E+03  0.40424296018E+03  0.00000000000E+00 0. -1.
         25    2    1    2    0    0  0.48504685418E+00 -0.42728260150E+02  0.77574129315E+02  0.15319118767E+03  0.12499541973E+03 0.  0.
          4    1    3    3  501    0 -0.59574425621E+02 -0.28558107881E+02  0.59394071145E+02  0.88847882929E+02  0.12700000000E+01 0.  1.
         -4    1    3    3    0  501  0.60059472475E+02 -0.14170152269E+02  0.18180058170E+02  0.64343304736E+02  0.12700000000E+01 0.  1.
          2    1    1    2  502    0  0.56442275583E+02 -0.20148066094E+02  0.23375998374E+03  0.24132012978E+03  0.00000000000E+00 0. -1.
          1    1    1    2  503    0 -0.56927322437E+02  0.62876326245E+02 -0.35769498531E+03  0.36761373065E+03  0.00000000000E+00 0. -1.
<mgrwt>
<rscale>  0 0.70379387E+02</rscale>
<asrwt>0</asrwt>
<pdfrwt beam="2">  1        2 0.62191224E-01 0.82649921E+02</pdfrwt>
<pdfrwt beam="1">  1        1 0.55058783E-01 0.59930585E+02</pdfrwt>
<totfact> 0.76596039E+02</totfact>
</mgrwt>
</event>
<event>
 7    1  0.7037933E-004  0.5428297E+02  0.7546771E-02  0.1504633E+00
         -2   -1    0    0    0  501 -0.00000000000E+00  0.00000000000E+00  0.29369083852E+02  0.29369083852E+02  0.00000000000E+00 0.  1.
          2   -1    0    0  503    0  0.00000000000E+00 -0.00000000000E+00 -0.27701747576E+04  0.27701747576E+04  0.00000000000E+00 0. -1.
         25    2    1    2    0    0  0.64169347706E+02 -0.27427982323E+02 -0.60244168443E+03  0.61921719490E+03  0.12499580761E+03 0.  0.
          4    1    3    3  502    0 -0.43775144884E+01 -0.60148090891E+02 -0.17568623485E+03  0.18575311972E+03  0.12700000000E+01 0.  1.
         -4    1    3    3    0  502  0.68546862195E+02  0.32720108568E+02 -0.42675544958E+03  0.43346407517E+03  0.12700000000E+01 0.  1.
          1    1    1    2  503    0 -0.27703415158E+02 -0.12029337448E+02 -0.21246657461E+04  0.21248804006E+04  0.00000000000E+00 0. -1.
         -1    1    1    2    0  501 -0.36465932548E+02  0.39457319771E+02 -0.13698243172E+02  0.55446245915E+02  0.00000000000E+00 0.  1.
<mgrwt>
<rscale>  0 0.40490435E+02</rscale>
<asrwt>0</asrwt>
<pdfrwt beam="2">  1        2 0.42618084E+00 0.30202387E+02</pdfrwt>
<pdfrwt beam="1">  1       -2 0.45183195E-02 0.54282973E+02</pdfrwt>
<totfact> 0.77657609E+02</totfact>
</mgrwt>
</event>
<event>
 7    1  0.7037933E-004  0.9877490E+02  0.7546771E-02  0.1423055E+00
         -1   -1    0    0    0  501 -0.00000000000E+00  0.00000000000E+00  0.24726010673E+03  0.24726010673E+03  0.00000000000E+00 0.  1.
          1   -1    0    0  503    0  0.00000000000E+00 -0.00000000000E+00 -0.22656872462E+03  0.22656872462E+03  0.00000000000E+00 0. -1.
         25    2    1    2    0    0  0.13038919025E+02  0.76166515516E+02  0.48789700831E+02  0.15484313075E+03  0.12499843495E+03 0.  0.
          4    1    3    3  502    0 -0.23504705762E+02  0.47406959091E+02  0.82060506675E+02  0.97649529538E+02  0.12700000000E+01 0.  1.
         -4    1    3    3    0  502  0.36543624787E+02  0.28759556424E+02 -0.33270805844E+02  0.57193601214E+02  0.12700000000E+01 0.  1.
          2    1    1    2  503    0 -0.35710587919E+02 -0.95719061203E+02 -0.15663539263E+03  0.18700810408E+03  0.00000000000E+00 0. -1.
         -2    1    1    2    0  501  0.22671668893E+02  0.19552545687E+02  0.12853707391E+03  0.13197759652E+03  0.00000000000E+00 0.  1.
<mgrwt>
<rscale>  0 0.54379780E+02</rscale>
<asrwt>0</asrwt>
<pdfrwt beam="2">  1        1 0.34856727E-01 0.98774898E+02</pdfrwt>
<pdfrwt beam="1">  1       -1 0.38040016E-01 0.29938380E+02</pdfrwt>
<totfact> 0.82355148E+02</totfact>
</mgrwt>
</event>
<event>
 7    1  0.7037933E-004  0.1256519E+03  0.7546771E-02  0.1382143E+00
          1   -1    0    0  502    0 -0.00000000000E+00  0.00000000000E+00  0.16118600140E+03  0.16118600140E+03  0.00000000000E+00 0. -1.
          2   -1    0    0  503    0  0.00000000000E+00 -0.00000000000E+00 -0.64053862851E+03  0.64053862851E+03  0.00000000000E+00 0. -1.
         25    2    1    2    0    0  0.15288670041E+01  0.11820391514E+03 -0.24180638832E+03  0.29676418184E+03  0.12499658875E+03 0.  0.
          4    1    3    3  501    0  0.39529409621E+01  0.14502342858E+03 -0.20355402413E+03  0.24996654620E+03  0.12700000000E+01 0.  1.
         -4    1    3    3    0  501 -0.24240739580E+01 -0.26819513431E+02 -0.38252364191E+02  0.46797635639E+02  0.12700000000E+01 0.  1.
          2    1    1    2  502    0 -0.33769176288E+02 -0.12230589155E+03  0.10265589162E+03  0.16320943741E+03  0.00000000000E+00 0. -1.
          1    1    1    2  503    0  0.32240309284E+02  0.41019764078E+01 -0.34020213041E+03  0.34175101066E+03  0.00000000000E+00 0. -1.
<mgrwt>
<rscale>  0 0.63903928E+02</rscale>
<asrwt>0</asrwt>
<pdfrwt beam="2">  1        2 0.98544405E-01 0.32500212E+02</pdfrwt>
<pdfrwt beam="1">  1        1 0.24797846E-01 0.12565186E+03</pdfrwt>
<totfact> 0.12723342E+03</totfact>
</mgrwt>
</event>
<event>
 7    1  0.7037933E-004  0.1010130E+03  0.7546771E-02  0.1330371E+00
         -2   -1    0    0    0  501 -0.00000000000E+00  0.00000000000E+00  0.47291356391E+02  0.47291356391E+02  0.00000000000E+00 0.  1.
          2   -1    0    0  503    0  0.00000000000E+00 -0.00000000000E+00 -0.37684683714E+04  0.37684683714E+04  0.00000000000E+00 0. -1.
         25    2    1    2    0    0 -0.32423176871E+02 -0.98220526148E+02 -0.49119046810E+03  0.51729302884E+03  0.12500187029E+03 0.  0.
          4    1    3    3  502    0  0.11254083005E+02 -0.32876838648E+02 -0.21096276220E+02  0.40671939641E+02  0.12700000000E+01 0. -1.
         -4    1    3    3    0  502 -0.43677259876E+02 -0.65343687500E+02 -0.47009419188E+03  0.47662108920E+03  0.12700000000E+01 0. -1.
          1    1    1    2  503    0 -0.50606352750E+02  0.36893356075E+02 -0.31854174607E+04  0.31860330384E+04  0.00000000000E+00 0. -1.
         -1    1    1    2    0  501  0.83029529621E+02  0.61327170073E+02 -0.44569086146E+02  0.11243366052E+03  0.00000000000E+00 0.  1.
<mgrwt>
<rscale>  0 0.79536944E+02</rscale>
<asrwt>0</asrwt>
<pdfrwt beam="2">  1        2 0.57976451E+00 0.62626853E+02</pdfrwt>
<pdfrwt beam="1">  1       -2 0.72755914E-02 0.10101299E+03</pdfrwt>
<totfact> 0.90792013E+01</totfact>
</mgrwt>
</event>
<event>
 7    1  0.7037933E-004  0.1914956E+03  0.7546771E-02  0.1210200E+00
          2   -1    0    0  503    0  0.00000000000E+00  0.00000000000E+00  0.60856369489E+03  0.60856369489E+03  0.00000000000E+00 0. -1.
          1   -1    0    0  502    0 -0.00000000000E+00 -0.00000000000E+00 -0.92949180117E+03  0.92949180117E+03  0.00000000000E+00 0. -1.
         25    2    1    2    0    0  0.23269935032E+03 -0.10133654231E+03  0.11038056628E+03  0.30368525822E+03  0.12499113651E+03 0.  0.
          4    1    3    3  501    0  0.10515303016E+03  0.13051604471E+02  0.71983274148E+02  0.12810428872E+03  0.12700000000E+01 0. -1.
         -4    1    3    3    0  501  0.12754632016E+03 -0.11438814678E+03  0.38397292128E+02  0.17558096950E+03  0.12700000000E+01 0. -1.
          2    1    1    2  502    0 -0.10289673992E+03 -0.24696177445E+02 -0.80883656048E+03  0.81572925768E+03  0.00000000000E+00 0. -1.
          1    1    1    2  503    0 -0.12980261040E+03  0.12603271975E+03  0.37752788792E+03  0.41864098016E+03  0.00000000000E+00 0. -1.
<mgrwt>
<rscale>  0 0.14235117E+03</rscale>
<asrwt>0</asrwt>
<pdfrwt beam="1">  1        2 0.93625185E-01 0.19149561E+03</pdfrwt>
<pdfrwt beam="2">  1        1 0.14299874E+00 0.10581890E+03</pdfrwt>
<totfact> 0.13118660E+02</totfact>
</mgrwt>
</event>
<event>
 7    1  0.7037933E-004  0.3792806E+02  0.7546771E-02  0.1535819E+00
         -2   -1    0    0    0  501 -0.00000000000E+00  0.00000000000E+00  0.70993685976E+02  0.70993685976E+02  0.00000000000E+00 0.  1.
          2   -1    0    0  503    0  0.00000000000E+00 -0.00000000000E+00 -0.13538451680E+04  0.13538451680E+04  0.00000000000E+00 0. -1.
         25    2    1    2    0    0 -0.22781416114E+02  0.27645834529E+02 -0.54148398232E+02  0.14085125282E+03  0.12499496511E+03 0.  0.
          4    1    3    3  502    0 -0.34185947294E+02 -0.28359620071E+02 -0.68737751115E+02  0.81850096954E+02  0.12700000000E+01 0. -1.
         -4    1    3    3    0  502  0.11404531180E+02  0.56005454601E+02  0.14589352883E+02  0.59001155870E+02  0.12700000000E+01 0. -1.
          1    1    1    2  503    0 -0.11210505375E+02 -0.36360768538E+02 -0.12447993379E+04  0.12453807340E+04  0.00000000000E+00 0. -1.
         -1    1    1    2    0  501  0.33991921489E+02  0.87149340084E+01  0.16096254069E+02  0.38606867217E+02  0.00000000000E+00 0.  1.
<mgrwt>
<rscale>  0 0.36482128E+02</rscale>
<asrwt>0</asrwt>
<pdfrwt beam="2">  1        2 0.20828384E+00 0.37928058E+02</pdfrwt>
<pdfrwt beam="1">  1       -2 0.10922107E-01 0.35091321E+02</pdfrwt>
<totfact> 0.95560858E+02</totfact>
</mgrwt>
</event>
<event>
 7    1  0.7037933E-004  0.8055511E+02  0.7546771E-02  0.1387104E+00
          1   -1    0    0  502    0 -0.00000000000E+00  0.00000000000E+00  0.53704123106E+02  0.53704123106E+02  0.00000000000E+00 0. -1.
          2   -1    0    0  503    0  0.00000000000E+00 -0.00000000000E+00 -0.15245551817E+04  0.15245551817E+04  0.00000000000E+00 0. -1.
         25    2    1    2    0    0 -0.17842174469E+02  0.81765478543E+02 -0.31212267777E+03  0.34647914498E+03  0.12499318084E+03 0.  0.
          4    1    3    3  501    0 -0.37315567488E+02 -0.16115135646E+02 -0.41792234123E+02  0.58312545021E+02  0.12700000000E+01 0. -1.
         -4    1    3    3    0  501  0.19473393019E+02  0.97880614189E+02 -0.27033044365E+03  0.28816659996E+03  0.12700000000E+01 0. -1.
          2    1    1    2  502    0 -0.30515466754E+02 -0.76019826215E+02 -0.10576288368E+02  0.82595796290E+02  0.00000000000E+00 0. -1.
          1    1    1    2  503    0  0.48357641224E+02 -0.57456523274E+01 -0.11481520925E+04  0.11491843636E+04  0.00000000000E+00 0. -1.
<mgrwt>
<rscale>  0 0.62632701E+02</rscale>
<asrwt>0</asrwt>
<pdfrwt beam="2">  1        2 0.23454696E+00 0.48697782E+02</pdfrwt>
<pdfrwt beam="1">  1        1 0.82621723E-02 0.80555111E+02</pdfrwt>
<totfact> 0.15895537E+03</totfact>
</mgrwt>
</event>
<event>
 7    1  0.7037933E-004  0.7115706E+02  0.7546771E-02  0.1393959E+00
          2   -1    0    0  503    0  0.00000000000E+00  0.00000000000E+00  0.12399538772E+04  0.12399538772E+04  0.00000000000E+00 0. -1.
          1   -1    0    0  502    0 -0.00000000000E+00 -0.00000000000E+00 -0.12278241967E+04  0.12278241967E+04  0.00000000000E+00 0. -1.
         25    2    1    2    0    0 -0.12227289335E+03 -0.11234019808E+02 -0.10577170413E+03  0.20466938804E+03  0.12500016542E+03 0.  0.
          4    1    3    3  501    0  0.24561377496E+02 -0.10510095343E+02 -0.68279792248E+01  0.27603578915E+02  0.12700000000E+01 0. -1.
         -4    1    3    3    0  501 -0.14683427085E+03 -0.72392446484E+00 -0.98943724907E+02  0.17706580912E+03  0.12700000000E+01 0. -1.
          2    1    1    2  502    0  0.52160098872E+02  0.13387062091E+01 -0.10709150622E+04  0.10721854030E+04  0.00000000000E+00 0. -1.
          1    1    1    2  503    0  0.70112794481E+02  0.98953135989E+01  0.11888164469E+04  0.11909232828E+04  0.00000000000E+00 0. -1.
<mgrwt>
<rscale>  0 0.60932598E+02</rscale>
<asrwt>0</asrwt>
<pdfrwt beam="1">  1        2 0.19076214E+00 0.71157060E+02</pdfrwt>
<pdfrwt beam="2">  1        1 0.18889603E+00 0.52177275E+02</pdfrwt>
<totfact> 0.35494613E+01</totfact>
</mgrwt>
</event>
<event>
 7    1  0.7037933E-004  0.5740309E+02  0.7546771E-02  0.1538760E+00
         -1   -1    0    0    0  501 -0.00000000000E+00  0.00000000000E+00  0.14845102224E+03  0.14845102224E+03  0.00000000000E+00 0.  1.
          1   -1    0    0  503    0  0.00000000000E+00 -0.00000000000E+00 -0.21246850057E+04  0.21246850057E+04  0.00000000000E+00 0. -1.
         25    2    1    2    0    0 -0.20941202627E+02 -0.31075308171E+02 -0.25396058516E+02  0.13294146604E+03  0.12499705940E+03 0.  0.
          4    1    3    3  502    0  0.18319289500E+02  0.61154273125E+01  0.42163790232E+02  0.46393888884E+02  0.12700000000E+01 0.  1.
         -4    1    3    3    0  502 -0.39260492127E+02 -0.37190735483E+02 -0.67559848749E+02  0.86547577151E+02  0.12700000000E+01 0.  1.
          2    1    1    2  503    0  0.42210155104E+02  0.39134836499E+02 -0.20437391565E+04  0.20445495769E+04  0.00000000000E+00 0. -1.
         -2    1    1    2    0  501 -0.21268952477E+02 -0.80595283284E+01  0.92901231545E+02  0.95644985017E+02  0.00000000000E+00 0.  1.
<mgrwt>
<rscale>  0 0.36133360E+02</rscale>
<asrwt>0</asrwt>
<pdfrwt beam="2">  1        1 0.32687462E+00 0.57403086E+02</pdfrwt>
<pdfrwt beam="1">  1       -1 0.22838618E-01 0.22744765E+02</pdfrwt>
<totfact> 0.51044489E+01</totfact>
</mgrwt>
</event>
<event>
 7    1  0.7037933E-004  0.6449593E+02  0.7546771E-02  0.1475358E+00
          1   -1    0    0  503    0  0.00000000000E+00  0.00000000000E+00  0.55869404655E+03  0.55869404655E+03  0.00000000000E+00 0. -1.
         -1   -1    0    0    0  501 -0.00000000000E+00 -0.00000000000E+00 -0.52005338002E+02  0.52005338002E+02  0.00000000000E+00 0.  1.
         25    2    1    2    0    0  0.87531651770E+02 -0.19256767364E+02  0.22112902707E+03  0.26934967115E+03  0.12497433970E+03 0.  0.
          4    1    3    3  502    0  0.69261917987E+02 -0.30700788117E+02  0.23278705787E+03  0.24480845346E+03  0.12700000000E+01 0.  1.
         -4    1    3    3    0  502  0.18269733783E+02  0.11444020753E+02 -0.11658030799E+02  0.24541217688E+02  0.12700000000E+01 0.  1.
          2    1    1    2  503    0 -0.26489338570E+02  0.16430227220E+02  0.27803910434E+03  0.27978095176E+03  0.00000000000E+00 0. -1.
         -2    1    1    2    0  501 -0.61042313200E+02  0.28265401442E+01  0.75205771364E+01  0.61568761644E+02  0.00000000000E+00 0.  1.
<mgrwt>
<rscale>  0 0.44837586E+02</rscale>
<asrwt>0</asrwt>
<pdfrwt beam="1">  1        1 0.85952926E-01 0.31171099E+02</pdfrwt>
<pdfrwt beam="2">  1       -1 0.80008216E-02 0.64495932E+02</pdfrwt>
<totfact> 0.32085663E+03</totfact>
</mgrwt>
</event>
<event>
 7    1  0.7037933E-004  0.8742619E+02  0.7546771E-02  0.1326782E+00
         -2   -1    0    0    0  501 -0.00000000000E+00  0.00000000000E+00  0.62244026184E+03  0.62244026184E+03  0.00000000000E+00 0.  1.
          2   -1    0    0  503    0  0.00000000000E+00 -0.00000000000E+00 -0.20638076879E+03  0.20638076879E+03  0.00000000000E+00 0. -1.
         25    2    1    2    0    0  0.89869180347E+01 -0.22625545565E+02  0.39892370115E+03  0.41875816990E+03  0.12500242201E+03 0.  0.
          4    1    3    3  502    0  0.64743783191E+02 -0.11298270235E+02  0.26903275686E+03  0.27694700854E+03  0.12700000000E+01 0.  1.
         -4    1    3    3    0  502 -0.55756865156E+02 -0.11327275330E+02  0.12989094429E+03  0.14181116136E+03  0.12700000000E+01 0.  1.
          1    1    1    2  503    0 -0.82965658952E+02  0.32875885594E+02 -0.17909612571E+03  0.20009884223E+03  0.00000000000E+00 0. -1.
         -1    1    1    2    0  501  0.73978740918E+02 -0.10250340029E+02  0.19623191760E+03  0.20996401850E+03  0.00000000000E+00 0.  1.
<mgrwt>
<rscale>  0 0.80805126E+02</rscale>
<asrwt>0</asrwt>
<pdfrwt beam="2">  1        2 0.31750888E-01 0.87426189E+02</pdfrwt>
<pdfrwt beam="1">  1       -2 0.95760040E-01 0.74685498E+02</pdfrwt>
<totfact> 0.15959299E+02</totfact>
</mgrwt>
</event>
<event>
 7    1  0.7037933E-004  0.6203469E+02  0.7546771E-02  0.1455161E+00
          1   -1    0    0  502    0 -0.00000000000E+00  0.00000000000E+00  0.60806551156E+03  0.60806551156E+03  0.00000000000E+00 0. -1.
          2   -1    0    0  503    0  0.00000000000E+00 -0.00000000000E+00 -0.15489411882E+04  0.15489411882E+04  0.00000000000E+00 0. -1.
         25    2    1    2    0    0  0.56680283973E+02 -0.70755111164E+02 -0.92337527699E+02  0.17991715464E+03  0.12500009266E+03 0.  0.
          4    1    3    3  501    0  0.30845939830E+02 -0.93060255160E+02 -0.10484241879E+03  0.14354521508E+03  0.12700000000E+01 0.  1.
         -4    1    3    3    0  501  0.25834344143E+02  0.22305143996E+02  0.12504891091E+02  0.36371939557E+02  0.12700000000E+01 0.  1.
          2    1    1    2  502    0 -0.49736680595E+01  0.37157191261E+02  0.56297916269E+03  0.56422595816E+03  0.00000000000E+00 0. -1.
          1    1    1    2  503    0 -0.51706615913E+02  0.33597919903E+02 -0.14115173116E+04  0.14128635869E+04  0.00000000000E+00 0. -1.
<mgrwt>
<rscale>  0 0.48224403E+02</rscale>
<asrwt>0</asrwt>
<pdfrwt beam="2">  1        2 0.23829864E+00 0.62034693E+02</pdfrwt>
<pdfrwt beam="1">  1        1 0.93548542E-01 0.37488588E+02</pdfrwt>
<totfact> 0.73543400E+01</totfact>
</mgrwt>
</event>
<event>
 7    1  0.7037933E-004  0.1275589E+03  0.7546771E-02  0.1331639E+00
          1   -1    0    0  502    0 -0.00000000000E+00  0.00000000000E+00  0.10260890237E+04  0.10260890237E+04  0.00000000000E+00 0. -1.
          2   -1    0    0  503    0  0.00000000000E+00 -0.00000000000E+00 -0.31984813159E+04  0.31984813159E+04  0.00000000000E+00 0. -1.
         25    2    1    2    0    0 -0.15334558939E+02 -0.15216930477E+03  0.71985662469E+03  0.74646444685E+03  0.12499985715E+03 0.  0.
          4    1    3    3  501    0 -0.59633205576E+02 -0.12971670519E+03  0.59931603815E+03  0.61608755003E+03  0.12700000000E+01 0. -1.
         -4    1    3    3    0  501  0.44298646636E+02 -0.22452599574E+02  0.12054058654E+03  0.13037689682E+03  0.12700000000E+01 0. -1.
          2    1    1    2  502    0 -0.74677105823E+01  0.10874816810E+03  0.28259189101E+03  0.30288629488E+03  0.00000000000E+00 0. -1.
          1    1    1    2  503    0  0.22802269522E+02  0.43421136667E+02 -0.31748408079E+04  0.31752195978E+04  0.00000000000E+00 0. -1.
<mgrwt>
<rscale>  0 0.79095066E+02</rscale>
<asrwt>0</asrwt>
<pdfrwt beam="2">  1        2 0.49207405E+00 0.49044251E+02</pdfrwt>
<pdfrwt beam="1">  1        1 0.15785985E+00 0.12755887E+03</pdfrwt>
<totfact> 0.46746056E+00</totfact>
</mgrwt>
</event>
<event>
 7    1  0.7037933E-004  0.1680383E+03  0.7546771E-02  0.1273704E+00
          1   -1    0    0  503    0  0.00000000000E+00  0.00000000000E+00  0.72627190440E+03  0.72627190440E+03  0.00000000000E+00 0. -1.
         -1   -1    0    0    0  501 -0.00000000000E+00 -0.00000000000E+00 -0.63754897718E+03  0.63754897718E+03  0.00000000000E+00 0.  1.
         25    2    1    2    0    0 -0.55048340820E+02  0.16243838342E+03 -0.67119152380E+01  0.21233532524E+03  0.12499876920E+03 0.  0.
          4    1    3    3  502    0 -0.60538284693E+02  0.14532999263E+03  0.39855048109E+02  0.16240606032E+03  0.12700000000E+01 0. -1.
         -4    1    3    3    0  502  0.54899438724E+01  0.17108390791E+02 -0.46566963347E+02  0.49929264911E+02  0.12700000000E+01 0. -1.
          2    1    1    2  503    0 -0.53923950200E+02 -0.33308906553E+02  0.60825417072E+03  0.61154755487E+03  0.00000000000E+00 0. -1.
         -2    1    1    2    0  501  0.10897229102E+03 -0.12912947687E+03 -0.51281932826E+03  0.53993800148E+03  0.00000000000E+00 0.  1.
<mgrwt>
<rscale>  0 0.10320175E+03</rscale>
<asrwt>0</asrwt>
<pdfrwt beam="1">  1        1 0.11173414E+00 0.63381982E+02</pdfrwt>
<pdfrwt beam="2">  1       -1 0.98084458E-01 0.16803832E+03</pdfrwt>
<totfact> 0.31001146E+01</totfact>
</mgrwt>
</event>
<event>
 7    1  0.7037933E-004  0.7976695E+02  0.7546771E-02  0.1379156E+00
          2   -1    0    0  503    0  0.00000000000E+00  0.00000000000E+00  0.18665394500E+04  0.18665394500E+04  0.00000000000E+00 0. -1.
          1   -1    0    0  502    0 -0.00000000000E+00 -0.00000000000E+00 -0.30439444885E+03  0.30439444885E+03  0.00000000000E+00 0. -1.
         25    2    1    2    0    0 -0.72610844979E+02 -0.85951378040E+02  0.77668325758E+02  0.18525635378E+03  0.12501029395E+03 0.  0.
          4    1    3    3  501    0  0.19546850596E+02 -0.41698065248E+00  0.53818049153E+02  0.57273454198E+02  0.12700000000E+01 0.  1.
         -4    1    3    3    0  501 -0.92157695575E+02 -0.85534397387E+02  0.23850276604E+02  0.12798289958E+03  0.12700000000E+01 0.  1.
          2    1    1    2  502    0  0.51608490274E+02  0.93945344264E+01 -0.24693585545E+03  0.25244605414E+03  0.00000000000E+00 0. -1.
          1    1    1    2  503    0  0.21002354705E+02  0.76556843614E+02  0.17314125309E+04  0.17332314910E+04  0.00000000000E+00 0. -1.
<mgrwt>
<rscale>  0 0.64686179E+02</rscale>
<asrwt>0</asrwt>
<pdfrwt beam="1">  1        2 0.28715991E+00 0.79766946E+02</pdfrwt>
<pdfrwt beam="2">  1        1 0.46829916E-01 0.52456587E+02</pdfrwt>
<totfact> 0.11608089E+02</totfact>
</mgrwt>
</event>
<event>
 7    1  0.7037933E-004  0.1064292E+03  0.7546771E-02  0.1332503E+00
          2   -1    0    0  503    0  0.00000000000E+00  0.00000000000E+00  0.92014598665E+03  0.92014598665E+03  0.00000000000E+00 0. -1.
          1   -1    0    0  502    0 -0.00000000000E+00 -0.00000000000E+00 -0.59566004328E+03  0.59566004328E+03  0.00000000000E+00 0. -1.
         25    2    1    2    0    0 -0.65845552383E+02 -0.28714433654E+01  0.82415668919E+01  0.14154968462E+03  0.12499803132E+03 0.  0.
          4    1    3    3  501    0 -0.13237389193E+02  0.45515673449E+02  0.41212141990E+02  0.62824824310E+02  0.12700000000E+01 0.  1.
         -4    1    3    3    0  501 -0.52608163190E+02 -0.48387116814E+02 -0.32970575098E+02  0.78724860305E+02  0.12700000000E+01 0.  1.
          2    1    1    2  502    0 -0.33364374212E+02  0.47854876645E+02 -0.52387050738E+03  0.52710869769E+03  0.00000000000E+00 0. -1.
          1    1    1    2  503    0  0.99209926595E+02 -0.44983433279E+02  0.84011488386E+03  0.84714764763E+03  0.00000000000E+00 0. -1.
<mgrwt>
<rscale>  0 0.78796049E+02</rscale>
<asrwt>0</asrwt>
<pdfrwt beam="1">  1        2 0.14156092E+00 0.10642916E+03</pdfrwt>
<pdfrwt beam="2">  1        1 0.91640007E-01 0.58337558E+02</pdfrwt>
<totfact> 0.15742893E+02</totfact>
</mgrwt>
</event>
<event>
 7    1  0.7037933E-004  0.4803916E+02  0.7546771E-02  0.1551698E+00
          2   -1    0    0  503    0  0.00000000000E+00  0.00000000000E+00  0.31249636838E+04  0.31249636838E+04  0.00000000000E+00 0. -1.
          1   -1    0    0  502    0 -0.00000000000E+00 -0.00000000000E+00 -0.22340308378E+02  0.22340308378E+02  0.00000000000E+00 0. -1.
         25    2    1    2    0    0 -0.24702048341E+01 -0.70976577277E+02  0.14344194889E+04  0.14416063072E+04  0.12500279330E+03 0.  0.
          4    1    3    3  501    0  0.14950033739E+02  0.34060713748E+02  0.35211573181E+03  0.35407730401E+03  0.12700000000E+01 0.  1.
         -4    1    3    3    0  501 -0.17420238573E+02 -0.10503729102E+03  0.10823037571E+04  0.10875290032E+04  0.12700000000E+01 0.  1.
          2    1    1    2  502    0  0.84189093954E+00  0.24983671082E+02 -0.99555260513E+01  0.26907342865E+02  0.00000000000E+00 0. -1.
          1    1    1    2  503    0  0.16283138946E+01  0.45992906195E+02  0.16781594126E+04  0.16787903421E+04  0.00000000000E+00 0. -1.
<mgrwt>
<rscale>  0 0.34653657E+02</rscale>
<asrwt>0</asrwt>
<pdfrwt beam="1">  1        2 0.48076330E+00 0.48039164E+02</pdfrwt>
<pdfrwt beam="2">  1        1 0.34369730E-02 0.24997852E+02</pdfrwt>
<totfact> 0.67862951E+02</totfact>
</mgrwt>
</event>
<event>
 7    1  0.7037933E-004  0.6593231E+02  0.7546771E-02  0.1401673E+00
          1   -1    0    0  502    0 -0.00000000000E+00  0.00000000000E+00  0.10813462753E+04  0.10813462753E+04  0.00000000000E+00 0. -1.
          2   -1    0    0  503    0  0.00000000000E+00 -0.00000000000E+00 -0.25717246343E+03  0.25717246343E+03  0.00000000000E+00 0. -1.
         25    2    1    2    0    0  0.81669246164E+02  0.69064677181E+02 -0.10510707473E+03  0.19522351062E+03  0.12499970616E+03 0.  0.
          4    1    3    3  501    0  0.48602569835E+02 -0.13745842444E+02 -0.92173816828E+02  0.10511319321E+03  0.12700000000E+01 0. -1.
         -4    1    3    3    0  501  0.33066676329E+02  0.82810519624E+02 -0.12933257902E+02  0.90110317411E+02  0.12700000000E+01 0. -1.
          2    1    1    2  502    0 -0.49135703861E+02 -0.19773471645E+02  0.10274044932E+04  0.10287688274E+04  0.00000000000E+00 0. -1.
          1    1    1    2  503    0 -0.32533542303E+02 -0.49291205536E+02 -0.98123606530E+02  0.11452640078E+03  0.00000000000E+00 0. -1.
<mgrwt>
<rscale>  0 0.59094121E+02</rscale>
<asrwt>0</asrwt>
<pdfrwt beam="2">  1        2 0.39564995E-01 0.65932313E+02</pdfrwt>
<pdfrwt beam="1">  1        1 0.16636096E+00 0.52965154E+02</pdfrwt>
<totfact> 0.27097719E+02</totfact>
</mgrwt>
</event>
<event>
 7    1  0.7037933E-004  0.6816923E+02  0.7546771E-02  0.1524808E+00
          2   -1    0    0  503    0  0.00000000000E+00  0.00000000000E+00  0.21205137133E+04  0.21205137133E+04  0.00000000000E+00 0. -1.
          1   -1    0    0  502    0 -0.00000000000E+00 -0.00000000000E+00 -0.10118467143E+04  0.10118467143E+04  0.00000000000E+00 0. -1.
         25    2    1    2    0    0 -0.87878726800E+02  0.28184776918E+01 -0.37860943637E+03  0.40829002286E+03  0.12500009207E+03 0.  0.
          4    1    3    3  501    0 -0.39315368209E+02  0.69420918426E+01 -0.17003671293E+02  0.43412308785E+02  0.12700000000E+01 0. -1.
         -4    1    3    3    0  501 -0.48563358591E+02 -0.41236141508E+01 -0.36160576508E+03  0.36487771408E+03  0.12700000000E+01 0. -1.
          2    1    1    2  502    0  0.20250977080E+02  0.55378116741E+01 -0.61766729950E+03  0.61802399816E+03  0.00000000000E+00 0. -1.
          1    1    1    2  503    0  0.67627749720E+02 -0.83562893659E+01  0.21049437349E+04  0.21060464067E+04  0.00000000000E+00 0. -1.
<mgrwt>
<rscale>  0 0.37830935E+02</rscale>
<asrwt>0</asrwt>
<pdfrwt beam="1">  1        2 0.32623288E+00 0.68169233E+02</pdfrwt>
<pdfrwt beam="2">  1        1 0.15566873E+00 0.20994510E+02</pdfrwt>
<totfact> 0.19198255E+01</totfact>
</mgrwt>
</event>
<event>
 7    1  0.7037933E-004  0.1425480E+03  0.7546771E-02  0.1361653E+00
          1   -1    0    0  502    0 -0.00000000000E+00  0.00000000000E+00  0.17917982606E+04  0.17917982606E+04  0.00000000000E+00 0. -1.
          2   -1    0    0  503    0  0.00000000000E+00 -0.00000000000E+00 -0.17500397413E+04  0.17500397413E+04  0.00000000000E+00 0. -1.
         25    2    1    2    0    0  0.15821850810E+03 -0.31570894254E+02 -0.32344007650E+02  0.20664000660E+03  0.12499655927E+03 0.  0.
          4    1    3    3  501    0  0.78415799622E+02 -0.10139742853E+02 -0.78967090254E+02  0.11175538581E+03  0.12700000000E+01 0.  1.
         -4    1    3    3    0  501  0.79802708479E+02 -0.21431151402E+02  0.46623082604E+02  0.94884620790E+02  0.12700000000E+01 0.  1.
          2    1    1    2  502    0 -0.13190398039E+03  0.52986056931E+02  0.17015097570E+04  0.17074371542E+04  0.00000000000E+00 0. -1.
          1    1    1    2  503    0 -0.26314527715E+02 -0.21415162676E+02 -0.16274072301E+04  0.16277608412E+04  0.00000000000E+00 0. -1.
<mgrwt>
<rscale>  0 0.69543324E+02</rscale>
<asrwt>0</asrwt>
<pdfrwt beam="2">  1        2 0.26923688E+00 0.33927328E+02</pdfrwt>
<pdfrwt beam="1">  1        1 0.27566127E+00 0.14254804E+03</pdfrwt>
<totfact> 0.83501324E+00</totfact>
</mgrwt>
</event>
<event>
 7    1  0.7037933E-004  0.6287072E+02  0.7546771E-02  0.1490000E+00
          2   -1    0    0  503    0  0.00000000000E+00  0.00000000000E+00  0.19023513304E+03  0.19023513304E+03  0.00000000000E+00 0. -1.
          1   -1    0    0  502    0 -0.00000000000E+00 -0.00000000000E+00 -0.22340130155E+03  0.22340130155E+03  0.00000000000E+00 0. -1.
         25    2    1    2    0    0 -0.27362220440E+02 -0.49799929586E+02 -0.22849201346E+02  0.13920119110E+03  0.12500464595E+03 0.  0.
          4    1    3    3  501    0 -0.13111401763E+01 -0.74165624685E+02 -0.54053716370E+02  0.91791481777E+02  0.12700000000E+01 0.  1.
         -4    1    3    3    0  501 -0.26051080263E+02  0.24365695099E+02  0.31204515024E+02  0.47409709326E+02  0.12700000000E+01 0.  1.
          2    1    1    2  502    0  0.25129377352E+02 -0.14163501482E+02 -0.13298325105E+03  0.13607584445E+03  0.00000000000E+00 0. -1.
          1    1    1    2  503    0  0.22328430879E+01  0.63963431068E+02  0.12266628389E+03  0.13835939905E+03  0.00000000000E+00 0. -1.
<mgrwt>
<rscale>  0 0.42585998E+02</rscale>
<asrwt>0</asrwt>
<pdfrwt beam="1">  1        2 0.29266944E-01 0.62870717E+02</pdfrwt>
<pdfrwt beam="2">  1        1 0.34369431E-01 0.28845977E+02</pdfrwt>
<totfact> 0.29113755E+03</totfact>
</mgrwt>
</event>
<event>
 7    1  0.7037933E-004  0.1637561E+03  0.7546771E-02  0.1315731E+00
          2   -1    0    0  503    0  0.00000000000E+00  0.00000000000E+00  0.25480805552E+03  0.25480805552E+03  0.00000000000E+00 0. -1.
          1   -1    0    0  502    0 -0.00000000000E+00 -0.00000000000E+00 -0.64690625063E+03  0.64690625063E+03  0.00000000000E+00 0. -1.
         25    2    1    2    0    0  0.17427370487E+02 -0.13440655202E+03 -0.12032759088E+03  0.22016440539E+03  0.12499920722E+03 0.  0.
          4    1    3    3  501    0 -0.30037438330E+02  0.50785304007E+01 -0.45858978568E+02  0.55069937241E+02  0.12700000000E+01 0. -1.
         -4    1    3    3    0  501  0.47464808818E+02 -0.13948508242E+03 -0.74468612310E+02  0.16509446815E+03  0.12700000000E+01 0. -1.
          2    1    1    2  502    0 -0.47654638299E+02  0.16638328221E+03 -0.45830505232E+03  0.48989578701E+03  0.00000000000E+00 0. -1.
          1    1    1    2  503    0  0.30227267812E+02 -0.31976730198E+02  0.18653444809E+03  0.19165411375E+03  0.00000000000E+00 0. -1.
<mgrwt>
<rscale>  0 0.84886035E+02</rscale>
<asrwt>0</asrwt>
<pdfrwt beam="1">  1        2 0.39201240E-01 0.44002261E+02</pdfrwt>
<pdfrwt beam="2">  1        1 0.99524038E-01 0.16375610E+03</pdfrwt>
<totfact> 0.56002156E+02</totfact>
</mgrwt>
</event>
<event>
 7    1  0.7037933E-004  0.6273364E+02  0.7546771E-02  0.1390182E+00
          2   -1    0    0  503    0  0.00000000000E+00  0.00000000000E+00  0.20567437520E+04  0.20567437520E+04  0.00000000000E+00 0. -1.
          1   -1    0    0  502    0 -0.00000000000E+00 -0.00000000000E+00 -0.29063936489E+03  0.29063936489E+03  0.00000000000E+00 0. -1.
         25    2    1    2    0    0  0.26398537615E+01  0.83898987459E+01  0.24303358933E+03  0.27343871818E+03  0.12500419126E+03 0.  0.
          4    1    3    3  501    0  0.29773611880E+02  0.57826218557E+02  0.96084269906E+02  0.11603507806E+03  0.12700000000E+01 0.  1.
         -4    1    3    3    0  501 -0.27133758119E+02 -0.49436319811E+02  0.14694931942E+03  0.15740364012E+03  0.12700000000E+01 0.  1.
          2    1    1    2  502    0  0.59499366123E+02 -0.19883046169E+02 -0.27130130733E+03  0.27845988841E+03  0.00000000000E+00 0. -1.
          1    1    1    2  503    0 -0.62139219884E+02  0.11493147423E+02  0.17943721052E+04  0.17954845103E+04  0.00000000000E+00 0. -1.
<mgrwt>
<rscale>  0 0.61861412E+02</rscale>
<asrwt>0</asrwt>
<pdfrwt beam="1">  1        2 0.31642211E+00 0.61001308E+02</pdfrwt>
<pdfrwt beam="2">  1        1 0.44713750E-01 0.62733644E+02</pdfrwt>
<totfact> 0.10181360E+02</totfact>
</mgrwt>
</event>
<event>
 7    1  0.7037933E-004  0.1025757E+03  0.7546771E-02  0.1317522E+00
         -2   -1    0    0    0  501  0.00000000000E+00  0.00000000000E+00  0.10986754766E+03  0.10986754766E+03  0.00000000000E+00 0.  1.
         -1   -1    0    0    0  502 -0.00000000000E+00 -0.00000000000E+00 -0.38127131937E+03  0.38127131937E+03  0.00000000000E+00 0.  1.
         25    2    1    2    0    0 -0.16588583025E+02 -0.54706220514E+02 -0.10307094426E+03  0.17180335419E+03  0.12499928524E+03 0.  0.
          4    1    3    3  503    0 -0.39700665689E+02 -0.15880557848E+02 -0.11694233918E+03  0.12452091618E+03  0.12700000000E+01 0.  1.
         -4    1    3    3    0  503  0.23112082664E+02 -0.38825662666E+02  0.13871394924E+02  0.47282438005E+02  0.12700000000E+01 0.  1.
         -2    1    1    2    0  502  0.42335722747E+02  0.11885834874E+03 -0.20527970928E+03  0.24095514007E+03  0.00000000000E+00 0.  1.
         -1    1    1    2    0  501 -0.25747139722E+02 -0.64152128222E+02  0.36946881823E+02  0.78380372771E+02  0.00000000000E+00 0.  1.
<mgrwt>
<rscale>  0 0.84206033E+02</rscale>
<asrwt>0</asrwt>
<pdfrwt beam="1">  1       -2 0.16902700E-01 0.69126050E+02</pdfrwt>
<pdfrwt beam="2">  1       -1 0.58657126E-01 0.10257574E+03</pdfrwt>
<totfact> 0.60455125E+02</totfact>
</mgrwt>
</event>
<event>
 7    1  0.7037933E-004  0.1188214E+03  0.7546771E-02  0.1279691E+00
          2   -1    0    0  503    0  0.00000000000E+00  0.00000000000E+00  0.23483138302E+04  0.23483138302E+04  0.00000000000E+00 0. -1.
         -2   -1    0    0    0  501 -0.00000000000E+00 -0.00000000000E+00 -0.43456971327E+02  0.43456971327E+02  0.00000000000E+00 0.  1.
         25    2    1    2    0    0  0.13916496976E+03 -0.12938921268E+03  0.10953419791E+04  0.11187065126E+04  0.12498701192E+03 0.  0.
          4    1    3    3  502    0  0.23462051426E+01 -0.59538604073E+02  0.15814840351E+03  0.16900556348E+03  0.12700000000E+01 0. -1.
         -4    1    3    3    0  502  0.13681876462E+03 -0.69850608608E+02  0.93719357557E+03  0.94970094917E+03  0.12700000000E+01 0. -1.
          1    1    1    2  503    0 -0.41310287730E+02  0.73880896541E+02  0.11349346270E+04  0.11380867868E+04  0.00000000000E+00 0. -1.
         -1    1    1    2    0  501 -0.97854682033E+02  0.55508316140E+02  0.74580252788E+02  0.13497750206E+03  0.00000000000E+00 0.  1.
<mgrwt>
<rscale>  0 0.10028830E+03</rscale>
<asrwt>0</asrwt>
<pdfrwt beam="1">  1        2 0.36127895E+00 0.84645890E+02</pdfrwt>
<pdfrwt beam="2">  1       -2 0.66856897E-02 0.11882139E+03</pdfrwt>
<totfact> 0.65957941E+02</totfact>
</mgrwt>
</event>
<event>
 7    1  0.7037933E-004  0.9191889E+02  0.7546771E-02  0.1354064E+00
         -1   -1    0    0    0  501 -0.00000000000E+00  0.00000000000E+00  0.96807468484E+03  0.96807468484E+03  0.00000000000E+00 0.  1.
          1   -1    0    0  503    0  0.00000000000E+00 -0.00000000000E+00 -0.32114769488E+03  0.32114769488E+03  0.00000000000E+00 0. -1.
         25    2    1    2    0    0 -0.41030588413E+02  0.16958125941E+02  0.20673832024E+03  0.24563435471E+03  0.12499766372E+03 0.  0.
          4    1    3    3  502    0 -0.60898784570E+02  0.66237365686E+01  0.31365319401E+02  0.68832637675E+02  0.12700000000E+01 0. -1.
         -4    1    3    3    0  502  0.19868196156E+02  0.10334389372E+02  0.17537300084E+03  0.17680171704E+03  0.12700000000E+01 0. -1.
          2    1    1    2  503    0 -0.54319479573E+02  0.13983975191E+02 -0.29566456380E+03  0.30093801972E+03  0.00000000000E+00 0. -1.
         -2    1    1    2    0  501  0.95350067986E+02 -0.30942101132E+02  0.73585323352E+03  0.74265000530E+03  0.00000000000E+00 0.  1.
<mgrwt>
<rscale>  0 0.71803812E+02</rscale>
<asrwt>0</asrwt>
<pdfrwt beam="2">  1        1 0.49407338E-01 0.56090618E+02</pdfrwt>
<pdfrwt beam="1">  1       -1 0.14893457E+00 0.91918891E+02</pdfrwt>
<totfact> 0.33757759E+01</totfact>
</mgrwt>
</event>
<event>
 7    1  0.7037933E-004  0.7006965E+02  0.7546771E-02  0.1411057E+00
          1   -1    0    0  503    0  0.00000000000E+00  0.00000000000E+00  0.27434770625E+03  0.27434770625E+03  0.00000000000E+00 0. -1.
         -3   -1    0    0    0  501 -0.00000000000E+00 -0.00000000000E+00 -0.22665802103E+04  0.22665802103E+04  0.00000000000E+00 0.  1.
         25    2    1    2    0    0 -0.21301855126E+02  0.86897564118E+02 -0.67074520310E+03  0.68813424805E+03  0.12499864067E+03 0.  0.
          4    1    3    3  502    0 -0.73963398035E+02  0.54184148475E+02 -0.40489382865E+03  0.41514712039E+03  0.12700000000E+01 0.  1.
         -4    1    3    3    0  502  0.52661542909E+02  0.32713415643E+02 -0.26585137446E+03  0.27298712765E+03  0.12700000000E+01 0.  1.
          2    1    1    2  503    0  0.41497532632E+02 -0.20536226493E+02  0.26287105518E+03  0.26691754057E+03  0.00000000000E+00 0. -1.
         -2    1    1    2    0  501 -0.20195677505E+02 -0.66361337626E+02 -0.15843583561E+04  0.15858761279E+04  0.00000000000E+00 0.  1.
<mgrwt>
<rscale>  0 0.56958708E+02</rscale>
<asrwt>0</asrwt>
<pdfrwt beam="1">  1        1 0.42207341E-01 0.46300991E+02</pdfrwt>
<pdfrwt beam="2">  1       -3 0.34870464E+00 0.70069653E+02</pdfrwt>
<totfact> 0.14483972E+00</totfact>
</mgrwt>
</event>
<event>
 7    1  0.7037933E-004  0.7786984E+02  0.7546771E-02  0.1421929E+00
         -2   -1    0    0    0  501 -0.00000000000E+00  0.00000000000E+00  0.26549723922E+02  0.26549723922E+02  0.00000000000E+00 0.  1.
          2   -1    0    0  503    0  0.00000000000E+00 -0.00000000000E+00 -0.13419117349E+04  0.13419117349E+04  0.00000000000E+00 0. -1.
         25    2    1    2    0    0  0.45326465320E+02 -0.64326381834E+02 -0.21232286361E+03  0.25863184746E+03  0.12496824497E+03 0.  0.
          4    1    3    3  502    0  0.84479227574E+02 -0.38246005080E+02 -0.97622533556E+02  0.13465239973E+03  0.12700000000E+01 0. -1.
         -4    1    3    3    0  502 -0.39152762254E+02 -0.26080376754E+02 -0.11470033005E+03  0.12397944772E+03  0.12700000000E+01 0. -1.
          3    1    1    2  503    0 -0.34283114713E+02 -0.17085919576E+02 -0.26168304981E+03  0.26447169822E+03  0.00000000000E+00 0. -1.
         -3    1    1    2    0  501 -0.11043350606E+02  0.81412301411E+02 -0.84135609755E+03  0.84535791313E+03  0.00000000000E+00 0.  1.
<mgrwt>
<rscale>  0 0.54614938E+02</rscale>
<asrwt>0</asrwt>
<pdfrwt beam="2">  1        2 0.20644798E+00 0.38304838E+02</pdfrwt>
<pdfrwt beam="1">  1       -2 0.40845724E-02 0.77869837E+02</pdfrwt>
<totfact> 0.45304433E+03</totfact>
</mgrwt>
</event>
<event>
 7    1  0.7037933E-004  0.1190216E+03  0.7546771E-02  0.1280172E+00
          1   -1    0    0  502    0 -0.00000000000E+00  0.00000000000E+00  0.11671548632E+04  0.11671548632E+04  0.00000000000E+00 0. -1.
          2   -1    0    0  503    0  0.00000000000E+00 -0.00000000000E+00 -0.29714434767E+03  0.29714434767E+03  0.00000000000E+00 0. -1.
         25    2    1    2    0    0  0.84379700669E+02  0.21893609704E+02  0.26805447646E+03  0.30834901101E+03  0.12500658465E+03 0.  0.
          4    1    3    3  501    0  0.81633326386E+02 -0.11693000787E+01  0.27267175255E+03  0.28463461627E+03  0.12700000000E+01 0. -1.
         -4    1    3    3    0  501  0.27463742834E+01  0.23062909783E+02 -0.46172760866E+01  0.23714394739E+02  0.12700000000E+01 0. -1.
          2    1    1    2  502    0 -0.20498481270E+02  0.81581570721E+02  0.86346345490E+03  0.86755108113E+03  0.00000000000E+00 0. -1.
          1    1    1    2  503    0 -0.63881219399E+02 -0.10347518043E+03 -0.26150741583E+03  0.28839911874E+03  0.00000000000E+00 0. -1.
<mgrwt>
<rscale>  0 0.10005895E+03</rscale>
<asrwt>0</asrwt>
<pdfrwt beam="2">  1        2 0.45714516E-01 0.11902164E+03</pdfrwt>
<pdfrwt beam="1">  1        1 0.17956228E+00 0.84117420E+02</pdfrwt>
<totfact> 0.19802077E+02</totfact>
</mgrwt>
</event>
<event>
 7    1  0.7037933E-004  0.1256904E+03  0.7546771E-02  0.1261403E+00
          2   -1    0    0  503    0  0.00000000000E+00  0.00000000000E+00  0.16191098185E+04  0.16191098185E+04  0.00000000000E+00 0. -1.
          1   -1    0    0  502    0 -0.00000000000E+00 -0.00000000000E+00 -0.28864698451E+03  0.28864698451E+03  0.00000000000E+00 0. -1.
         25    2    1    2    0    0 -0.49034910783E+02 -0.28966570569E+02  0.95059840936E+02  0.16704701572E+03  0.12499938966E+03 0.  0.
          4    1    3    3  501    0 -0.45267959228E+02 -0.74553960993E+02  0.41494207818E+02  0.96596394420E+02  0.12700000000E+01 0. -1.
         -4    1    3    3    0  501 -0.37669515547E+01  0.45587390424E+02  0.53565633118E+02  0.70450621296E+02  0.12700000000E+01 0. -1.
          2    1    1    2  502    0  0.13649599018E+03 -0.93458447064E+01 -0.23246589281E+03  0.26973856133E+03  0.00000000000E+00 0. -1.
          1    1    1    2  503    0 -0.87461079396E+02  0.38312415275E+02  0.14678688858E+04  0.14709712259E+04  0.00000000000E+00 0. -1.
<mgrwt>
<rscale>  0 0.10955128E+03</rscale>
<asrwt>0</asrwt>
<pdfrwt beam="1">  1        2 0.24909381E+00 0.95484457E+02</pdfrwt>
<pdfrwt beam="2">  1        1 0.44407229E-01 0.12569044E+03</pdfrwt>
<totfact> 0.16218519E+02</totfact>
</mgrwt>
</event>
<event>
 7    1  0.7037933E-004  0.9243885E+02  0.7546771E-02  0.1346607E+00
          2   -1    0    0  503    0  0.00000000000E+00  0.00000000000E+00  0.15236806572E+03  0.15236806572E+03  0.00000000000E+00 0. -1.
          1   -1    0    0  502    0 -0.00000000000E+00 -0.00000000000E+00 -0.45224321396E+03  0.45224321396E+03  0.00000000000E+00 0. -1.
         25    2    1    2    0    0 -0.40342569853E+02 -0.27642384703E+02 -0.90026547498E+02  0.16162217202E+03  0.12500129143E+03 0.  0.
          4    1    3    3  501    0  0.12798934040E+02 -0.59223973708E+02 -0.77758067457E+02  0.98586113267E+02  0.12700000000E+01 0. -1.
         -4    1    3    3    0  501 -0.53141503893E+02  0.31581589005E+02 -0.12268480041E+02  0.63036058749E+02  0.12700000000E+01 0. -1.
          2    1    1    2  502    0  0.60675533025E+02  0.83493386753E+02 -0.30988845775E+03  0.32662443599E+03  0.00000000000E+00 0. -1.
          1    1    1    2  503    0 -0.20332963171E+02 -0.55851002050E+02  0.10003985701E+03  0.11636467167E+03  0.00000000000E+00 0. -1.
<mgrwt>
<rscale>  0 0.74123500E+02</rscale>
<asrwt>0</asrwt>
<pdfrwt beam="1">  1        2 0.23441241E-01 0.59437058E+02</pdfrwt>
<pdfrwt beam="2">  1        1 0.69575879E-01 0.92438849E+02</pdfrwt>
<totfact> 0.15805719E+03</totfact>
</mgrwt>
</event>
<event>
 7    1  0.1096904E-003  0.5063562E+02  0.7546771E-02  0.1466636E+00
          2   -1    0    0  503    0  0.00000000000E+00  0.00000000000E+00  0.62835309351E+03  0.62835309351E+03  0.00000000000E+00 0. -1.
         -2   -1    0    0    0  501 -0.00000000000E+00 -0.00000000000E+00 -0.28929204149E+02  0.28929204149E+02  0.00000000000E+00 0.  1.
         25    2    1    2    0    0 -0.89587345385E+01 -0.79196362321E+02  0.30536286364E+03  0.33944520443E+03  0.12499698232E+03 0.  0.
          4    1    3    3  502    0 -0.46064434336E+02 -0.94942769179E+02  0.19155125647E+03  0.21869969887E+03  0.12700000000E+01 0. -1.
         -4    1    3    3    0  502  0.37105699797E+02  0.15746406858E+02  0.11381160717E+03  0.12074550556E+03  0.12700000000E+01 0. -1.
          3    1    1    2  503    0  0.25558268763E+02  0.40333732666E+02  0.25770427268E+03  0.26209068516E+03  0.00000000000E+00 0. -1.
         -3    1    1    2    0  501 -0.16599534225E+02  0.38862629655E+02  0.36356753036E+02  0.55746408059E+02  0.00000000000E+00 0.  1.
<mgrwt>
<rscale>  0 0.46258254E+02</rscale>
<asrwt>0</asrwt>
<pdfrwt beam="1">  1        2 0.96669697E-01 0.50635623E+02</pdfrwt>
<pdfrwt beam="2">  1       -2 0.44506473E-02 0.42259301E+02</pdfrwt>
<totfact> 0.96380195E+03</totfact>
</mgrwt>
</event>
<event>
 7    1  0.7037933E-004  0.5196038E+02  0.7546771E-02  0.1480815E+00
          2   -1    0    0  503    0  0.00000000000E+00  0.00000000000E+00  0.19614405282E+04  0.19614405282E+04  0.00000000000E+00 0. -1.
         -2   -1    0    0    0  501 -0.00000000000E+00 -0.00000000000E+00 -0.26447820293E+02  0.26447820293E+02  0.00000000000E+00 0.  1.
         25    2    1    2    0    0  0.25446313406E+02 -0.66608817861E+02  0.44848812623E+03  0.47101081210E+03  0.12500134504E+03 0.  0.
          4    1    3    3  502    0  0.22404502675E+02 -0.10323344563E+03  0.36014286112E+03  0.37531799764E+03  0.12700000000E+01 0.  1.
         -4    1    3    3    0  502  0.30418107315E+01  0.36624627770E+02  0.88345265114E+02  0.95692814463E+02  0.12700000000E+01 0.  1.
          1    1    1    2  503    0  0.82934439940E+01  0.50883313741E+02  0.14777349453E+04  0.14786339849E+04  0.00000000000E+00 0. -1.
         -1    1    1    2    0  501 -0.33739757400E+02  0.15725504121E+02  0.87696364283E+01  0.38243551514E+02  0.00000000000E+00 0.  1.
<mgrwt>
<rscale>  0 0.43979527E+02</rscale>
<asrwt>0</asrwt>
<pdfrwt beam="1">  1        2 0.30175997E+00 0.51960383E+02</pdfrwt>
<pdfrwt beam="2">  1       -2 0.40688970E-02 0.37224491E+02</pdfrwt>
<totfact> 0.20145282E+03</totfact>
</mgrwt>
</event>
<event>
 7    1  0.7037933E-004  0.8459649E+02  0.7546771E-02  0.1461574E+00
          1   -1    0    0  502    0 -0.00000000000E+00  0.00000000000E+00  0.49757162015E+03  0.49757162015E+03  0.00000000000E+00 0. -1.
          2   -1    0    0  503    0  0.00000000000E+00 -0.00000000000E+00 -0.26185569754E+04  0.26185569754E+04  0.00000000000E+00 0. -1.
         25    2    1    2    0    0  0.42129411898E+02  0.67882289581E+02  0.97513415248E+02  0.17752472724E+03  0.12499307998E+03 0.  0.
          4    1    3    3  501    0  0.11224688177E+02 -0.36292644262E+02  0.14133433089E+02  0.40552638423E+02  0.12700000000E+01 0.  1.
         -4    1    3    3    0  501  0.30904723721E+02  0.10417493384E+03  0.83379982159E+02  0.13697208881E+03  0.12700000000E+01 0.  1.
          2    1    1    2  502    0  0.22592550517E+02 -0.13338712835E+02  0.35887897895E+03  0.35983672148E+03  0.00000000000E+00 0. -1.
          1    1    1    2  503    0 -0.64721962415E+02 -0.54543576746E+02 -0.25773777495E+04  0.25787671468E+04  0.00000000000E+00 0. -1.
<mgrwt>
<rscale>  0 0.47111578E+02</rscale>
<asrwt>0</asrwt>
<pdfrwt beam="2">  1        2 0.40285492E+00 0.84596490E+02</pdfrwt>
<pdfrwt beam="1">  1        1 0.76549480E-01 0.26236322E+02</pdfrwt>
<totfact> 0.26561997E+01</totfact>
</mgrwt>
</event>
<event>
 7    1  0.7037933E-004  0.1252039E+03  0.7546771E-02  0.1337891E+00
          1   -1    0    0  502    0 -0.00000000000E+00  0.00000000000E+00  0.75337560923E+02  0.75337560923E+02  0.00000000000E+00 0. -1.
          2   -1    0    0  503    0  0.00000000000E+00 -0.00000000000E+00 -0.49935817086E+03  0.49935817086E+03  0.00000000000E+00 0. -1.
         25    2    1    2    0    0 -0.90732889161E+02  0.40132665658E+02 -0.87136954042E+02  0.18182669085E+03  0.12500003487E+03 0.  0.
          4    1    3    3  501    0 -0.10744368702E+03  0.46451413893E+02 -0.10447201689E+03  0.15690090805E+03  0.12700000000E+01 0.  1.
         -4    1    3    3    0  501  0.16710797855E+02 -0.63187482346E+01  0.17335062851E+02  0.24925782801E+02  0.12700000000E+01 0.  1.
          2    1    1    2  502    0 -0.41742429419E+02 -0.22270953511E+02 -0.24922756918E+02  0.53474943632E+02  0.00000000000E+00 0. -1.
          1    1    1    2  503    0  0.13247531858E+03 -0.17861712147E+02 -0.31196089897E+03  0.33939409730E+03  0.00000000000E+00 0. -1.
<mgrwt>
<rscale>  0 0.76965242E+02</rscale>
<asrwt>0</asrwt>
<pdfrwt beam="2">  1        2 0.76824333E-01 0.12520392E+03</pdfrwt>
<pdfrwt beam="1">  1        1 0.11590394E-01 0.47312005E+02</pdfrwt>
<totfact> 0.40634037E+03</totfact>
</mgrwt>
</event>
<event>
 7    1  0.7037933E-004  0.5657595E+02  0.7546771E-02  0.1446465E+00
          1   -1    0    0  502    0 -0.00000000000E+00  0.00000000000E+00  0.11397036418E+03  0.11397036418E+03  0.00000000000E+00 0. -1.
          2   -1    0    0  503    0  0.00000000000E+00 -0.00000000000E+00 -0.89741963382E+03  0.89741963382E+03  0.00000000000E+00 0. -1.
         25    2    1    2    0    0 -0.20967421812E+02 -0.41386864528E+02 -0.47395693924E+03  0.49235513677E+03  0.12500358039E+03 0.  0.
          4    1    3    3  501    0 -0.52634972211E+02 -0.25833503231E+01 -0.83843696399E+02  0.99037832793E+02  0.12700000000E+01 0. -1.
         -4    1    3    3    0  501  0.31667550399E+02 -0.38803514205E+02 -0.39011324284E+03  0.39331730397E+03  0.12700000000E+01 0. -1.
          2    1    1    2  502    0 -0.38006847589E+02  0.21813982553E+02  0.97726781896E+02  0.10710226047E+03  0.00000000000E+00 0. -1.
          1    1    1    2  503    0  0.58974269400E+02  0.19572881975E+02 -0.40721911229E+03  0.41193260076E+03  0.00000000000E+00 0. -1.
<mgrwt>
<rscale>  0 0.49792300E+02</rscale>
<asrwt>0</asrwt>
<pdfrwt beam="2">  1        2 0.13806456E+00 0.56575955E+02</pdfrwt>
<pdfrwt beam="1">  1        1 0.17533902E-01 0.43822030E+02</pdfrwt>
<totfact> 0.12513283E+03</totfact>
</mgrwt>
</event>
<event>
 7    1  0.7037933E-004  0.5161079E+02  0.7546771E-02  0.1534282E+00
          2   -1    0    0  503    0  0.00000000000E+00  0.00000000000E+00  0.12529458862E+03  0.12529458862E+03  0.00000000000E+00 0. -1.
          1   -1    0    0  502    0 -0.00000000000E+00 -0.00000000000E+00 -0.12306619257E+04  0.12306619257E+04  0.00000000000E+00 0. -1.
         25    2    1    2    0    0  0.26980185141E+01  0.35273668613E+02 -0.40246117254E+03  0.42290921237E+03  0.12500278200E+03 0.  0.
          4    1    3    3  501    0 -0.22479514119E+02  0.61146840625E+02 -0.10722623749E+03  0.12547248136E+03  0.12700000000E+01 0.  1.
         -4    1    3    3    0  501  0.25177532633E+02 -0.25873172012E+02 -0.29523493505E+03  0.29743673101E+03  0.12700000000E+01 0.  1.
          2    1    1    2  502    0 -0.22819460092E+02  0.12563179394E+02 -0.81190593382E+03  0.81232370801E+03  0.00000000000E+00 0. -1.
          1    1    1    2  503    0  0.20121441578E+02 -0.47836848007E+02  0.10899976925E+03  0.12072359395E+03  0.00000000000E+00 0. -1.
<mgrwt>
<rscale>  0 0.36666338E+02</rscale>
<asrwt>0</asrwt>
<pdfrwt beam="1">  1        2 0.19276090E-01 0.51610795E+02</pdfrwt>
<pdfrwt beam="2">  1        1 0.18933261E+00 0.26049208E+02</pdfrwt>
<totfact> 0.48948224E+02</totfact>
</mgrwt>
</event>
<event>
 7    1  0.7037933E-004  0.3444528E+03  0.7546771E-02  0.1189164E+00
          1   -1    0    0  502    0 -0.00000000000E+00  0.00000000000E+00  0.22589103827E+04  0.22589103827E+04  0.00000000000E+00 0. -1.
          2   -1    0    0  503    0  0.00000000000E+00 -0.00000000000E+00 -0.71460279211E+03  0.71460279211E+03  0.00000000000E+00 0. -1.
         25    2    1    2    0    0  0.22132927037E+03 -0.19631247979E+03  0.73295804084E+02  0.32942493204E+03  0.12499310104E+03 0.  0.
          4    1    3    3  501    0  0.46563739101E+02 -0.51759924204E+02  0.75367326749E+02  0.10261149250E+03  0.12700000000E+01 0.  1.
         -4    1    3    3    0  501  0.17476553127E+03 -0.14455255558E+03 -0.20715226648E+01  0.22681343953E+03  0.12700000000E+01 0.  1.
          2    1    1    2  502    0  0.73617794199E+02 -0.68696874785E+01  0.20021285792E+04  0.20034933541E+04  0.00000000000E+00 0. -1.
          1    1    1    2  503    0 -0.29494706457E+03  0.20318216727E+03 -0.53111679267E+03  0.64059488872E+03  0.00000000000E+00 0. -1.
<mgrwt>
<rscale>  0 0.15958704E+03</rscale>
<asrwt>0</asrwt>
<pdfrwt beam="2">  1        2 0.10993889E+00 0.34445283E+03</pdfrwt>
<pdfrwt beam="1">  1        1 0.34752467E+00 0.73937624E+02</pdfrwt>
<totfact> 0.15136311E+01</totfact>
</mgrwt>
</event>
<event>
 7    1  0.7037933E-004  0.8628143E+02  0.7546771E-02  0.1476760E+00
          2   -1    0    0  503    0  0.00000000000E+00  0.00000000000E+00  0.75110993500E+03  0.75110993500E+03  0.00000000000E+00 0. -1.
          1   -1    0    0  502    0 -0.00000000000E+00 -0.00000000000E+00 -0.17698413646E+03  0.17698413646E+03  0.00000000000E+00 0. -1.
         25    2    1    2    0    0 -0.42954263140E+02 -0.48173273126E+02  0.18573950373E+03  0.23299680131E+03  0.12499045247E+03 0.  0.
          4    1    3    3  501    0 -0.31538927624E+02 -0.41803453382E+01 -0.89455620718E+01  0.33072877462E+02  0.12700000000E+01 0. -1.
         -4    1    3    3    0  501 -0.11415335516E+02 -0.43992927788E+02  0.19468506581E+03  0.19992392385E+03  0.12700000000E+01 0. -1.
          2    1    1    2  502    0  0.57259485751E+02  0.66272363438E+02 -0.14057880772E+03  0.16562933329E+03  0.00000000000E+00 0. -1.
          1    1    1    2  503    0 -0.14305222611E+02 -0.18099090312E+02  0.52896510253E+03  0.52946793686E+03  0.00000000000E+00 0. -1.
<mgrwt>
<rscale>  0 0.44614983E+02</rscale>
<asrwt>0</asrwt>
<pdfrwt beam="1">  1        2 0.11555537E+00 0.23069817E+02</pdfrwt>
<pdfrwt beam="2">  1        1 0.27228329E-01 0.86281425E+02</pdfrwt>
<totfact> 0.95281743E+02</totfact>
</mgrwt>
</event>
<event>
 7    1  0.7037933E-004  0.1297303E+03  0.7546771E-02  0.1294384E+00
          1   -1    0    0  503    0  0.00000000000E+00  0.00000000000E+00  0.39217208169E+04  0.39217208169E+04  0.00000000000E+00 0. -1.
         -1   -1    0    0    0  501 -0.00000000000E+00 -0.00000000000E+00 -0.43727540175E+02  0.43727540175E+02  0.00000000000E+00 0.  1.
         25    2    1    2    0    0  0.12365961854E+03  0.65216495433E+00  0.27424715846E+03  0.32577443742E+03  0.12500141428E+03 0.  0.
          4    1    3    3  502    0  0.10979005867E+03 -0.70728756008E+01  0.28570266250E+03  0.30615601710E+03  0.12700000000E+01 0.  1.
         -4    1    3    3    0  502  0.13869559877E+02  0.77250405551E+01 -0.11455504037E+02  0.19618420311E+02  0.12700000000E+01 0.  1.
          2    1    1    2  503    0  0.25691914136E+01  0.67468476833E+02  0.33294805184E+04  0.33301650288E+04  0.00000000000E+00 0. -1.
         -2    1    1    2    0  501 -0.12622880996E+03 -0.68120641787E+02  0.27426559986E+03  0.30950889093E+03  0.00000000000E+00 0.  1.
<mgrwt>
<rscale>  0 0.93589783E+02</rscale>
<asrwt>0</asrwt>
<pdfrwt beam="1">  1        1 0.60334139E+00 0.67517376E+02</pdfrwt>
<pdfrwt beam="2">  1       -1 0.67273170E-02 0.12973027E+03</pdfrwt>
<totfact> 0.20805064E+01</totfact>
</mgrwt>
</event>
<event>
 7    1  0.7037933E-004  0.1544247E+03  0.7546771E-02  0.1385999E+00
          2   -1    0    0  503    0  0.00000000000E+00  0.00000000000E+00  0.85483423097E+03  0.85483423097E+03  0.00000000000E+00 0. -1.
          1   -1    0    0  502    0 -0.00000000000E+00 -0.00000000000E+00 -0.38913763290E+03  0.38913763290E+03  0.00000000000E+00 0. -1.
         25    2    1    2    0    0 -0.52194563064E+01 -0.15963123193E+03 -0.20121652988E+03  0.28569709638E+03  0.12500146420E+03 0.  0.
          4    1    3    3  501    0 -0.41415587009E+02 -0.15399435446E+03 -0.13056317356E+03  0.20610159447E+03  0.12700000000E+01 0.  1.
         -4    1    3    3    0  501  0.36196130703E+02 -0.56368774739E+01 -0.70653356318E+02  0.79595501911E+02  0.12700000000E+01 0.  1.
          2    1    1    2  502    0  0.24779366433E+02  0.65511436905E+01 -0.13715576616E+03  0.13953006370E+03  0.00000000000E+00 0. -1.
          1    1    1    2  503    0 -0.19559910126E+02  0.15308008824E+03  0.80406889411E+03  0.81874470378E+03  0.00000000000E+00 0. -1.
<mgrwt>
<rscale>  0 0.62912783E+02</rscale>
<asrwt>0</asrwt>
<pdfrwt beam="1">  1        2 0.13151296E+00 0.15442470E+03</pdfrwt>
<pdfrwt beam="2">  1        1 0.59867328E-01 0.25630733E+02</pdfrwt>
<totfact> 0.29267472E+02</totfact>
</mgrwt>
</event>
<event>
 7    1  0.7037933E-004  0.4427256E+02  0.7546771E-02  0.1479662E+00
          2   -1    0    0  503    0  0.00000000000E+00  0.00000000000E+00  0.31560375871E+03  0.31560375871E+03  0.00000000000E+00 0. -1.
          1   -1    0    0  502    0 -0.00000000000E+00 -0.00000000000E+00 -0.35528200478E+03  0.35528200478E+03  0.00000000000E+00 0. -1.
         25    2    1    2    0    0 -0.32767333550E+02 -0.21636684435E+01 -0.75837980078E+02  0.14985130565E+03  0.12500253987E+03 0.  0.
          4    1    3    3  501    0 -0.53726605655E+02 -0.51250515458E+02 -0.55541227435E+02  0.92734051647E+02  0.12700000000E+01 0.  1.
         -4    1    3    3    0  501  0.20959272105E+02  0.49086847015E+02 -0.20296752643E+02  0.57117254003E+02  0.12700000000E+01 0.  1.
          2    1    1    2  502    0  0.21269031128E+02 -0.40589681755E+02 -0.23848326680E+03  0.24284596454E+03  0.00000000000E+00 0. -1.
          1    1    1    2  503    0  0.11498302422E+02  0.42753350198E+02  0.27464300081E+03  0.27818849330E+03  0.00000000000E+00 0. -1.
<mgrwt>
<rscale>  0 0.44158861E+02</rscale>
<asrwt>0</asrwt>
<pdfrwt beam="1">  1        2 0.48554425E-01 0.44272564E+02</pdfrwt>
<pdfrwt beam="2">  1        1 0.54658770E-01 0.44045450E+02</pdfrwt>
<totfact> 0.99696363E+02</totfact>
</mgrwt>
</event>
<event>
 7    1  0.7037933E-004  0.7065460E+02  0.7546771E-02  0.1406772E+00
          2   -1    0    0  503    0  0.00000000000E+00  0.00000000000E+00  0.73815042298E+03  0.73815042298E+03  0.00000000000E+00 0. -1.
          1   -1    0    0  502    0 -0.00000000000E+00 -0.00000000000E+00 -0.78316172005E+03  0.78316172005E+03  0.00000000000E+00 0. -1.
         25    2    1    2    0    0  0.32241968377E+02  0.71715345734E+02  0.35043201245E+03  0.38026586578E+03  0.12496758776E+03 0.  0.
          4    1    3    3  501    0  0.18720391169E+02  0.15332575224E+02  0.30663510441E+03  0.30759102891E+03  0.12700000000E+01 0.  1.
         -4    1    3    3    0  501  0.13521577207E+02  0.56382770510E+02  0.43796908037E+02  0.72674836871E+02  0.12700000000E+01 0.  1.
          2    1    1    2  502    0  0.15163917121E+02 -0.69042219476E+02 -0.76509706243E+03  0.76835557354E+03  0.00000000000E+00 0. -1.
          1    1    1    2  503    0 -0.47405885497E+02 -0.26731262584E+01  0.36965375292E+03  0.37269070371E+03  0.00000000000E+00 0. -1.
<mgrwt>
<rscale>  0 0.57920330E+02</rscale>
<asrwt>0</asrwt>
<pdfrwt beam="1">  1        2 0.11356160E+00 0.47481192E+02</pdfrwt>
<pdfrwt beam="2">  1        1 0.12048642E+00 0.70654601E+02</pdfrwt>
<totfact> 0.14487387E+02</totfact>
</mgrwt>
</event>
<event>
 7    1  0.7037933E-004  0.5553773E+02  0.7546771E-02  0.1476462E+00
          1   -1    0    0  502    0 -0.00000000000E+00  0.00000000000E+00  0.70048573775E+03  0.70048573775E+03  0.00000000000E+00 0. -1.
          2   -1    0    0  503    0  0.00000000000E+00 -0.00000000000E+00 -0.16200986634E+04  0.16200986634E+04  0.00000000000E+00 0. -1.
         25    2    1    2    0    0  0.36540488686E+02 -0.69122995757E+00 -0.19584026401E+01  0.13024173609E+03  0.12499355730E+03 0.  0.
          4    1    3    3  501    0  0.34164228292E+02 -0.30481854196E+02 -0.53635642992E+02  0.70531787367E+02  0.12700000000E+01 0.  1.
         -4    1    3    3    0  501  0.23762603939E+01  0.29790624239E+02  0.51677240352E+02  0.59709948722E+02  0.12700000000E+01 0.  1.
          2    1    1    2  502    0 -0.42919923699E+02  0.36036379246E+02  0.63490207753E+03  0.63737068377E+03  0.00000000000E+00 0. -1.
          1    1    1    2  503    0  0.63794350128E+01 -0.35345149288E+02 -0.15525566005E+04  0.15529719813E+04  0.00000000000E+00 0. -1.
<mgrwt>
<rscale>  0 0.44662139E+02</rscale>
<asrwt>0</asrwt>
<pdfrwt beam="2">  1        2 0.24924595E+00 0.35916247E+02</pdfrwt>
<pdfrwt beam="1">  1        1 0.10776704E+00 0.55537726E+02</pdfrwt>
<totfact> 0.58271140E+01</totfact>
</mgrwt>
</event>
<event>
 7    1  0.7037933E-004  0.7696787E+02  0.7546771E-02  0.1363715E+00
          2   -1    0    0  503    0  0.00000000000E+00  0.00000000000E+00  0.12845158017E+03  0.12845158017E+03  0.00000000000E+00 0. -1.
          1   -1    0    0  502    0 -0.00000000000E+00 -0.00000000000E+00 -0.16935289150E+04  0.16935289150E+04  0.00000000000E+00 0. -1.
         25    2    1    2    0    0  0.40072373232E+02 -0.21331965163E+02 -0.16547418167E+03  0.21228823057E+03  0.12499496073E+03 0.  0.
          4    1    3    3  501    0 -0.10739744051E+02  0.86268360207E+01  0.16182930177E+02  0.21290010125E+02  0.12700000000E+01 0.  1.
         -4    1    3    3    0  501  0.50812117283E+02 -0.29958801184E+02 -0.18165711184E+03  0.19099822045E+03  0.12700000000E+01 0.  1.
          2    1    1    2  502    0 -0.72767043451E+02 -0.31063795131E+02 -0.14944321631E+04  0.14965251392E+04  0.00000000000E+00 0. -1.
          1    1    1    2  503    0  0.32694670218E+02  0.52395760294E+02  0.94829009940E+02  0.11316712546E+03  0.00000000000E+00 0. -1.
<mgrwt>
<rscale>  0 0.68945708E+02</rscale>
<asrwt>0</asrwt>
<pdfrwt beam="1">  1        2 0.19761783E-01 0.61759673E+02</pdfrwt>
<pdfrwt beam="2">  1        1 0.26054289E+00 0.76967873E+02</pdfrwt>
<totfact> 0.22123308E+02</totfact>
</mgrwt>
</event>
<event>
 7    1  0.7037933E-004  0.3155535E+03  0.7546771E-02  0.1179141E+00
          2   -1    0    0  503    0  0.00000000000E+00  0.00000000000E+00  0.10871186632E+04  0.10871186632E+04  0.00000000000E+00 0. -1.
          1   -1    0    0  502    0 -0.00000000000E+00 -0.00000000000E+00 -0.20328741122E+04  0.20328741122E+04  0.00000000000E+00 0. -1.
         25    2    1    2    0    0  0.12003566308E+03  0.38358402514E+03 -0.90246362939E+03  0.99579584243E+03  0.12499397054E+03 0.  0.
          4    1    3    3  501    0  0.38357267828E+02  0.11659720909E+02 -0.88436623874E+02  0.97107561132E+02  0.12700000000E+01 0.  1.
         -4    1    3    3    0  501  0.81678395256E+02  0.37192430423E+03 -0.81402700552E+03  0.89868828130E+03  0.12700000000E+01 0.  1.
          2    1    1    2  502    0 -0.11662380296E+02 -0.89503487044E+02 -0.10581771949E+04  0.10620197084E+04  0.00000000000E+00 0. -1.
          3    1    1    2  503    0 -0.10837328279E+03 -0.29408053810E+03  0.10148853753E+04  0.10621772245E+04  0.00000000000E+00 0. -1.
<mgrwt>
<rscale>  0 0.16876578E+03</rscale>
<asrwt>0</asrwt>
<pdfrwt beam="1">  1        2 0.16724903E+00 0.31555349E+03</pdfrwt>
<pdfrwt beam="2">  1        1 0.31274986E+00 0.90260098E+02</pdfrwt>
<totfact> 0.11637537E+01</totfact>
</mgrwt>
</event>
<event>
 7    1  0.7037933E-004  0.1009342E+03  0.7546771E-02  0.1289116E+00
          2   -1    0    0  503    0  0.00000000000E+00  0.00000000000E+00  0.12009412840E+04  0.12009412840E+04  0.00000000000E+00 0. -1.
         -2   -1    0    0    0  501 -0.00000000000E+00 -0.00000000000E+00 -0.95450761751E+02  0.95450761751E+02  0.00000000000E+00 0.  1.
         25    2    1    2    0    0  0.32265365827E+02 -0.96305509252E+02  0.11744069655E+03  0.19933526483E+03  0.12500570249E+03 0.  0.
          4    1    3    3  502    0 -0.17127527098E+02 -0.10856049429E+03  0.75044232885E+02  0.13308637381E+03  0.12700000000E+01 0.  1.
         -4    1    3    3    0  502  0.49392892925E+02  0.12254985039E+02  0.42396463668E+02  0.66248891020E+02  0.12700000000E+01 0.  1.
          1    1    1    2  503    0  0.58237451981E+02  0.85414111801E+02  0.99981454648E+03  0.10051449143E+04  0.00000000000E+00 0. -1.
         -1    1    1    2    0  501 -0.90502817808E+02  0.10891397450E+02 -0.11764720823E+02  0.91911866621E+02  0.00000000000E+00 0.  1.
<mgrwt>
<rscale>  0 0.95920494E+02</rscale>
<asrwt>0</asrwt>
<pdfrwt beam="1">  1        2 0.18476019E+00 0.10093422E+03</pdfrwt>
<pdfrwt beam="2">  1       -2 0.14684733E-01 0.91155815E+02</pdfrwt>
<totfact> 0.71881634E+02</totfact>
</mgrwt>
</event>
<event>
 7    1  0.7037933E-004  0.1467362E+03  0.7546771E-02  0.1294674E+00
          1   -1    0    0  503    0  0.00000000000E+00  0.00000000000E+00  0.77780777850E+03  0.77780777850E+03  0.00000000000E+00 0. -1.
         -1   -1    0    0    0  501 -0.00000000000E+00 -0.00000000000E+00 -0.12229044952E+03  0.12229044952E+03  0.00000000000E+00 0.  1.
         25    2    1    2    0    0  0.11028952703E+03 -0.12561105312E+03  0.22288484978E+03  0.30535679733E+03  0.12499280369E+03 0.  0.
          4    1    3    3  502    0  0.33747169012E+02 -0.60279214286E+02  0.18557851473E+03  0.19802387008E+03  0.12700000000E+01 0. -1.
         -4    1    3    3    0  502  0.76542358021E+02 -0.65331838831E+02  0.37306335044E+02  0.10733292724E+03  0.12700000000E+01 0. -1.
          2    1    1    2  503    0  0.16136259102E+02  0.57303213682E+02  0.44642963620E+03  0.45038145747E+03  0.00000000000E+00 0. -1.
         -2    1    1    2    0  501 -0.12642578613E+03  0.68307839435E+02 -0.13797156994E+02  0.14435997322E+03  0.00000000000E+00 0.  1.
<mgrwt>
<rscale>  0 0.93463743E+02</rscale>
<asrwt>0</asrwt>
<pdfrwt beam="1">  1        1 0.11966273E+00 0.59531816E+02</pdfrwt>
<pdfrwt beam="2">  1       -1 0.18813916E-01 0.14673618E+03</pdfrwt>
<totfact> 0.56810740E+02</totfact>
</mgrwt>
</event>
<event>
 7    1  0.7037933E-004  0.1024114E+03  0.7546771E-02  0.1277517E+00
          1   -1    0    0  502    0 -0.00000000000E+00  0.00000000000E+00  0.47954281442E+02  0.47954281442E+02  0.00000000000E+00 0. -1.
          2   -1    0    0  503    0  0.00000000000E+00 -0.00000000000E+00 -0.19526624872E+04  0.19526624872E+04  0.00000000000E+00 0. -1.
         25    2    1    2    0    0  0.11117095513E+02  0.27047879721E+02 -0.38818250800E+03  0.40885903059E+03  0.12499947907E+03 0.  0.
          4    1    3    3  501    0  0.38727275574E+02  0.54693016288E+02 -0.34128699786E+03  0.34780677928E+03  0.12700000000E+01 0. -1.
         -4    1    3    3    0  501 -0.27610180061E+02 -0.27645136568E+02 -0.46895510141E+02  0.61052251312E+02  0.12700000000E+01 0. -1.
          2    1    1    2  502    0 -0.44958512624E+02  0.89621816141E+02 -0.36421007823E+02  0.10667627476E+03  0.00000000000E+00 0. -1.
          1    1    1    2  503    0  0.33841417111E+02 -0.11666969586E+03 -0.14801046899E+04  0.14850814632E+04  0.00000000000E+00 0. -1.
<mgrwt>
<rscale>  0 0.10133317E+03</rscale>
<asrwt>0</asrwt>
<pdfrwt beam="2">  1        2 0.30040954E+00 0.10241137E+03</pdfrwt>
<pdfrwt beam="1">  1        1 0.73775835E-02 0.10026633E+03</pdfrwt>
<totfact> 0.10696530E+03</totfact>
</mgrwt>
</event>
<event>
 7    1  0.7037933E-004  0.1688119E+03  0.7546771E-02  0.1278645E+00
          2   -1    0    0  503    0  0.00000000000E+00  0.00000000000E+00  0.68502124775E+03  0.68502124775E+03  0.00000000000E+00 0. -1.
         -2   -1    0    0    0  501 -0.00000000000E+00 -0.00000000000E+00 -0.45744036006E+03  0.45744036006E+03  0.00000000000E+00 0.  1.
         25    2    1    2    0    0 -0.12294155914E+03  0.14316830427E+02  0.10283019848E+02  0.17620384956E+03  0.12498982961E+03 0.  0.
          4    1    3    3  502    0 -0.13617689360E+03  0.25130895773E+01  0.39662576131E+02  0.14186329622E+03  0.12700000000E+01 0.  1.
         -4    1    3    3    0  502  0.13235334461E+02  0.11803740849E+02 -0.29379556283E+02  0.34340553341E+02  0.12700000000E+01 0.  1.
          1    1    1    2  503    0  0.16766034626E+03 -0.54583309328E+02  0.57608238232E+03  0.60246181671E+03  0.00000000000E+00 0. -1.
         -1    1    1    2    0  501 -0.44718787121E+02  0.40266478902E+02 -0.35878451449E+03  0.36379594154E+03  0.00000000000E+00 0.  1.
<mgrwt>
<rscale>  0 0.10078907E+03</rscale>
<asrwt>0</asrwt>
<pdfrwt beam="1">  1        2 0.10538789E+00 0.16881191E+03</pdfrwt>
<pdfrwt beam="2">  1       -2 0.70375439E-01 0.60176069E+02</pdfrwt>
<totfact> 0.85123753E+01</totfact>
</mgrwt>
</event>
<event>
 7    1  0.7037933E-004  0.8886631E+02  0.7546771E-02  0.1453622E+00
          1   -1    0    0  502    0 -0.00000000000E+00  0.00000000000E+00  0.62443527605E+03  0.62443527605E+03  0.00000000000E+00 0. -1.
          2   -1    0    0  503    0  0.00000000000E+00 -0.00000000000E+00 -0.12490721684E+04  0.12490721684E+04  0.00000000000E+00 0. -1.
         25    2    1    2    0    0  0.82317896136E+02 -0.79497556959E+02 -0.27954768560E+03  0.32690533098E+03  0.12499635721E+03 0.  0.
          4    1    3    3  501    0  0.41944126811E+02  0.19198392792E+02 -0.16084770449E+03  0.16733644253E+03  0.12700000000E+01 0.  1.
         -4    1    3    3    0  501  0.40373769325E+02 -0.98695949750E+02 -0.11869998111E+03  0.15956888845E+03  0.12700000000E+01 0.  1.
          2    1    1    2  502    0 -0.67106140181E+02  0.57839751380E+02  0.59730349887E+03  0.60383784301E+03  0.00000000000E+00 0. -1.
          1    1    1    2  503    0 -0.15211755955E+02  0.21657805579E+02 -0.94239270565E+03  0.94276427050E+03  0.00000000000E+00 0. -1.
<mgrwt>
<rscale>  0 0.48496913E+02</rscale>
<asrwt>0</asrwt>
<pdfrwt beam="2">  1        2 0.19216495E+00 0.26466168E+02</pdfrwt>
<pdfrwt beam="1">  1        1 0.96066966E-01 0.88866306E+02</pdfrwt>
<totfact> 0.10419631E+02</totfact>
</mgrwt>
</event>
<event>
 7    1  0.7037933E-004  0.1210112E+03  0.7546771E-02  0.1383713E+00
         -2   -1    0    0    0  501 -0.00000000000E+00  0.00000000000E+00  0.75796386515E+03  0.75796386515E+03  0.00000000000E+00 0.  1.
          2   -1    0    0  503    0  0.00000000000E+00 -0.00000000000E+00 -0.20237383937E+03  0.20237383937E+03  0.00000000000E+00 0. -1.
         25    2    1    2    0    0  0.14605107731E+03  0.37295260490E+02  0.22048537726E+02  0.19706068342E+03  0.12499968519E+03 0.  0.
          4    1    3    3  502    0  0.95156868772E+02  0.70481034897E+02 -0.23979061936E+02  0.12082638067E+03  0.12700000000E+01 0. -1.
         -4    1    3    3    0  502  0.50894208538E+02 -0.33185774407E+02  0.46027599661E+02  0.76234302754E+02  0.12700000000E+01 0. -1.
          1    1    1    2  503    0 -0.33294450273E+02  0.12767761635E+01 -0.10683300986E+03  0.11190818814E+03  0.00000000000E+00 0. -1.
         -1    1    1    2    0  501 -0.11275662704E+03 -0.38572036653E+02  0.64037449792E+03  0.65136883295E+03  0.00000000000E+00 0.  1.
<mgrwt>
<rscale>  0 0.63497741E+02</rscale>
<asrwt>0</asrwt>
<pdfrwt beam="2">  1        2 0.31134437E-01 0.33318922E+02</pdfrwt>
<pdfrwt beam="1">  1       -2 0.11660982E+00 0.12101121E+03</pdfrwt>
<totfact> 0.99173494E+01</totfact>
</mgrwt>
</event>
<event>
 7    1  0.7037933E-004  0.4917184E+02  0.7546771E-02  0.1475189E+00
          2   -1    0    0  503    0  0.00000000000E+00  0.00000000000E+00  0.23373136233E+04  0.23373136233E+04  0.00000000000E+00 0. -1.
         -2   -1    0    0    0  501 -0.00000000000E+00 -0.00000000000E+00 -0.47778605646E+03  0.47778605646E+03  0.00000000000E+00 0.  1.
         25    2    1    2    0    0  0.24183476289E+02  0.49480712715E+02  0.21253698333E+02  0.13823862982E+03  0.12500007050E+03 0.  0.
          4    1    3    3  502    0  0.33262182246E+02  0.88255733886E+02  0.28951278487E+01  0.94368649438E+02  0.12700000000E+01 0.  1.
         -4    1    3    3    0  502 -0.90787059570E+01 -0.38775021171E+02  0.18358570484E+02  0.43869980384E+02  0.12700000000E+01 0.  1.
          3    1    1    2  503    0 -0.40823982807E+02 -0.30076791690E+01  0.22559283075E+04  0.22562996636E+04  0.00000000000E+00 0. -1.
         -1    1    1    2    0  501  0.16640506518E+02 -0.46473033546E+02 -0.41765443894E+03  0.42056138633E+03  0.00000000000E+00 0.  1.
<mgrwt>
<rscale>  0 0.44864586E+02</rscale>
<asrwt>0</asrwt>
<pdfrwt beam="1">  1        2 0.35958671E+00 0.40934627E+02</pdfrwt>
<pdfrwt beam="2">  1       -2 0.73505548E-01 0.49171843E+02</pdfrwt>
<totfact> 0.11179753E+01</totfact>
</mgrwt>
</event>
<event>
 7    1  0.7037933E-004  0.5362540E+02  0.7546771E-02  0.1501400E+00
          2   -1    0    0  503    0  0.00000000000E+00  0.00000000000E+00  0.24307317961E+04  0.24307317961E+04  0.00000000000E+00 0. -1.
         -2   -1    0    0    0  501 -0.00000000000E+00 -0.00000000000E+00 -0.22088220593E+02  0.22088220593E+02  0.00000000000E+00 0.  1.
         25    2    1    2    0    0 -0.55394458811E+02 -0.34860560314E+02  0.97059043286E+03  0.98079241970E+03  0.12499670977E+03 0.  0.
          4    1    3    3  502    0 -0.84537122102E+02 -0.30179041661E+02  0.42375843274E+03  0.43316292753E+03  0.12700000000E+01 0. -1.
         -4    1    3    3    0  502  0.29142663291E+02 -0.46815186526E+01  0.54683200012E+03  0.54762949217E+03  0.12700000000E+01 0. -1.
          1    1    1    2  503    0  0.53031492016E+02  0.36933204200E+01  0.14397441201E+04  0.14407252032E+04  0.00000000000E+00 0. -1.
         -1    1    1    2    0  501  0.23629667955E+01  0.31167239894E+02 -0.16909774198E+01  0.31302393827E+02  0.00000000000E+00 0.  1.
<mgrwt>
<rscale>  0 0.40940838E+02</rscale>
<asrwt>0</asrwt>
<pdfrwt beam="1">  1        2 0.37395853E+00 0.53625397E+02</pdfrwt>
<pdfrwt beam="2">  1       -2 0.33981897E-02 0.31256687E+02</pdfrwt>
<totfact> 0.14790852E+03</totfact>
</mgrwt>
</event>
<event>
 7    1  0.7037933E-004  0.9167154E+02  0.7546771E-02  0.1433936E+00
          2   -1    0    0  503    0  0.00000000000E+00  0.00000000000E+00  0.59705771193E+03  0.59705771193E+03  0.00000000000E+00 0. -1.
          1   -1    0    0  502    0 -0.00000000000E+00 -0.00000000000E+00 -0.20982527296E+03  0.20982527296E+03  0.00000000000E+00 0. -1.
         25    2    1    2    0    0 -0.10440013783E+03  0.53941946000E+02 -0.61199856524E+02  0.18215210341E+03  0.12499937608E+03 0.  0.
          4    1    3    3  501    0 -0.63716498167E+02  0.73837294883E+02  0.96951792202E+01  0.98017078381E+02  0.12700000000E+01 0. -1.
         -4    1    3    3    0  501 -0.40683639664E+02 -0.19895348883E+02 -0.70895035744E+02  0.84135025029E+02  0.12700000000E+01 0. -1.
          2    1    1    2  502    0  0.19019673168E+02 -0.22809491405E+02 -0.81666178716E+02  0.86898708918E+02  0.00000000000E+00 0. -1.
          1    1    1    2  503    0  0.85380464663E+02 -0.31132454595E+02  0.53009847421E+03  0.53783217255E+03  0.00000000000E+00 0. -1.
<mgrwt>
<rscale>  0 0.52177945E+02</rscale>
<asrwt>0</asrwt>
<pdfrwt beam="1">  1        2 0.91855032E-01 0.91671538E+02</pdfrwt>
<pdfrwt beam="2">  1        1 0.32280811E-01 0.29698836E+02</pdfrwt>
<totfact> 0.93968827E+02</totfact>
</mgrwt>
</event>
<event>
 7    1  0.7037933E-004  0.8903065E+02  0.7546771E-02  0.1318762E+00
          2   -1    0    0  503    0  0.00000000000E+00  0.00000000000E+00  0.16981251957E+04  0.16981251957E+04  0.00000000000E+00 0. -1.
          1   -1    0    0  502    0 -0.00000000000E+00 -0.00000000000E+00 -0.19366477797E+02  0.19366477797E+02  0.00000000000E+00 0. -1.
         25    2    1    2    0    0 -0.11395219770E+02 -0.49667833023E+02  0.76652005335E+03  0.77831289496E+03  0.12498490146E+03 0.  0.
          4    1    3    3  501    0 -0.22341819305E+01  0.91851147824E+01  0.62095794564E+03  0.62103119169E+03  0.12700000000E+01 0. -1.
         -4    1    3    3    0  501 -0.91610378393E+01 -0.58852947805E+02  0.14556210772E+03  0.15728170327E+03  0.12700000000E+01 0. -1.
          2    1    1    2  502    0 -0.54314886996E+02 -0.57039487347E+02  0.18268972686E+03  0.19894508380E+03  0.00000000000E+00 0. -1.
          1    1    1    2  503    0  0.65710106766E+02  0.10670732037E+03  0.72954893772E+03  0.74023369478E+03  0.00000000000E+00 0. -1.
<mgrwt>
<rscale>  0 0.83739603E+02</rscale>
<asrwt>0</asrwt>
<pdfrwt beam="1">  1        2 0.26124991E+00 0.89030651E+02</pdfrwt>
<pdfrwt beam="2">  1        1 0.29794595E-02 0.78762999E+02</pdfrwt>
<totfact> 0.48445520E+03</totfact>
</mgrwt>
</event>
<event>
 7    1  0.7037933E-004  0.6686485E+02  0.7546771E-02  0.1484856E+00
          2   -1    0    0  503    0  0.00000000000E+00  0.00000000000E+00  0.12501889824E+04  0.12501889824E+04  0.00000000000E+00 0. -1.
          1   -1    0    0  502    0 -0.00000000000E+00 -0.00000000000E+00 -0.30160763498E+03  0.30160763498E+03  0.00000000000E+00 0. -1.
         25    2    1    2    0    0  0.31519510100E+02  0.55642224374E+02 -0.82137154546E+02  0.16261579599E+03  0.12493137435E+03 0.  0.
          4    1    3    3  501    0  0.79301756464E+02  0.32991344852E+02 -0.62343604587E+02  0.10613922624E+03  0.12700000000E+01 0. -1.
         -4    1    3    3    0  501 -0.47782246364E+02  0.22650879522E+02 -0.19793549958E+02  0.56476569749E+02  0.12700000000E+01 0. -1.
          2    1    1    2  502    0 -0.55012150097E+02 -0.40195150722E+02 -0.17258614548E+03  0.18554774160E+03  0.00000000000E+00 0. -1.
          1    1    1    2  503    0  0.23492639997E+02 -0.15447073652E+02  0.12033046475E+04  0.12036330798E+04  0.00000000000E+00 0. -1.
<mgrwt>
<rscale>  0 0.43358737E+02</rscale>
<asrwt>0</asrwt>
<pdfrwt beam="1">  1        2 0.19233676E+00 0.28116120E+02</pdfrwt>
<pdfrwt beam="2">  1        1 0.46401175E-01 0.66864847E+02</pdfrwt>
<totfact> 0.26004000E+02</totfact>
</mgrwt>
</event>
<event>
 7    1  0.7037933E-004  0.1642542E+03  0.7546771E-02  0.1207432E+00
          1   -1    0    0  502    0 -0.00000000000E+00  0.00000000000E+00  0.57771144068E+03  0.57771144068E+03  0.00000000000E+00 0. -1.
          2   -1    0    0  503    0  0.00000000000E+00 -0.00000000000E+00 -0.13179525343E+04  0.13179525343E+04  0.00000000000E+00 0. -1.
         25    2    1    2    0    0  0.22163828678E+03 -0.26808977033E+02 -0.55027790884E+02  0.26171456320E+03  0.12499681356E+03 0.  0.
          4    1    3    3  501    0  0.18606533480E+03 -0.19864870409E+02 -0.93207708266E+02  0.20905552294E+03  0.12700000000E+01 0.  1.
         -4    1    3    3    0  501  0.35572951986E+02 -0.69441066244E+01  0.38179917382E+02  0.52659040261E+02  0.12700000000E+01 0.  1.
          2    1    1    2  502    0 -0.12243158231E+03  0.10622330248E+03  0.45689421768E+03  0.48479398561E+03  0.00000000000E+00 0. -1.
          1    1    1    2  503    0 -0.99206704478E+02 -0.79414325443E+02 -0.11421075204E+04  0.11491554261E+04  0.00000000000E+00 0. -1.
<mgrwt>
<rscale>  0 0.14447476E+03</rscale>
<asrwt>0</asrwt>
<pdfrwt beam="2">  1        2 0.20276193E+00 0.12707716E+03</pdfrwt>
<pdfrwt beam="1">  1        1 0.88878683E-01 0.16425420E+03</pdfrwt>
<totfact> 0.93382772E+01</totfact>
</mgrwt>
</event>
<event>
 7    1  0.7037933E-004  0.1297019E+03  0.7546771E-02  0.1338280E+00
         -2   -1    0    0    0  501 -0.00000000000E+00  0.00000000000E+00  0.48482388454E+03  0.48482388454E+03  0.00000000000E+00 0.  1.
          2   -1    0    0  503    0  0.00000000000E+00 -0.00000000000E+00 -0.13354937816E+04  0.13354937816E+04  0.00000000000E+00 0. -1.
         25    2    1    2    0    0  0.82532981259E+01 -0.12213664172E+03 -0.13644304210E+02  0.17548749083E+03  0.12499686485E+03 0.  0.
          4    1    3    3  502    0  0.62762289217E+02 -0.46468729188E+02  0.11368723901E+02  0.78925968624E+02  0.12700000000E+01 0.  1.
         -4    1    3    3    0  502 -0.54508991091E+02 -0.75667912527E+02 -0.25013028111E+02  0.96561522209E+02  0.12700000000E+01 0.  1.
          1    1    1    2  503    0 -0.45357254970E+02 -0.38144892650E+01 -0.12298245897E+04  0.12306666292E+04  0.00000000000E+00 0. -1.
         -1    1    1    2    0  501  0.37103956844E+02  0.12595113098E+03  0.39279899682E+03  0.41416354609E+03  0.00000000000E+00 0.  1.
<mgrwt>
<rscale>  0 0.76835473E+02</rscale>
<asrwt>0</asrwt>
<pdfrwt beam="2">  1        2 0.20546058E+00 0.45517369E+02</pdfrwt>
<pdfrwt beam="1">  1       -2 0.74588291E-01 0.12970191E+03</pdfrwt>
<totfact> 0.32603088E+01</totfact>
</mgrwt>
</event>
<event>
 7    1  0.7037933E-004  0.1620675E+03  0.7546771E-02  0.1220796E+00
          1   -1    0    0  502    0 -0.00000000000E+00  0.00000000000E+00  0.14542606649E+04  0.14542606649E+04  0.00000000000E+00 0. -1.
          2   -1    0    0  503    0  0.00000000000E+00 -0.00000000000E+00 -0.14197817429E+04  0.14197817429E+04  0.00000000000E+00 0. -1.
         25    2    1    2    0    0 -0.10897978759E+03 -0.42260554747E+01  0.18758362461E+03  0.25042289531E+03  0.12501822517E+03 0.  0.
          4    1    3    3  501    0 -0.41371221327E+01 -0.50528949454E+02  0.48213521521E+02  0.69974617326E+02  0.12700000000E+01 0.  1.
         -4    1    3    3    0  501 -0.10484266546E+03  0.46302893980E+02  0.13937010309E+03  0.18044827798E+03  0.12700000000E+01 0.  1.
          2    1    1    2  502    0  0.13631705361E+03  0.11260694503E+03  0.12266586062E+04  0.12393361124E+04  0.00000000000E+00 0. -1.
          1    1    1    2  503    0 -0.27337266015E+02 -0.10838088956E+03 -0.13797633089E+04  0.13842834001E+04  0.00000000000E+00 0. -1.
<mgrwt>
<rscale>  0 0.13459260E+03</rscale>
<asrwt>0</asrwt>
<pdfrwt beam="2">  1        2 0.21842796E+00 0.11177541E+03</pdfrwt>
<pdfrwt beam="1">  1        1 0.22373241E+00 0.16206755E+03</pdfrwt>
<totfact> 0.17825046E+01</totfact>
</mgrwt>
</event>
<event>
 7    1  0.7037933E-004  0.5427800E+02  0.7546771E-02  0.1452140E+00
          2   -1    0    0  503    0  0.00000000000E+00  0.00000000000E+00  0.74802145092E+03  0.74802145092E+03  0.00000000000E+00 0. -1.
          1   -1    0    0  502    0 -0.00000000000E+00 -0.00000000000E+00 -0.76823041202E+02  0.76823041202E+02  0.00000000000E+00 0. -1.
         25    2    1    2    0    0 -0.60536728480E+01 -0.25322710658E+02  0.56378549798E+03  0.57807496027E+03  0.12505472933E+03 0.  0.
          4    1    3    3  501    0  0.16099816787E+02 -0.51541952718E+02  0.51814805150E+03  0.52095565374E+03  0.12700000000E+01 0. -1.
         -4    1    3    3    0  501 -0.22153489635E+02  0.26219242060E+02  0.45637446482E+02  0.57119306531E+02  0.12700000000E+01 0. -1.
          2    1    1    2  502    0 -0.33853231533E+02  0.43387335967E+02 -0.55447221098E+02  0.78121037723E+02  0.00000000000E+00 0. -1.
          1    1    1    2  503    0  0.39906904381E+02 -0.18064625309E+02  0.16286013284E+03  0.16864849413E+03  0.00000000000E+00 0. -1.
<mgrwt>
<rscale>  0 0.48761216E+02</rscale>
<asrwt>0</asrwt>
<pdfrwt beam="1">  1        2 0.11508022E+00 0.43805156E+02</pdfrwt>
<pdfrwt beam="2">  1        1 0.11818930E-01 0.54277998E+02</pdfrwt>
<totfact> 0.26113806E+03</totfact>
</mgrwt>
</event>
<event>
 7    1  0.7037933E-004  0.7887681E+02  0.7546771E-02  0.1352225E+00
          1   -1    0    0  502    0 -0.00000000000E+00  0.00000000000E+00  0.22556827867E+04  0.22556827867E+04  0.00000000000E+00 0. -1.
          2   -1    0    0  503    0  0.00000000000E+00 -0.00000000000E+00 -0.10320871068E+03  0.10320871068E+03  0.00000000000E+00 0. -1.
         25    2    1    2    0    0 -0.10248335143E+02 -0.30110110456E+02  0.91696522655E+02  0.15825374750E+03  0.12499739680E+03 0.  0.
          4    1    3    3  501    0 -0.66856285801E+02 -0.26610619557E+02  0.46063780994E+02  0.85448071036E+02  0.12700000000E+01 0.  1.
         -4    1    3    3    0  501  0.56607950658E+02 -0.34994908998E+01  0.45632741662E+02  0.72805676467E+02  0.12700000000E+01 0.  1.
          2    1    1    2  502    0  0.30915064021E+02 -0.58757434497E+02  0.21001978363E+04  0.21012470414E+04  0.00000000000E+00 0. -1.
          1    1    1    2  503    0 -0.20666728878E+02  0.88867544953E+02 -0.39420282939E+02  0.99390708497E+02  0.00000000000E+00 0. -1.
<mgrwt>
<rscale>  0 0.72366812E+02</rscale>
<asrwt>0</asrwt>
<pdfrwt beam="2">  1        2 0.15878265E-01 0.78876813E+02</pdfrwt>
<pdfrwt beam="1">  1        1 0.34702809E+00 0.66394106E+02</pdfrwt>
<totfact> 0.13025584E+02</totfact>
</mgrwt>
</event>
<event>
 7    1  0.7037933E-004  0.4469910E+02  0.7546771E-02  0.1495668E+00
          2   -1    0    0  503    0  0.00000000000E+00  0.00000000000E+00  0.28828242575E+04  0.28828242575E+04  0.00000000000E+00 0. -1.
         -2   -1    0    0    0  501 -0.00000000000E+00 -0.00000000000E+00 -0.38829788423E+02  0.38829788423E+02  0.00000000000E+00 0.  1.
         25    2    1    2    0    0  0.30076824243E+02 -0.17940742868E+02  0.25471371702E+04  0.25504430485E+04  0.12500197542E+03 0.  0.
          4    1    3    3  502    0 -0.34554339824E+02 -0.31802587047E+02  0.17292860934E+04  0.17299241060E+04  0.12700000000E+01 0. -1.
         -4    1    3    3    0  502  0.64631164067E+02  0.13861844180E+02  0.81785107687E+03  0.82051894246E+03  0.12700000000E+01 0. -1.
          1    1    1    2  503    0 -0.28285026928E+02 -0.26862369802E+02  0.31887908749E+03  0.32125613161E+03  0.00000000000E+00 0. -1.
         -1    1    1    2    0  501 -0.17917973154E+01  0.44803112669E+02 -0.22021788675E+02  0.49954865818E+02  0.00000000000E+00 0.  1.
<mgrwt>
<rscale>  0 0.41756742E+02</rscale>
<asrwt>0</asrwt>
<pdfrwt beam="1">  1        2 0.44351126E+00 0.39008072E+02</pdfrwt>
<pdfrwt beam="2">  1       -2 0.59738159E-02 0.44699096E+02</pdfrwt>
<totfact> 0.42111686E+02</totfact>
</mgrwt>
</event>
<event>
 7    1  0.7037933E-004  0.7226579E+02  0.7546771E-02  0.1451720E+00
         -2   -1    0    0    0  501 -0.00000000000E+00  0.00000000000E+00  0.43070886256E+03  0.43070886256E+03  0.00000000000E+00 0.  1.
          2   -1    0    0  503    0  0.00000000000E+00 -0.00000000000E+00 -0.18823241974E+03  0.18823241974E+03  0.00000000000E+00 0. -1.
         25    2    1    2    0    0 -0.83413359528E+02  0.12687090681E+02 -0.97280239473E+02  0.17946229539E+03  0.12499807862E+03 0.  0.
          4    1    3    3  502    0 -0.45249117409E+02  0.53587768494E+02 -0.10146287241E+03  0.12335095839E+03  0.12700000000E+01 0.  1.
         -4    1    3    3    0  502 -0.38164242119E+02 -0.40900677813E+02  0.41826329324E+01  0.56111337004E+02  0.12700000000E+01 0.  1.
          1    1    1    2  503    0  0.65702844448E+02  0.15161691105E+02 -0.25976246642E+02  0.72259989174E+02  0.00000000000E+00 0. -1.
         -1    1    1    2    0  501  0.17710515079E+02 -0.27848781786E+02  0.36573292893E+03  0.36721899773E+03  0.00000000000E+00 0.  1.
<mgrwt>
<rscale>  0 0.48836552E+02</rscale>
<asrwt>0</asrwt>
<pdfrwt beam="2">  1        2 0.28958834E-01 0.72265795E+02</pdfrwt>
<pdfrwt beam="1">  1       -2 0.66262902E-01 0.33003288E+02</pdfrwt>
<totfact> 0.38972921E+02</totfact>
</mgrwt>
</event>
<event>
 7    1  0.7037933E-004  0.6449263E+02  0.7546771E-02  0.1414225E+00
          2   -1    0    0  503    0  0.00000000000E+00  0.00000000000E+00  0.45469803538E+03  0.45469803538E+03  0.00000000000E+00 0. -1.
          1   -1    0    0  502    0 -0.00000000000E+00 -0.00000000000E+00 -0.35801578156E+04  0.35801578156E+04  0.00000000000E+00 0. -1.
         25    2    1    2    0    0 -0.70077352262E+02  0.15954418409E+02  0.85928605192E+02  0.16784691858E+03  0.12499393633E+03 0.  0.
          4    1    3    3  501    0 -0.52543284767E+02  0.42079334771E+02  0.10947906489E+03  0.12852527276E+03  0.12700000000E+01 0.  1.
         -4    1    3    3    0  501 -0.17534067496E+02 -0.26124916363E+02 -0.23550459698E+02  0.39321645818E+02  0.12700000000E+01 0.  1.
          2    1    1    2  502    0  0.56470512837E+02  0.31202883681E+02 -0.35370656666E+04  0.35376540346E+04  0.00000000000E+00 0. -1.
          1    1    1    2  503    0  0.13606839426E+02 -0.47157302089E+02  0.32567728119E+03  0.32935489780E+03  0.00000000000E+00 0. -1.
<mgrwt>
<rscale>  0 0.56261630E+02</rscale>
<asrwt>0</asrwt>
<pdfrwt beam="1">  1        2 0.69953545E-01 0.49081129E+02</pdfrwt>
<pdfrwt beam="2">  1        1 0.55079350E+00 0.64492629E+02</pdfrwt>
<totfact> 0.34760571E+00</totfact>
</mgrwt>
</event>
<event>
 7    1  0.7037933E-004  0.9780577E+02  0.7546771E-02  0.1354308E+00
          1   -1    0    0  502    0 -0.00000000000E+00  0.00000000000E+00  0.62357284697E+03  0.62357284697E+03  0.00000000000E+00 0. -1.
          2   -1    0    0  503    0  0.00000000000E+00 -0.00000000000E+00 -0.12296540843E+04  0.12296540843E+04  0.00000000000E+00 0. -1.
         25    2    1    2    0    0 -0.12783943474E+03 -0.26341384589E+02 -0.22117277112E+03  0.28562382843E+03  0.12500714807E+03 0.  0.
          4    1    3    3  501    0 -0.25029958559E+02 -0.44547241869E+02 -0.13013760827E+02  0.52743970788E+02  0.12700000000E+01 0. -1.
         -4    1    3    3    0  501 -0.10280947618E+03  0.18205857280E+02 -0.20815901029E+03  0.23287985765E+03  0.12700000000E+01 0. -1.
          2    1    1    2  502    0  0.96154714465E+02 -0.15652180179E+02  0.58661855505E+03  0.59465288108E+03  0.00000000000E+00 0. -1.
          1    1    1    2  503    0  0.31684720277E+02  0.41993564768E+02 -0.97152702125E+03  0.97295022174E+03  0.00000000000E+00 0. -1.
<mgrwt>
<rscale>  0 0.71729777E+02</rscale>
<asrwt>0</asrwt>
<pdfrwt beam="2">  1        2 0.18917755E+00 0.52605903E+02</pdfrwt>
<pdfrwt beam="1">  1        1 0.95934284E-01 0.97805771E+02</pdfrwt>
<totfact> 0.10132310E+02</totfact>
</mgrwt>
</event>
<event>
 7    1  0.7037933E-004  0.1347690E+03  0.7546771E-02  0.1271315E+00
          2   -1    0    0  503    0  0.00000000000E+00  0.00000000000E+00  0.39846130619E+03  0.39846130619E+03  0.00000000000E+00 0. -1.
         -2   -1    0    0    0  501 -0.00000000000E+00 -0.00000000000E+00 -0.25333184717E+03  0.25333184717E+03  0.00000000000E+00 0.  1.
         25    2    1    2    0    0  0.38796524974E+02  0.98672267499E+02  0.22995925527E+02  0.16551276268E+03  0.12499710115E+03 0.  0.
          4    1    3    3  502    0 -0.27808628155E+02  0.64561057989E+02  0.49644130715E+02  0.86067430675E+02  0.12700000000E+01 0. -1.
         -4    1    3    3    0  502  0.66605153129E+02  0.34111209510E+02 -0.26648205188E+02  0.79445332004E+02  0.12700000000E+01 0. -1.
          1    1    1    2  503    0  0.80285927524E+02 -0.96807299990E+01  0.26683685094E+03  0.27882154098E+03  0.00000000000E+00 0. -1.
         -1    1    1    2    0  501 -0.11908245250E+03 -0.88991537500E+02 -0.14470331745E+03  0.20745884970E+03  0.00000000000E+00 0.  1.
<mgrwt>
<rscale>  0 0.10439553E+03</rscale>
<asrwt>0</asrwt>
<pdfrwt beam="1">  1        2 0.61301740E-01 0.80867464E+02</pdfrwt>
<pdfrwt beam="2">  1       -2 0.38974130E-01 0.13476898E+03</pdfrwt>
<totfact> 0.50624119E+02</totfact>
</mgrwt>
</event>
<event>
 7    1  0.7037933E-004  0.6254566E+02  0.7546771E-02  0.1536851E+00
          1   -1    0    0  503    0  0.00000000000E+00  0.00000000000E+00  0.10790634038E+04  0.10790634038E+04  0.00000000000E+00 0. -1.
         -1   -1    0    0    0  501 -0.00000000000E+00 -0.00000000000E+00 -0.13055810010E+03  0.13055810010E+03  0.00000000000E+00 0.  1.
         25    2    1    2    0    0 -0.41126773918E+02 -0.70410972197E+01 -0.51398016056E+02  0.14144779041E+03  0.12499893109E+03 0.  0.
          4    1    3    3  502    0 -0.65218885391E+02 -0.38788045067E+02 -0.64372761421E+02  0.99516233674E+02  0.12700000000E+01 0.  1.
         -4    1    3    3    0  502  0.24092111473E+02  0.31746947847E+02  0.12974745365E+02  0.41931556734E+02  0.12700000000E+01 0.  1.
          2    1    1    2  503    0  0.62242090621E+02  0.79855606377E+01  0.10297172567E+04  0.10316275858E+04  0.00000000000E+00 0. -1.
         -2    1    1    2    0  501 -0.21115316703E+02 -0.94446341799E+00 -0.29813936962E+02  0.36546127671E+02  0.00000000000E+00 0.  1.
<mgrwt>
<rscale>  0 0.36359206E+02</rscale>
<asrwt>0</asrwt>
<pdfrwt beam="1">  1        1 0.16600975E+00 0.62545658E+02</pdfrwt>
<pdfrwt beam="2">  1       -1 0.20085862E-01 0.21136429E+02</pdfrwt>
<totfact> 0.28005170E+02</totfact>
</mgrwt>
</event>
<event>
 7    1  0.7037933E-004  0.7964382E+02  0.7546771E-02  0.1381940E+00
          1   -1    0    0  502    0 -0.00000000000E+00  0.00000000000E+00  0.41005709342E+03  0.41005709342E+03  0.00000000000E+00 0. -1.
          2   -1    0    0  503    0  0.00000000000E+00 -0.00000000000E+00 -0.13878479048E+04  0.13878479048E+04  0.00000000000E+00 0. -1.
         25    2    1    2    0    0 -0.16374830778E+02  0.35149046871E+02 -0.15033705109E+03  0.19932397090E+03  0.12500090346E+03 0.  0.
          4    1    3    3  501    0  0.25820243586E+02  0.10405410116E+02  0.11578224658E+02  0.30176575763E+02  0.12700000000E+01 0.  1.
         -4    1    3    3    0  501 -0.42195074364E+02  0.24743636755E+02 -0.16191527575E+03  0.16914739513E+03  0.12700000000E+01 0.  1.
          2    1    1    2  502    0  0.20803934798E+02  0.46957033503E+02  0.38245168360E+03  0.38588477164E+03  0.00000000000E+00 0. -1.
          1    1    1    2  503    0 -0.44291040203E+01 -0.82106080374E+02 -0.12099054439E+04  0.12126962557E+04  0.00000000000E+00 0. -1.
<mgrwt>
<rscale>  0 0.63956567E+02</rscale>
<asrwt>0</asrwt>
<pdfrwt beam="2">  1        2 0.21351506E+00 0.79643823E+02</pdfrwt>
<pdfrwt beam="1">  1        1 0.63085706E-01 0.51359193E+02</pdfrwt>
<totfact> 0.14121544E+02</totfact>
</mgrwt>
</event>
<event>
 7    1  0.7037933E-004  0.4225794E+02  0.7546771E-02  0.1568038E+00
          2   -1    0    0  503    0  0.00000000000E+00  0.00000000000E+00  0.23861958466E+04  0.23861958466E+04  0.00000000000E+00 0. -1.
          1   -1    0    0  502    0 -0.00000000000E+00 -0.00000000000E+00 -0.46551216451E+01  0.46551216451E+01  0.00000000000E+00 0. -1.
         25    2    1    2    0    0  0.20740456933E+02  0.14360773152E+02  0.12899193940E+04  0.12962072812E+04  0.12499949731E+03 0.  0.
          4    1    3    3  501    0  0.27047693880E+02  0.67511830869E+02  0.65195076632E+03  0.65599606680E+03  0.12700000000E+01 0. -1.
         -4    1    3    3    0  501 -0.63072369462E+01 -0.53151057717E+02  0.63796862769E+03  0.64021121436E+03  0.12700000000E+01 0. -1.
          2    1    1    2  502    0 -0.30943131610E+02 -0.37862968858E+02  0.47961088915E+03  0.48209717567E+03  0.00000000000E+00 0. -1.
          1    1    1    2  503    0  0.10202674676E+02  0.23502195706E+02  0.61201044175E+03  0.61254651137E+03  0.00000000000E+00 0. -1.
<mgrwt>
<rscale>  0 0.32904418E+02</rscale>
<asrwt>0</asrwt>
<pdfrwt beam="1">  1        2 0.36710608E+00 0.25621237E+02</pdfrwt>
<pdfrwt beam="2">  1        1 0.71617447E-03 0.42257941E+02</pdfrwt>
<totfact> 0.16355185E+04</totfact>
</mgrwt>
</event>
<event>
 7    1  0.7037933E-004  0.1079802E+03  0.7546771E-02  0.1328182E+00
          1   -1    0    0  502    0 -0.00000000000E+00  0.00000000000E+00  0.49927248308E+04  0.49927248308E+04  0.00000000000E+00 0. -1.
          2   -1    0    0  503    0  0.00000000000E+00 -0.00000000000E+00 -0.39611790660E+02  0.39611790660E+02  0.00000000000E+00 0. -1.
         25    2    1    2    0    0  0.38705812944E+02 -0.13849356498E+03  0.15956133577E+04  0.16069490341E+04  0.12499841367E+03 0.  0.
          4    1    3    3  501    0  0.65907492778E+02 -0.13900079172E+03  0.11147732899E+04  0.11253382240E+04  0.12700000000E+01 0. -1.
         -4    1    3    3    0  501 -0.27201679835E+02  0.50722674743E+00  0.48084006787E+03  0.48161081013E+03  0.12700000000E+01 0. -1.
          2    1    1    2  502    0 -0.62038472178E+02  0.83513537740E+02  0.33637289978E+04  0.33653374353E+04  0.00000000000E+00 0. -1.
          1    1    1    2  503    0  0.23332659234E+02  0.54980027237E+02 -0.62293154130E+01  0.60050151977E+02  0.00000000000E+00 0. -1.
<mgrwt>
<rscale>  0 0.80307191E+02</rscale>
<asrwt>0</asrwt>
<pdfrwt beam="2">  1        2 0.60941256E-02 0.59726178E+02</pdfrwt>
<pdfrwt beam="1">  1        1 0.76811101E+00 0.10798020E+03</pdfrwt>
<totfact> 0.23900758E+00</totfact>
</mgrwt>
</event>
<event>
 7    1  0.7037933E-004  0.2430907E+03  0.7546771E-02  0.1178238E+00
          2   -1    0    0  503    0  0.00000000000E+00  0.00000000000E+00  0.34178481683E+03  0.34178481683E+03  0.00000000000E+00 0. -1.
          1   -1    0    0  502    0 -0.00000000000E+00 -0.00000000000E+00 -0.51509609262E+03  0.51509609262E+03  0.00000000000E+00 0. -1.
         25    2    1    2    0    0  0.20568998272E+03  0.22338839945E+03 -0.22999796896E+02  0.32918930606E+03  0.12500345021E+03 0.  0.
          4    1    3    3  501    0  0.17610667201E+02  0.93104573454E+02  0.18778241801E+02  0.96606586020E+02  0.12700000000E+01 0.  1.
         -4    1    3    3    0  501  0.18807931552E+03  0.13028382600E+03 -0.41778038697E+02  0.23258272004E+03  0.12700000000E+01 0.  1.
          2    1    1    2  502    0 -0.11687726041E+03 -0.18699049164E+02 -0.25507118132E+03  0.28119611659E+03  0.00000000000E+00 0. -1.
          1    1    1    2  503    0 -0.88812722309E+02 -0.20468935029E+03  0.10475970243E+03  0.24649548681E+03  0.00000000000E+00 0. -1.
<mgrwt>
<rscale>  0 0.16962635E+03</rscale>
<asrwt>0</asrwt>
<pdfrwt beam="1">  1        2 0.52582280E-01 0.24309073E+03</pdfrwt>
<pdfrwt beam="2">  1        1 0.79245553E-01 0.11836363E+03</pdfrwt>
<totfact> 0.57245023E+02</totfact>
</mgrwt>
</event>
<event>
 7    1  0.7037933E-004  0.1269613E+03  0.7546771E-02  0.1343816E+00
          1   -1    0    0  502    0 -0.00000000000E+00  0.00000000000E+00  0.11059462571E+04  0.11059462571E+04  0.00000000000E+00 0. -1.
          2   -1    0    0  503    0  0.00000000000E+00 -0.00000000000E+00 -0.51188860820E+03  0.51188860820E+03  0.00000000000E+00 0. -1.
         25    2    1    2    0    0  0.15856549910E+02  0.12583327676E+03 -0.12945430559E+03  0.22015705502E+03  0.12500107169E+03 0.  0.
          4    1    3    3  501    0 -0.19932000324E+02  0.94095527243E+02 -0.14123179051E+03  0.17087798113E+03  0.12700000000E+01 0.  1.
         -4    1    3    3    0  501  0.35788550234E+02  0.31737749517E+02  0.11777484919E+02  0.49279073888E+02  0.12700000000E+01 0.  1.
          2    1    1    2  502    0 -0.44324169882E+02 -0.38685444911E+00  0.10478368795E+04  0.10487740022E+04  0.00000000000E+00 0. -1.
          1    1    1    2  503    0  0.28467619972E+02 -0.12544642231E+03 -0.32432492504E+03  0.34890380803E+03  0.00000000000E+00 0. -1.
<mgrwt>
<rscale>  0 0.75017782E+02</rscale>
<asrwt>0</asrwt>
<pdfrwt beam="2">  1        2 0.78752094E-01 0.12696128E+03</pdfrwt>
<pdfrwt beam="1">  1        1 0.17014558E+00 0.44325858E+02</pdfrwt>
<totfact> 0.12788486E+02</totfact>
</mgrwt>
</event>
<event>
 7    1  0.7037933E-004  0.2132464E+03  0.7546771E-02  0.1251597E+00
          2   -1    0    0  503    0  0.00000000000E+00  0.00000000000E+00  0.69943632537E+03  0.69943632537E+03  0.00000000000E+00 0. -1.
          1   -1    0    0  502    0 -0.00000000000E+00 -0.00000000000E+00 -0.23501297099E+04  0.23501297099E+04  0.00000000000E+00 0. -1.
         25    2    1    2    0    0  0.18812404711E+03 -0.11918180409E+03 -0.67509771988E+03  0.72178704341E+03  0.12499858043E+03 0.  0.
          4    1    3    3  501    0  0.10366279354E+03 -0.94876205979E+02 -0.24186970649E+03  0.27973208083E+03  0.12700000000E+01 0.  1.
         -4    1    3    3    0  501  0.84461253573E+02 -0.24305598115E+02 -0.43322801339E+03  0.44205496258E+03  0.12700000000E+01 0.  1.
          2    1    1    2  502    0 -0.14072877279E+03  0.15916481856E+03 -0.16434129895E+04  0.16570890987E+04  0.00000000000E+00 0. -1.
          1    1    1    2  503    0 -0.47395274325E+02 -0.39983014471E+02  0.66781732484E+03  0.67068989319E+03  0.00000000000E+00 0. -1.
<mgrwt>
<rscale>  0 0.11499094E+03</rscale>
<asrwt>0</asrwt>
<pdfrwt beam="1">  1        2 0.10760559E+00 0.62007689E+02</pdfrwt>
<pdfrwt beam="2">  1        1 0.36155841E+00 0.21324640E+03</pdfrwt>
<totfact> 0.12400564E+01</totfact>
</mgrwt>
</event>
<event>
 7    1  0.7037933E-004  0.9942752E+02  0.7546771E-02  0.1388247E+00
          1   -1    0    0  502    0 -0.00000000000E+00  0.00000000000E+00  0.70046289437E+02  0.70046289437E+02  0.00000000000E+00 0. -1.
          2   -1    0    0  503    0  0.00000000000E+00 -0.00000000000E+00 -0.27123978134E+04  0.27123978134E+04  0.00000000000E+00 0. -1.
         25    2    1    2    0    0  0.13475626836E+03  0.69696223361E+01 -0.70094729457E+03  0.72468607976E+03  0.12503990137E+03 0.  0.
          4    1    3    3  501    0  0.13729590157E+03 -0.36230306624E+01 -0.70036301299E+03  0.71370389785E+03  0.12700000000E+01 0.  1.
         -4    1    3    3    0  501 -0.25396332170E+01  0.10592652999E+02 -0.58428157410E+00  0.10982181904E+02  0.12700000000E+01 0.  1.
          2    1    1    2  502    0 -0.39086479531E+02  0.68090973768E+00  0.50321187835E+02  0.63721569859E+02  0.00000000000E+00 0. -1.
          1    1    1    2  503    0 -0.95669788827E+02 -0.76505320738E+01 -0.19917254172E+04  0.19940364532E+04  0.00000000000E+00 0. -1.
<mgrwt>
<rscale>  0 0.62344697E+02</rscale>
<asrwt>0</asrwt>
<pdfrwt beam="2">  1        2 0.41729194E+00 0.99427517E+02</pdfrwt>
<pdfrwt beam="1">  1        1 0.10776353E-01 0.39092410E+02</pdfrwt>
<totfact> 0.24608255E+02</totfact>
</mgrwt>
</event>
<event>
 7    1  0.7037933E-004  0.1082334E+03  0.7546771E-02  0.1298229E+00
          1   -1    0    0  502    0 -0.00000000000E+00  0.00000000000E+00  0.39669689053E+03  0.39669689053E+03  0.00000000000E+00 0. -1.
          2   -1    0    0  503    0  0.00000000000E+00 -0.00000000000E+00 -0.78439324212E+03  0.78439324212E+03  0.00000000000E+00 0. -1.
         25    2    1    2    0    0 -0.57157322453E+02 -0.12016820290E+03  0.22565583296E+02  0.18396051638E+03  0.12499963816E+03 0.  0.
          4    1    3    3  501    0 -0.82021547003E+02 -0.54067983747E+02  0.47406166600E+02  0.10908638124E+03  0.12700000000E+01 0. -1.
         -4    1    3    3    0  501  0.24864224551E+02 -0.66100219155E+02 -0.24840583305E+02  0.74874135146E+02  0.12700000000E+01 0. -1.
          2    1    1    2  502    0  0.76869357364E+02  0.13770196741E+02  0.28397147828E+03  0.29451369560E+03  0.00000000000E+00 0. -1.
          1    1    1    2  503    0 -0.19712034912E+02  0.10639800616E+03 -0.69423341316E+03  0.70261592067E+03  0.00000000000E+00 0. -1.
<mgrwt>
<rscale>  0 0.91936229E+02</rscale>
<asrwt>0</asrwt>
<pdfrwt beam="2">  1        2 0.12067588E+00 0.10823339E+03</pdfrwt>
<pdfrwt beam="1">  1        1 0.61030291E-01 0.78092999E+02</pdfrwt>
<totfact> 0.31994175E+02</totfact>
</mgrwt>
</event>
<event>
 7    1  0.7037933E-004  0.1178911E+03  0.7546771E-02  0.1423694E+00
          1   -1    0    0  502    0 -0.00000000000E+00  0.00000000000E+00  0.14731568812E+04  0.14731568812E+04  0.00000000000E+00 0. -1.
          2   -1    0    0  503    0  0.00000000000E+00 -0.00000000000E+00 -0.49172602893E+03  0.49172602893E+03  0.00000000000E+00 0. -1.
         25    2    1    2    0    0  0.77571615205E+02  0.62558970626E+02 -0.97432190763E+02  0.18719672105E+03  0.12497439851E+03 0.  0.
          4    1    3    3  501    0  0.80542326481E+02 -0.66433670505E+01 -0.19933716194E+02  0.83247622321E+02  0.12700000000E+01 0. -1.
         -4    1    3    3    0  501 -0.29707112764E+01  0.69202337677E+02 -0.77498474569E+02  0.10394909873E+03  0.12700000000E+01 0. -1.
          2    1    1    2  502    0  0.99810025397E+01  0.22879130110E+02  0.14174539828E+04  0.14176737525E+04  0.00000000000E+00 0. -1.
          1    1    1    2  503    0 -0.87552617745E+02 -0.85438100736E+02 -0.33859093984E+03  0.36001243656E+03  0.00000000000E+00 0. -1.
<mgrwt>
<rscale>  0 0.54246989E+02</rscale>
<asrwt>0</asrwt>
<pdfrwt beam="2">  1        2 0.75650159E-01 0.11789112E+03</pdfrwt>
<pdfrwt beam="1">  1        1 0.22663952E+00 0.24961470E+02</pdfrwt>
<totfact> 0.82800112E+01</totfact>
</mgrwt>
</event>
<event>
 7    1  0.7037933E-004  0.1345867E+03  0.7546771E-02  0.1313353E+00
          1   -1    0    0  503    0  0.00000000000E+00  0.00000000000E+00  0.34473854680E+03  0.34473854680E+03  0.00000000000E+00 0. -1.
         -1   -1    0    0    0  501 -0.00000000000E+00 -0.00000000000E+00 -0.25785149670E+03  0.25785149670E+03  0.00000000000E+00 0.  1.
         25    2    1    2    0    0  0.42168345798E+02  0.12968585707E+03 -0.72944755651E+02  0.19885640171E+03  0.12500536073E+03 0.  0.
          4    1    3    3  502    0  0.35769989622E+02  0.12527200338E+03 -0.10407159951E+03  0.16674854636E+03  0.12700000000E+01 0.  1.
         -4    1    3    3    0  502  0.63983561759E+01  0.44138536862E+01  0.31126843861E+02  0.32107855345E+02  0.12700000000E+01 0.  1.
          2    1    1    2  503    0 -0.54179797413E+02  0.75138194347E+01  0.23879427762E+03  0.24497880511E+03  0.00000000000E+00 0. -1.
         -2    1    1    2    0  501  0.12011451615E+02 -0.13719967650E+03 -0.78962471878E+02  0.15875483668E+03  0.00000000000E+00 0.  1.
<mgrwt>
<rscale>  0 0.85800152E+02</rscale>
<asrwt>0</asrwt>
<pdfrwt beam="1">  1        1 0.53036699E-01 0.54698336E+02</pdfrwt>
<pdfrwt beam="2">  1       -1 0.39669461E-01 0.13458666E+03</pdfrwt>
<totfact> 0.46706065E+02</totfact>
</mgrwt>
</event>
<event>
 7    1  0.7037933E-004  0.9901652E+02  0.7546771E-02  0.1337526E+00
         -2   -1    0    0    0  501 -0.00000000000E+00  0.00000000000E+00  0.49396603101E+03  0.49396603101E+03  0.00000000000E+00 0.  1.
          2   -1    0    0  503    0  0.00000000000E+00 -0.00000000000E+00 -0.13395489552E+03  0.13395489552E+03  0.00000000000E+00 0. -1.
         25    2    1    2    0    0  0.53931048457E+02 -0.12656876225E+03  0.72835633036E+02  0.19962910535E+03  0.12497416011E+03 0.  0.
          4    1    3    3  502    0  0.71320433525E+02 -0.12662314245E+03  0.23394656694E+02  0.14720376117E+03  0.12700000000E+01 0.  1.
         -4    1    3    3    0  502 -0.17389385069E+02  0.54380192552E-01  0.49440976343E+02  0.52425344176E+02  0.12700000000E+01 0.  1.
          1    1    1    2  503    0 -0.62359251716E+02  0.67148373219E+02 -0.36839171904E+02  0.98765909539E+02  0.00000000000E+00 0. -1.
         -1    1    1    2    0  501  0.84282032596E+01  0.59420389035E+02  0.32401467436E+03  0.32952591164E+03  0.00000000000E+00 0.  1.
<mgrwt>
<rscale>  0 0.77087552E+02</rscale>
<asrwt>0</asrwt>
<pdfrwt beam="2">  1        2 0.20608446E-01 0.99016523E+02</pdfrwt>
<pdfrwt beam="1">  1       -2 0.75994773E-01 0.60015142E+02</pdfrwt>
<totfact> 0.42684702E+02</totfact>
</mgrwt>
</event>
<event>
 7    1  0.7037933E-004  0.4852577E+02  0.7546771E-02  0.1467838E+00
          1   -1    0    0  502    0 -0.00000000000E+00  0.00000000000E+00  0.37186890035E+03  0.37186890035E+03  0.00000000000E+00 0. -1.
          2   -1    0    0  503    0  0.00000000000E+00 -0.00000000000E+00 -0.98727398961E+02  0.98727398961E+02  0.00000000000E+00 0. -1.
         25    2    1    2    0    0  0.50350926192E+02 -0.44868326871E+02  0.41667615810E+02  0.14802940013E+03  0.12501252166E+03 0.  0.
          4    1    3    3  501    0 -0.80156054912E+01  0.22057991880E+02 -0.26978787531E+02  0.35780900126E+02  0.12700000000E+01 0. -1.
         -4    1    3    3    0  501  0.58366531683E+02 -0.66926318751E+02  0.68646403342E+02  0.11224850001E+03  0.12700000000E+01 0. -1.
          2    1    1    2  502    0 -0.25750126622E+01  0.43641361689E+02  0.26215457265E+03  0.26577475256E+03  0.00000000000E+00 0. -1.
          1    1    1    2  503    0 -0.47775913530E+02  0.12269651821E+01 -0.30680687074E+02  0.56792146609E+02  0.00000000000E+00 0. -1.
<mgrwt>
<rscale>  0 0.46058807E+02</rscale>
<asrwt>0</asrwt>
<pdfrwt beam="2">  1        2 0.15188831E-01 0.48525766E+02</pdfrwt>
<pdfrwt beam="1">  1        1 0.57210599E-01 0.43717264E+02</pdfrwt>
<totfact> 0.32454282E+03</totfact>
</mgrwt>
</event>
<event>
 7    1  0.7037933E-004  0.7868447E+02  0.7546771E-02  0.1479262E+00
          1   -1    0    0  502    0 -0.00000000000E+00  0.00000000000E+00  0.24072961216E+03  0.24072961216E+03  0.00000000000E+00 0. -1.
          2   -1    0    0  503    0  0.00000000000E+00 -0.00000000000E+00 -0.21661302948E+04  0.21661302948E+04  0.00000000000E+00 0. -1.
         25    2    1    2    0    0  0.11028232624E+02 -0.58863209742E+02 -0.12739339673E+02  0.13918684654E+03  0.12499675236E+03 0.  0.
          4    1    3    3  501    0 -0.20903543701E+02 -0.35704327715E+02 -0.62939188474E+02  0.75330681018E+02  0.12700000000E+01 0. -1.
         -4    1    3    3    0  501  0.31931776324E+02 -0.23158882026E+02  0.50199848801E+02  0.63856165525E+02  0.12700000000E+01 0. -1.
          2    1    1    2  502    0  0.21017919207E+02 -0.13263039599E+02  0.17588690813E+03  0.17763407780E+03  0.00000000000E+00 0. -1.
          1    1    1    2  503    0 -0.32046151831E+02  0.72126249340E+02 -0.20885482511E+04  0.20900389826E+04  0.00000000000E+00 0. -1.
<mgrwt>
<rscale>  0 0.44221360E+02</rscale>
<asrwt>0</asrwt>
<pdfrwt beam="2">  1        2 0.33325080E+00 0.78684474E+02</pdfrwt>
<pdfrwt beam="1">  1        1 0.37035327E-01 0.24852790E+02</pdfrwt>
<totfact> 0.10747115E+02</totfact>
</mgrwt>
</event>
<event>
 7    1  0.7037933E-004  0.1301287E+03  0.7546771E-02  0.1274052E+00
          1   -1    0    0  502    0 -0.00000000000E+00  0.00000000000E+00  0.95173575751E+03  0.95173575751E+03  0.00000000000E+00 0. -1.
          2   -1    0    0  503    0  0.00000000000E+00 -0.00000000000E+00 -0.18053288285E+04  0.18053288285E+04  0.00000000000E+00 0. -1.
         25    2    1    2    0    0 -0.99733532170E+02 -0.17548084554E+02 -0.10015022432E+02  0.16117986336E+03  0.12499573979E+03 0.  0.
          4    1    3    3  501    0  0.84186392324E+01 -0.36390896218E+02 -0.32011952681E+02  0.49209235195E+02  0.12700000000E+01 0.  1.
         -4    1    3    3    0  501 -0.10815217140E+03  0.18842811663E+02  0.21996930250E+02  0.11197062816E+03  0.12700000000E+01 0.  1.
          2    1    1    2  502    0  0.11769546633E+03 -0.62022982192E+02  0.87012733585E+03  0.88023897534E+03  0.00000000000E+00 0. -1.
          1    1    1    2  503    0 -0.17961934164E+02  0.79571066747E+02 -0.17137053845E+04  0.17156457474E+04  0.00000000000E+00 0. -1.
<mgrwt>
<rscale>  0 0.10302919E+03</rscale>
<asrwt>0</asrwt>
<pdfrwt beam="2">  1        2 0.27774289E+00 0.81573193E+02</pdfrwt>
<pdfrwt beam="1">  1        1 0.14642089E+00 0.13012871E+03</pdfrwt>
<totfact> 0.26383467E+01</totfact>
</mgrwt>
</event>
<event>
 7    1  0.7037933E-004  0.7567491E+02  0.7546771E-02  0.1370251E+00
         -2   -1    0    0    0  501 -0.00000000000E+00  0.00000000000E+00  0.59210350561E+03  0.59210350561E+03  0.00000000000E+00 0.  1.
          2   -1    0    0  503    0  0.00000000000E+00 -0.00000000000E+00 -0.13950200601E+04  0.13950200601E+04  0.00000000000E+00 0. -1.
         25    2    1    2    0    0  0.22304685531E+02  0.55276071678E+01  0.55874333754E+02  0.13883478463E+03  0.12500041125E+03 0.  0.
          4    1    3    3  502    0 -0.23255227540E+02 -0.16897452539E+02 -0.28404358420E+02  0.40432041594E+02  0.12700000000E+01 0.  1.
         -4    1    3    3    0  502  0.45559913070E+02  0.22425059707E+02  0.84278692175E+02  0.98402743033E+02  0.12700000000E+01 0.  1.
          1    1    1    2  503    0  0.41430980678E+02  0.42694275978E+02 -0.13496525823E+04  0.13509631454E+04  0.00000000000E+00 0. -1.
         -1    1    1    2    0  501 -0.63735666209E+02 -0.48221883146E+02  0.49086169407E+03  0.49732563565E+03  0.00000000000E+00 0.  1.
<mgrwt>
<rscale>  0 0.67097469E+02</rscale>
<asrwt>0</asrwt>
<pdfrwt beam="2">  1        2 0.21461847E+00 0.59492246E+02</pdfrwt>
<pdfrwt beam="1">  1       -2 0.91092846E-01 0.75674910E+02</pdfrwt>
<totfact> 0.19427587E+01</totfact>
</mgrwt>
</event>
<event>
 7    1  0.7037933E-004  0.3176801E+02  0.7546771E-02  0.1645982E+00
         -1   -1    0    0    0  501 -0.00000000000E+00  0.00000000000E+00  0.37341775192E+02  0.37341775192E+02  0.00000000000E+00 0.  1.
          1   -1    0    0  503    0  0.00000000000E+00 -0.00000000000E+00 -0.95081230289E+03  0.95081230289E+03  0.00000000000E+00 0. -1.
         25    2    1    2    0    0  0.46197444968E+01 -0.40750866327E+02 -0.48685361427E+03  0.50431392144E+03  0.12499645790E+03 0.  0.
          4    1    3    3  502    0 -0.54588160211E+02 -0.25395859318E+02 -0.33892271468E+03  0.34423107985E+03  0.12700000000E+01 0.  1.
         -4    1    3    3    0  502  0.59207904707E+02 -0.15355007009E+02 -0.14793089958E+03  0.16008284159E+03  0.12700000000E+01 0.  1.
          2    1    1    2  503    0  0.13067702985E+02  0.28691346530E+02 -0.45059484139E+03  0.45169643492E+03  0.00000000000E+00 0. -1.
         -2    1    1    2    0  501 -0.17687447482E+02  0.12059519798E+02  0.23977927969E+02  0.32143721717E+02  0.00000000000E+00 0.  1.
<mgrwt>
<rscale>  0 0.26078177E+02</rscale>
<asrwt>0</asrwt>
<pdfrwt beam="2">  1        1 0.14627880E+00 0.31768013E+02</pdfrwt>
<pdfrwt beam="1">  1       -1 0.57448892E-02 0.21407424E+02</pdfrwt>
<totfact> 0.22114740E+03</totfact>
</mgrwt>
</event>
<event>
 7    1  0.7037933E-004  0.8506017E+02  0.7546771E-02  0.1447606E+00
         -2   -1    0    0    0  501 -0.00000000000E+00  0.00000000000E+00  0.18864458643E+04  0.18864458643E+04  0.00000000000E+00 0.  1.
          2   -1    0    0  503    0  0.00000000000E+00 -0.00000000000E+00 -0.31439219099E+03  0.31439219099E+03  0.00000000000E+00 0. -1.
         25    2    1    2    0    0  0.55395169018E+02  0.88260884847E+02  0.68664737260E+00  0.16273423665E+03  0.12499340682E+03 0.  0.
          4    1    3    3  502    0 -0.29942980236E+02  0.43262442563E+02 -0.31122036239E+02  0.61142579612E+02  0.12700000000E+01 0. -1.
         -4    1    3    3    0  502  0.85338149254E+02  0.44998442284E+02  0.31808683612E+02  0.10159165704E+03  0.12700000000E+01 0. -1.
          1    1    1    2  503    0  0.48430108750E+01 -0.28493602124E+02 -0.23147170103E+03  0.23326913318E+03  0.00000000000E+00 0. -1.
         -1    1    1    2    0  501 -0.60238179893E+02 -0.59767282723E+02  0.18028387270E+04  0.18048346855E+04  0.00000000000E+00 0.  1.
<mgrwt>
<rscale>  0 0.49582561E+02</rscale>
<asrwt>0</asrwt>
<pdfrwt beam="2">  1        2 0.48368031E-01 0.28902251E+02</pdfrwt>
<pdfrwt beam="1">  1       -2 0.29022243E+00 0.85060168E+02</pdfrwt>
<totfact> 0.48819392E+00</totfact>
</mgrwt>
</event>
<event>
 7    1  0.7037933E-004  0.5209705E+02  0.7546771E-02  0.1472599E+00
          2   -1    0    0  503    0  0.00000000000E+00  0.00000000000E+00  0.19349788552E+03  0.19349788552E+03  0.00000000000E+00 0. -1.
         -2   -1    0    0    0  501 -0.00000000000E+00 -0.00000000000E+00 -0.19976574794E+04  0.19976574794E+04  0.00000000000E+00 0.  1.
         25    2    1    2    0    0  0.49061425266E+02  0.76344070942E+02 -0.17397505756E+03  0.23268091049E+03  0.12505056913E+03 0.  0.
          4    1    3    3  502    0 -0.36465861363E+02  0.35237271775E+02 -0.10080139029E+03  0.11284483839E+03  0.12700000000E+01 0.  1.
         -4    1    3    3    0  502  0.85527286629E+02  0.41106799167E+02 -0.73173667270E+02  0.11983607211E+03  0.12700000000E+01 0.  1.
          1    1    1    2  503    0 -0.18599335856E+02 -0.34683198392E+02  0.16140902666E+03  0.16613769419E+03  0.00000000000E+00 0. -1.
         -1    1    1    2    0  501 -0.30462089410E+02 -0.41660872550E+02 -0.17915935629E+04  0.17923367602E+04  0.00000000000E+00 0.  1.
<mgrwt>
<rscale>  0 0.45280329E+02</rscale>
<asrwt>0</asrwt>
<pdfrwt beam="1">  1        2 0.29768904E-01 0.39355553E+02</pdfrwt>
<pdfrwt beam="2">  1       -2 0.30733193E+00 0.52097050E+02</pdfrwt>
<totfact> 0.68328919E+00</totfact>
</mgrwt>
</event>
<event>
 7    1  0.7037933E-004  0.7987402E+02  0.7546771E-02  0.1471451E+00
          1   -1    0    0  502    0 -0.00000000000E+00  0.00000000000E+00  0.10187794058E+03  0.10187794058E+03  0.00000000000E+00 0. -1.
          2   -1    0    0  503    0  0.00000000000E+00 -0.00000000000E+00 -0.56150878113E+03  0.56150878113E+03  0.00000000000E+00 0. -1.
         25    2    1    2    0    0  0.30659621819E+02 -0.46125056995E+02 -0.35962128107E+03  0.38473264537E+03  0.12499683725E+03 0.  0.
          4    1    3    3  501    0  0.74924413979E+02 -0.40730539097E+01 -0.18015221080E+03  0.19515811419E+03  0.12700000000E+01 0. -1.
         -4    1    3    3    0  501 -0.44264792160E+02 -0.42052003085E+02 -0.17946907027E+03  0.18957453118E+03  0.12700000000E+01 0. -1.
          2    1    1    2  502    0 -0.41915752197E+02  0.69429763465E+02  0.69727738695E+02  0.10695503672E+03  0.00000000000E+00 0. -1.
          1    1    1    2  503    0  0.11256130378E+02 -0.23304706470E+02 -0.16973729817E+03  0.17169903961E+03  0.00000000000E+00 0. -1.
<mgrwt>
<rscale>  0 0.45466410E+02</rscale>
<asrwt>0</asrwt>
<pdfrwt beam="2">  1        2 0.86385965E-01 0.25880684E+02</pdfrwt>
<pdfrwt beam="1">  1        1 0.15673529E-01 0.79874024E+02</pdfrwt>
<totfact> 0.25788319E+03</totfact>
</mgrwt>
</event>
<event>
 7    1  0.7037933E-004  0.6342429E+02  0.7546771E-02  0.1400329E+00
          2   -1    0    0  503    0  0.00000000000E+00  0.00000000000E+00  0.16977226498E+03  0.16977226498E+03  0.00000000000E+00 0. -1.
          1   -1    0    0  502    0 -0.00000000000E+00 -0.00000000000E+00 -0.11717918742E+04  0.11717918742E+04  0.00000000000E+00 0. -1.
         25    2    1    2    0    0  0.22200755515E+02 -0.44033662054E+02 -0.65504947038E+03  0.66868752178E+03  0.12498542395E+03 0.  0.
          4    1    3    3  501    0 -0.49557696961E+02 -0.24715804816E+02 -0.36925239630E+03  0.37338422758E+03  0.12700000000E+01 0. -1.
         -4    1    3    3    0  501  0.71758452476E+02 -0.19317857238E+02 -0.28579707408E+03  0.29530329420E+03  0.12700000000E+01 0. -1.
          2    1    1    2  502    0  0.41224030667E+02  0.37380171357E+02 -0.50208727447E+03  0.50516168610E+03  0.00000000000E+00 0. -1.
          1    1    1    2  503    0 -0.63424786182E+02  0.66534906973E+01  0.15511713559E+03  0.16771493134E+03  0.00000000000E+00 0. -1.
<mgrwt>
<rscale>  0 0.59409036E+02</rscale>
<asrwt>0</asrwt>
<pdfrwt beam="1">  1        2 0.26118809E-01 0.63424286E+02</pdfrwt>
<pdfrwt beam="2">  1        1 0.18027568E+00 0.55647982E+02</pdfrwt>
<totfact> 0.36295924E+02</totfact>
</mgrwt>
</event>
<event>
 7    1  0.7037933E-004  0.2627763E+03  0.7546771E-02  0.1296010E+00
          2   -1    0    0  503    0  0.00000000000E+00  0.00000000000E+00  0.70214778315E+03  0.70214778315E+03  0.00000000000E+00 0. -1.
          1   -1    0    0  502    0 -0.00000000000E+00 -0.00000000000E+00 -0.24739966291E+03  0.24739966291E+03  0.00000000000E+00 0. -1.
         25    2    1    2    0    0 -0.27166688732E+03  0.74596624935E+02  0.34696671345E+03  0.46408739633E+03  0.12499462814E+03 0.  0.
          4    1    3    3  501    0 -0.63198688275E+02  0.34962005412E+02  0.21168301712E+02  0.75273673482E+02  0.12700000000E+01 0.  1.
         -4    1    3    3    0  501 -0.20846819905E+03  0.39634619523E+02  0.32579841174E+03  0.38881372284E+03  0.12700000000E+01 0.  1.
          2    1    1    2  502    0  0.24265341052E+03 -0.89966634304E+02 -0.98258745962E+02  0.27682025591E+03  0.00000000000E+00 0. -1.
          1    1    1    2  503    0  0.29013476802E+02  0.15370009369E+02  0.20604015275E+03  0.20863979383E+03  0.00000000000E+00 0. -1.
<mgrwt>
<rscale>  0 0.92885876E+02</rscale>
<asrwt>0</asrwt>
<pdfrwt beam="1">  1        2 0.10802273E+00 0.32833200E+02</pdfrwt>
<pdfrwt beam="2">  1        1 0.38061487E-01 0.26277627E+03</pdfrwt>
<totfact> 0.67813739E+02</totfact>
</mgrwt>
</event>
<event>
 7    1  0.7037933E-004  0.4489003E+02  0.7546771E-02  0.1546164E+00
          1   -1    0    0  502    0 -0.00000000000E+00  0.00000000000E+00  0.24007683578E+03  0.24007683578E+03  0.00000000000E+00 0. -1.
          2   -1    0    0  503    0  0.00000000000E+00 -0.00000000000E+00 -0.12820260188E+04  0.12820260188E+04  0.00000000000E+00 0. -1.
         25    2    1    2    0    0  0.18724720375E+02 -0.22099089434E+02 -0.24748259173E+03  0.27876897333E+03  0.12500208947E+03 0.  0.
          4    1    3    3  501    0 -0.29901930131E+02  0.18659985417E+02 -0.18967102814E+03  0.19292234785E+03  0.12700000000E+01 0.  1.
         -4    1    3    3    0  501  0.48626650506E+02 -0.40759074851E+02 -0.57811563590E+02  0.85846625483E+02  0.12700000000E+01 0.  1.
          2    1    1    2  502    0 -0.43858169534E+02  0.10404774977E+02  0.22197951880E+03  0.22650983454E+03  0.00000000000E+00 0. -1.
          1    1    1    2  503    0  0.25133449159E+02  0.11694314457E+02 -0.10164461101E+04  0.10168240467E+04  0.00000000000E+00 0. -1.
<mgrwt>
<rscale>  0 0.35275929E+02</rscale>
<asrwt>0</asrwt>
<pdfrwt beam="2">  1        2 0.19723477E+00 0.27720881E+02</pdfrwt>
<pdfrwt beam="1">  1        1 0.36934898E-01 0.44890028E+02</pdfrwt>
<totfact> 0.32863425E+02</totfact>
</mgrwt>
</event>
<event>
 7    1  0.7037933E-004  0.9915664E+02  0.7546771E-02  0.1395903E+00
         -1   -1    0    0    0  501 -0.00000000000E+00  0.00000000000E+00  0.14913156540E+03  0.14913156540E+03  0.00000000000E+00 0.  1.
          1   -1    0    0  503    0  0.00000000000E+00 -0.00000000000E+00 -0.35814482477E+03  0.35814482477E+03  0.00000000000E+00 0. -1.
         25    2    1    2    0    0 -0.44927578158E+02  0.11609708007E+03 -0.47987090894E+02  0.18282247794E+03  0.12499711303E+03 0.  0.
          4    1    3    3  502    0 -0.59441661229E+02  0.13165821016E+03 -0.62115242607E+02  0.15724856647E+03  0.12700000000E+01 0. -1.
         -4    1    3    3    0  502  0.14514083071E+02 -0.15561130089E+02  0.14128151713E+02  0.25573911469E+02  0.12700000000E+01 0. -1.
          2    1    1    2  503    0  0.14900703288E+02 -0.94705276942E+02 -0.22837092315E+03  0.24767801473E+03  0.00000000000E+00 0. -1.
         -2    1    1    2    0  501  0.30026874869E+02 -0.21391803132E+02  0.67344754676E+02  0.76775897507E+02  0.00000000000E+00 0.  1.
<mgrwt>
<rscale>  0 0.60462144E+02</rscale>
<asrwt>0</asrwt>
<pdfrwt beam="2">  1        1 0.55099203E-01 0.99156644E+02</pdfrwt>
<pdfrwt beam="1">  1       -1 0.22943318E-01 0.36867634E+02</pdfrwt>
<totfact> 0.10673889E+03</totfact>
</mgrwt>
</event>
<event>
 7    1  0.7037933E-004  0.8807785E+02  0.7546771E-02  0.1330236E+00
          1   -1    0    0  502    0 -0.00000000000E+00  0.00000000000E+00  0.15027850815E+04  0.15027850815E+04  0.00000000000E+00 0. -1.
          2   -1    0    0  503    0  0.00000000000E+00 -0.00000000000E+00 -0.15441276934E+04  0.15441276934E+04  0.00000000000E+00 0. -1.
         25    2    1    2    0    0  0.17860611356E+01  0.32378180998E+02  0.44034816257E+03  0.45889293271E+03  0.12499873119E+03 0.  0.
          4    1    3    3  501    0  0.36909440051E+02  0.49634043754E+02  0.39116855750E+03  0.39603067853E+03  0.12700000000E+01 0.  1.
         -4    1    3    3    0  501 -0.35123378915E+02 -0.17255862756E+02  0.49179605067E+02  0.62862254178E+02  0.12700000000E+01 0.  1.
          2    1    1    2  502    0 -0.66283814270E+02  0.27881722491E+02  0.10506655120E+04  0.10531234271E+04  0.00000000000E+00 0. -1.
          1    1    1    2  503    0  0.64497753135E+02 -0.60259903489E+02 -0.15323562865E+04  0.15348964150E+04  0.00000000000E+00 0. -1.
<mgrwt>
<rscale>  0 0.79583972E+02</rscale>
<asrwt>0</asrwt>
<pdfrwt beam="2">  1        2 0.23755811E+00 0.88077849E+02</pdfrwt>
<pdfrwt beam="1">  1        1 0.23119771E+00 0.71909210E+02</pdfrwt>
<totfact> 0.15743252E+01</totfact>
</mgrwt>
</event>
<event>
 7    1  0.7037933E-004  0.5871829E+02  0.7546771E-02  0.1447293E+00
          2   -1    0    0  503    0  0.00000000000E+00  0.00000000000E+00  0.20081938964E+03  0.20081938964E+03  0.00000000000E+00 0. -1.
          1   -1    0    0  502    0 -0.00000000000E+00 -0.00000000000E+00 -0.98989391560E+02  0.98989391560E+02  0.00000000000E+00 0. -1.
         25    2    1    2    0    0 -0.12345396362E+02  0.36438062785E+02  0.53039642940E+01  0.13089394752E+03  0.12499980891E+03 0.  0.
          4    1    3    3  501    0  0.70576684716E+01 -0.43953670120E+02 -0.12570066176E+02  0.46274780010E+02  0.12700000000E+01 0. -1.
         -4    1    3    3    0  501 -0.19403064834E+02  0.80391732905E+02  0.17874030470E+02  0.84619167507E+02  0.12700000000E+01 0. -1.
          2    1    1    2  502    0 -0.87046704955E+01 -0.72742025817E+02  0.11583077669E+02  0.74171027340E+02  0.00000000000E+00 0. -1.
          1    1    1    2  503    0  0.21050066858E+02  0.36303963032E+02  0.84942956112E+02  0.94743806339E+02  0.00000000000E+00 0. -1.
<mgrwt>
<rscale>  0 0.49639988E+02</rscale>
<asrwt>0</asrwt>
<pdfrwt beam="1">  1        2 0.30895291E-01 0.41965260E+02</pdfrwt>
<pdfrwt beam="2">  1        1 0.15229137E-01 0.58718291E+02</pdfrwt>
<totfact> 0.74996810E+03</totfact>
</mgrwt>
</event>
<event>
 7    1  0.7037933E-004  0.7656823E+02  0.7546771E-02  0.1406187E+00
         -1   -1    0    0    0  501 -0.00000000000E+00  0.00000000000E+00  0.13912556992E+03  0.13912556992E+03  0.00000000000E+00 0.  1.
          1   -1    0    0  503    0  0.00000000000E+00 -0.00000000000E+00 -0.11875848352E+04  0.11875848352E+04  0.00000000000E+00 0. -1.
         25    2    1    2    0    0 -0.85634498894E+01 -0.43397271299E+02 -0.17843692870E+03  0.22231883081E+03  0.12501707554E+03 0.  0.
          4    1    3    3  502    0 -0.43965015757E+02 -0.48425728356E+02 -0.34414303962E+02  0.73918407684E+02  0.12700000000E+01 0. -1.
         -4    1    3    3    0  502  0.35401565868E+02  0.50284570571E+01 -0.14402262474E+03  0.14840042312E+03  0.12700000000E+01 0. -1.
          2    1    1    2  503    0  0.29282435414E+02 -0.32862070154E+02 -0.97333031947E+03  0.97432504200E+03  0.00000000000E+00 0. -1.
         -2    1    1    2    0  501 -0.20718985525E+02  0.76259341453E+02  0.10330798284E+03  0.13006653235E+03  0.00000000000E+00 0.  1.
<mgrwt>
<rscale>  0 0.58053422E+02</rscale>
<asrwt>0</asrwt>
<pdfrwt beam="2">  1        1 0.18270536E+00 0.44015641E+02</pdfrwt>
<pdfrwt beam="1">  1       -1 0.21403933E-01 0.76568232E+02</pdfrwt>
<totfact> 0.23520454E+02</totfact>
</mgrwt>
</event>
<event>
 7    1  0.7037933E-004  0.7335018E+02  0.7546771E-02  0.1396821E+00
          1   -1    0    0  502    0 -0.00000000000E+00  0.00000000000E+00  0.12751523040E+03  0.12751523040E+03  0.00000000000E+00 0. -1.
          2   -1    0    0  503    0  0.00000000000E+00 -0.00000000000E+00 -0.37005310289E+04  0.37005310289E+04  0.00000000000E+00 0. -1.
         25    2    1    2    0    0  0.48018161674E+02 -0.46928510044E+02 -0.20150489626E+03  0.24644977509E+03  0.12500095809E+03 0.  0.
          4    1    3    3  501    0 -0.14716047334E+02  0.22454676554E+02 -0.11810018394E+03  0.12111994425E+03  0.12700000000E+01 0.  1.
         -4    1    3    3    0  501  0.62734209008E+02 -0.69383186598E+02 -0.83404712313E+02  0.12532983084E+03  0.12700000000E+01 0.  1.
          2    1    1    2  502    0 -0.74450371122E+02  0.51056717411E+01  0.91589815338E+02  0.11814237139E+03  0.00000000000E+00 0. -1.
          1    1    1    2  503    0  0.26432209448E+02  0.41822838303E+02 -0.34631007176E+04  0.34634541128E+04  0.00000000000E+00 0. -1.
<mgrwt>
<rscale>  0 0.60241406E+02</rscale>
<asrwt>0</asrwt>
<pdfrwt beam="2">  1        2 0.56931235E+00 0.49475363E+02</pdfrwt>
<pdfrwt beam="1">  1        1 0.19617732E-01 0.73350185E+02</pdfrwt>
<totfact> 0.35429650E+01</totfact>
</mgrwt>
</event>
<event>
 7    1  0.7037933E-004  0.9516059E+02  0.7546771E-02  0.1365678E+00
         -2   -1    0    0    0  501 -0.00000000000E+00  0.00000000000E+00  0.92497015584E+02  0.92497015584E+02  0.00000000000E+00 0.  1.
          2   -1    0    0  503    0  0.00000000000E+00 -0.00000000000E+00 -0.12282731417E+04  0.12282731417E+04  0.00000000000E+00 0. -1.
         25    2    1    2    0    0  0.13719727477E+03  0.16529483781E+02 -0.37877390929E+03  0.42212364037E+03  0.12498950900E+03 0.  0.
          4    1    3    3  502    0  0.15433758099E+03  0.28827939767E+02 -0.36375917915E+03  0.39619880405E+03  0.12700000000E+01 0.  1.
         -4    1    3    3    0  502 -0.17140306220E+02 -0.12298455986E+02 -0.15014730149E+02  0.25924836324E+02  0.12700000000E+01 0.  1.
          1    1    1    2  503    0 -0.48494134420E+02  0.79482348600E+01 -0.79685489153E+03  0.79836869532E+03  0.00000000000E+00 0. -1.
         -1    1    1    2    0  501 -0.88703140348E+02 -0.24477718641E+02  0.39852674725E+02  0.10027782158E+03  0.00000000000E+00 0.  1.
<mgrwt>
<rscale>  0 0.68383506E+02</rscale>
<asrwt>0</asrwt>
<pdfrwt beam="2">  1        2 0.18896509E+00 0.49141179E+02</pdfrwt>
<pdfrwt beam="1">  1       -2 0.14230311E-01 0.95160594E+02</pdfrwt>
<totfact> 0.76857740E+02</totfact>
</mgrwt>
</event>
<event>
 7    1  0.7037933E-004  0.1233181E+03  0.7546771E-02  0.1250259E+00
          2   -1    0    0  503    0  0.00000000000E+00  0.00000000000E+00  0.11908612695E+04  0.11908612695E+04  0.00000000000E+00 0. -1.
          1   -1    0    0  502    0 -0.00000000000E+00 -0.00000000000E+00 -0.83784504015E+03  0.83784504015E+03  0.00000000000E+00 0. -1.
         25    2    1    2    0    0 -0.51237887725E+02  0.25876391894E+02  0.19312812037E+03  0.23710614059E+03  0.12500376888E+03 0.  0.
          4    1    3    3  501    0 -0.76814052247E+02 -0.24658334340E+02  0.11994288273E+03  0.14455566434E+03  0.12700000000E+01 0.  1.
         -4    1    3    3    0  501  0.25576164522E+02  0.50534726234E+02  0.73185237638E+02  0.92550476256E+02  0.12700000000E+01 0.  1.
          2    1    1    2  502    0  0.10507469504E+03  0.68516249958E+02 -0.80797575899E+03  0.81765518109E+03  0.00000000000E+00 0. -1.
          1    1    1    2  503    0 -0.53836807311E+02 -0.94392641852E+02  0.96786386801E+03  0.97394498800E+03  0.00000000000E+00 0. -1.
<mgrwt>
<rscale>  0 0.11576062E+03</rscale>
<asrwt>0</asrwt>
<pdfrwt beam="1">  1        2 0.18320942E+00 0.10866634E+03</pdfrwt>
<pdfrwt beam="2">  1        1 0.12889924E+00 0.12331805E+03</pdfrwt>
<totfact> 0.65629771E+01</totfact>
</mgrwt>
</event>
<event>
 7    1  0.7037933E-004  0.1036064E+03  0.7546771E-02  0.1300802E+00
          2   -1    0    0  503    0  0.00000000000E+00  0.00000000000E+00  0.20924336518E+03  0.20924336518E+03  0.00000000000E+00 0. -1.
          1   -1    0    0  502    0 -0.00000000000E+00 -0.00000000000E+00 -0.90091712704E+03  0.90091712704E+03  0.00000000000E+00 0. -1.
         25    2    1    2    0    0 -0.80839695376E+01 -0.32466530040E+02  0.90308251480E+02  0.15779858123E+03  0.12500154325E+03 0.  0.
          4    1    3    3  501    0  0.57335039699E+02 -0.12518737851E+02  0.56588335397E+02  0.81534521387E+02  0.12700000000E+01 0.  1.
         -4    1    3    3    0  501 -0.65419009237E+02 -0.19947792190E+02  0.33719916083E+02  0.76264059841E+02  0.12700000000E+01 0.  1.
          2    1    1    2  502    0  0.77235180502E+02  0.72026578238E+02 -0.84450948810E+03  0.85108717331E+03  0.00000000000E+00 0. -1.
          1    1    1    2  503    0 -0.69151210965E+02 -0.39560048197E+02  0.62527474764E+02  0.10127473768E+03  0.00000000000E+00 0. -1.
<mgrwt>
<rscale>  0 0.90851771E+02</rscale>
<asrwt>0</asrwt>
<pdfrwt beam="1">  1        2 0.32191287E-01 0.79667355E+02</pdfrwt>
<pdfrwt beam="2">  1        1 0.13860264E+00 0.10360636E+03</pdfrwt>
<totfact> 0.43535942E+02</totfact>
</mgrwt>
</event>
<event>
 7    1  0.7037933E-004  0.3214559E+02  0.7546771E-02  0.1644610E+00
         -2   -1    0    0    0  501 -0.00000000000E+00  0.00000000000E+00  0.39472682032E+02  0.39472682032E+02  0.00000000000E+00 0. -1.
          2   -1    0    0  503    0  0.00000000000E+00 -0.00000000000E+00 -0.34124649743E+03  0.34124649743E+03  0.00000000000E+00 0.  1.
         25    2    1    2    0    0  0.14973609231E+00  0.34577212167E+02 -0.14042945418E+03  0.19112807995E+03  0.12495561340E+03 0.  0.
          4    1    3    3  502    0 -0.51096718923E+01  0.78314362109E+02 -0.11788653399E+03  0.14162660716E+03  0.12700000000E+01 0.  1.
         -4    1    3    3    0  502  0.52594079846E+01 -0.43737149942E+02 -0.22542920190E+02  0.49501472787E+02  0.12700000000E+01 0.  1.
          1    1    1    2  503    0 -0.19805325376E+02 -0.78964551931E+01  0.33611938214E+01  0.21584775694E+02  0.00000000000E+00 0. -1.
         -1    1    1    2    0  501  0.19655589284E+02 -0.26680756974E+02 -0.16470555504E+03  0.16800632382E+03  0.00000000000E+00 0.  1.
<mgrwt>
<rscale>  0 0.26179977E+02</rscale>
<asrwt>0</asrwt>
<pdfrwt beam="2">  1        2 0.52499458E-01 0.21321466E+02</pdfrwt>
<pdfrwt beam="1">  1       -2 0.60727206E-02 0.32145595E+02</pdfrwt>
<totfact> 0.11173937E+04</totfact>
</mgrwt>
</event>
<event>
 7    1  0.7037933E-004  0.5791135E+02  0.7546771E-02  0.1412684E+00
          2   -1    0    0  503    0  0.00000000000E+00  0.00000000000E+00  0.10981033353E+04  0.10981033353E+04  0.00000000000E+00 0. -1.
          1   -1    0    0  502    0 -0.00000000000E+00 -0.00000000000E+00 -0.10624097941E+03  0.10624097941E+03  0.00000000000E+00 0. -1.
         25    2    1    2    0    0 -0.38974719888E+02  0.23230021255E+02  0.50588087285E+03  0.52306177418E+03  0.12497799574E+03 0.  0.
          4    1    3    3  501    0  0.19291848051E+02 -0.34628569906E+02  0.79492121333E+02  0.88836498743E+02  0.12700000000E+01 0.  1.
         -4    1    3    3    0  501 -0.58266567939E+02  0.57858591161E+02  0.42638875151E+03  0.43422527544E+03  0.12700000000E+01 0.  1.
          2    1    1    2  502    0 -0.36940718988E+01 -0.58433713464E+02 -0.87421664010E+02  0.10521735776E+03  0.00000000000E+00 0. -1.
          1    1    1    2  503    0  0.42668791787E+02  0.35203692208E+02  0.57340314707E+03  0.57606518278E+03  0.00000000000E+00 0. -1.
<mgrwt>
<rscale>  0 0.56599106E+02</rscale>
<asrwt>0</asrwt>
<pdfrwt beam="1">  1        2 0.16893897E+00 0.55316595E+02</pdfrwt>
<pdfrwt beam="2">  1        1 0.16344767E-01 0.57911352E+02</pdfrwt>
<totfact> 0.10636590E+03</totfact>
</mgrwt>
</event>
<event>
 7    1  0.7037933E-004  0.8899474E+02  0.7546771E-02  0.1414756E+00
          1   -1    0    0  502    0 -0.00000000000E+00  0.00000000000E+00  0.83750613814E+02  0.83750613814E+02  0.00000000000E+00 0. -1.
          2   -1    0    0  503    0  0.00000000000E+00 -0.00000000000E+00 -0.22511543516E+04  0.22511543516E+04  0.00000000000E+00 0. -1.
         25    2    1    2    0    0  0.21605235656E+02 -0.11994842758E+03 -0.48980673680E+03  0.51999053730E+03  0.12500043193E+03 0.  0.
          4    1    3    3  501    0  0.57052700918E+02 -0.85922417294E+01 -0.16375333911E+03  0.17362490107E+03  0.12700000000E+01 0.  1.
         -4    1    3    3    0  501 -0.35447465262E+02 -0.11135618585E+03 -0.32605339769E+03  0.34636563623E+03  0.12700000000E+01 0.  1.
          2    1    1    2  502    0 -0.31763918437E+01  0.35279356327E+02  0.62939353175E+02  0.72222466214E+02  0.00000000000E+00 0. -1.
          1    1    1    2  503    0 -0.18428843812E+02  0.84669071255E+02 -0.17405363542E+04  0.17426919619E+04  0.00000000000E+00 0. -1.
<mgrwt>
<rscale>  0 0.56146033E+02</rscale>
<asrwt>0</asrwt>
<pdfrwt beam="2">  1        2 0.34633147E+00 0.88994737E+02</pdfrwt>
<pdfrwt beam="1">  1        1 0.12884709E-01 0.35422062E+02</pdfrwt>
<totfact> 0.34602404E+02</totfact>
</mgrwt>
</event>
<event>
 7    1  0.7037933E-004  0.6732183E+02  0.7546771E-02  0.1414277E+00
          2   -1    0    0  503    0  0.00000000000E+00  0.00000000000E+00  0.10680931222E+03  0.10680931222E+03  0.00000000000E+00 0. -1.
          1   -1    0    0  502    0 -0.00000000000E+00 -0.00000000000E+00 -0.37750076399E+03  0.37750076399E+03  0.00000000000E+00 0. -1.
         25    2    1    2    0    0  0.19072124599E+02  0.19769972322E+02 -0.89450158858E+02  0.15609257285E+03  0.12493583408E+03 0.  0.
          4    1    3    3  501    0  0.32530913480E+02  0.10752920078E+02 -0.11819785002E+03  0.12307002182E+03  0.12700000000E+01 0. -1.
         -4    1    3    3    0  501 -0.13458788881E+02  0.90170522439E+01  0.28747691162E+02  0.33022551029E+02  0.12700000000E+01 0. -1.
          2    1    1    2  502    0 -0.58575190961E+02 -0.45235237368E+02 -0.24104765755E+03  0.25215323299E+03  0.00000000000E+00 0. -1.
          1    1    1    2  503    0  0.39503066361E+02  0.25465265046E+02  0.59806364644E+02  0.76064270375E+02  0.00000000000E+00 0. -1.
<mgrwt>
<rscale>  0 0.56250384E+02</rscale>
<asrwt>0</asrwt>
<pdfrwt beam="1">  1        2 0.16432202E-01 0.46999702E+02</pdfrwt>
<pdfrwt beam="2">  1        1 0.58077041E-01 0.67321826E+02</pdfrwt>
<totfact> 0.29032154E+03</totfact>
</mgrwt>
</event>
<event>
 7    1  0.7037933E-004  0.6270134E+02  0.7546771E-02  0.1389283E+00
          2   -1    0    0  503    0  0.00000000000E+00  0.00000000000E+00  0.29249596930E+03  0.29249596930E+03  0.00000000000E+00 0. -1.
          1   -1    0    0  502    0 -0.00000000000E+00 -0.00000000000E+00 -0.82287237916E+03  0.82287237916E+03  0.00000000000E+00 0. -1.
         25    2    1    2    0    0  0.19932975789E+02 -0.14019006659E+02 -0.20620142876E+03  0.24236276894E+03  0.12500730567E+03 0.  0.
          4    1    3    3  501    0  0.70531765546E+02  0.54319137767E+01 -0.13937433978E+03  0.15630436695E+03  0.12700000000E+01 0.  1.
         -4    1    3    3    0  501 -0.50598789757E+02 -0.19450920436E+02 -0.66827088985E+02  0.86058401989E+02  0.12700000000E+01 0.  1.
          2    1    1    2  502    0 -0.40610605933E+02 -0.46152275492E+02 -0.59329259572E+03  0.59646907546E+03  0.00000000000E+00 0. -1.
          1    1    1    2  503    0  0.20677630143E+02  0.60171282151E+02  0.26911761461E+03  0.27653650406E+03  0.00000000000E+00 0. -1.
<mgrwt>
<rscale>  0 0.62085461E+02</rscale>
<asrwt>0</asrwt>
<pdfrwt beam="1">  1        2 0.44999380E-01 0.62701336E+02</pdfrwt>
<pdfrwt beam="2">  1        1 0.12659575E+00 0.61475636E+02</pdfrwt>
<totfact> 0.36129977E+02</totfact>
</mgrwt>
</event>
<event>
 7    1  0.7037933E-004  0.7596278E+02  0.7546771E-02  0.1399956E+00
          2   -1    0    0  503    0  0.00000000000E+00  0.00000000000E+00  0.21179491426E+04  0.21179491426E+04  0.00000000000E+00 0. -1.
          1   -1    0    0  502    0 -0.00000000000E+00 -0.00000000000E+00 -0.94330680071E+02  0.94330680071E+02  0.00000000000E+00 0. -1.
         25    2    1    2    0    0 -0.59106484525E+02 -0.42144000741E+02  0.33287080453E+03  0.36290194839E+03  0.12500063330E+03 0.  0.
          4    1    3    3  501    0 -0.90067197953E+02  0.26004655487E+01  0.20962335075E+03  0.22817191906E+03  0.12700000000E+01 0.  1.
         -4    1    3    3    0  501  0.30960713428E+02 -0.44744466289E+02  0.12324745378E+03  0.13473002933E+03  0.12700000000E+01 0.  1.
          2    1    1    2  502    0  0.76857698096E+02 -0.94251950622E+00 -0.60310158211E+02  0.97700098685E+02  0.00000000000E+00 0. -1.
          1    1    1    2  503    0 -0.17751213571E+02  0.43086520247E+02  0.17510578162E+04  0.17516777756E+04  0.00000000000E+00 0. -1.
<mgrwt>
<rscale>  0 0.59496728E+02</rscale>
<asrwt>0</asrwt>
<pdfrwt beam="1">  1        2 0.32583830E+00 0.46599934E+02</pdfrwt>
<pdfrwt beam="2">  1        1 0.14512414E-01 0.75962784E+02</pdfrwt>
<totfact> 0.39422446E+02</totfact>
</mgrwt>
</event>
<event>
 7    1  0.7037933E-004  0.5295263E+02  0.7546771E-02  0.1515449E+00
          2   -1    0    0  503    0  0.00000000000E+00  0.00000000000E+00  0.17304458746E+04  0.17304458746E+04  0.00000000000E+00 0. -1.
          1   -1    0    0  502    0 -0.00000000000E+00 -0.00000000000E+00 -0.10443359143E+03  0.10443359143E+03  0.00000000000E+00 0. -1.
         25    2    1    2    0    0 -0.13455839081E+02  0.80411355275E+02  0.24141805105E+02  0.15115577362E+03  0.12497277896E+03 0.  0.
          4    1    3    3  501    0 -0.68605609437E+02  0.33026563348E+02  0.17460757436E+02  0.78127936637E+02  0.12700000000E+01 0. -1.
         -4    1    3    3    0  501  0.55149770356E+02  0.47384791927E+02  0.66810476688E+01  0.73027836982E+02  0.12700000000E+01 0. -1.
          2    1    1    2  502    0  0.51592683523E+01 -0.28306319066E+02 -0.35391579140E+02  0.45611726815E+02  0.00000000000E+00 0. -1.
          1    1    1    2  503    0  0.82965707289E+01 -0.52105036209E+02  0.16372620572E+04  0.16381119656E+04  0.00000000000E+00 0. -1.
<mgrwt>
<rscale>  0 0.39033162E+02</rscale>
<asrwt>0</asrwt>
<pdfrwt beam="1">  1        2 0.26622242E+00 0.52952628E+02</pdfrwt>
<pdfrwt beam="2">  1        1 0.16066708E-01 0.28772656E+02</pdfrwt>
<totfact> 0.49984658E+02</totfact>
</mgrwt>
</event>
<event>
 7    1  0.7037933E-004  0.4696312E+02  0.7546771E-02  0.1555042E+00
          2   -1    0    0  503    0  0.00000000000E+00  0.00000000000E+00  0.86436042533E+03  0.86436042533E+03  0.00000000000E+00 0. -1.
          1   -1    0    0  502    0 -0.00000000000E+00 -0.00000000000E+00 -0.74324195583E+03  0.74324195583E+03  0.00000000000E+00 0. -1.
         25    2    1    2    0    0  0.25884677686E+02  0.13699568859E+02  0.46190963744E+03  0.47942215239E+03  0.12500956889E+03 0.  0.
          4    1    3    3  501    0  0.19648026598E+02  0.40557251695E+02  0.44451790075E+03  0.44679829074E+03  0.12700000000E+01 0.  1.
         -4    1    3    3    0  501  0.62366510880E+01 -0.26857682836E+02  0.17391736690E+02  0.32623861654E+02  0.12700000000E+01 0.  1.
          2    1    1    2  502    0 -0.26638541441E+02 -0.38717906145E+02 -0.73333492349E+03  0.73483930091E+03  0.00000000000E+00 0. -1.
          1    1    1    2  503    0  0.75386375489E+00  0.25018337286E+02  0.39254375555E+03  0.39334092786E+03  0.00000000000E+00 0. -1.
<mgrwt>
<rscale>  0 0.34285163E+02</rscale>
<asrwt>0</asrwt>
<pdfrwt beam="1">  1        2 0.13297853E+00 0.25029693E+02</pdfrwt>
<pdfrwt beam="2">  1        1 0.11434492E+00 0.46963119E+02</pdfrwt>
<totfact> 0.13578286E+02</totfact>
</mgrwt>
</event>
<event>
 7    1  0.7037933E-004  0.7798520E+02  0.7546771E-02  0.1394197E+00
         -2   -1    0    0    0  501 -0.00000000000E+00  0.00000000000E+00  0.15813474569E+02  0.15813474569E+02  0.00000000000E+00 0.  1.
          2   -1    0    0  503    0  0.00000000000E+00 -0.00000000000E+00 -0.13956001610E+04  0.13956001610E+04  0.00000000000E+00 0. -1.
         25    2    1    2    0    0  0.43884194382E+02 -0.91952415241E+02 -0.77266836915E+03  0.78931774545E+03  0.12500010166E+03 0.  0.
          4    1    3    3  502    0  0.22322043484E+02  0.19330973299E+02 -0.52208956295E+02  0.59994567849E+02  0.12700000000E+01 0.  1.
         -4    1    3    3    0  502  0.21562150898E+02 -0.11128338854E+03 -0.72045941286E+03  0.72932317760E+03  0.12700000000E+01 0.  1.
          1    1    1    2  503    0 -0.56068273006E+02  0.46022479828E+02 -0.49553302037E+03  0.50081403151E+03  0.00000000000E+00 0. -1.
         -1    1    1    2    0  501  0.12184078624E+02  0.45929935412E+02 -0.11158529692E+03  0.12128185860E+03  0.00000000000E+00 0.  1.
<mgrwt>
<rscale>  0 0.60874807E+02</rscale>
<asrwt>0</asrwt>
<pdfrwt beam="2">  1        2 0.21470777E+00 0.77985200E+02</pdfrwt>
<pdfrwt beam="1">  1       -2 0.24328416E-02 0.47518530E+02</pdfrwt>
<totfact> 0.79656626E+03</totfact>
</mgrwt>
</event>
<event>
 7    1  0.7037933E-004  0.8576557E+02  0.7546771E-02  0.1475111E+00
         -2   -1    0    0    0  501  0.00000000000E+00  0.00000000000E+00  0.27129544963E+03  0.27129544963E+03  0.00000000000E+00 0.  1.
         -1   -1    0    0    0  502 -0.00000000000E+00 -0.00000000000E+00 -0.63797861414E+03  0.63797861414E+03  0.00000000000E+00 0.  1.
         25    2    1    2    0    0 -0.10606832222E+03 -0.39258407113E+01 -0.32352001960E+03  0.36270512533E+03  0.12499561453E+03 0.  0.
          4    1    3    3  503    0  0.22048947221E+02  0.21686311711E+02 -0.89216517701E+02  0.94433321025E+02  0.12700000000E+01 0.  1.
         -4    1    3    3    0  503 -0.12811726944E+03 -0.25612152422E+02 -0.23430350190E+03  0.26827180430E+03  0.12700000000E+01 0.  1.
         -2    1    1    2    0  502  0.21699406362E+02 -0.89743840093E+01 -0.28713770543E+03  0.28809627850E+03  0.00000000000E+00 0.  1.
         -1    1    1    2    0  501  0.84368915859E+02  0.12900224721E+02  0.24397456052E+03  0.25847265995E+03  0.00000000000E+00 0.  1.
<mgrwt>
<rscale>  0 0.44877011E+02</rscale>
<asrwt>0</asrwt>
<pdfrwt beam="1">  1       -2 0.41737762E-01 0.85765567E+02</pdfrwt>
<pdfrwt beam="2">  1       -1 0.98150554E-01 0.23481989E+02</pdfrwt>
<totfact> 0.47329893E+01</totfact>
</mgrwt>
</event>
<event>
 7    1  0.7037933E-004  0.8897449E+02  0.7546771E-02  0.1389253E+00
          2   -1    0    0  503    0  0.00000000000E+00  0.00000000000E+00  0.12841762207E+04  0.12841762207E+04  0.00000000000E+00 0. -1.
          1   -1    0    0  502    0 -0.00000000000E+00 -0.00000000000E+00 -0.19834174330E+04  0.19834174330E+04  0.00000000000E+00 0. -1.
         25    2    1    2    0    0 -0.23276771302E+02  0.54062987424E+02 -0.92066491988E+03  0.93097438116E+03  0.12499915591E+03 0.  0.
          4    1    3    3  501    0  0.41111138626E+02  0.60608025052E+02 -0.51273594575E+03  0.51794133006E+03  0.12700000000E+01 0.  1.
         -4    1    3    3    0  501 -0.64387909927E+02 -0.65450376284E+01 -0.40792897413E+03  0.41303305109E+03  0.12700000000E+01 0.  1.
          2    1    1    2  502    0  0.25630952958E+02  0.34939873721E+02 -0.10556032864E+04  0.10564923278E+04  0.00000000000E+00 0. -1.
          1    1    1    2  503    0 -0.23541816561E+01 -0.89002861144E+02  0.12770269939E+04  0.12801269448E+04  0.00000000000E+00 0. -1.
<mgrwt>
<rscale>  0 0.62092858E+02</rscale>
<asrwt>0</asrwt>
<pdfrwt beam="1">  1        2 0.19756557E+00 0.88974490E+02</pdfrwt>
<pdfrwt beam="2">  1        1 0.30514114E+00 0.43332903E+02</pdfrwt>
<totfact> 0.11497706E+01</totfact>
</mgrwt>
</event>
<event>
 7    1  0.7037933E-004  0.1544070E+03  0.7546771E-02  0.1331229E+00
          2   -1    0    0  503    0  0.00000000000E+00  0.00000000000E+00  0.26934448187E+03  0.26934448187E+03  0.00000000000E+00 0. -1.
          1   -1    0    0  502    0 -0.00000000000E+00 -0.00000000000E+00 -0.19991680728E+04  0.19991680728E+04  0.00000000000E+00 0. -1.
         25    2    1    2    0    0  0.55239051313E+02  0.11918065248E+03 -0.90834630006E+03  0.92626803286E+03  0.12499634854E+03 0.  0.
          4    1    3    3  501    0 -0.36865540044E+02  0.64188307799E+02 -0.37661627801E+03  0.38382371040E+03  0.12700000000E+01 0. -1.
         -4    1    3    3    0  501  0.92104591358E+02  0.54992344681E+02 -0.53173002205E+03  0.54244432246E+03  0.12700000000E+01 0. -1.
          2    1    1    2  502    0 -0.72672564230E+02 -0.15591641576E+03 -0.10733821580E+04  0.10870788782E+04  0.00000000000E+00 0. -1.
          1    1    1    2  503    0  0.17433512916E+02  0.36735763283E+02  0.25190486706E+03  0.25516564370E+03  0.00000000000E+00 0. -1.
<mgrwt>
<rscale>  0 0.79237508E+02</rscale>
<asrwt>0</asrwt>
<pdfrwt beam="1">  1        2 0.41437612E-01 0.40662559E+02</pdfrwt>
<pdfrwt beam="2">  1        1 0.30756432E+00 0.15440697E+03</pdfrwt>
<totfact> 0.59298996E+01</totfact>
</mgrwt>
</event>
<event>
 7    1  0.7037933E-004  0.4334373E+02  0.7546771E-02  0.1508293E+00
         -1   -1    0    0    0  501 -0.00000000000E+00  0.00000000000E+00  0.16461463956E+02  0.16461463956E+02  0.00000000000E+00 0.  1.
          1   -1    0    0  503    0  0.00000000000E+00 -0.00000000000E+00 -0.15889832837E+04  0.15889832837E+04  0.00000000000E+00 0. -1.
         25    2    1    2    0    0 -0.45297865874E+02  0.54486022102E+02 -0.50691712693E+03  0.52688732933E+03  0.12499864390E+03 0.  0.
          4    1    3    3  502    0 -0.86569291409E+02  0.18148208875E+02 -0.29818147717E+03  0.31102637497E+03  0.12700000000E+01 0. -1.
         -4    1    3    3    0  502  0.41271425535E+02  0.36337813227E+02 -0.20873564976E+03  0.21586095436E+03  0.12700000000E+01 0. -1.
          2    1    1    2  503    0  0.96016536012E+01 -0.35622514420E+02 -0.10053508799E+04  0.10060276075E+04  0.00000000000E+00 0. -1.
         -2    1    1    2    0  501  0.35696212272E+02 -0.18863507683E+02 -0.60253812968E+02  0.72529810904E+02  0.00000000000E+00 0.  1.
<mgrwt>
<rscale>  0 0.39988954E+02</rscale>
<asrwt>0</asrwt>
<pdfrwt beam="2">  1        1 0.24445907E+00 0.36893838E+02</pdfrwt>
<pdfrwt beam="1">  1       -1 0.25325319E-02 0.43343726E+02</pdfrwt>
<totfact> 0.29717151E+03</totfact>
</mgrwt>
</event>
<event>
 7    1  0.7037933E-004  0.1084734E+03  0.7546771E-02  0.1322854E+00
          1   -1    0    0  502    0 -0.00000000000E+00  0.00000000000E+00  0.26872611859E+04  0.26872611859E+04  0.00000000000E+00 0. -1.
          2   -1    0    0  503    0  0.00000000000E+00 -0.00000000000E+00 -0.85196163541E+03  0.85196163541E+03  0.00000000000E+00 0. -1.
         25    2    1    2    0    0 -0.12527369333E+03 -0.77643267237E+02  0.14946357222E+03  0.24430952450E+03  0.12500323657E+03 0.  0.
          4    1    3    3  501    0 -0.13112458716E+03 -0.88325419432E+02  0.16229317548E+03  0.22657388372E+03  0.12700000000E+01 0.  1.
         -4    1    3    3    0  501  0.58508938227E+01  0.10682152195E+02 -0.12829603265E+02  0.17735640783E+02  0.12700000000E+01 0.  1.
          2    1    1    2  502    0  0.10620661372E+03  0.18303454946E+02  0.24879992020E+04  0.24903322851E+04  0.00000000000E+00 0. -1.
          1    1    1    2  503    0  0.19067079613E+02  0.59339812290E+02 -0.80216322372E+03  0.80458101167E+03  0.00000000000E+00 0. -1.
<mgrwt>
<rscale>  0 0.82224823E+02</rscale>
<asrwt>0</asrwt>
<pdfrwt beam="2">  1        2 0.13107102E+00 0.62327898E+02</pdfrwt>
<pdfrwt beam="1">  1        1 0.41342480E+00 0.10847344E+03</pdfrwt>
<totfact> 0.64893459E+00</totfact>
</mgrwt>
</event>
<event>
 7    1  0.7037933E-004  0.7049636E+02  0.7546771E-02  0.1402638E+00
          1   -1    0    0  502    0 -0.00000000000E+00  0.00000000000E+00  0.22294797641E+04  0.22294797641E+04  0.00000000000E+00 0. -1.
          2   -1    0    0  503    0  0.00000000000E+00 -0.00000000000E+00 -0.26341713746E+04  0.26341713746E+04  0.00000000000E+00 0. -1.
         25    2    1    2    0    0 -0.34893352011E+02  0.21575826968E+02  0.10650523403E+04  0.10731467023E+04  0.12499717890E+03 0.  0.
          4    1    3    3  501    0  0.26109642029E+02 -0.36983624618E+02  0.29357138914E+03  0.29704423125E+03  0.12700000000E+01 0. -1.
         -4    1    3    3    0  501 -0.61002994040E+02  0.58559451587E+02  0.77148095118E+03  0.77610247106E+03  0.12700000000E+01 0. -1.
          2    1    1    2  502    0  0.43722613628E+02 -0.69936748278E+02  0.11586844639E+04  0.11616163319E+04  0.00000000000E+00 0. -1.
          1    1    1    2  503    0 -0.88292616175E+01  0.48360921310E+02 -0.26284284147E+04  0.26288881044E+04  0.00000000000E+00 0. -1.
<mgrwt>
<rscale>  0 0.58869534E+02</rscale>
<asrwt>0</asrwt>
<pdfrwt beam="2">  1        2 0.40525713E+00 0.49160295E+02</pdfrwt>
<pdfrwt beam="1">  1        1 0.34299689E+00 0.70496363E+02</pdfrwt>
<totfact> 0.16901423E+00</totfact>
</mgrwt>
</event>
<event>
 7    1  0.7037933E-004  0.6511071E+02  0.7546771E-02  0.1474110E+00
          2   -1    0    0  503    0  0.00000000000E+00  0.00000000000E+00  0.29724769877E+04  0.29724769877E+04  0.00000000000E+00 0. -1.
          1   -1    0    0  502    0 -0.00000000000E+00 -0.00000000000E+00 -0.48581751727E+03  0.48581751727E+03  0.00000000000E+00 0. -1.
         25    2    1    2    0    0 -0.10967409292E+02 -0.34593466342E+02 -0.71289896187E+02  0.14840755048E+03  0.12500223903E+03 0.  0.
          4    1    3    3  501    0  0.35561550812E+02 -0.13102334790E+02 -0.86902065335E+02  0.94814961543E+02  0.12700000000E+01 0.  1.
         -4    1    3    3    0  501 -0.46528960104E+02 -0.21491131553E+02  0.15612169148E+02  0.53592588940E+02  0.12700000000E+01 0.  1.
          2    1    1    2  502    0 -0.22876610317E+02 -0.21145381940E+02 -0.37496044666E+03  0.37625231300E+03  0.00000000000E+00 0. -1.
          1    1    1    2  503    0  0.33844019609E+02  0.55738848282E+02  0.29329098133E+04  0.29336346415E+04  0.00000000000E+00 0. -1.
<mgrwt>
<rscale>  0 0.45037195E+02</rscale>
<asrwt>0</asrwt>
<pdfrwt beam="1">  1        2 0.45730414E+00 0.65110706E+02</pdfrwt>
<pdfrwt beam="2">  1        1 0.74741158E-01 0.31152311E+02</pdfrwt>
<totfact> 0.18223373E+01</totfact>
</mgrwt>
</event>
<event>
 7    1  0.7037933E-004  0.9534765E+02  0.7546771E-02  0.1295302E+00
          1   -1    0    0  502    0 -0.00000000000E+00  0.00000000000E+00  0.36050886050E+03  0.36050886050E+03  0.00000000000E+00 0. -1.
          2   -1    0    0  503    0  0.00000000000E+00 -0.00000000000E+00 -0.68918573479E+03  0.68918573479E+03  0.00000000000E+00 0. -1.
         25    2    1    2    0    0 -0.38635509396E+01  0.84544406733E+01 -0.89030758984E+02  0.15378596069E+03  0.12504895469E+03 0.  0.
          4    1    3    3  501    0 -0.54614637122E+02  0.35386245372E+02 -0.30926311067E+02  0.72062435191E+02  0.12700000000E+01 0. -1.
         -4    1    3    3    0  501  0.50751086182E+02 -0.26931804698E+02 -0.58104447917E+02  0.81723525504E+02  0.12700000000E+01 0. -1.
          2    1    1    2  502    0  0.92872115484E+02  0.25731073636E+02  0.31691270250E+03  0.33124157195E+03  0.00000000000E+00 0. -1.
          1    1    1    2  503    0 -0.89008564544E+02 -0.34185514310E+02 -0.55655881781E+03  0.56466706264E+03  0.00000000000E+00 0. -1.
<mgrwt>
<rscale>  0 0.93191346E+02</rscale>
<asrwt>0</asrwt>
<pdfrwt beam="2">  1        2 0.10602857E+00 0.95347648E+02</pdfrwt>
<pdfrwt beam="1">  1        1 0.55462902E-01 0.91083809E+02</pdfrwt>
<totfact> 0.42115486E+02</totfact>
</mgrwt>
</event>
<event>
 7    1  0.7037933E-004  0.7026033E+02  0.7546771E-02  0.1514225E+00
          1   -1    0    0  503    0  0.00000000000E+00  0.00000000000E+00  0.10257901732E+04  0.10257901732E+04  0.00000000000E+00 0. -1.
         -1   -1    0    0    0  501 -0.00000000000E+00 -0.00000000000E+00 -0.16784473168E+02  0.16784473168E+02  0.00000000000E+00 0.  1.
         25    2    1    2    0    0  0.46151602565E+02  0.25219613569E+02  0.75642321956E+03  0.76848275739E+03  0.12499464780E+03 0.  0.
          4    1    3    3  502    0 -0.24580143993E+02  0.30982807931E+02  0.90304829015E+02  0.98593574382E+02  0.12700000000E+01 0. -1.
         -4    1    3    3    0  502  0.70731746558E+02 -0.57631943622E+01  0.66611839055E+03  0.66988918300E+03  0.12700000000E+01 0. -1.
          2    1    1    2  503    0  0.14374227786E+02  0.16475261508E+02  0.12462555300E+03  0.12652897347E+03  0.00000000000E+00 0. -1.
         -2    1    1    2    0  501 -0.60525830350E+02 -0.41694875077E+02  0.12795692746E+03  0.14756291550E+03  0.00000000000E+00 0.  1.
<mgrwt>
<rscale>  0 0.39194400E+02</rscale>
<asrwt>0</asrwt>
<pdfrwt beam="1">  1        1 0.15781382E+00 0.21864416E+02</pdfrwt>
<pdfrwt beam="2">  1       -1 0.25822274E-02 0.70260329E+02</pdfrwt>
<totfact> 0.73303575E+03</totfact>
</mgrwt>
</event>
<event>
 7    1  0.7037933E-004  0.8068876E+02  0.7546771E-02  0.1462344E+00
          1   -1    0    0  502    0 -0.00000000000E+00  0.00000000000E+00  0.32981957782E+02  0.32981957782E+02  0.00000000000E+00 0. -1.
          2   -1    0    0  503    0  0.00000000000E+00 -0.00000000000E+00 -0.74212613757E+03  0.74212613757E+03  0.00000000000E+00 0. -1.
         25    2    1    2    0    0 -0.57650321621E+02 -0.11619590678E+02 -0.57034091506E+03  0.58683267099E+03  0.12500099948E+03 0.  0.
          4    1    3    3  501    0 -0.75025957295E+02  0.29325814655E+02 -0.23225559817E+03  0.24583159572E+03  0.12700000000E+01 0.  1.
         -4    1    3    3    0  501  0.17375635674E+02 -0.40945405333E+02 -0.33808531690E+03  0.34100107527E+03  0.12700000000E+01 0.  1.
          2    1    1    2  502    0  0.78349333879E+02  0.29502411953E+02 -0.55122351212E+02  0.10023713899E+03  0.00000000000E+00 0. -1.
          1    1    1    2  503    0 -0.20699012258E+02 -0.17882821275E+02 -0.83680913516E+02  0.88038285377E+02  0.00000000000E+00 0. -1.
<mgrwt>
<rscale>  0 0.46980473E+02</rscale>
<asrwt>0</asrwt>
<pdfrwt beam="2">  1        2 0.11417325E+00 0.27354056E+02</pdfrwt>
<pdfrwt beam="1">  1        1 0.50741473E-02 0.80688757E+02</pdfrwt>
<totfact> 0.83807500E+03</totfact>
</mgrwt>
</event>
<event>
 7    1  0.7037933E-004  0.1135628E+03  0.7546771E-02  0.1399006E+00
          1   -1    0    0  503    0  0.00000000000E+00  0.00000000000E+00  0.14656003737E+04  0.14656003737E+04  0.00000000000E+00 0. -1.
         -1   -1    0    0    0  501 -0.00000000000E+00 -0.00000000000E+00 -0.12063892450E+03  0.12063892450E+03  0.00000000000E+00 0.  1.
         25    2    1    2    0    0  0.10244305062E+03 -0.93155347683E+02  0.11574673534E+03  0.21953809267E+03  0.12500867957E+03 0.  0.
          4    1    3    3  502    0  0.32876891025E+02 -0.17628643102E+02 -0.25282475294E+02  0.45082984352E+02  0.12700000000E+01 0.  1.
         -4    1    3    3    0  502  0.69566159598E+02 -0.75526704581E+02  0.14102921064E+03  0.17445510832E+03  0.12700000000E+01 0.  1.
          2    1    1    2  503    0 -0.20606502441E+02  0.23700937139E+02  0.12557424524E+04  0.12561351317E+04  0.00000000000E+00 0. -1.
         -2    1    1    2    0  501 -0.81836548183E+02  0.69454410544E+02 -0.26527738553E+02  0.11056607380E+03  0.00000000000E+00 0.  1.
<mgrwt>
<rscale>  0 0.59721019E+02</rscale>
<asrwt>0</asrwt>
<pdfrwt beam="1">  1        1 0.22547697E+00 0.31406406E+02</pdfrwt>
<pdfrwt beam="2">  1       -1 0.18559836E-01 0.11356282E+03</pdfrwt>
<totfact> 0.20662543E+02</totfact>
</mgrwt>
</event>
<event>
 7    1  0.7037933E-004  0.7590797E+03  0.7546771E-02  0.1117411E+00
          2   -1    0    0  503    0  0.00000000000E+00  0.00000000000E+00  0.23510705276E+04  0.23510705276E+04  0.00000000000E+00 0. -1.
          1   -1    0    0  502    0 -0.00000000000E+00 -0.00000000000E+00 -0.10777974755E+04  0.10777974755E+04  0.00000000000E+00 0. -1.
         25    2    1    2    0    0 -0.50923962304E+03  0.51034705540E+03 -0.17842091248E+03  0.75315802325E+03  0.12503549632E+03 0.  0.
          4    1    3    3  501    0 -0.18169414705E+03  0.11177134885E+03 -0.80751722409E+02  0.22809658277E+03  0.12700000000E+01 0. -1.
         -4    1    3    3    0  501 -0.32754547599E+03  0.39857570655E+03 -0.97669190067E+02  0.52506144048E+03  0.12700000000E+01 0. -1.
          2    1    1    2  502    0  0.58169527780E+03 -0.53971596826E+03 -0.35359408550E+03  0.86872981985E+03  0.00000000000E+00 0. -1.
          1    1    1    2  503    0 -0.72455654760E+02  0.29368912855E+02  0.18052880501E+04  0.18069801600E+04  0.00000000000E+00 0. -1.
<mgrwt>
<rscale>  0 0.24361040E+03</rscale>
<asrwt>0</asrwt>
<pdfrwt beam="1">  1        2 0.36170316E+00 0.78181551E+02</pdfrwt>
<pdfrwt beam="2">  1        1 0.16581500E+00 0.75907969E+03</pdfrwt>
<totfact> 0.10215478E+01</totfact>
</mgrwt>
</event>
<event>
 7    1  0.7037933E-004  0.2195617E+03  0.7546771E-02  0.1263573E+00
          1   -1    0    0  502    0 -0.00000000000E+00  0.00000000000E+00  0.47767396233E+03  0.47767396233E+03  0.00000000000E+00 0. -1.
          2   -1    0    0  503    0  0.00000000000E+00 -0.00000000000E+00 -0.91095781854E+03  0.91095781854E+03  0.00000000000E+00 0. -1.
         25    2    1    2    0    0 -0.62558081849E+02  0.16271358675E+03  0.13767754358E+03  0.25488989017E+03  0.12499810073E+03 0.  0.
          4    1    3    3  501    0 -0.30861200383E+01  0.14993133134E+03  0.11837503285E+03  0.19105807901E+03  0.12700000000E+01 0.  1.
         -4    1    3    3    0  501 -0.59471961810E+02  0.12782255417E+02  0.19302510728E+02  0.63831811157E+02  0.12700000000E+01 0.  1.
          2    1    1    2  502    0  0.64426527786E+01  0.53123080705E+02  0.26407307216E+03  0.26944045153E+03  0.00000000000E+00 0. -1.
          1    1    1    2  503    0  0.56115429070E+02 -0.21583666746E+03 -0.83503447196E+03  0.86430143917E+03  0.00000000000E+00 0. -1.
<mgrwt>
<rscale>  0 0.10839400E+03</rscale>
<asrwt>0</asrwt>
<pdfrwt beam="2">  1        2 0.14014735E+00 0.21956171E+03</pdfrwt>
<pdfrwt beam="1">  1        1 0.73488303E-01 0.53512330E+02</pdfrwt>
<totfact> 0.20526551E+02</totfact>
</mgrwt>
</event>
<event>
 7    1  0.7037933E-004  0.5543974E+02  0.7546771E-02  0.1437610E+00
          3   -1    0    0  502    0 -0.00000000000E+00  0.00000000000E+00  0.37786037680E+03  0.37786037680E+03  0.00000000000E+00 0. -1.
          2   -1    0    0  503    0  0.00000000000E+00 -0.00000000000E+00 -0.21588684635E+04  0.21588684635E+04  0.00000000000E+00 0. -1.
         25    2    1    2    0    0 -0.52696551517E+02 -0.84563818845E+02  0.11888645556E+03  0.19921392925E+03  0.12499693713E+03 0.  0.
          4    1    3    3  501    0 -0.82531145122E+02 -0.17063132211E+02  0.77977217063E+02  0.11482421207E+03  0.12700000000E+01 0.  1.
         -4    1    3    3    0  501  0.29834593605E+02 -0.67500686634E+02  0.40909238498E+02  0.84389717182E+02  0.12700000000E+01 0.  1.
          2    1    1    2  502    0  0.24996416788E+02  0.45644664242E+02  0.21544240525E+03  0.22163863879E+03  0.00000000000E+00 0. -1.
          1    1    1    2  503    0  0.27700134729E+02  0.38919154604E+02 -0.21153369475E+04  0.21158762723E+04  0.00000000000E+00 0. -1.
<mgrwt>
<rscale>  0 0.51462324E+02</rscale>
<asrwt>0</asrwt>
<pdfrwt beam="2">  1        2 0.33213360E+00 0.47770263E+02</pdfrwt>
<pdfrwt beam="1">  1        3 0.58132367E-01 0.55439736E+02</pdfrwt>
<totfact> 0.12914548E+01</totfact>
</mgrwt>
</event>
<event>
 7    1  0.7037933E-004  0.9319583E+02  0.7546771E-02  0.1393667E+00
          1   -1    0    0  502    0 -0.00000000000E+00  0.00000000000E+00  0.13454374812E+04  0.13454374812E+04  0.00000000000E+00 0. -1.
          2   -1    0    0  503    0  0.00000000000E+00 -0.00000000000E+00 -0.52437487109E+02  0.52437487109E+02  0.00000000000E+00 0. -1.
         25    2    1    2    0    0  0.27026093007E+02 -0.10941567250E+03  0.18873072122E+03  0.25287931968E+03  0.12500586426E+03 0.  0.
          4    1    3    3  501    0 -0.33689429167E+02  0.81913873578E+01  0.27459127198E+02  0.44245825011E+02  0.12700000000E+01 0. -1.
         -4    1    3    3    0  501  0.60715522175E+02 -0.11760705986E+03  0.16127159402E+03  0.20863349467E+03  0.12700000000E+01 0. -1.
          2    1    1    2  502    0  0.17947222344E+02  0.35671308422E+02  0.10308764577E+04  0.10316495607E+04  0.00000000000E+00 0. -1.
          1    1    1    2  503    0 -0.44973315352E+02  0.73744364079E+02  0.73392815129E+02  0.11334608789E+03  0.00000000000E+00 0. -1.
<mgrwt>
<rscale>  0 0.61003876E+02</rscale>
<asrwt>0</asrwt>
<pdfrwt beam="2">  1        2 0.80673067E-02 0.93195827E+02</pdfrwt>
<pdfrwt beam="1">  1        1 0.20699036E+00 0.39931755E+02</pdfrwt>
<totfact> 0.11439320E+03</totfact>
</mgrwt>
</event>
<event>
 7    1  0.7037933E-004  0.5912071E+02  0.7546771E-02  0.1414771E+00
          1   -1    0    0  502    0 -0.00000000000E+00  0.00000000000E+00  0.10650444016E+03  0.10650444016E+03  0.00000000000E+00 0. -1.
          2   -1    0    0  503    0  0.00000000000E+00 -0.00000000000E+00 -0.58536276797E+03  0.58536276797E+03  0.00000000000E+00 0. -1.
         25    2    1    2    0    0  0.77202510255E+02 -0.64995545196E+02 -0.19639980323E+03  0.25373736269E+03  0.12500047211E+03 0.  0.
          4    1    3    3  501    0  0.16861100611E+02  0.13592160909E+02  0.10672495524E+02  0.24177646964E+02  0.12700000000E+01 0.  1.
         -4    1    3    3    0  501  0.60341409643E+02 -0.78587706105E+02 -0.20707229876E+03  0.22955971572E+03  0.12700000000E+01 0.  1.
          2    1    1    2  502    0 -0.23526904858E+02  0.47842874141E+02  0.66170391488E+02  0.84976329457E+02  0.00000000000E+00 0. -1.
          1    1    1    2  503    0 -0.53675605397E+02  0.17152671056E+02 -0.34862891607E+03  0.35315351599E+03  0.00000000000E+00 0. -1.
<mgrwt>
<rscale>  0 0.56142694E+02</rscale>
<asrwt>0</asrwt>
<pdfrwt beam="2">  1        2 0.90055809E-01 0.59120708E+02</pdfrwt>
<pdfrwt beam="1">  1        1 0.16385299E-01 0.53314687E+02</pdfrwt>
<totfact> 0.22538154E+03</totfact>
</mgrwt>
</event>
<event>
 7    1  0.7037933E-004  0.1383528E+03  0.7546771E-02  0.1222176E+00
          1   -1    0    0  502    0 -0.00000000000E+00  0.00000000000E+00  0.91766302044E+03  0.91766302044E+03  0.00000000000E+00 0. -1.
          2   -1    0    0  503    0  0.00000000000E+00 -0.00000000000E+00 -0.83779333708E+03  0.83779333708E+03  0.00000000000E+00 0. -1.
         25    2    1    2    0    0  0.12367204319E+03 -0.23127402099E+03  0.54497328762E+02  0.29559539679E+03  0.12499693079E+03 0.  0.
          4    1    3    3  501    0  0.12530194329E+03 -0.20132031075E+03  0.85840425062E+02  0.25219166518E+03  0.12700000000E+01 0.  1.
         -4    1    3    3    0  501 -0.16299000978E+01 -0.29953710242E+02 -0.31343096300E+02  0.43403731606E+02  0.12700000000E+01 0.  1.
          2    1    1    2  502    0 -0.69187223765E+02  0.10894326614E+03  0.73066116827E+03  0.74197119215E+03  0.00000000000E+00 0. -1.
          1    1    1    2  503    0 -0.54484819425E+02  0.12233075485E+03 -0.70528881368E+03  0.71788976858E+03  0.00000000000E+00 0. -1.
<mgrwt>
<rscale>  0 0.13362367E+03</rscale>
<asrwt>0</asrwt>
<pdfrwt beam="2">  1        2 0.12889128E+00 0.13835277E+03</pdfrwt>
<pdfrwt beam="1">  1        1 0.14117893E+00 0.12905622E+03</pdfrwt>
<totfact> 0.90932216E+01</totfact>
</mgrwt>
</event>
<event>
 7    1  0.7037933E-004  0.2860238E+03  0.7546771E-02  0.1181496E+00
          1   -1    0    0  502    0 -0.00000000000E+00  0.00000000000E+00  0.87698598687E+02  0.87698598687E+02  0.00000000000E+00 0. -1.
          2   -1    0    0  503    0  0.00000000000E+00 -0.00000000000E+00 -0.14340535254E+04  0.14340535254E+04  0.00000000000E+00 0. -1.
         25    2    1    2    0    0  0.21584561345E+03 -0.17645430021E+03 -0.49980350756E+03  0.58579258080E+03  0.12499581051E+03 0.  0.
          4    1    3    3  501    0  0.26161445009E+02 -0.53824563960E+01 -0.26670493493E+01  0.26872255098E+02  0.12700000000E+01 0. -1.
         -4    1    3    3    0  501  0.18968416844E+03 -0.17107184381E+03 -0.49713645821E+03  0.55892032570E+03  0.12700000000E+01 0. -1.
          2    1    1    2  502    0  0.63424003526E+02  0.73363882158E+02 -0.15202368372E+03  0.18032211134E+03  0.00000000000E+00 0. -1.
          1    1    1    2  503    0 -0.27926961698E+03  0.10309041805E+03 -0.69452773542E+03  0.75563743192E+03  0.00000000000E+00 0. -1.
<mgrwt>
<rscale>  0 0.16654791E+03</rscale>
<asrwt>0</asrwt>
<pdfrwt beam="2">  1        2 0.22062361E+00 0.28602376E+03</pdfrwt>
<pdfrwt beam="1">  1        1 0.13492093E-01 0.96978675E+02</pdfrwt>
<totfact> 0.82172896E+02</totfact>
</mgrwt>
</event>
<event>
 7    1  0.7037933E-004  0.1325924E+03  0.7546771E-02  0.1322525E+00
          1   -1    0    0  502    0 -0.00000000000E+00  0.00000000000E+00  0.61730679558E+03  0.61730679558E+03  0.00000000000E+00 0. -1.
          2   -1    0    0  503    0  0.00000000000E+00 -0.00000000000E+00 -0.41347396383E+04  0.41347396383E+04  0.00000000000E+00 0. -1.
         25    2    1    2    0    0 -0.82605899861E+02 -0.30826510223E+01  0.21910899832E+03  0.26545627104E+03  0.12500016506E+03 0.  0.
          4    1    3    3  501    0 -0.81999134900E+02  0.18342534743E+02  0.56102238678E+02  0.10104148054E+03  0.12700000000E+01 0. -1.
         -4    1    3    3    0  501 -0.60676496146E+00 -0.21425185765E+02  0.16300675964E+03  0.16441479050E+03  0.12700000000E+01 0. -1.
          2    1    1    2  502    0 -0.49039988634E+02 -0.14502796899E+02  0.37220273609E+03  0.37569951870E+03  0.00000000000E+00 0. -1.
          1    1    1    2  503    0  0.13164588849E+03  0.17585447921E+02 -0.41087445771E+04  0.41108906441E+04  0.00000000000E+00 0. -1.
<mgrwt>
<rscale>  0 0.82345100E+02</rscale>
<asrwt>0</asrwt>
<pdfrwt beam="2">  1        2 0.63611380E+00 0.13259245E+03</pdfrwt>
<pdfrwt beam="1">  1        1 0.94970275E-01 0.51139531E+02</pdfrwt>
<totfact> 0.20038203E+00</totfact>
</mgrwt>
</event>
<event>
 7    1  0.7037933E-004  0.7192443E+02  0.7546771E-02  0.1385888E+00
          2   -1    0    0  503    0  0.00000000000E+00  0.00000000000E+00  0.13492419896E+04  0.13492419896E+04  0.00000000000E+00 0. -1.
          1   -1    0    0  502    0 -0.00000000000E+00 -0.00000000000E+00 -0.58213877099E+03  0.58213877099E+03  0.00000000000E+00 0. -1.
         25    2    1    2    0    0  0.56581303454E+01  0.62148625793E+02 -0.15394905161E+03  0.20789342152E+03  0.12499959237E+03 0.  0.
          4    1    3    3  501    0 -0.58401900957E+02  0.42041423424E+02 -0.89129090934E+02  0.11455946521E+03  0.12700000000E+01 0. -1.
         -4    1    3    3    0  501  0.64060031302E+02  0.20107202369E+02 -0.64819960681E+02  0.93333956309E+02  0.12700000000E+01 0. -1.
          2    1    1    2  502    0 -0.54342027051E+02 -0.89850558306E+01 -0.39833862052E+03  0.40212864078E+03  0.00000000000E+00 0. -1.
          1    1    1    2  503    0  0.48683896706E+02 -0.53163569963E+02  0.13193908908E+04  0.13213586983E+04  0.00000000000E+00 0. -1.
<mgrwt>
<rscale>  0 0.62941124E+02</rscale>
<asrwt>0</asrwt>
<pdfrwt beam="1">  1        2 0.20757569E+00 0.71924431E+02</pdfrwt>
<pdfrwt beam="2">  1        1 0.89559811E-01 0.55079825E+02</pdfrwt>
<totfact> 0.95881064E+01</totfact>
</mgrwt>
</event>
<event>
 7    1  0.7037933E-004  0.1630646E+03  0.7546771E-02  0.1371109E+00
          1   -1    0    0  502    0 -0.00000000000E+00  0.00000000000E+00  0.27333303470E+03  0.27333303470E+03  0.00000000000E+00 0. -1.
          2   -1    0    0  503    0  0.00000000000E+00 -0.00000000000E+00 -0.25042320617E+03  0.25042320617E+03  0.00000000000E+00 0. -1.
         25    2    1    2    0    0  0.85436856788E+02  0.14677814650E+03  0.12650707191E+03  0.24591216647E+03  0.12500189433E+03 0.  0.
          4    1    3    3  501    0  0.85081126521E+02  0.27699408796E+02  0.36523053785E+02  0.96651961674E+02  0.12700000000E+01 0.  1.
         -4    1    3    3    0  501  0.35573026684E+00  0.11907873771E+03  0.89984018122E+02  0.14926020480E+03  0.12700000000E+01 0.  1.
          2    1    1    2  502    0 -0.97138342660E+02 -0.12198707940E+03  0.14496197336E+02  0.15661048781E+03  0.00000000000E+00 0. -1.
          1    1    1    2  503    0  0.11701485873E+02 -0.24791067102E+02 -0.11809344071E+03  0.12123358659E+03  0.00000000000E+00 0. -1.
<mgrwt>
<rscale>  0 0.66859825E+02</rscale>
<asrwt>0</asrwt>
<pdfrwt beam="2">  1        2 0.38526647E-01 0.27413898E+02</pdfrwt>
<pdfrwt beam="1">  1        1 0.42051236E-01 0.16306460E+03</pdfrwt>
<totfact> 0.17156634E+03</totfact>
</mgrwt>
</event>
<event>
 7    1  0.7037933E-004  0.1040312E+03  0.7546771E-02  0.1379694E+00
          1   -1    0    0  502    0 -0.00000000000E+00  0.00000000000E+00  0.35622220783E+03  0.35622220783E+03  0.00000000000E+00 0. -1.
          2   -1    0    0  503    0  0.00000000000E+00 -0.00000000000E+00 -0.10655486793E+04  0.10655486793E+04  0.00000000000E+00 0. -1.
         25    2    1    2    0    0 -0.20096134566E+02  0.61136585024E+02 -0.83666087698E+03  0.84838999962E+03  0.12499052654E+03 0.  0.
          4    1    3    3  501    0  0.26421712077E+02  0.74992342962E+02 -0.33164571757E+03  0.34104611602E+03  0.12700000000E+01 0. -1.
         -4    1    3    3    0  501 -0.46517846643E+02 -0.13855757938E+02 -0.50501515942E+03  0.50734388360E+03  0.12700000000E+01 0. -1.
          2    1    1    2  502    0  0.32870717259E+02 -0.99089564969E+02  0.34067595731E+03  0.35631353304E+03  0.00000000000E+00 0. -1.
          1    1    1    2  503    0 -0.12774582693E+02  0.37952979946E+02 -0.21334155179E+03  0.21706735446E+03  0.00000000000E+00 0. -1.
<mgrwt>
<rscale>  0 0.64544164E+02</rscale>
<asrwt>0</asrwt>
<pdfrwt beam="2">  1        2 0.16393056E+00 0.40045208E+02</pdfrwt>
<pdfrwt beam="1">  1        1 0.54803417E-01 0.10403115E+03</pdfrwt>
<totfact> 0.25836543E+02</totfact>
</mgrwt>
</event>
<event>
 7    1  0.7037933E-004  0.6040232E+02  0.7546771E-02  0.1467197E+00
          2   -1    0    0  503    0  0.00000000000E+00  0.00000000000E+00  0.11808236403E+04  0.11808236403E+04  0.00000000000E+00 0. -1.
          1   -1    0    0  502    0 -0.00000000000E+00 -0.00000000000E+00 -0.18408770437E+04  0.18408770437E+04  0.00000000000E+00 0. -1.
         25    2    1    2    0    0  0.82304422759E+02  0.13197749124E+02  0.25942960580E+02  0.15247353538E+03  0.12500777255E+03 0.  0.
          4    1    3    3  501    0 -0.12143341449E+02  0.29565604548E+02  0.44526195260E+02  0.54825000485E+02  0.12700000000E+01 0.  1.
         -4    1    3    3    0  501  0.94447764209E+02 -0.16367855424E+02 -0.18583234680E+02  0.97648534891E+02  0.12700000000E+01 0.  1.
          2    1    1    2  502    0 -0.51784498437E+02 -0.30902792258E+02 -0.17768149807E+04  0.17778380389E+04  0.00000000000E+00 0. -1.
          1    1    1    2  503    0 -0.30519924323E+02  0.17705043134E+02  0.10908186167E+04  0.10913891097E+04  0.00000000000E+00 0. -1.
<mgrwt>
<rscale>  0 0.46165061E+02</rscale>
<asrwt>0</asrwt>
<pdfrwt beam="1">  1        2 0.18166517E+00 0.35283627E+02</pdfrwt>
<pdfrwt beam="2">  1        1 0.28321185E+00 0.60402319E+02</pdfrwt>
<totfact> 0.16255334E+01</totfact>
</mgrwt>
</event>
<event>
 7    1  0.7037933E-004  0.8906358E+02  0.7546771E-02  0.1369237E+00
          2   -1    0    0  503    0  0.00000000000E+00  0.00000000000E+00  0.68524360557E+03  0.68524360557E+03  0.00000000000E+00 0. -1.
          1   -1    0    0  502    0 -0.00000000000E+00 -0.00000000000E+00 -0.24280321067E+03  0.24280321067E+03  0.00000000000E+00 0. -1.
         25    2    1    2    0    0  0.31982811810E+02  0.99926544050E+02  0.26530362806E+03  0.31147958677E+03  0.12500121381E+03 0.  0.
          4    1    3    3  501    0  0.15371140857E+02  0.12757700377E+03  0.23124877982E+03  0.26455580684E+03  0.12700000000E+01 0.  1.
         -4    1    3    3    0  501  0.16611670953E+02 -0.27650459719E+02  0.34054848240E+02  0.46923779933E+02  0.12700000000E+01 0.  1.
          2    1    1    2  502    0  0.17390659167E+02 -0.87248883959E+02 -0.20896505802E+03  0.22711494502E+03  0.00000000000E+00 0. -1.
          1    1    1    2  503    0 -0.49373470977E+02 -0.12677660091E+02  0.38610182486E+03  0.38945228445E+03  0.00000000000E+00 0. -1.
<mgrwt>
<rscale>  0 0.67379718E+02</rscale>
<asrwt>0</asrwt>
<pdfrwt beam="1">  1        2 0.10542209E+00 0.50975118E+02</pdfrwt>
<pdfrwt beam="2">  1        1 0.37354340E-01 0.89063577E+02</pdfrwt>
<totfact> 0.69984862E+02</totfact>
</mgrwt>
</event>
<event>
 7    1  0.7037933E-004  0.8460044E+02  0.7546771E-02  0.1412647E+00
          2   -1    0    0  503    0  0.00000000000E+00  0.00000000000E+00  0.65522064249E+03  0.65522064249E+03  0.00000000000E+00 0. -1.
          1   -1    0    0  502    0 -0.00000000000E+00 -0.00000000000E+00 -0.11018798355E+03  0.11018798355E+03  0.00000000000E+00 0. -1.
         25    2    1    2    0    0 -0.68229112467E+01 -0.85659093059E+02  0.20843927140E+03  0.25779990441E+03  0.12501931254E+03 0.  0.
          4    1    3    3  501    0  0.43894520278E+02 -0.81886183812E+02  0.92122204989E+02  0.13084414225E+03  0.12700000000E+01 0.  1.
         -4    1    3    3    0  501 -0.50717431525E+02 -0.37729092467E+01  0.11631706642E+03  0.12695576215E+03  0.12700000000E+01 0.  1.
          2    1    1    2  502    0 -0.36075301084E+02  0.11542498876E+02 -0.76696722545E+02  0.85539721053E+02  0.00000000000E+00 0. -1.
          1    1    1    2  503    0  0.42898212331E+02  0.74116594183E+02  0.41329011009E+03  0.42206900058E+03  0.00000000000E+00 0. -1.
<mgrwt>
<rscale>  0 0.56607411E+02</rscale>
<asrwt>0</asrwt>
<pdfrwt beam="1">  1        2 0.10080317E+00 0.84600437E+02</pdfrwt>
<pdfrwt beam="2">  1        1 0.16951998E-01 0.37876861E+02</pdfrwt>
<totfact> 0.18550389E+03</totfact>
</mgrwt>
</event>
<event>
 7    1  0.7037933E-004  0.5288794E+02  0.7546771E-02  0.1487580E+00
          2   -1    0    0  503    0  0.00000000000E+00  0.00000000000E+00  0.60873365293E+03  0.60873365293E+03  0.00000000000E+00 0. -1.
          1   -1    0    0  502    0 -0.00000000000E+00 -0.00000000000E+00 -0.46830102020E+02  0.46830102020E+02  0.00000000000E+00 0. -1.
         25    2    1    2    0    0 -0.34804977719E+02 -0.35261976335E+02  0.26150071058E+03  0.29404861431E+03  0.12500868968E+03 0.  0.
          4    1    3    3  501    0  0.43198007180E+02 -0.21697520433E+02  0.14766283468E+03  0.15537945766E+03  0.12700000000E+01 0.  1.
         -4    1    3    3    0  501 -0.78002984899E+02 -0.13564455902E+02  0.11383787590E+03  0.13866915665E+03  0.12700000000E+01 0.  1.
          2    1    1    2  502    0  0.53770072806E+02  0.59947243263E+01 -0.48097227717E+01  0.54316580180E+02  0.00000000000E+00 0. -1.
          3    1    1    2  503    0 -0.18965095087E+02  0.29267252009E+02  0.30521256311E+03  0.30719856046E+03  0.00000000000E+00 0. -1.
<mgrwt>
<rscale>  0 0.42947093E+02</rscale>
<asrwt>0</asrwt>
<pdfrwt beam="1">  1        2 0.93651326E-01 0.34874731E+02</pdfrwt>
<pdfrwt beam="2">  1        1 0.72046315E-02 0.52887944E+02</pdfrwt>
<totfact> 0.62455519E+03</totfact>
</mgrwt>
</event>
<event>
 7    1  0.7037933E-004  0.6791769E+02  0.7546771E-02  0.1403947E+00
          2   -1    0    0  503    0  0.00000000000E+00  0.00000000000E+00  0.54162661189E+03  0.54162661189E+03  0.00000000000E+00 0. -1.
          1   -1    0    0  502    0 -0.00000000000E+00 -0.00000000000E+00 -0.41760302792E+03  0.41760302792E+03  0.00000000000E+00 0. -1.
         25    2    1    2    0    0 -0.12185589354E+02 -0.22419176197E+02 -0.10613422476E+03  0.16593605586E+03  0.12497676952E+03 0.  0.
          4    1    3    3  501    0 -0.46163821187E+02 -0.49471037382E+02 -0.10183691696E+03  0.12227367861E+03  0.12700000000E+01 0. -1.
         -4    1    3    3    0  501  0.33978231834E+02  0.27051861185E+02 -0.42973077986E+01  0.43662377242E+02  0.12700000000E+01 0. -1.
          2    1    1    2  502    0  0.49046684521E+02  0.56941811056E+02 -0.27527220241E+03  0.28534668830E+03  0.00000000000E+00 0. -1.
          1    1    1    2  503    0 -0.36861095168E+02 -0.34522634859E+02  0.50543001113E+03  0.50794689566E+03  0.00000000000E+00 0. -1.
<mgrwt>
<rscale>  0 0.58566601E+02</rscale>
<asrwt>0</asrwt>
<pdfrwt beam="1">  1        2 0.83327172E-01 0.50502996E+02</pdfrwt>
<pdfrwt beam="2">  1        1 0.64246619E-01 0.67917687E+02</pdfrwt>
<totfact> 0.46737092E+02</totfact>
</mgrwt>
</event>
<event>
 7    1  0.7037933E-004  0.3510076E+02  0.7546771E-02  0.1588504E+00
         -1   -1    0    0    0  501 -0.00000000000E+00  0.00000000000E+00  0.72313735828E+03  0.72313735828E+03  0.00000000000E+00 0.  1.
          1   -1    0    0  503    0  0.00000000000E+00 -0.00000000000E+00 -0.44331515103E+02  0.44331515103E+02  0.00000000000E+00 0. -1.
         25    2    1    2    0    0 -0.71762605790E+01 -0.67620731635E+01  0.13874419155E+03  0.18697243892E+03  0.12494605986E+03 0.  0.
          4    1    3    3  502    0 -0.39995213833E+02  0.44226107772E+02  0.95084393480E+02  0.11224179490E+03  0.12700000000E+01 0. -1.
         -4    1    3    3    0  502  0.32818953254E+02 -0.50988180935E+02  0.43659798072E+02  0.74730644019E+02  0.12700000000E+01 0. -1.
          2    1    1    2  503    0 -0.26866832553E+02 -0.40880695938E+01 -0.10236112104E+02  0.29039920720E+02  0.00000000000E+00 0. -1.
         -2    1    1    2    0  501  0.34043093132E+02  0.10850142757E+02  0.55029776373E+03  0.55145651375E+03  0.00000000000E+00 0.  1.
<mgrwt>
<rscale>  0 0.30885287E+02</rscale>
<asrwt>0</asrwt>
<pdfrwt beam="2">  1        1 0.68202336E-02 0.27176074E+02</pdfrwt>
<pdfrwt beam="1">  1       -1 0.11125189E+00 0.35100764E+02</pdfrwt>
<totfact> 0.77972196E+02</totfact>
</mgrwt>
</event>
<event>
 7    1  0.7037933E-004  0.2062903E+03  0.7546771E-02  0.1355652E+00
          1   -1    0    0  502    0 -0.00000000000E+00  0.00000000000E+00  0.14263958446E+04  0.14263958446E+04  0.00000000000E+00 0. -1.
          2   -1    0    0  503    0  0.00000000000E+00 -0.00000000000E+00 -0.10800203488E+04  0.10800203488E+04  0.00000000000E+00 0. -1.
         25    2    1    2    0    0  0.14214786997E+03 -0.16890615837E+03 -0.37237271499E+03  0.45057255022E+03  0.12497550508E+03 0.  0.
          4    1    3    3  501    0  0.53545746095E+02 -0.85966915889E+02 -0.65631018924E+02  0.12069176069E+03  0.12700000000E+01 0.  1.
         -4    1    3    3    0  501  0.88602123871E+02 -0.82939242485E+02 -0.30674169607E+03  0.32988078954E+03  0.12700000000E+01 0.  1.
          2    1    1    2  502    0 -0.25198796299E+01  0.24530072511E+02  0.13720975455E+04  0.13723191132E+04  0.00000000000E+00 0. -1.
          1    1    1    2  503    0 -0.13962799034E+03  0.14437608586E+03 -0.65334933469E+03  0.68352452991E+03  0.00000000000E+00 0. -1.
<mgrwt>
<rscale>  0 0.71322823E+02</rscale>
<asrwt>0</asrwt>
<pdfrwt beam="2">  1        2 0.16615698E+00 0.20629027E+03</pdfrwt>
<pdfrwt beam="1">  1        1 0.21944551E+00 0.24659162E+02</pdfrwt>
<totfact> 0.32981687E+01</totfact>
</mgrwt>
</event>
<event>
 7    1  0.7037933E-004  0.1212451E+03  0.7546771E-02  0.1283326E+00
         -2   -1    0    0    0  501 -0.00000000000E+00  0.00000000000E+00  0.35964635396E+03  0.35964635396E+03  0.00000000000E+00 0.  1.
          2   -1    0    0  503    0  0.00000000000E+00 -0.00000000000E+00 -0.30744426464E+03  0.30744426464E+03  0.00000000000E+00 0. -1.
         25    2    1    2    0    0  0.55196291353E+01 -0.89163546027E+01  0.95907492711E+02  0.15791460272E+03  0.12501522671E+03 0.  0.
          4    1    3    3  502    0 -0.27167334500E+02 -0.41305186985E+01  0.11600715431E+03  0.11922415024E+03  0.12700000000E+01 0.  1.
         -4    1    3    3    0  502  0.32686963635E+02 -0.47858359042E+01 -0.20099661599E+02  0.38690452483E+02  0.12700000000E+01 0.  1.
          1    1    1    2  503    0  0.11314067561E+03  0.43583995061E+02 -0.24476713148E+03  0.27315073816E+03  0.00000000000E+00 0. -1.
         -1    1    1    2    0  501 -0.11866030474E+03 -0.34667640458E+02  0.20106172810E+03  0.23602527772E+03  0.00000000000E+00 0.  1.
<mgrwt>
<rscale>  0 0.98572714E+02</rscale>
<asrwt>0</asrwt>
<pdfrwt beam="2">  1        2 0.47299118E-01 0.12124511E+03</pdfrwt>
<pdfrwt beam="1">  1       -2 0.55330208E-01 0.80139972E+02</pdfrwt>
<totfact> 0.33644137E+02</totfact>
</mgrwt>
</event>
<event>
 7    1  0.7037933E-004  0.1256222E+03  0.7546771E-02  0.1267775E+00
          2   -1    0    0  503    0  0.00000000000E+00  0.00000000000E+00  0.40950032634E+03  0.40950032634E+03  0.00000000000E+00 0. -1.
         -2   -1    0    0    0  501 -0.00000000000E+00 -0.00000000000E+00 -0.30893526288E+03  0.30893526288E+03  0.00000000000E+00 0.  1.
         25    2    1    2    0    0 -0.53384691988E+02  0.67408285803E+02 -0.22118810870E+02  0.15332482685E+03  0.12500183359E+03 0.  0.
          4    1    3    3  502    0 -0.35232978666E+02 -0.28620009010E+01 -0.61347797714E+02  0.70814680817E+02  0.12700000000E+01 0.  1.
         -4    1    3    3    0  502 -0.18151713322E+02  0.70270286704E+02  0.39228986843E+02  0.82510146035E+02  0.12700000000E+01 0.  1.
          3    1    1    2  503    0 -0.61352419042E+01 -0.13462219887E+03  0.32060646996E+03  0.34777763902E+03  0.00000000000E+00 0. -1.
         -1    1    1    2    0  501  0.59519933893E+02  0.67213913067E+02 -0.19792259563E+03  0.21733312334E+03  0.00000000000E+00 0.  1.
<mgrwt>
<rscale>  0 0.10619925E+03</rscale>
<asrwt>0</asrwt>
<pdfrwt beam="1">  1        2 0.63000050E-01 0.12562221E+03</pdfrwt>
<pdfrwt beam="2">  1       -2 0.47528502E-01 0.89779355E+02</pdfrwt>
<totfact> 0.33499611E+02</totfact>
</mgrwt>
</event>
<event>
 7    1  0.7037933E-004  0.9657568E+02  0.7546771E-02  0.1296650E+00
          2   -1    0    0  503    0  0.00000000000E+00  0.00000000000E+00  0.69283679841E+03  0.69283679841E+03  0.00000000000E+00 0. -1.
          1   -1    0    0  502    0 -0.00000000000E+00 -0.00000000000E+00 -0.39659798363E+03  0.39659798363E+03  0.00000000000E+00 0. -1.
         25    2    1    2    0    0  0.93529233795E+02 -0.10665399412E+03  0.27921828627E+03  0.33721079138E+03  0.12500189759E+03 0.  0.
          4    1    3    3  501    0  0.47131331539E+02 -0.19310962209E+02  0.21098222596E+03  0.21704697244E+03  0.12700000000E+01 0. -1.
         -4    1    3    3    0  501  0.46397902256E+02 -0.87343031910E+02  0.68236060315E+02  0.12016381895E+03  0.12700000000E+01 0. -1.
          2    1    1    2  502    0 -0.53502465795E+01  0.96096836076E+02 -0.35599827217E+03  0.36877906236E+03  0.00000000000E+00 0. -1.
          1    1    1    2  503    0 -0.88178987215E+02  0.10557158043E+02  0.37301880068E+03  0.38344492829E+03  0.00000000000E+00 0. -1.
<mgrwt>
<rscale>  0 0.92610807E+02</rscale>
<asrwt>0</asrwt>
<pdfrwt beam="1">  1        2 0.10659028E+00 0.88808712E+02</pdfrwt>
<pdfrwt beam="2">  1        1 0.61015074E-01 0.96575678E+02</pdfrwt>
<totfact> 0.37250280E+02</totfact>
</mgrwt>
</event>
<event>
 7    1  0.7037933E-004  0.5056717E+02  0.7546771E-02  0.1573081E+00
          1   -1    0    0  502    0 -0.00000000000E+00  0.00000000000E+00  0.28187031552E+03  0.28187031552E+03  0.00000000000E+00 0. -1.
          2   -1    0    0  503    0  0.00000000000E+00 -0.00000000000E+00 -0.20174389121E+03  0.20174389121E+03  0.00000000000E+00 0. -1.
         25    2    1    2    0    0  0.61487103567E+02  0.27616223830E+02 -0.10464366568E+03  0.17646367055E+03  0.12508321443E+03 0.  0.
          4    1    3    3  501    0  0.66805822797E+02  0.71484435228E+02 -0.70375549635E+02  0.12052955374E+03  0.12700000000E+01 0.  1.
         -4    1    3    3    0  501 -0.53187192298E+01 -0.43868211398E+02 -0.34268116042E+02  0.55934116804E+02  0.12700000000E+01 0.  1.
          2    1    1    2  502    0 -0.49063460094E+02 -0.11000565171E+02  0.24153496691E+03  0.24671314475E+03  0.00000000000E+00 0. -1.
          1    1    1    2  503    0 -0.12423643473E+02 -0.16615658659E+02 -0.56764876925E+02  0.60437391424E+02  0.00000000000E+00 0. -1.
<mgrwt>
<rscale>  0 0.32389871E+02</rscale>
<asrwt>0</asrwt>
<pdfrwt beam="2">  1        2 0.31037522E-01 0.20746735E+02</pdfrwt>
<pdfrwt beam="1">  1        1 0.43364664E-01 0.50567171E+02</pdfrwt>
<totfact> 0.20236409E+03</totfact>
</mgrwt>
</event>
<event>
 7    1  0.7037933E-004  0.2111761E+03  0.7546771E-02  0.1220943E+00
          2   -1    0    0  503    0  0.00000000000E+00  0.00000000000E+00  0.10894705529E+04  0.10894705529E+04  0.00000000000E+00 0. -1.
         -2   -1    0    0    0  501 -0.00000000000E+00 -0.00000000000E+00 -0.21755687781E+03  0.21755687781E+03  0.00000000000E+00 0.  1.
         25    2    1    2    0    0  0.25648627612E+03  0.15019233655E+02  0.57261487230E+02  0.29141176179E+03  0.12502459668E+03 0.  0.
          4    1    3    3  502    0  0.10917941654E+03 -0.25149847086E+02  0.79119003014E+02  0.13716446093E+03  0.12700000000E+01 0.  1.
         -4    1    3    3    0  502  0.14730685958E+03  0.40169080741E+02 -0.21857515784E+02  0.15424730086E+03  0.12700000000E+01 0.  1.
          1    1    1    2  503    0 -0.70124558435E+02 -0.49178770440E+02  0.82157032476E+03  0.82602288327E+03  0.00000000000E+00 0. -1.
         -1    1    1    2    0  501 -0.18636171768E+03  0.34159536785E+02 -0.69181368565E+01  0.18959278570E+03  0.00000000000E+00 0.  1.
<mgrwt>
<rscale>  0 0.13448915E+03</rscale>
<asrwt>0</asrwt>
<pdfrwt beam="1">  1        2 0.16761085E+00 0.85650483E+02</pdfrwt>
<pdfrwt beam="2">  1       -2 0.33470290E-01 0.21117607E+03</pdfrwt>
<totfact> 0.20777870E+02</totfact>
</mgrwt>
</event>
<event>
 7    1  0.7037933E-004  0.1883155E+03  0.7546771E-02  0.1234804E+00
          2   -1    0    0  503    0  0.00000000000E+00  0.00000000000E+00  0.58272905998E+03  0.58272905998E+03  0.00000000000E+00 0. -1.
          1   -1    0    0  502    0 -0.00000000000E+00 -0.00000000000E+00 -0.26574493316E+03  0.26574493316E+03  0.00000000000E+00 0. -1.
         25    2    1    2    0    0  0.80498864625E+02 -0.11766502346E+03  0.52989960794E+02  0.19685387126E+03  0.12497354013E+03 0.  0.
          4    1    3    3  501    0  0.83798844333E+02 -0.12802445854E+03  0.10945350116E+02  0.15340769826E+03  0.12700000000E+01 0.  1.
         -4    1    3    3    0  501 -0.32999797082E+01  0.10359435078E+02  0.42044610678E+02  0.43446172999E+02  0.12700000000E+01 0.  1.
          2    1    1    2  502    0 -0.16137506413E+03  0.13718186240E+03 -0.13027988858E+03  0.24866367661E+03  0.00000000000E+00 0. -1.
          1    1    1    2  503    0  0.80876199510E+02 -0.19516838937E+02  0.39427405461E+03  0.40295644527E+03  0.00000000000E+00 0. -1.
<mgrwt>
<rscale>  0 0.12516961E+03</rscale>
<asrwt>0</asrwt>
<pdfrwt beam="1">  1        2 0.89650625E-01 0.83197756E+02</pdfrwt>
<pdfrwt beam="2">  1        1 0.40883836E-01 0.18831555E+03</pdfrwt>
<totfact> 0.74422958E+02</totfact>
</mgrwt>
</event>
<event>
 7    1  0.7037933E-004  0.4789763E+02  0.7546771E-02  0.1533991E+00
          2   -1    0    0  503    0  0.00000000000E+00  0.00000000000E+00  0.26461824658E+04  0.26461824658E+04  0.00000000000E+00 0. -1.
         -2   -1    0    0    0  501 -0.00000000000E+00 -0.00000000000E+00 -0.59533591770E+03  0.59533591770E+03  0.00000000000E+00 0.  1.
         25    2    1    2    0    0 -0.34672346435E+02  0.55721401758E+02  0.71958260438E+03  0.73330120139E+03  0.12499792485E+03 0.  0.
          4    1    3    3  502    0 -0.13506828345E+02 -0.18523243615E+02  0.23162429987E+02  0.32613739879E+02  0.12700000000E+01 0.  1.
         -4    1    3    3    0  502 -0.21165518091E+02  0.74244645374E+02  0.69642017439E+03  0.70068746151E+03  0.12700000000E+01 0.  1.
          1    1    1    2  503    0  0.80542613851E+01 -0.46646995828E+02  0.19191125523E+04  0.19196962785E+04  0.00000000000E+00 0. -1.
         -1    1    1    2    0  501  0.26618085050E+02 -0.90744059304E+01 -0.58784860861E+03  0.58852090357E+03  0.00000000000E+00 0.  1.
<mgrwt>
<rscale>  0 0.36701423E+02</rscale>
<asrwt>0</asrwt>
<pdfrwt beam="1">  1        2 0.40710499E+00 0.47897627E+02</pdfrwt>
<pdfrwt beam="2">  1       -2 0.91590143E-01 0.28122363E+02</pdfrwt>
<totfact> 0.47802999E+00</totfact>
</mgrwt>
</event>
<event>
 7    1  0.7037933E-004  0.8466083E+02  0.7546771E-02  0.1466428E+00
          1   -1    0    0  502    0 -0.00000000000E+00  0.00000000000E+00  0.32759489315E+03  0.32759489315E+03  0.00000000000E+00 0. -1.
          2   -1    0    0  503    0  0.00000000000E+00 -0.00000000000E+00 -0.24374710215E+04  0.24374710215E+04  0.00000000000E+00 0. -1.
         25    2    1    2    0    0  0.66615086415E+02  0.11649654594E+02 -0.41507828055E+03  0.43873503722E+03  0.12500067884E+03 0.  0.
          4    1    3    3  501    0  0.86829762733E+02  0.10688959249E+02 -0.40797189520E+03  0.41724853711E+03  0.12700000000E+01 0.  1.
         -4    1    3    3    0  501 -0.20214676318E+02  0.96069534540E+00 -0.71063853424E+01  0.21486500106E+02  0.12700000000E+01 0.  1.
          2    1    1    2  502    0  0.12698845413E+02  0.21897354931E+02  0.31433535229E+03  0.31535292694E+03  0.00000000000E+00 0. -1.
          3    1    1    2  503    0 -0.79313931829E+02 -0.33547009525E+02 -0.20091332001E+04  0.20109779505E+04  0.00000000000E+00 0. -1.
<mgrwt>
<rscale>  0 0.46292885E+02</rscale>
<asrwt>0</asrwt>
<pdfrwt beam="2">  1        2 0.37499555E+00 0.84660835E+02</pdfrwt>
<pdfrwt beam="1">  1        1 0.50399213E-01 0.25313135E+02</pdfrwt>
<totfact> 0.54169549E+01</totfact>
</mgrwt>
</event>
<event>
 7    1  0.7037933E-004  0.9316651E+02  0.7546771E-02  0.1428481E+00
          1   -1    0    0  502    0 -0.00000000000E+00  0.00000000000E+00  0.11333412568E+04  0.11333412568E+04  0.00000000000E+00 0. -1.
          2   -1    0    0  503    0  0.00000000000E+00 -0.00000000000E+00 -0.14453673829E+04  0.14453673829E+04  0.00000000000E+00 0. -1.
         25    2    1    2    0    0  0.27182436684E+02  0.78005900702E+02 -0.28566787690E+03  0.32257735827E+03  0.12500484297E+03 0.  0.
          4    1    3    3  501    0  0.74057186784E+02  0.26172954746E+02 -0.12920585688E+03  0.15121262126E+03  0.12700000000E+01 0.  1.
         -4    1    3    3    0  501 -0.46874750100E+02  0.51832945956E+02 -0.15646202002E+03  0.17136473701E+03  0.12700000000E+01 0.  1.
          2    1    1    2  502    0 -0.82348118542E+00 -0.93258443791E+02  0.11127322679E+04  0.11166337427E+04  0.00000000000E+00 0. -1.
          1    1    1    2  503    0 -0.26358955499E+02  0.15252543089E+02 -0.11390905171E+04  0.11394975387E+04  0.00000000000E+00 0. -1.
<mgrwt>
<rscale>  0 0.53266080E+02</rscale>
<asrwt>0</asrwt>
<pdfrwt beam="2">  1        2 0.22236421E+00 0.30453811E+02</pdfrwt>
<pdfrwt beam="1">  1        1 0.17436019E+00 0.93166509E+02</pdfrwt>
<totfact> 0.32969520E+01</totfact>
</mgrwt>
</event>
<event>
 7    1  0.7037933E-004  0.1340539E+03  0.7546771E-02  0.1361213E+00
          2   -1    0    0  503    0  0.00000000000E+00  0.00000000000E+00  0.23108893971E+04  0.23108893971E+04  0.00000000000E+00 0. -1.
          1   -1    0    0  502    0 -0.00000000000E+00 -0.00000000000E+00 -0.13957765675E+03  0.13957765675E+03  0.00000000000E+00 0. -1.
         25    2    1    2    0    0  0.13269243509E+02  0.14267499091E+03  0.20287025637E+03  0.27805405528E+03  0.12500196351E+03 0.  0.
          4    1    3    3  501    0  0.45469230554E+02  0.17621568688E+02  0.16863646676E+02  0.51613623099E+02  0.12700000000E+01 0. -1.
         -4    1    3    3    0  501 -0.32199987046E+02  0.12505342222E+03  0.18600660969E+03  0.22644043218E+03  0.12700000000E+01 0. -1.
          2    1    1    2  502    0 -0.45001231799E+02 -0.12523145768E+03 -0.58347002067E+02  0.14530107194E+03  0.00000000000E+00 0. -1.
          1    1    1    2  503    0  0.31731988290E+02 -0.17443533232E+02  0.20267884861E+04  0.20271119267E+04  0.00000000000E+00 0. -1.
<mgrwt>
<rscale>  0 0.69671730E+02</rscale>
<asrwt>0</asrwt>
<pdfrwt beam="1">  1        2 0.35552142E+00 0.36210440E+02</pdfrwt>
<pdfrwt beam="2">  1        1 0.21473487E-01 0.13405388E+03</pdfrwt>
<totfact> 0.20394926E+02</totfact>
</mgrwt>
</event>
<event>
 7    1  0.7037933E-004  0.4473298E+02  0.7546771E-02  0.1517066E+00
          1   -1    0    0  502    0 -0.00000000000E+00  0.00000000000E+00  0.19439564095E+04  0.19439564095E+04  0.00000000000E+00 0. -1.
          2   -1    0    0  503    0  0.00000000000E+00 -0.00000000000E+00 -0.12782007318E+04  0.12782007318E+04  0.00000000000E+00 0. -1.
         25    2    1    2    0    0  0.32318936502E+02  0.59606126015E+01  0.44810747789E+02  0.13678481925E+03  0.12498816384E+03 0.  0.
          4    1    3    3  501    0 -0.12547434200E+02 -0.52568651252E+02  0.90423196370E+01  0.54811291207E+02  0.12700000000E+01 0.  1.
         -4    1    3    3    0  501  0.44866370702E+02  0.58529263853E+02  0.35768428152E+02  0.81973528042E+02  0.12700000000E+01 0.  1.
          2    1    1    2  502    0  0.30187092230E+01 -0.33555978023E+02  0.18525975549E+04  0.18529038876E+04  0.00000000000E+00 0. -1.
          1    1    1    2  503    0 -0.35337645725E+02  0.27595365422E+02 -0.12316526249E+04  0.12324684345E+04  0.00000000000E+00 0. -1.
<mgrwt>
<rscale>  0 0.38821650E+02</rscale>
<asrwt>0</asrwt>
<pdfrwt beam="2">  1        2 0.19664627E+00 0.44732977E+02</pdfrwt>
<pdfrwt beam="1">  1        1 0.29907022E+00 0.33691487E+02</pdfrwt>
<totfact> 0.13303095E+01</totfact>
</mgrwt>
</event>
<event>
 7    1  0.7037933E-004  0.7858033E+02  0.7546771E-02  0.1369935E+00
          2   -1    0    0  503    0  0.00000000000E+00  0.00000000000E+00  0.53290611466E+03  0.53290611466E+03  0.00000000000E+00 0. -1.
         -2   -1    0    0    0  501 -0.00000000000E+00 -0.00000000000E+00 -0.73187192073E+03  0.73187192073E+03  0.00000000000E+00 0.  1.
         25    2    1    2    0    0 -0.25701846618E+01 -0.24900142645E+02 -0.58281441096E+02  0.14017337138E+03  0.12500089886E+03 0.  0.
          4    1    3    3  502    0  0.33220329768E+02  0.13377459736E+02 -0.76663009521E+02  0.84624917534E+02  0.12700000000E+01 0. -1.
         -4    1    3    3    0  502 -0.35790514430E+02 -0.38277602380E+02  0.18381568424E+02  0.55548453848E+02  0.12700000000E+01 0. -1.
          1    1    1    2  503    0 -0.19063679149E+02  0.78113094372E+02  0.48735527205E+03  0.49394356011E+03  0.00000000000E+00 0. -1.
         -1    1    1    2    0  501  0.21633863810E+02 -0.53212951727E+02 -0.62803963703E+03  0.63066110390E+03  0.00000000000E+00 0.  1.
<mgrwt>
<rscale>  0 0.67185202E+02</rscale>
<asrwt>0</asrwt>
<pdfrwt beam="1">  1        2 0.81985556E-01 0.78580326E+02</pdfrwt>
<pdfrwt beam="2">  1       -2 0.11259568E+00 0.57442513E+02</pdfrwt>
<totfact> 0.40851902E+01</totfact>
</mgrwt>
</event>
<event>
 7    1  0.7037933E-004  0.9294077E+02  0.7546771E-02  0.1401979E+00
          2   -1    0    0  503    0  0.00000000000E+00  0.00000000000E+00  0.21747924482E+04  0.21747924482E+04  0.00000000000E+00 0. -1.
          1   -1    0    0  502    0 -0.00000000000E+00 -0.00000000000E+00 -0.45682484154E+02  0.45682484154E+02  0.00000000000E+00 0. -1.
         25    2    1    2    0    0  0.24169107313E+01  0.12850399091E+03  0.11383030109E+04  0.11523317785E+04  0.12496265872E+03 0.  0.
          4    1    3    3  501    0  0.19520710691E+02  0.14133326120E+03  0.10923913226E+04  0.11016698977E+04  0.12700000000E+01 0.  1.
         -4    1    3    3    0  501 -0.17103799960E+02 -0.12829270290E+02  0.45911688258E+02  0.50661880818E+02  0.12700000000E+01 0.  1.
          2    1    1    2  502    0 -0.50702821915E+01 -0.91115067180E+02  0.16039008897E+02  0.92654805786E+02  0.00000000000E+00 0. -1.
          1    1    1    2  503    0  0.26533714602E+01 -0.37388923733E+02  0.97476794423E+03  0.97548834800E+03  0.00000000000E+00 0. -1.
<mgrwt>
<rscale>  0 0.59022832E+02</rscale>
<asrwt>0</asrwt>
<pdfrwt beam="1">  1        2 0.33458337E+00 0.37482956E+02</pdfrwt>
<pdfrwt beam="2">  1        1 0.70280762E-02 0.92940767E+02</pdfrwt>
<totfact> 0.99298972E+02</totfact>
</mgrwt>
</event>
<event>
 7    1  0.7037933E-004  0.6696938E+02  0.7546771E-02  0.1373738E+00
          2   -1    0    0  503    0  0.00000000000E+00  0.00000000000E+00  0.13568064773E+04  0.13568064773E+04  0.00000000000E+00 0. -1.
         -2   -1    0    0    0  501 -0.00000000000E+00 -0.00000000000E+00 -0.46085252214E+03  0.46085252214E+03  0.00000000000E+00 0.  1.
         25    2    1    2    0    0 -0.10127745287E+03 -0.52862667820E+02  0.17125211156E+03  0.24083915487E+03  0.12499851476E+03 0.  0.
          4    1    3    3  502    0 -0.12336789185E+03 -0.24800257883E+02  0.98585614056E+02  0.15986064472E+03  0.12700000000E+01 0. -1.
         -4    1    3    3    0  502  0.22090438977E+02 -0.28062409937E+02  0.72666497509E+02  0.80978510149E+02  0.12700000000E+01 0. -1.
          1    1    1    2  503    0  0.36007457995E+02  0.55387953503E+02  0.11473015325E+04  0.11492019704E+04  0.00000000000E+00 0. -1.
         -3    1    1    2    0  501  0.65269994878E+02 -0.25252856833E+01 -0.42259968885E+03  0.42761787417E+03  0.00000000000E+00 0.  1.
<mgrwt>
<rscale>  0 0.66138955E+02</rscale>
<asrwt>0</asrwt>
<pdfrwt beam="1">  1        2 0.20873946E+00 0.66969379E+02</pdfrwt>
<pdfrwt beam="2">  1       -2 0.70900389E-01 0.65318828E+02</pdfrwt>
<totfact> 0.34704625E+01</totfact>
</mgrwt>
</event>
<event>
 7    1  0.7037933E-004  0.8038642E+02  0.7546771E-02  0.1375722E+00
         -1   -1    0    0    0  501 -0.00000000000E+00  0.00000000000E+00  0.34178045928E+03  0.34178045928E+03  0.00000000000E+00 0.  1.
          1   -1    0    0  503    0  0.00000000000E+00 -0.00000000000E+00 -0.21321168576E+03  0.21321168576E+03  0.00000000000E+00 0. -1.
         25    2    1    2    0    0 -0.70163997878E+02 -0.65712545828E+02  0.72516052634E+02  0.17355763793E+03  0.12499020168E+03 0.  0.
          4    1    3    3  502    0 -0.89184831205E+02 -0.29671884728E+01  0.25329872837E+02  0.92768279505E+02  0.12700000000E+01 0. -1.
         -4    1    3    3    0  502  0.19020833326E+02 -0.62745357355E+02  0.47186179797E+02  0.80789358420E+02  0.12700000000E+01 0. -1.
          2    1    1    2  503    0  0.52093109651E+02 -0.12347612635E+02 -0.15057837983E+03  0.15981240279E+03  0.00000000000E+00 0. -1.
         -2    1    1    2    0  501  0.18070888227E+02  0.78060158464E+02  0.20663110072E+03  0.22162210432E+03  0.00000000000E+00 0.  1.
<mgrwt>
<rscale>  0 0.65601878E+02</rscale>
<asrwt>0</asrwt>
<pdfrwt beam="2">  1        1 0.32801798E-01 0.53536489E+02</pdfrwt>
<pdfrwt beam="1">  1       -1 0.52581609E-01 0.80386415E+02</pdfrwt>
<totfact> 0.50318115E+02</totfact>
</mgrwt>
</event>
<event>
 7    1  0.7037933E-004  0.3501156E+02  0.7546771E-02  0.1567056E+00
          2   -1    0    0  503    0  0.00000000000E+00  0.00000000000E+00  0.28923786748E+02  0.28923786748E+02  0.00000000000E+00 0. -1.
          1   -1    0    0  502    0 -0.00000000000E+00 -0.00000000000E+00 -0.17166054496E+04  0.17166054496E+04  0.00000000000E+00 0. -1.
         25    2    1    2    0    0  0.26113508765E+01 -0.44184836167E+01 -0.41837835453E+03  0.43668338594E+03  0.12500235947E+03 0.  0.
          4    1    3    3  501    0  0.32060357998E+02 -0.41584698509E+02 -0.84797158769E+02  0.99746301888E+02  0.12700000000E+01 0.  1.
         -4    1    3    3    0  501 -0.29449007122E+02  0.37166214892E+02 -0.33358119576E+03  0.33693708406E+03  0.12700000000E+01 0.  1.
          2    1    1    2  502    0  0.10980916472E+02 -0.29113275449E+02 -0.12721701133E+04  0.12725505729E+04  0.00000000000E+00 0. -1.
          1    1    1    2  503    0 -0.13592267349E+02  0.33531759065E+02  0.28668050115E+01  0.36295277498E+02  0.00000000000E+00 0. -1.
<mgrwt>
<rscale>  0 0.33006001E+02</rscale>
<asrwt>0</asrwt>
<pdfrwt beam="1">  1        2 0.44498130E-02 0.35011563E+02</pdfrwt>
<pdfrwt beam="2">  1        1 0.26409317E+00 0.31115323E+02</pdfrwt>
<totfact> 0.13368259E+03</totfact>
</mgrwt>
</event>
<event>
 7    1  0.7037933E-004  0.4503798E+02  0.7546771E-02  0.1503089E+00
         -1   -1    0    0    0  501 -0.00000000000E+00  0.00000000000E+00  0.97525610603E+02  0.97525610603E+02  0.00000000000E+00 0.  1.
          1   -1    0    0  503    0  0.00000000000E+00 -0.00000000000E+00 -0.26874222904E+03  0.26874222904E+03  0.00000000000E+00 0. -1.
         25    2    1    2    0    0 -0.30837564375E+02 -0.67447807813E+02 -0.70677386008E+01  0.14551453888E+03  0.12499746374E+03 0.  0.
          4    1    3    3  502    0 -0.32416625991E+02  0.17143880107E+02  0.35272075271E+02  0.50896782410E+02  0.12700000000E+01 0.  1.
         -4    1    3    3    0  502  0.15790616154E+01 -0.84591687920E+02 -0.42339813871E+02  0.94617756470E+02  0.12700000000E+01 0.  1.
          2    1    1    2  503    0  0.23212206950E+02  0.28540567032E+02 -0.17565817752E+03  0.17946912227E+03  0.00000000000E+00 0. -1.
         -2    1    1    2    0  501  0.76253574254E+01  0.38907240782E+02  0.11509297681E+02  0.41284178497E+02  0.00000000000E+00 0.  1.
<mgrwt>
<rscale>  0 0.40704612E+02</rscale>
<asrwt>0</asrwt>
<pdfrwt beam="2">  1        1 0.41344958E-01 0.36788184E+02</pdfrwt>
<pdfrwt beam="1">  1       -1 0.15003940E-01 0.45037977E+02</pdfrwt>
<totfact> 0.29281891E+03</totfact>
</mgrwt>
</event>
<event>
 7    1  0.7037933E-004  0.9188442E+02  0.7546771E-02  0.1313078E+00
          2   -1    0    0  503    0  0.00000000000E+00  0.00000000000E+00  0.65854976532E+02  0.65854976532E+02  0.00000000000E+00 0. -1.
          1   -1    0    0  502    0 -0.00000000000E+00 -0.00000000000E+00 -0.13999040603E+04  0.13999040603E+04  0.00000000000E+00 0. -1.
         25    2    1    2    0    0 -0.65241014578E+02  0.46782144351E+02 -0.48119041820E+03  0.50358789920E+03  0.12494636704E+03 0.  0.
          4    1    3    3  501    0 -0.32929082143E+02 -0.19699524640E+02 -0.35700000473E+03  0.35905850777E+03  0.12700000000E+01 0.  1.
         -4    1    3    3    0  501 -0.32311932435E+02  0.66481668990E+02 -0.12419041347E+03  0.14452939143E+03  0.12700000000E+01 0.  1.
          2    1    1    2  502    0 -0.25762028143E+02 -0.76074721766E+02 -0.86236601502E+03  0.86609825612E+03  0.00000000000E+00 0. -1.
          1    1    1    2  503    0  0.91003042721E+02  0.29292577416E+02  0.95073494228E+01  0.96072881549E+02  0.00000000000E+00 0. -1.
<mgrwt>
<rscale>  0 0.85906981E+02</rscale>
<asrwt>0</asrwt>
<pdfrwt beam="1">  1        2 0.10131535E-01 0.91884417E+02</pdfrwt>
<pdfrwt beam="2">  1        1 0.21536985E+00 0.80318400E+02</pdfrwt>
<totfact> 0.74752952E+02</totfact>
</mgrwt>
</event>
<event>
 7    1  0.7037933E-004  0.7468514E+02  0.7546771E-02  0.1364488E+00
          1   -1    0    0  502    0 -0.00000000000E+00  0.00000000000E+00  0.10157978278E+04  0.10157978278E+04  0.00000000000E+00 0. -1.
          2   -1    0    0  503    0  0.00000000000E+00 -0.00000000000E+00 -0.69826992269E+02  0.69826992269E+02  0.00000000000E+00 0. -1.
         25    2    1    2    0    0  0.17591495206E+01 -0.28936295034E+02  0.48328006463E+03  0.50002637021E+03  0.12500538490E+03 0.  0.
          4    1    3    3  501    0  0.45235550470E+02 -0.56123132983E+02  0.21154384749E+03  0.22349155105E+03  0.12700000000E+01 0.  1.
         -4    1    3    3    0  501 -0.43476400949E+02  0.27186837948E+02  0.27173621714E+03  0.27653481915E+03  0.12700000000E+01 0.  1.
          2    1    1    2  502    0 -0.58542015688E+02 -0.23914051164E+02  0.49683561190E+03  0.50084396242E+03  0.00000000000E+00 0. -1.
          1    1    1    2  503    0  0.56782866167E+02  0.52850346198E+02 -0.34144840961E+02  0.84754487478E+02  0.00000000000E+00 0. -1.
<mgrwt>
<rscale>  0 0.68723661E+02</rscale>
<asrwt>0</asrwt>
<pdfrwt beam="2">  1        2 0.10742615E-01 0.74685137E+02</pdfrwt>
<pdfrwt beam="1">  1        1 0.15627658E+00 0.63238038E+02</pdfrwt>
<totfact> 0.12649347E+03</totfact>
</mgrwt>
</event>
<event>
 7    1  0.7037933E-004  0.1998940E+03  0.7546771E-02  0.1219948E+00
          1   -1    0    0  502    0 -0.00000000000E+00  0.00000000000E+00  0.12192169260E+04  0.12192169260E+04  0.00000000000E+00 0. -1.
          2   -1    0    0  503    0  0.00000000000E+00 -0.00000000000E+00 -0.72325699862E+03  0.72325699862E+03  0.00000000000E+00 0. -1.
         25    2    1    2    0    0  0.34887646327E+02 -0.28098037656E+03  0.35900705259E+03  0.47400192965E+03  0.12499858249E+03 0.  0.
          4    1    3    3  501    0  0.54723161728E+02 -0.10135966527E+03  0.21105453896E+03  0.24044549796E+03  0.12700000000E+01 0.  1.
         -4    1    3    3    0  501 -0.19835515401E+02 -0.17962071128E+03  0.14795251363E+03  0.23355643169E+03  0.12700000000E+01 0.  1.
          2    1    1    2  502    0  0.14632778958E+02  0.90255565618E+02  0.78542160174E+03  0.79072579180E+03  0.00000000000E+00 0. -1.
          1    1    1    2  503    0 -0.49520425285E+02  0.19072481094E+03 -0.64846872697E+03  0.67774620315E+03  0.00000000000E+00 0. -1.
<mgrwt>
<rscale>  0 0.13519288E+03</rscale>
<asrwt>0</asrwt>
<pdfrwt beam="2">  1        2 0.11127031E+00 0.19989397E+03</pdfrwt>
<pdfrwt beam="1">  1        1 0.18757183E+00 0.91434049E+02</pdfrwt>
<totfact> 0.67414097E+01</totfact>
</mgrwt>
</event>
<event>
 7    1  0.7037933E-004  0.7362984E+02  0.7546771E-02  0.1446054E+00
          1   -1    0    0  502    0 -0.00000000000E+00  0.00000000000E+00  0.46095931596E+02  0.46095931596E+02  0.00000000000E+00 0. -1.
          2   -1    0    0  503    0  0.00000000000E+00 -0.00000000000E+00 -0.23815383922E+04  0.23815383922E+04  0.00000000000E+00 0. -1.
         25    2    1    2    0    0 -0.74099110142E+02 -0.23787250405E+02 -0.42568426546E+03  0.45043193253E+03  0.12500128228E+03 0.  0.
          4    1    3    3  501    0 -0.10651143204E+03 -0.17756646565E+01 -0.33781059047E+03  0.35421101913E+03  0.12700000000E+01 0. -1.
         -4    1    3    3    0  501  0.32412321897E+02 -0.22011585749E+02 -0.87873674991E+02  0.96220913394E+02  0.12700000000E+01 0. -1.
          2    1    1    2  502    0  0.97491179098E+00  0.33760633600E+02  0.24381244644E+02  0.41655442915E+02  0.00000000000E+00 0. -1.
          1    1    1    2  503    0  0.73124198351E+02 -0.99733831943E+01 -0.19341394398E+04  0.19355469484E+04  0.00000000000E+00 0. -1.
<mgrwt>
<rscale>  0 0.49868090E+02</rscale>
<asrwt>0</asrwt>
<pdfrwt beam="2">  1        2 0.36639056E+00 0.73629844E+02</pdfrwt>
<pdfrwt beam="1">  1        1 0.70916811E-02 0.33774707E+02</pdfrwt>
<totfact> 0.64566317E+02</totfact>
</mgrwt>
</event>
<event>
 7    1  0.7037933E-004  0.5767115E+02  0.7546771E-02  0.1424697E+00
          1   -1    0    0  503    0  0.00000000000E+00  0.00000000000E+00  0.13292955655E+04  0.13292955655E+04  0.00000000000E+00 0. -1.
         -3   -1    0    0    0  501 -0.00000000000E+00 -0.00000000000E+00 -0.32543118613E+03  0.32543118613E+03  0.00000000000E+00 0.  1.
         25    2    1    2    0    0  0.19296353378E+02  0.78550728517E+02 -0.21386217810E+02  0.15041480666E+03  0.12499871018E+03 0.  0.
          4    1    3    3  502    0  0.62647087489E+02  0.40288589339E+02  0.22495062924E+02  0.77816892496E+02  0.12700000000E+01 0.  1.
         -4    1    3    3    0  502 -0.43350734110E+02  0.38262139179E+02 -0.43881280734E+02  0.72597914166E+02  0.12700000000E+01 0.  1.
          2    1    1    2  503    0  0.24046508228E+02 -0.52369660343E+02  0.12614399841E+04  0.12627555778E+04  0.00000000000E+00 0. -1.
         -2    1    1    2    0  501 -0.43342861606E+02 -0.26181068174E+02 -0.23618938694E+03  0.24155636710E+03  0.00000000000E+00 0.  1.
<mgrwt>
<rscale>  0 0.54039464E+02</rscale>
<asrwt>0</asrwt>
<pdfrwt beam="1">  1        1 0.20450701E+00 0.57671155E+02</pdfrwt>
<pdfrwt beam="2">  1       -3 0.50066337E-01 0.50636469E+02</pdfrwt>
<totfact> 0.21468602E+01</totfact>
</mgrwt>
</event>
<event>
 7    1  0.7037933E-004  0.7326229E+02  0.7546771E-02  0.1474138E+00
          1   -1    0    0  502    0 -0.00000000000E+00  0.00000000000E+00  0.22926348430E+03  0.22926348430E+03  0.00000000000E+00 0. -1.
          2   -1    0    0  503    0  0.00000000000E+00 -0.00000000000E+00 -0.32844456107E+03  0.32844456107E+03  0.00000000000E+00 0. -1.
         25    2    1    2    0    0 -0.14238764220E+02  0.91662764489E+02 -0.87964458563E+02  0.17879123458E+03  0.12499501907E+03 0.  0.
          4    1    3    3  501    0  0.21967462229E+02  0.92469334315E+02 -0.10246203065E+03  0.13976132445E+03  0.12700000000E+01 0.  1.
         -4    1    3    3    0  501 -0.36206226449E+02 -0.80656982569E+00  0.14497572091E+02  0.39029910134E+02  0.12700000000E+01 0.  1.
          2    1    1    2  502    0  0.17997510510E+02 -0.21030929322E+02  0.17632275537E+03  0.17848228044E+03  0.00000000000E+00 0. -1.
          1    1    1    2  503    0 -0.37587462899E+01 -0.70631835167E+02 -0.18753937358E+03  0.20043453034E+03  0.00000000000E+00 0. -1.
<mgrwt>
<rscale>  0 0.45032622E+02</rscale>
<asrwt>0</asrwt>
<pdfrwt beam="2">  1        2 0.50529933E-01 0.73262286E+02</pdfrwt>
<pdfrwt beam="1">  1        1 0.35271305E-01 0.27680505E+02</pdfrwt>
<totfact> 0.16009206E+03</totfact>
</mgrwt>
</event>
<event>
 7    1  0.7037933E-004  0.1642974E+03  0.7546771E-02  0.1246929E+00
          1   -1    0    0  502    0 -0.00000000000E+00  0.00000000000E+00  0.42665045776E+03  0.42665045776E+03  0.00000000000E+00 0. -1.
          2   -1    0    0  503    0  0.00000000000E+00 -0.00000000000E+00 -0.60799423007E+03  0.60799423007E+03  0.00000000000E+00 0. -1.
         25    2    1    2    0    0 -0.16494848321E+03  0.14100034110E+03 -0.27870256764E+02  0.25198223939E+03  0.12501679669E+03 0.  0.
          4    1    3    3  501    0 -0.30500831938E+02  0.99946542111E+02 -0.37603240546E+02  0.11106407443E+03  0.12700000000E+01 0.  1.
         -4    1    3    3    0  501 -0.13444765127E+03  0.41053798986E+02  0.97329837816E+01  0.14091816497E+03  0.12700000000E+01 0.  1.
          2    1    1    2  502    0  0.80773632021E+02 -0.13591828679E+03  0.29050649185E+03  0.33074488979E+03  0.00000000000E+00 0. -1.
          1    1    1    2  503    0  0.84174851191E+02 -0.50820543117E+01 -0.44398000739E+03  0.45191755865E+03  0.00000000000E+00 0. -1.
<mgrwt>
<rscale>  0 0.11770679E+03</rscale>
<asrwt>0</asrwt>
<pdfrwt beam="2">  1        2 0.93537574E-01 0.84328126E+02</pdfrwt>
<pdfrwt beam="1">  1        1 0.65638532E-01 0.16429737E+03</pdfrwt>
<totfact> 0.39172350E+02</totfact>
</mgrwt>
</event>
<event>
 7    1  0.7037933E-004  0.7760221E+02  0.7546771E-02  0.1384739E+00
          1   -1    0    0  502    0 -0.00000000000E+00  0.00000000000E+00  0.22171740707E+03  0.22171740707E+03  0.00000000000E+00 0. -1.
          2   -1    0    0  503    0  0.00000000000E+00 -0.00000000000E+00 -0.87727011950E+03  0.87727011950E+03  0.00000000000E+00 0. -1.
         25    2    1    2    0    0  0.72755569291E+02  0.62509986723E+02  0.29737396065E+02  0.16033505276E+03  0.12498857994E+03 0.  0.
          4    1    3    3  501    0  0.92172596654E+02  0.41125086875E+02  0.60850360307E+02  0.11786195143E+03  0.12700000000E+01 0. -1.
         -4    1    3    3    0  501 -0.19417027363E+02  0.21384899848E+02 -0.31112964242E+02  0.42473101336E+02  0.12700000000E+01 0. -1.
          2    1    1    2  502    0 -0.75727861480E+02 -0.11068983628E+02  0.11421666771E+03  0.13748701242E+03  0.00000000000E+00 0. -1.
          1    1    1    2  503    0  0.29722921887E+01 -0.51441003095E+02 -0.79950677621E+03  0.80116546139E+03  0.00000000000E+00 0. -1.
<mgrwt>
<rscale>  0 0.63234434E+02</rscale>
<asrwt>0</asrwt>
<pdfrwt beam="2">  1        2 0.13496463E+00 0.51526802E+02</pdfrwt>
<pdfrwt beam="1">  1        1 0.34110371E-01 0.77602209E+02</pdfrwt>
<totfact> 0.58348132E+02</totfact>
</mgrwt>
</event>
<event>
 7    1  0.7037933E-004  0.9062954E+02  0.7546771E-02  0.1326655E+00
         -2   -1    0    0    0  501 -0.00000000000E+00  0.00000000000E+00  0.23335944093E+02  0.23335944093E+02  0.00000000000E+00 0.  1.
          2   -1    0    0  503    0  0.00000000000E+00 -0.00000000000E+00 -0.18174898926E+04  0.18174898926E+04  0.00000000000E+00 0. -1.
         25    2    1    2    0    0  0.29516744818E+02  0.11769561225E+03 -0.13415372059E+04  0.13528010906E+04  0.12500088197E+03 0.  0.
          4    1    3    3  502    0  0.57807032829E+02  0.10169677879E+03 -0.12535101347E+04  0.12589571710E+04  0.12700000000E+01 0.  1.
         -4    1    3    3    0  502 -0.28290288011E+02  0.15998833460E+02 -0.88027071248E+02  0.93843919570E+02  0.12700000000E+01 0.  1.
          1    1    1    2  503    0 -0.63207221161E+02 -0.34742869639E+02 -0.31990676802E+03  0.32793682322E+03  0.00000000000E+00 0. -1.
         -1    1    1    2    0  501  0.33690476343E+02 -0.82952742609E+02 -0.13270997460E+03  0.16008792290E+03  0.00000000000E+00 0.  1.
<mgrwt>
<rscale>  0 0.80850381E+02</rscale>
<asrwt>0</asrwt>
<pdfrwt beam="2">  1        2 0.27961397E+00 0.72126415E+02</pdfrwt>
<pdfrwt beam="1">  1       -2 0.35901435E-02 0.90629544E+02</pdfrwt>
<totfact> 0.30572585E+03</totfact>
</mgrwt>
</event>
<event>
 7    1  0.7037933E-004  0.4518378E+02  0.7546771E-02  0.1529464E+00
          2   -1    0    0  503    0  0.00000000000E+00  0.00000000000E+00  0.55724291875E+02  0.55724291875E+02  0.00000000000E+00 0. -1.
          1   -1    0    0  502    0 -0.00000000000E+00 -0.00000000000E+00 -0.20211597426E+04  0.20211597426E+04  0.00000000000E+00 0. -1.
         25    2    1    2    0    0 -0.52665334360E+02  0.20529837160E+02 -0.80692485406E+03  0.81850407102E+03  0.12500433001E+03 0.  0.
          4    1    3    3  501    0  0.40364716198E+01  0.83397100596E+00  0.36856327023E+01  0.56732177107E+01  0.12700000000E+01 0. -1.
         -4    1    3    3    0  501 -0.56701805980E+02  0.19695866154E+02 -0.81061048676E+03  0.81283085331E+03  0.12700000000E+01 0. -1.
          2    1    1    2  502    0  0.26188455682E+02  0.16045418356E+02 -0.11980008692E+04  0.11983944982E+04  0.00000000000E+00 0. -1.
          1    1    1    2  503    0  0.26476878678E+02 -0.36575255516E+02  0.39490272529E+02  0.59985465281E+02  0.00000000000E+00 0. -1.
<mgrwt>
<rscale>  0 0.37252261E+02</rscale>
<asrwt>0</asrwt>
<pdfrwt beam="1">  1        2 0.85729692E-02 0.45183775E+02</pdfrwt>
<pdfrwt beam="2">  1        1 0.31094761E+00 0.30713037E+02</pdfrwt>
<totfact> 0.40310479E+02</totfact>
</mgrwt>
</event>
<event>
 7    1  0.7037933E-004  0.4495323E+02  0.7546771E-02  0.1478971E+00
          1   -1    0    0  502    0 -0.00000000000E+00  0.00000000000E+00  0.28717340494E+04  0.28717340494E+04  0.00000000000E+00 0. -1.
          2   -1    0    0  503    0  0.00000000000E+00 -0.00000000000E+00 -0.17964628122E+03  0.17964628122E+03  0.00000000000E+00 0. -1.
         25    2    1    2    0    0  0.76094736744E+01 -0.26454866760E+01 -0.70376457992E+02  0.14367010462E+03  0.12499340155E+03 0.  0.
          4    1    3    3  501    0  0.49409513296E+02 -0.23977567145E+02 -0.78715450233E+02  0.95989367826E+02  0.12700000000E+01 0.  1.
         -4    1    3    3    0  501 -0.41800039621E+02  0.21332080469E+02  0.83389922408E+01  0.47680736792E+02  0.12700000000E+01 0.  1.
          2    1    1    2  502    0  0.43417357296E+02 -0.11650146771E+02  0.28252178483E+04  0.28255754605E+04  0.00000000000E+00 0. -1.
          1    1    1    2  503    0 -0.51026830970E+02  0.14295633447E+02 -0.62753622109E+02  0.82134765491E+02  0.00000000000E+00 0. -1.
<mgrwt>
<rscale>  0 0.44266938E+02</rscale>
<asrwt>0</asrwt>
<pdfrwt beam="2">  1        2 0.27637891E-01 0.43591125E+02</pdfrwt>
<pdfrwt beam="1">  1        1 0.44180521E+00 0.44953229E+02</pdfrwt>
<totfact> 0.29918721E+01</totfact>
</mgrwt>
</event>
<event>
 7    1  0.7037933E-004  0.1155469E+03  0.7546771E-02  0.1279926E+00
         -1   -1    0    0    0  501 -0.00000000000E+00  0.00000000000E+00  0.11713293026E+03  0.11713293026E+03  0.00000000000E+00 0.  1.
          1   -1    0    0  503    0  0.00000000000E+00 -0.00000000000E+00 -0.14182283601E+04  0.14182283601E+04  0.00000000000E+00 0. -1.
         25    2    1    2    0    0  0.11015964197E+01  0.32422851372E+02 -0.79784940280E+03  0.80823186724E+03  0.12499050715E+03 0.  0.
          4    1    3    3  502    0  0.49494231810E+02 -0.13579930782E+02 -0.51741078558E+03  0.51995156259E+03  0.12700000000E+01 0. -1.
         -4    1    3    3    0  502 -0.48392635390E+02  0.46002782154E+02 -0.28043861722E+03  0.28828030465E+03  0.12700000000E+01 0. -1.
          2    1    1    2  503    0  0.18161590463E+02  0.84930284823E+02 -0.57942565682E+03  0.58589853083E+03  0.00000000000E+00 0. -1.
         -2    1    1    2    0  501 -0.19263186883E+02 -0.11735313620E+03  0.76179629769E+02  0.14123089228E+03  0.00000000000E+00 0.  1.
<mgrwt>
<rscale>  0 0.10017631E+03</rscale>
<asrwt>0</asrwt>
<pdfrwt beam="2">  1        1 0.21818896E+00 0.86850427E+02</pdfrwt>
<pdfrwt beam="1">  1       -1 0.18020452E-01 0.11554685E+03</pdfrwt>
<totfact> 0.20965410E+02</totfact>
</mgrwt>
</event>
<event>
 7    1  0.7037933E-004  0.6238909E+02  0.7546771E-02  0.1515725E+00
          1   -1    0    0  502    0 -0.00000000000E+00  0.00000000000E+00  0.12316237355E+02  0.12316237355E+02  0.00000000000E+00 0. -1.
          2   -1    0    0  503    0  0.00000000000E+00 -0.00000000000E+00 -0.20211359523E+04  0.20211359523E+04  0.00000000000E+00 0. -1.
         25    2    1    2    0    0 -0.93900765378E+01  0.70693800750E+02 -0.10687141455E+04  0.10783591219E+04  0.12499073613E+03 0.  0.
          4    1    3    3  501    0 -0.45045369561E+02  0.91353425371E+02 -0.70633156413E+03  0.71363886178E+03  0.12700000000E+01 0.  1.
         -4    1    3    3    0  501  0.35655293023E+02 -0.20659624622E+02 -0.36238258134E+03  0.36472026016E+03  0.12700000000E+01 0.  1.
          2    1    1    2  502    0 -0.12713216792E+02 -0.60417029669E+02 -0.12301642588E+03  0.13764041700E+03  0.00000000000E+00 0. -1.
          1    1    1    2  503    0  0.22103293330E+02 -0.10276771081E+02 -0.81708914362E+03  0.81745265076E+03  0.00000000000E+00 0. -1.
<mgrwt>
<rscale>  0 0.38997033E+02</rscale>
<asrwt>0</asrwt>
<pdfrwt beam="2">  1        2 0.31094416E+00 0.24375553E+02</pdfrwt>
<pdfrwt beam="1">  1        1 0.18948047E-02 0.62389088E+02</pdfrwt>
<totfact> 0.70140315E+03</totfact>
</mgrwt>
</event>
<event>
 7    1  0.7037933E-004  0.8574951E+02  0.7546771E-02  0.1381815E+00
         -1   -1    0    0    0  502 -0.00000000000E+00  0.00000000000E+00  0.15119729342E+03  0.15119729342E+03  0.00000000000E+00 0.  1.
         -2   -1    0    0    0  501  0.00000000000E+00 -0.00000000000E+00 -0.71657699982E+03  0.71657699982E+03  0.00000000000E+00 0.  1.
         25    2    1    2    0    0  0.41532348021E+02 -0.58865638586E+01 -0.30281235449E+03  0.33027083140E+03  0.12499564982E+03 0.  0.
          4    1    3    3  503    0  0.13664770704E+02 -0.17464232735E+02  0.34893031951E+01  0.22483627826E+02  0.12700000000E+01 0. -1.
         -4    1    3    3    0  503  0.27867577316E+02  0.11577668876E+02 -0.30630165769E+03  0.30778720357E+03  0.12700000000E+01 0. -1.
         -2    1    1    2    0  502 -0.82018461994E+02  0.31204378934E+02  0.12183410180E+03  0.15014755986E+03  0.00000000000E+00 0.  1.
         -1    1    1    2    0  501  0.40486113974E+02 -0.25317815075E+02 -0.38440145371E+03  0.38735590198E+03  0.00000000000E+00 0.  1.
<mgrwt>
<rscale>  0 0.63988970E+02</rscale>
<asrwt>0</asrwt>
<pdfrwt beam="2">  1       -2 0.11024261E+00 0.47750573E+02</pdfrwt>
<pdfrwt beam="1">  1       -1 0.23261123E-01 0.85749512E+02</pdfrwt>
<totfact> 0.81778794E+01</totfact>
</mgrwt>
</event>
<event>
 7    1  0.7037933E-004  0.1135359E+03  0.7546771E-02  0.1410949E+00
         -1   -1    0    0    0  501 -0.00000000000E+00  0.00000000000E+00  0.51790492020E+03  0.51790492020E+03  0.00000000000E+00 0.  1.
          1   -1    0    0  503    0  0.00000000000E+00 -0.00000000000E+00 -0.96031903586E+03  0.96031903586E+03  0.00000000000E+00 0. -1.
         25    2    1    2    0    0  0.93265419598E+02 -0.13701892291E+02 -0.14860548913E+03  0.21585678685E+03  0.12499752271E+03 0.  0.
          4    1    3    3  502    0  0.12249906539E+03 -0.25256001669E+02 -0.11746537207E+03  0.17159141347E+03  0.12700000000E+01 0. -1.
         -4    1    3    3    0  502 -0.29233645791E+02  0.11554109377E+02 -0.31140117062E+02  0.44265373379E+02  0.12700000000E+01 0. -1.
          2    1    1    2  503    0  0.14403878386E+02 -0.24707061270E+02 -0.77107303939E+03  0.77160322878E+03  0.00000000000E+00 0. -1.
         -2    1    1    2    0  501 -0.10766929798E+03  0.38408953561E+02  0.47726441286E+03  0.49076394043E+03  0.00000000000E+00 0.  1.
<mgrwt>
<rscale>  0 0.56982702E+02</rscale>
<asrwt>0</asrwt>
<pdfrwt beam="2">  1        1 0.14774139E+00 0.28599136E+02</pdfrwt>
<pdfrwt beam="1">  1       -1 0.79677680E-01 0.11353589E+03</pdfrwt>
<totfact> 0.33870713E+01</totfact>
</mgrwt>
</event>
<event>
 7    1  0.7037933E-004  0.1705457E+03  0.7546771E-02  0.1186568E+00
          1   -1    0    0  502    0 -0.00000000000E+00  0.00000000000E+00  0.22361609671E+03  0.22361609671E+03  0.00000000000E+00 0. -1.
          2   -1    0    0  503    0  0.00000000000E+00 -0.00000000000E+00 -0.50424799294E+03  0.50424799294E+03  0.00000000000E+00 0. -1.
         25    2    1    2    0    0  0.53963529494E+02 -0.18955473602E+03 -0.16790438457E+03  0.28750738765E+03  0.12500222051E+03 0.  0.
          4    1    3    3  501    0  0.82758638736E+02 -0.17946826144E+03 -0.16381091280E+03  0.25669724814E+03  0.12700000000E+01 0.  1.
         -4    1    3    3    0  501 -0.28795109242E+02 -0.10086474579E+02 -0.40934717734E+01  0.30810139514E+02  0.12700000000E+01 0.  1.
          2    1    1    2  502    0  0.94507219998E+02  0.14982771696E+03  0.79563006118E+02  0.19419122365E+03  0.00000000000E+00 0. -1.
          1    1    1    2  503    0 -0.14847074949E+03  0.39727019065E+02 -0.19229051778E+03  0.24616547834E+03  0.00000000000E+00 0. -1.
<mgrwt>
<rscale>  0 0.16190064E+03</rscale>
<asrwt>0</asrwt>
<pdfrwt beam="2">  1        2 0.77576614E-01 0.15369385E+03</pdfrwt>
<pdfrwt beam="1">  1        1 0.34402476E-01 0.17054565E+03</pdfrwt>
<totfact> 0.10707072E+03</totfact>
</mgrwt>
</event>
<event>
 7    1  0.7037933E-004  0.3639934E+02  0.7546771E-02  0.1537479E+00
          1   -1    0    0  502    0 -0.00000000000E+00  0.00000000000E+00  0.94213426974E+03  0.94213426974E+03  0.00000000000E+00 0. -1.
          2   -1    0    0  503    0  0.00000000000E+00 -0.00000000000E+00 -0.23833377810E+04  0.23833377810E+04  0.00000000000E+00 0. -1.
         25    2    1    2    0    0  0.63342695565E+02 -0.31066595419E+02 -0.12278965895E+03  0.18891249642E+03  0.12503279780E+03 0.  0.
          4    1    3    3  501    0  0.74735583639E+02 -0.57773677705E+02 -0.42625341176E+02  0.10364235576E+03  0.12700000000E+01 0. -1.
         -4    1    3    3    0  501 -0.11392888074E+02  0.26707082286E+02 -0.80164317776E+02  0.85270140655E+02  0.12700000000E+01 0. -1.
          2    1    1    2  502    0 -0.35236963447E+02  0.81648064486E+01  0.90856545378E+03  0.90928515410E+03  0.00000000000E+00 0. -1.
          1    1    1    2  503    0 -0.28105732118E+02  0.22901788970E+02 -0.22269793061E+04  0.22272744002E+04  0.00000000000E+00 0. -1.
<mgrwt>
<rscale>  0 0.36284757E+02</rscale>
<asrwt>0</asrwt>
<pdfrwt beam="2">  1        2 0.36666735E+00 0.36399338E+02</pdfrwt>
<pdfrwt beam="1">  1        1 0.14494373E+00 0.36170536E+02</pdfrwt>
<totfact> 0.16614801E+01</totfact>
</mgrwt>
</event>
<event>
 7    1  0.7037933E-004  0.6986368E+02  0.7546771E-02  0.1442763E+00
          1   -1    0    0  502    0 -0.00000000000E+00  0.00000000000E+00  0.23369587104E+03  0.23369587104E+03  0.00000000000E+00 0. -1.
          2   -1    0    0  503    0  0.00000000000E+00 -0.00000000000E+00 -0.17177353567E+04  0.17177353567E+04  0.00000000000E+00 0. -1.
         25    2    1    2    0    0 -0.46188553627E+02  0.93273512288E+01 -0.42969570270E+03  0.44998153731E+03  0.12499842015E+03 0.  0.
          4    1    3    3  501    0 -0.64926998651E+02 -0.39334819333E+02 -0.18861072257E+03  0.20331837284E+03  0.12700000000E+01 0.  1.
         -4    1    3    3    0  501  0.18738445024E+02  0.48662170562E+02 -0.24108498012E+03  0.24666316447E+03  0.12700000000E+01 0.  1.
          2    1    1    2  502    0  0.67154227298E+02  0.20521444472E+02  0.21777092356E+03  0.22881213927E+03  0.00000000000E+00 0. -1.
          1    1    1    2  503    0 -0.20965673671E+02 -0.29848795700E+02 -0.12721147065E+04  0.12726375512E+04  0.00000000000E+00 0. -1.
<mgrwt>
<rscale>  0 0.50481269E+02</rscale>
<asrwt>0</asrwt>
<pdfrwt beam="2">  1        2 0.26426698E+00 0.36476158E+02</pdfrwt>
<pdfrwt beam="1">  1        1 0.35953210E-01 0.69863677E+02</pdfrwt>
<totfact> 0.20508091E+02</totfact>
</mgrwt>
</event>
<event>
 7    1  0.7037933E-004  0.2895019E+02  0.7546771E-02  0.1637874E+00
          1   -1    0    0  503    0  0.00000000000E+00  0.00000000000E+00  0.17753961686E+04  0.17753961686E+04  0.00000000000E+00 0. -1.
         -1   -1    0    0    0  501 -0.00000000000E+00 -0.00000000000E+00 -0.22400562008E+03  0.22400562008E+03  0.00000000000E+00 0.  1.
         25    2    1    2    0    0 -0.27776099831E+02  0.44680145795E+02  0.63685762758E+03  0.65113999390E+03  0.12501130626E+03 0.  0.
          4    1    3    3  502    0 -0.19575818600E+02  0.78362099321E+02  0.57118291617E+03  0.57686685458E+03  0.12700000000E+01 0.  1.
         -4    1    3    3    0  502 -0.82002812311E+01 -0.33681953526E+02  0.65674711408E+02  0.74273139318E+02  0.12700000000E+01 0.  1.
          2    1    1    2  503    0  0.16886001151E+02 -0.17893317874E+02  0.11302990124E+04  0.11305667451E+04  0.00000000000E+00 0. -1.
         -2    1    1    2    0  501  0.10890098680E+02 -0.26786827921E+02 -0.21576609147E+03  0.21769504961E+03  0.00000000000E+00 0.  1.
<mgrwt>
<rscale>  0 0.26688229E+02</rscale>
<asrwt>0</asrwt>
<pdfrwt beam="1">  1        1 0.27313786E+00 0.24603005E+02</pdfrwt>
<pdfrwt beam="2">  1       -1 0.34462404E-01 0.28950185E+02</pdfrwt>
<totfact> 0.49078717E+01</totfact>
</mgrwt>
</event>
<event>
 7    1  0.7037933E-004  0.8322586E+02  0.7546771E-02  0.1488514E+00
          2   -1    0    0  503    0  0.00000000000E+00  0.00000000000E+00  0.38535692750E+04  0.38535692750E+04  0.00000000000E+00 0. -1.
          1   -1    0    0  502    0 -0.00000000000E+00 -0.00000000000E+00 -0.20707458888E+02  0.20707458888E+02  0.00000000000E+00 0. -1.
         25    2    1    2    0    0  0.94679567079E+02 -0.22456230999E+02  0.41038025703E+03  0.43989337257E+03  0.12500288453E+03 0.  0.
          4    1    3    3  501    0  0.16930194475E+02  0.36552500313E+02  0.39687117276E+02  0.56563211912E+02  0.12700000000E+01 0.  1.
         -4    1    3    3    0  501  0.77749372604E+02 -0.59008731312E+02  0.37069313975E+03  0.38333016066E+03  0.12700000000E+01 0.  1.
          2    1    1    2  502    0 -0.11975200610E+02  0.18476498628E+02  0.16799548349E+02  0.27694968062E+02  0.00000000000E+00 0. -1.
          1    1    1    2  503    0 -0.82704366469E+02  0.39797323715E+01  0.34056820107E+04  0.34066883932E+04  0.00000000000E+00 0. -1.
<mgrwt>
<rscale>  0 0.42807194E+02</rscale>
<asrwt>0</asrwt>
<pdfrwt beam="1">  1        2 0.59285624E+00 0.83225862E+02</pdfrwt>
<pdfrwt beam="2">  1        1 0.31857660E-02 0.22017866E+02</pdfrwt>
<totfact> 0.22862004E+02</totfact>
</mgrwt>
</event>
<event>
 7    1  0.7037933E-004  0.7511125E+02  0.7546771E-02  0.1363134E+00
          2   -1    0    0  503    0  0.00000000000E+00  0.00000000000E+00  0.16266947702E+04  0.16266947702E+04  0.00000000000E+00 0. -1.
          1   -1    0    0  502    0 -0.00000000000E+00 -0.00000000000E+00 -0.63155937013E+02  0.63155937013E+02  0.00000000000E+00 0. -1.
         25    2    1    2    0    0 -0.37093771258E+02  0.11661370254E+03  0.49848252527E+03  0.52828488540E+03  0.12500155461E+03 0.  0.
          4    1    3    3  501    0  0.36511716633E+02  0.40144497775E+02  0.28204156356E+03  0.28721723944E+03  0.12700000000E+01 0.  1.
         -4    1    3    3    0  501 -0.73605487892E+02  0.76469204761E+02  0.21644096171E+03  0.24106764596E+03  0.12700000000E+01 0.  1.
          2    1    1    2  502    0 -0.87570667207E+01 -0.72545512618E+02 -0.19115023705E+02  0.75530932404E+02  0.00000000000E+00 0. -1.
          1    1    1    2  503    0  0.45850837979E+02 -0.44068189918E+02  0.10841713316E+04  0.10860348894E+04  0.00000000000E+00 0. -1.
<mgrwt>
<rscale>  0 0.69113591E+02</rscale>
<asrwt>0</asrwt>
<pdfrwt beam="1">  1        2 0.25026070E+00 0.63594848E+02</pdfrwt>
<pdfrwt beam="2">  1        1 0.97162992E-02 0.75111249E+02</pdfrwt>
<totfact> 0.11113032E+03</totfact>
</mgrwt>
</event>
<event>
 7    1  0.7037933E-004  0.1642433E+03  0.7546771E-02  0.1222971E+00
          2   -1    0    0  503    0  0.00000000000E+00  0.00000000000E+00  0.23984399228E+04  0.23984399228E+04  0.00000000000E+00 0. -1.
         -2   -1    0    0    0  501 -0.00000000000E+00 -0.00000000000E+00 -0.17122058003E+03  0.17122058003E+03  0.00000000000E+00 0.  1.
         25    2    1    2    0    0 -0.47906844924E+02 -0.21250601567E+03  0.46540839410E+03  0.52885453798E+03  0.12501310553E+03 0.  0.
          4    1    3    3  502    0 -0.27500447901E+02 -0.13476038351E+03  0.40664796326E+03  0.42927941311E+03  0.12700000000E+01 0.  1.
         -4    1    3    3    0  502 -0.20406397023E+02 -0.77745632162E+02  0.58760430845E+02  0.99575124870E+02  0.12700000000E+01 0.  1.
          1    1    1    2  503    0 -0.43275410090E+02  0.15497919817E+03  0.18765071203E+04  0.18833932902E+04  0.00000000000E+00 0. -1.
         -1    1    1    2    0  501  0.91182255014E+02  0.57526817500E+02 -0.11469617163E+03  0.15741267467E+03  0.00000000000E+00 0.  1.
<mgrwt>
<rscale>  0 0.13306946E+03</rscale>
<asrwt>0</asrwt>
<pdfrwt beam="1">  1        2 0.36899073E+00 0.16424329E+03</pdfrwt>
<pdfrwt beam="2">  1       -2 0.26341629E-01 0.10781251E+03</pdfrwt>
<totfact> 0.62003057E+01</totfact>
</mgrwt>
</event>
<event>
 7    1  0.7037933E-004  0.1489509E+03  0.7546771E-02  0.1234677E+00
          2   -1    0    0  503    0  0.00000000000E+00  0.00000000000E+00  0.96893067834E+03  0.96893067834E+03  0.00000000000E+00 0. -1.
          1   -1    0    0  502    0 -0.00000000000E+00 -0.00000000000E+00 -0.71863712128E+02  0.71863712128E+02  0.00000000000E+00 0. -1.
         25    2    1    2    0    0 -0.49838024934E+02  0.11515221587E+03  0.24085346028E+03  0.29896352606E+03  0.12499975616E+03 0.  0.
          4    1    3    3  501    0 -0.88930240333E+02  0.10097422568E+03  0.17012654651E+03  0.21690789895E+03  0.12700000000E+01 0. -1.
         -4    1    3    3    0  501  0.39092215400E+02  0.14177990191E+02  0.70726913763E+02  0.82055627114E+02  0.12700000000E+01 0. -1.
          2    1    1    2  502    0  0.15310596952E+03 -0.94449490246E+02  0.18139963804E+03  0.25547597302E+03  0.00000000000E+00 0. -1.
          1    1    1    2  503    0 -0.10326794458E+03 -0.20702725627E+02  0.47481386789E+03  0.48635489138E+03  0.00000000000E+00 0. -1.
<mgrwt>
<rscale>  0 0.12525137E+03</rscale>
<asrwt>0</asrwt>
<pdfrwt beam="1">  1        2 0.14906625E+00 0.10532270E+03</pdfrwt>
<pdfrwt beam="2">  1        1 0.11055956E-01 0.14895086E+03</pdfrwt>
<totfact> 0.21142422E+03</totfact>
</mgrwt>
</event>
<event>
 7    1  0.7037933E-004  0.6796719E+02  0.7546771E-02  0.1422629E+00
          2   -1    0    0  503    0  0.00000000000E+00  0.00000000000E+00  0.92779648136E+03  0.92779648136E+03  0.00000000000E+00 0. -1.
         -2   -1    0    0    0  501 -0.00000000000E+00 -0.00000000000E+00 -0.51634204391E+02  0.51634204391E+02  0.00000000000E+00 0.  1.
         25    2    1    2    0    0 -0.29888413518E+02  0.13476194541E+02  0.38981335225E+03  0.41067659364E+03  0.12500355949E+03 0.  0.
          4    1    3    3  502    0 -0.73095184215E+02  0.28779592313E+02  0.29610048312E+03  0.30634666620E+03  0.12700000000E+01 0.  1.
         -4    1    3    3    0  502  0.43206770697E+02 -0.15303397772E+02  0.93712869136E+02  0.10432992744E+03  0.12700000000E+01 0.  1.
          1    1    1    2  503    0 -0.16066821055E+02  0.40586236605E+02  0.49531502910E+03  0.49723471660E+03  0.00000000000E+00 0. -1.
         -1    1    1    2    0  501  0.45955234573E+02 -0.54062431146E+02 -0.89661043841E+01  0.71519375514E+02  0.00000000000E+00 0.  1.
<mgrwt>
<rscale>  0 0.54468492E+02</rscale>
<asrwt>0</asrwt>
<pdfrwt beam="1">  1        2 0.14273791E+00 0.43650720E+02</pdfrwt>
<pdfrwt beam="2">  1       -2 0.79437244E-02 0.67967188E+02</pdfrwt>
<totfact> 0.27451019E+03</totfact>
</mgrwt>
</event>
<event>
 7    1  0.7037933E-004  0.7923458E+02  0.7546771E-02  0.1398397E+00
          3   -1    0    0  502    0 -0.00000000000E+00  0.00000000000E+00  0.69170005291E+02  0.69170005291E+02  0.00000000000E+00 0. -1.
          2   -1    0    0  503    0  0.00000000000E+00 -0.00000000000E+00 -0.82030012930E+03  0.82030012930E+03  0.00000000000E+00 0. -1.
         25    2    1    2    0    0  0.38495589713E+02 -0.38140046408E+02 -0.14345546622E+03  0.19781441684E+03  0.12495798956E+03 0.  0.
          4    1    3    3  501    0  0.76206060881E+02 -0.51148255623E+02 -0.12146455684E+03  0.15224571993E+03  0.12700000000E+01 0. -1.
         -4    1    3    3    0  501 -0.37710471169E+02  0.13008209215E+02 -0.21990909374E+02  0.45568696907E+02  0.12700000000E+01 0. -1.
          2    1    1    2  502    0 -0.28968927562E+02  0.82356615592E+02 -0.51703018241E+01  0.87455948436E+02  0.00000000000E+00 0. -1.
          1    1    1    2  503    0 -0.95266621507E+01 -0.44216569184E+02 -0.60250435597E+03  0.60419976932E+03  0.00000000000E+00 0. -1.
<mgrwt>
<rscale>  0 0.59865482E+02</rscale>
<asrwt>0</asrwt>
<pdfrwt beam="2">  1        2 0.12620001E+00 0.45231209E+02</pdfrwt>
<pdfrwt beam="1">  1        3 0.10641540E-01 0.79234581E+02</pdfrwt>
<totfact> 0.13671410E+03</totfact>
</mgrwt>
</event>
<event>
 7    1  0.7037933E-004  0.1422948E+03  0.7546771E-02  0.1368977E+00
          1   -1    0    0  502    0 -0.00000000000E+00  0.00000000000E+00  0.13805312184E+04  0.13805312184E+04  0.00000000000E+00 0. -1.
          2   -1    0    0  503    0  0.00000000000E+00 -0.00000000000E+00 -0.42783886542E+03  0.42783886542E+03  0.00000000000E+00 0. -1.
         25    2    1    2    0    0  0.11592293915E+03 -0.62805710479E+02  0.97936008568E+03  0.99607006883E+03  0.12500687788E+03 0.  0.
          4    1    3    3  501    0  0.95784646402E+01 -0.67684713906E+02  0.25842688010E+03  0.26731822373E+03  0.12700000000E+01 0.  1.
         -4    1    3    3    0  501  0.10634447451E+03  0.48790034271E+01  0.72093320558E+03  0.72875184510E+03  0.12700000000E+01 0.  1.
          2    1    1    2  502    0 -0.14546469496E+03  0.75039051172E+02  0.37510287200E+03  0.40925908818E+03  0.00000000000E+00 0. -1.
          1    1    1    2  503    0  0.29541755808E+02 -0.12233340692E+02 -0.40177060464E+03  0.40304092685E+03  0.00000000000E+00 0. -1.
<mgrwt>
<rscale>  0 0.67452271E+02</rscale>
<asrwt>0</asrwt>
<pdfrwt beam="2">  1        2 0.65821365E-01 0.31974520E+02</pdfrwt>
<pdfrwt beam="1">  1        1 0.21238942E+00 0.14229483E+03</pdfrwt>
<totfact> 0.93565459E+01</totfact>
</mgrwt>
</event>
<event>
 7    1  0.7037933E-004  0.9476939E+02  0.7546771E-02  0.1360884E+00
          1   -1    0    0  502    0 -0.00000000000E+00  0.00000000000E+00  0.25774242617E+04  0.25774242617E+04  0.00000000000E+00 0. -1.
          2   -1    0    0  503    0  0.00000000000E+00 -0.00000000000E+00 -0.28778188269E+03  0.28778188269E+03  0.00000000000E+00 0. -1.
         25    2    1    2    0    0 -0.21665748600E+02 -0.11511608409E+03  0.13699095733E+04  0.13805793988E+04  0.12500447967E+03 0.  0.
          4    1    3    3  501    0 -0.35861679435E+01 -0.85758048895E+02  0.12978517858E+04  0.13006875776E+04  0.12700000000E+01 0. -1.
         -4    1    3    3    0  501 -0.18079580657E+02 -0.29358035192E+02  0.72057787430E+02  0.79891821211E+02  0.12700000000E+01 0. -1.
          2    1    1    2  502    0  0.51919440099E+02  0.73609515171E+02  0.11981400384E+04  0.12015213442E+04  0.00000000000E+00 0. -1.
          1    1    1    2  503    0 -0.30253691499E+02  0.41506568916E+02 -0.27840723265E+03  0.28310540140E+03  0.00000000000E+00 0. -1.
<mgrwt>
<rscale>  0 0.69767970E+02</rscale>
<asrwt>0</asrwt>
<pdfrwt beam="2">  1        2 0.44274137E-01 0.51362254E+02</pdfrwt>
<pdfrwt beam="1">  1        1 0.39652679E+00 0.94769394E+02</pdfrwt>
<totfact> 0.25291133E+01</totfact>
</mgrwt>
</event>
<event>
 7    1  0.7037933E-004  0.2077927E+03  0.7546771E-02  0.1332874E+00
          2   -1    0    0  503    0  0.00000000000E+00  0.00000000000E+00  0.14027626970E+03  0.14027626970E+03  0.00000000000E+00 0. -1.
          1   -1    0    0  502    0 -0.00000000000E+00 -0.00000000000E+00 -0.26563622171E+04  0.26563622171E+04  0.00000000000E+00 0. -1.
         25    2    1    2    0    0  0.25997939439E+01 -0.21185791147E+03 -0.19005614542E+02  0.24673298368E+03  0.12500167306E+03 0.  0.
          4    1    3    3  501    0  0.43912732225E+02 -0.62299065520E+02 -0.46293945150E+02  0.89186567788E+02  0.12700000000E+01 0.  1.
         -4    1    3    3    0  501 -0.41312938281E+02 -0.14955884595E+03  0.27288330608E+02  0.15754641589E+03  0.12700000000E+01 0.  1.
          2    1    1    2  502    0  0.24998872561E+02  0.16188834711E+02 -0.21523453617E+04  0.21525514112E+04  0.00000000000E+00 0. -1.
          3    1    1    2  503    0 -0.27598666505E+02  0.19566907676E+03 -0.34473497118E+03  0.39735409190E+03  0.00000000000E+00 0. -1.
<mgrwt>
<rscale>  0 0.78668116E+02</rscale>
<asrwt>0</asrwt>
<pdfrwt beam="1">  1        2 0.21580965E-01 0.20779271E+03</pdfrwt>
<pdfrwt beam="2">  1        1 0.40867110E+00 0.29782915E+02</pdfrwt>
<totfact> 0.60919074E+01</totfact>
</mgrwt>
</event>
<event>
 7    1  0.7037933E-004  0.9048203E+02  0.7546771E-02  0.1411862E+00
          1   -1    0    0  502    0 -0.00000000000E+00  0.00000000000E+00  0.19646893758E+04  0.19646893758E+04  0.00000000000E+00 0. -1.
          2   -1    0    0  503    0  0.00000000000E+00 -0.00000000000E+00 -0.23355617265E+04  0.23355617265E+04  0.00000000000E+00 0. -1.
         25    2    1    2    0    0  0.11491891359E+03 -0.35648418260E+02  0.17589175631E+03  0.24706435660E+03  0.12500287972E+03 0.  0.
          4    1    3    3  501    0  0.52878460247E+02  0.18360977104E+02  0.15110653304E+03  0.16114606500E+03  0.12700000000E+01 0. -1.
         -4    1    3    3    0  501  0.62040453346E+02 -0.54009395364E+02  0.24785223270E+02  0.85918291600E+02  0.12700000000E+01 0. -1.
          2    1    1    2  502    0 -0.79681025062E+02  0.40929427981E+02  0.17519289327E+04  0.17542175661E+04  0.00000000000E+00 0. -1.
          1    1    1    2  503    0 -0.35237888531E+02 -0.52810097214E+01 -0.22986930397E+04  0.22989691796E+04  0.00000000000E+00 0. -1.
<mgrwt>
<rscale>  0 0.56780304E+02</rscale>
<asrwt>0</asrwt>
<pdfrwt beam="2">  1        2 0.35931719E+00 0.35631417E+02</pdfrwt>
<pdfrwt beam="1">  1        1 0.30225990E+00 0.90482030E+02</pdfrwt>
<totfact> 0.35570280E+00</totfact>
</mgrwt>
</event>
<event>
 7    1  0.7037933E-004  0.1178635E+03  0.7546771E-02  0.1278798E+00
          1   -1    0    0  503    0  0.00000000000E+00  0.00000000000E+00  0.70184005252E+03  0.70184005252E+03  0.00000000000E+00 0. -1.
         -1   -1    0    0    0  501 -0.00000000000E+00 -0.00000000000E+00 -0.12767160190E+03  0.12767160190E+03  0.00000000000E+00 0.  1.
         25    2    1    2    0    0  0.31262054059E+02 -0.18658976841E+03  0.16221839133E+03  0.27880829746E+03  0.12500481010E+03 0.  0.
          4    1    3    3  502    0 -0.50446751619E+01 -0.17716828588E+03  0.16366361443E+03  0.24124974997E+03  0.12700000000E+01 0.  1.
         -4    1    3    3    0  502  0.36306729221E+02 -0.94214825212E+01 -0.14452231034E+01  0.37558547488E+02  0.12700000000E+01 0.  1.
          2    1    1    2  503    0 -0.43150705752E+02  0.10135171529E+03  0.44506111911E+03  0.45849051609E+03  0.00000000000E+00 0. -1.
         -2    1    1    2    0  501  0.11888651693E+02  0.85238053115E+02 -0.33111059826E+02  0.92212840867E+02  0.00000000000E+00 0.  1.
<mgrwt>
<rscale>  0 0.10071596E+03</rscale>
<asrwt>0</asrwt>
<pdfrwt beam="1">  1        1 0.10797539E+00 0.11786352E+03</pdfrwt>
<pdfrwt beam="2">  1       -1 0.19641785E-01 0.86063150E+02</pdfrwt>
<totfact> 0.58454357E+02</totfact>
</mgrwt>
</event>
<event>
 7    1  0.7037933E-004  0.5027528E+02  0.7546771E-02  0.1476369E+00
          1   -1    0    0  502    0 -0.00000000000E+00  0.00000000000E+00  0.15142670557E+03  0.15142670557E+03  0.00000000000E+00 0. -1.
          2   -1    0    0  503    0  0.00000000000E+00 -0.00000000000E+00 -0.28685727389E+03  0.28685727389E+03  0.00000000000E+00 0. -1.
         25    2    1    2    0    0 -0.32843653653E+02 -0.70595970784E+02 -0.16842882982E+03  0.22373357929E+03  0.12500378839E+03 0.  0.
          4    1    3    3  501    0  0.22251100832E+02 -0.61800106634E+02 -0.25808960050E+02  0.70583850752E+02  0.12700000000E+01 0. -1.
         -4    1    3    3    0  501 -0.55094754485E+02 -0.87958641503E+01 -0.14261986977E+03  0.15314972854E+03  0.12700000000E+01 0. -1.
          2    1    1    2  502    0  0.38648291561E+02  0.31320601084E+02  0.11397850048E+03  0.12436144525E+03  0.00000000000E+00 0. -1.
          1    1    1    2  503    0 -0.58046379075E+01  0.39275369700E+02 -0.80980238972E+02  0.90188954924E+02  0.00000000000E+00 0. -1.
<mgrwt>
<rscale>  0 0.44676942E+02</rscale>
<asrwt>0</asrwt>
<pdfrwt beam="2">  1        2 0.44131888E-01 0.39701996E+02</pdfrwt>
<pdfrwt beam="1">  1        1 0.23296416E-01 0.50275285E+02</pdfrwt>
<totfact> 0.30513548E+03</totfact>
</mgrwt>
</event>
<event>
 7    1  0.7037933E-004  0.1057781E+03  0.7546771E-02  0.1373587E+00
          1   -1    0    0  502    0 -0.00000000000E+00  0.00000000000E+00  0.12542359450E+04  0.12542359450E+04  0.00000000000E+00 0. -1.
          2   -1    0    0  503    0  0.00000000000E+00 -0.00000000000E+00 -0.13420384048E+04  0.13420384048E+04  0.00000000000E+00 0. -1.
         25    2    1    2    0    0  0.65378931188E+02 -0.54035753454E+01 -0.23786541745E+02  0.14316162343E+03  0.12500339029E+03 0.  0.
          4    1    3    3  501    0 -0.15485013267E+02 -0.46944419517E+02 -0.15712200211E+02  0.51884971766E+02  0.12700000000E+01 0.  1.
         -4    1    3    3    0  501  0.80863944455E+02  0.41540844172E+02 -0.80743415333E+01  0.91276651662E+02  0.12700000000E+01 0.  1.
          2    1    1    2  502    0 -0.10678406528E+03  0.56035401070E+01  0.11918135158E+04  0.11966008911E+04  0.00000000000E+00 0. -1.
          1    1    1    2  503    0  0.41405134092E+02 -0.19996476158E+00 -0.12558294338E+04  0.12565118352E+04  0.00000000000E+00 0. -1.
<mgrwt>
<rscale>  0 0.66180104E+02</rscale>
<asrwt>0</asrwt>
<pdfrwt beam="2">  1        2 0.20646745E+00 0.41405617E+02</pdfrwt>
<pdfrwt beam="1">  1        1 0.19295938E+00 0.10577807E+03</pdfrwt>
<totfact> 0.29641766E+01</totfact>
</mgrwt>
</event>
<event>
 7    1  0.7037933E-004  0.1026680E+03  0.7546771E-02  0.1393329E+00
          2   -1    0    0  503    0  0.00000000000E+00  0.00000000000E+00  0.12126272404E+04  0.12126272404E+04  0.00000000000E+00 0. -1.
          1   -1    0    0  502    0 -0.00000000000E+00 -0.00000000000E+00 -0.12232287160E+04  0.12232287160E+04  0.00000000000E+00 0. -1.
         25    2    1    2    0    0 -0.24365380187E+02  0.97154054853E+02 -0.22065384331E+03  0.27266597684E+03  0.12500413685E+03 0.  0.
          4    1    3    3  501    0 -0.18499607189E+02  0.83030993312E+02 -0.23605901389E+03  0.25092200432E+03  0.12700000000E+01 0.  1.
         -4    1    3    3    0  501 -0.58657729982E+01  0.14123061541E+02  0.15405170576E+02  0.21743972512E+02  0.12700000000E+01 0.  1.
          2    1    1    2  502    0  0.58716818950E+02 -0.85280840027E+02 -0.97354463949E+03  0.97903506147E+03  0.00000000000E+00 0. -1.
          1    1    1    2  503    0 -0.34351438763E+02 -0.11873214826E+02  0.11835970072E+04  0.11841549181E+04  0.00000000000E+00 0. -1.
<mgrwt>
<rscale>  0 0.61086156E+02</rscale>
<asrwt>0</asrwt>
<pdfrwt beam="1">  1        2 0.18655804E+00 0.36345489E+02</pdfrwt>
<pdfrwt beam="2">  1        1 0.18818903E+00 0.10266800E+03</pdfrwt>
<totfact> 0.36613573E+01</totfact>
</mgrwt>
</event>
<event>
 7    1  0.7037933E-004  0.5144204E+02  0.7546771E-02  0.1474595E+00
          1   -1    0    0  503    0  0.00000000000E+00  0.00000000000E+00  0.25858050028E+04  0.25858050028E+04  0.00000000000E+00 0. -1.
         -1   -1    0    0    0  501 -0.00000000000E+00 -0.00000000000E+00 -0.99374012249E+02  0.99374012249E+02  0.00000000000E+00 0.  1.
         25    2    1    2    0    0  0.12560375611E+02 -0.79464805155E+02  0.11571372625E+03  0.18838355257E+03  0.12500511246E+03 0.  0.
          4    1    3    3  502    0 -0.30021353256E+02 -0.97593607086E+02  0.74545275384E+02  0.12642944585E+03  0.12700000000E+01 0.  1.
         -4    1    3    3    0  502  0.42581728868E+02  0.18128801931E+02  0.41168450862E+02  0.61954106718E+02  0.12700000000E+01 0.  1.
          2    1    1    2  503    0 -0.27648077233E+02  0.43183057563E+02  0.24273359908E+04  0.24278775103E+04  0.00000000000E+00 0. -1.
         -2    1    1    2    0  501  0.15087701622E+02  0.36281747591E+02 -0.56618726490E+02  0.68917952218E+02  0.00000000000E+00 0.  1.
<mgrwt>
<rscale>  0 0.44959472E+02</rscale>
<asrwt>0</asrwt>
<pdfrwt beam="1">  1        1 0.39781610E+00 0.51442042E+02</pdfrwt>
<pdfrwt beam="2">  1       -1 0.15288312E-01 0.39293816E+02</pdfrwt>
<totfact> 0.50916245E+01</totfact>
</mgrwt>
</event>
<event>
 7    1  0.7037933E-004  0.1553512E+03  0.7546771E-02  0.1325708E+00
          1   -1    0    0  502    0 -0.00000000000E+00  0.00000000000E+00  0.23147008642E+04  0.23147008642E+04  0.00000000000E+00 0. -1.
          2   -1    0    0  503    0  0.00000000000E+00 -0.00000000000E+00 -0.10016823219E+04  0.10016823219E+04  0.00000000000E+00 0. -1.
         25    2    1    2    0    0  0.12710039742E+03 -0.10276267202E+03 -0.47741360390E+03  0.51986860945E+03  0.12499977647E+03 0.  0.
          4    1    3    3  501    0  0.79647255889E+02 -0.26219036444E+02 -0.37144568486E+03  0.38079473860E+03  0.12700000000E+01 0.  1.
         -4    1    3    3    0  501  0.47453141527E+02 -0.76543635575E+02 -0.10596791904E+03  0.13907387085E+03  0.12700000000E+01 0.  1.
          2    1    1    2  502    0 -0.91358942217E+02  0.12563187407E+03  0.22899425700E+04  0.22952051756E+04  0.00000000000E+00 0. -1.
          1    1    1    2  503    0 -0.35741455199E+02 -0.22869202049E+02 -0.49951042384E+03  0.50130940102E+03  0.00000000000E+00 0. -1.
<mgrwt>
<rscale>  0 0.81190025E+02</rscale>
<asrwt>0</asrwt>
<pdfrwt beam="2">  1        2 0.15410497E+00 0.42431734E+02</pdfrwt>
<pdfrwt beam="1">  1        1 0.35610783E+00 0.15535119E+03</pdfrwt>
<totfact> 0.89518415E+00</totfact>
</mgrwt>
</event>
<event>
 7    1  0.7037933E-004  0.7185208E+02  0.7546771E-02  0.1363906E+00
          1   -1    0    0  502    0 -0.00000000000E+00  0.00000000000E+00  0.51065627117E+03  0.51065627117E+03  0.00000000000E+00 0. -1.
          2   -1    0    0  503    0  0.00000000000E+00 -0.00000000000E+00 -0.14951947335E+04  0.14951947335E+04  0.00000000000E+00 0. -1.
         25    2    1    2    0    0  0.64783284785E+02  0.11993340323E+03 -0.41361068914E+02  0.18951188024E+03  0.12499247791E+03 0.  0.
          4    1    3    3  501    0  0.51992796361E+02  0.12531649025E+03 -0.73623853202E+02  0.15436825536E+03  0.12700000000E+01 0. -1.
         -4    1    3    3    0  501  0.12790488424E+02 -0.53830870227E+01  0.32262784287E+02  0.35143624884E+02  0.12700000000E+01 0. -1.
          2    1    1    2  502    0 -0.34139782608E+02 -0.61420018431E+02  0.43295596884E+03  0.43862149329E+03  0.00000000000E+00 0. -1.
          1    1    1    2  503    0 -0.30643502178E+02 -0.58513384799E+02 -0.13761333622E+04  0.13777176311E+04  0.00000000000E+00 0. -1.
<mgrwt>
<rscale>  0 0.68890924E+02</rscale>
<asrwt>0</asrwt>
<pdfrwt beam="2">  1        2 0.23002995E+00 0.66051801E+02</pdfrwt>
<pdfrwt beam="1">  1        1 0.78562505E-01 0.71852083E+02</pdfrwt>
<totfact> 0.95598887E+01</totfact>
</mgrwt>
</event>
<event>
 7    1  0.7037933E-004  0.8527019E+02  0.7546771E-02  0.1356559E+00
         -2   -1    0    0    0  501 -0.00000000000E+00  0.00000000000E+00  0.29205641607E+02  0.29205641607E+02  0.00000000000E+00 0.  1.
          2   -1    0    0  503    0  0.00000000000E+00 -0.00000000000E+00 -0.31351456243E+04  0.31351456243E+04  0.00000000000E+00 0. -1.
         25    2    1    2    0    0  0.24325255469E+02 -0.36452946864E+02 -0.91974627420E+03  0.92923534161E+03  0.12499830319E+03 0.  0.
          4    1    3    3  502    0 -0.26128350099E+02 -0.65437118039E+02 -0.39145095200E+03  0.39774384699E+03  0.12700000000E+01 0.  1.
         -4    1    3    3    0  502  0.50453605568E+02  0.28984171175E+02 -0.52829532220E+03  0.53149149462E+03  0.12700000000E+01 0.  1.
          1    1    1    2  503    0 -0.25906583083E+02 -0.53231711580E+02 -0.21266034307E+04  0.21274273002E+04  0.00000000000E+00 0. -1.
         -1    1    1    2    0  501  0.15813276140E+01  0.89684658444E+02 -0.59590277835E+02  0.10768862414E+03  0.00000000000E+00 0.  1.
<mgrwt>
<rscale>  0 0.71049883E+02</rscale>
<asrwt>0</asrwt>
<pdfrwt beam="2">  1        2 0.48233014E+00 0.59201066E+02</pdfrwt>
<pdfrwt beam="1">  1       -2 0.44931753E-02 0.85270185E+02</pdfrwt>
<totfact> 0.46105338E+02</totfact>
</mgrwt>
</event>
<event>
 7    1  0.7037933E-004  0.1024859E+03  0.7546771E-02  0.1335084E+00
         -2   -1    0    0    0  501 -0.00000000000E+00  0.00000000000E+00  0.15874161208E+03  0.15874161208E+03  0.00000000000E+00 0.  1.
          2   -1    0    0  503    0  0.00000000000E+00 -0.00000000000E+00 -0.53753744860E+03  0.53753744860E+03  0.00000000000E+00 0. -1.
         25    2    1    2    0    0  0.80078838612E+02  0.34753680082E+02 -0.23406972719E+03  0.27934659125E+03  0.12500176872E+03 0.  0.
          4    1    3    3  502    0 -0.19663539899E+02  0.36257327088E+02 -0.12451829006E+03  0.13117799369E+03  0.12700000000E+01 0.  1.
         -4    1    3    3    0  502  0.99742378511E+02 -0.15036470062E+01 -0.10955143713E+03  0.14816859756E+03  0.12700000000E+01 0.  1.
          1    1    1    2  503    0  0.22891806866E+02 -0.54627828189E+02 -0.25674282267E+03  0.26348645397E+03  0.00000000000E+00 0. -1.
         -1    1    1    2    0  501 -0.10297064548E+03  0.19874148106E+02  0.11201671334E+03  0.15344601546E+03  0.00000000000E+00 0.  1.
<mgrwt>
<rscale>  0 0.77911957E+02</rscale>
<asrwt>0</asrwt>
<pdfrwt beam="2">  1        2 0.82698068E-01 0.59230351E+02</pdfrwt>
<pdfrwt beam="1">  1       -2 0.24421787E-01 0.10248585E+03</pdfrwt>
<totfact> 0.85453978E+02</totfact>
</mgrwt>
</event>
<event>
 7    1  0.7037933E-004  0.2690286E+03  0.7546771E-02  0.1328749E+00
          1   -1    0    0  502    0 -0.00000000000E+00  0.00000000000E+00  0.13197320459E+04  0.13197320459E+04  0.00000000000E+00 0. -1.
          2   -1    0    0  503    0  0.00000000000E+00 -0.00000000000E+00 -0.11907832920E+04  0.11907832920E+04  0.00000000000E+00 0. -1.
         25    2    1    2    0    0  0.27641938637E+03 -0.51199842362E+02  0.12080319918E+04  0.12465929581E+04  0.12499443647E+03 0.  0.
          4    1    3    3  501    0  0.16075599667E+02  0.30681586165E+02  0.12759414801E+03  0.13221824436E+03  0.12700000000E+01 0. -1.
         -4    1    3    3    0  501  0.26034378670E+03 -0.81881428527E+02  0.10804378437E+04  0.11143747138E+04  0.12700000000E+01 0. -1.
          2    1    1    2  502    0 -0.91191260950E+01  0.22040828597E+02  0.75118292865E+02  0.78814430842E+02  0.00000000000E+00 0. -1.
          1    1    1    2  503    0 -0.26730026027E+03  0.29159013766E+02 -0.11542015307E+04  0.11851079489E+04  0.00000000000E+00 0. -1.
<mgrwt>
<rscale>  0 0.80106725E+02</rscale>
<asrwt>0</asrwt>
<pdfrwt beam="2">  1        2 0.18319743E+00 0.26902856E+03</pdfrwt>
<pdfrwt beam="1">  1        1 0.20303570E+00 0.23852811E+02</pdfrwt>
<totfact> 0.32677682E+01</totfact>
</mgrwt>
</event>
<event>
 7    1  0.7037933E-004  0.6308753E+02  0.7546771E-02  0.1396737E+00
         -2   -1    0    0    0  501 -0.00000000000E+00  0.00000000000E+00  0.36342506570E+03  0.36342506570E+03  0.00000000000E+00 0.  1.
          2   -1    0    0  503    0  0.00000000000E+00 -0.00000000000E+00 -0.22619271987E+03  0.22619271987E+03  0.00000000000E+00 0. -1.
         25    2    1    2    0    0 -0.31169430514E+01 -0.55552191112E+02 -0.37595255889E+02  0.14188897910E+03  0.12499327123E+03 0.  0.
          4    1    3    3  502    0  0.34276892506E+02  0.25217841484E+02 -0.30934113186E+02  0.52624871948E+02  0.12700000000E+01 0.  1.
         -4    1    3    3    0  502 -0.37393835557E+02 -0.80770032596E+02 -0.66611427025E+01  0.89264107150E+02  0.12700000000E+01 0.  1.
          1    1    1    2  503    0  0.54869661394E+02  0.17399715827E+02 -0.12683738523E+03  0.13928801867E+03  0.00000000000E+00 0. -1.
         -1    1    1    2    0  501 -0.51752718342E+02  0.38152475286E+02  0.30166498695E+03  0.30844078780E+03  0.00000000000E+00 0.  1.
<mgrwt>
<rscale>  0 0.60261674E+02</rscale>
<asrwt>0</asrwt>
<pdfrwt beam="2">  1        2 0.34798880E-01 0.57562400E+02</pdfrwt>
<pdfrwt beam="1">  1       -2 0.55911549E-01 0.63087526E+02</pdfrwt>
<totfact> 0.44997559E+02</totfact>
</mgrwt>
</event>
<event>
 7    1  0.7037933E-004  0.1081191E+03  0.7546771E-02  0.1439428E+00
          1   -1    0    0  502    0 -0.00000000000E+00  0.00000000000E+00  0.88776052848E+03  0.88776052848E+03  0.00000000000E+00 0. -1.
          2   -1    0    0  503    0  0.00000000000E+00 -0.00000000000E+00 -0.14817986015E+03  0.14817986015E+03  0.00000000000E+00 0. -1.
         25    2    1    2    0    0  0.90880866247E+02  0.60285953475E+01 -0.44052779276E+02  0.16081382620E+03  0.12499905409E+03 0.  0.
          4    1    3    3  501    0  0.96889044202E+02 -0.20801074142E+02  0.10551544512E+02  0.99665036815E+02  0.12700000000E+01 0. -1.
         -4    1    3    3    0  501 -0.60081779549E+01  0.26829669489E+02 -0.54604323788E+02  0.61148789388E+02  0.12700000000E+01 0. -1.
          2    1    1    2  502    0 -0.10584426772E+03 -0.25001831027E+02  0.82233790324E+03  0.82949847961E+03  0.00000000000E+00 0. -1.
          1    1    1    2  503    0  0.14963401474E+02  0.18973235680E+02 -0.38704455632E+02  0.45628082818E+02  0.00000000000E+00 0. -1.
<mgrwt>
<rscale>  0 0.51113253E+02</rscale>
<asrwt>0</asrwt>
<pdfrwt beam="2">  1        2 0.22796902E-01 0.24163755E+02</pdfrwt>
<pdfrwt beam="1">  1        1 0.13657854E+00 0.10811915E+03</pdfrwt>
<totfact> 0.61205147E+02</totfact>
</mgrwt>
</event>
<event>
 7    1  0.7037933E-004  0.9927644E+02  0.7546771E-02  0.1416099E+00
          2   -1    0    0  503    0  0.00000000000E+00  0.00000000000E+00  0.30539887672E+03  0.30539887672E+03  0.00000000000E+00 0. -1.
          1   -1    0    0  502    0 -0.00000000000E+00 -0.00000000000E+00 -0.79803603285E+03  0.79803603285E+03  0.00000000000E+00 0. -1.
         25    2    1    2    0    0  0.62636045620E+02 -0.28155893524E+02  0.82369291314E+02  0.16470549613E+03  0.12500868671E+03 0.  0.
          4    1    3    3  501    0  0.42634232012E+02  0.47703497520E+02  0.32945169186E+02  0.71974290462E+02  0.12700000000E+01 0.  1.
         -4    1    3    3    0  501  0.20001813608E+02 -0.75859391044E+02  0.49424122128E+02  0.92731205672E+02  0.12700000000E+01 0.  1.
          2    1    1    2  502    0 -0.91211531950E+02  0.41231370259E+02 -0.75216958799E+03  0.75880080294E+03  0.00000000000E+00 0. -1.
          1    1    1    2  503    0  0.28575486330E+02 -0.13075476734E+02  0.17716314054E+03  0.17992861050E+03  0.00000000000E+00 0. -1.
<mgrwt>
<rscale>  0 0.55854773E+02</rscale>
<asrwt>0</asrwt>
<pdfrwt beam="1">  1        2 0.46984443E-01 0.31424935E+02</pdfrwt>
<pdfrwt beam="2">  1        1 0.12277477E+00 0.99276442E+02</pdfrwt>
<totfact> 0.34999600E+02</totfact>
</mgrwt>
</event>
<event>
 7    1  0.7037933E-004  0.7970777E+02  0.7546771E-02  0.1401211E+00
          1   -1    0    0  502    0 -0.00000000000E+00  0.00000000000E+00  0.19248893199E+04  0.19248893199E+04  0.00000000000E+00 0. -1.
          2   -1    0    0  503    0  0.00000000000E+00 -0.00000000000E+00 -0.24451762050E+03  0.24451762050E+03  0.00000000000E+00 0. -1.
         25    2    1    2    0    0 -0.81596793963E+02  0.27216596022E+02  0.10669131637E+04  0.10776488728E+04  0.12499845714E+03 0.  0.
          4    1    3    3  501    0 -0.54411837230E+02 -0.46400082097E+02  0.42825077066E+03  0.43418193321E+03  0.12700000000E+01 0. -1.
         -4    1    3    3    0  501 -0.27184956733E+02  0.73616678119E+02  0.63866239308E+03  0.64346693964E+03  0.12700000000E+01 0. -1.
          2    1    1    2  502    0  0.78809780670E+02  0.16666678621E+02  0.84866364242E+03  0.85247799835E+03  0.00000000000E+00 0. -1.
          1    1    1    2  503    0  0.27870132930E+01 -0.43883274644E+02 -0.23520510680E+03  0.23928006917E+03  0.00000000000E+00 0. -1.
<mgrwt>
<rscale>  0 0.59202068E+02</rscale>
<asrwt>0</asrwt>
<pdfrwt beam="2">  1        2 0.37618097E-01 0.43971687E+02</pdfrwt>
<pdfrwt beam="1">  1        1 0.29613681E+00 0.79707765E+02</pdfrwt>
<totfact> 0.79014945E+01</totfact>
</mgrwt>
</event>
<event>
 7    1  0.7037933E-004  0.5049219E+02  0.7546771E-02  0.1452244E+00
          3   -1    0    0  502    0 -0.00000000000E+00  0.00000000000E+00  0.74130778222E+01  0.74130778222E+01  0.00000000000E+00 0. -1.
          2   -1    0    0  503    0  0.00000000000E+00 -0.00000000000E+00 -0.40382480465E+04  0.40382480465E+04  0.00000000000E+00 0. -1.
         25    2    1    2    0    0 -0.86570516006E+01  0.45411170608E+02 -0.27340038443E+04  0.27372497403E+04  0.12498800466E+03 0.  0.
          4    1    3    3  501    0  0.23113597328E+02 -0.32653546475E+02 -0.47842197509E+03  0.48009341969E+03  0.12700000000E+01 0.  1.
         -4    1    3    3    0  501 -0.31770648929E+02  0.78064717083E+02 -0.22555818692E+04  0.22571563206E+04  0.12700000000E+01 0.  1.
          2    1    1    2  502    0  0.47031750640E+02 -0.14302325448E+01 -0.10395599179E+03  0.11410906784E+03  0.00000000000E+00 0. -1.
          1    1    1    2  503    0 -0.38374699039E+02 -0.43980938063E+02 -0.11928751326E+04  0.11943023162E+04  0.00000000000E+00 0. -1.
<mgrwt>
<rscale>  0 0.48742526E+02</rscale>
<asrwt>0</asrwt>
<pdfrwt beam="2">  1        2 0.62126977E+00 0.50492190E+02</pdfrwt>
<pdfrwt beam="1">  1        3 0.11404720E-02 0.47053492E+02</pdfrwt>
<totfact> 0.62515353E+02</totfact>
</mgrwt>
</event>
<event>
 7    1  0.7037933E-004  0.1020599E+03  0.7546771E-02  0.1448333E+00
          2   -1    0    0  503    0  0.00000000000E+00  0.00000000000E+00  0.23017690747E+04  0.23017690747E+04  0.00000000000E+00 0. -1.
         -2   -1    0    0    0  501 -0.00000000000E+00 -0.00000000000E+00 -0.48943375166E+02  0.48943375166E+02  0.00000000000E+00 0.  1.
         25    2    1    2    0    0  0.36644529235E+02 -0.98536518176E+02  0.20663952467E+03  0.26339558849E+03  0.12500030376E+03 0.  0.
          4    1    3    3  502    0 -0.25794312305E+02 -0.79114396399E+02  0.16786715607E+03  0.18736442899E+03  0.12700000000E+01 0. -1.
         -4    1    3    3    0  502  0.62438841540E+02 -0.19422121777E+02  0.38772368600E+02  0.76031159494E+02  0.12700000000E+01 0. -1.
          1    1    1    2  503    0 -0.56426908342E+02  0.85019888371E+02  0.20580521811E+04  0.20605802964E+04  0.00000000000E+00 0. -1.
         -1    1    1    2    0  501  0.19782379108E+02  0.13516629805E+02 -0.11866006279E+02  0.26736565028E+02  0.00000000000E+00 0.  1.
<mgrwt>
<rscale>  0 0.49449683E+02</rscale>
<asrwt>0</asrwt>
<pdfrwt beam="1">  1        2 0.35411824E+00 0.10205993E+03</pdfrwt>
<pdfrwt beam="2">  1       -2 0.75297518E-02 0.23959170E+02</pdfrwt>
<totfact> 0.48788314E+02</totfact>
</mgrwt>
</event>
<event>
 7    1  0.7037933E-004  0.5231891E+02  0.7546771E-02  0.1552009E+00
          2   -1    0    0  503    0  0.00000000000E+00  0.00000000000E+00  0.12191606565E+04  0.12191606565E+04  0.00000000000E+00 0. -1.
          1   -1    0    0  502    0 -0.00000000000E+00 -0.00000000000E+00 -0.28060018716E+03  0.28060018716E+03  0.00000000000E+00 0. -1.
         25    2    1    2    0    0 -0.53530741558E+02  0.44997646348E+02 -0.22983047721E+02  0.14506446954E+03  0.12500060548E+03 0.  0.
          4    1    3    3  501    0 -0.38262060452E+02 -0.23883741094E+02 -0.51928325761E+02  0.68793766251E+02  0.12700000000E+01 0. -1.
         -4    1    3    3    0  501 -0.15268681106E+02  0.68881387443E+02  0.28945278041E+02  0.76270703285E+02  0.12700000000E+01 0. -1.
          2    1    1    2  502    0  0.67066690625E+01 -0.21903501487E+02 -0.19531831362E+03  0.19665702739E+03  0.00000000000E+00 0. -1.
          1    1    1    2  503    0  0.46824072496E+02 -0.23094144861E+02  0.11568618307E+04  0.11580393468E+04  0.00000000000E+00 0. -1.
<mgrwt>
<rscale>  0 0.34619116E+02</rscale>
<asrwt>0</asrwt>
<pdfrwt beam="1">  1        2 0.18756317E+00 0.52318912E+02</pdfrwt>
<pdfrwt beam="2">  1        1 0.43169260E-01 0.22907265E+02</pdfrwt>
<totfact> 0.27845117E+02</totfact>
</mgrwt>
</event>
<event>
 7    1  0.7037933E-004  0.8356635E+02  0.7546771E-02  0.1326527E+00
         -2   -1    0    0    0  501 -0.00000000000E+00  0.00000000000E+00  0.12531298359E+03  0.12531298359E+03  0.00000000000E+00 0.  1.
          2   -1    0    0  503    0  0.00000000000E+00 -0.00000000000E+00 -0.70361774163E+03  0.70361774163E+03  0.00000000000E+00 0. -1.
         25    2    1    2    0    0  0.26392900282E+01  0.72332356858E+02 -0.37209657642E+02  0.14915479354E+03  0.12499463234E+03 0.  0.
          4    1    3    3  502    0 -0.39011133889E+02 -0.16134021622E+02  0.52226799432E+01  0.42556603562E+02  0.12700000000E+01 0. -1.
         -4    1    3    3    0  502  0.41650423917E+02  0.88466378480E+02 -0.42432337585E+02  0.10659818998E+03  0.12700000000E+01 0. -1.
          1    1    1    2  503    0  0.76431331710E+02 -0.17056139786E+02 -0.57287320562E+03  0.57820097724E+03  0.00000000000E+00 0. -1.
         -1    1    1    2    0  501 -0.79070621738E+02 -0.55276217072E+02  0.31778105221E+02  0.10157495443E+03  0.00000000000E+00 0.  1.
<mgrwt>
<rscale>  0 0.80896167E+02</rscale>
<asrwt>0</asrwt>
<pdfrwt beam="2">  1        2 0.10824888E+00 0.78311304E+02</pdfrwt>
<pdfrwt beam="1">  1       -2 0.19278921E-01 0.83566349E+02</pdfrwt>
<totfact> 0.93281608E+02</totfact>
</mgrwt>
</event>
<event>
 7    1  0.7037933E-004  0.4789374E+02  0.7546771E-02  0.1503483E+00
         -1   -1    0    0    0  501 -0.00000000000E+00  0.00000000000E+00  0.84943626424E+03  0.84943626424E+03  0.00000000000E+00 0.  1.
          1   -1    0    0  503    0  0.00000000000E+00 -0.00000000000E+00 -0.20704542705E+03  0.20704542705E+03  0.00000000000E+00 0. -1.
         25    2    1    2    0    0  0.22001361112E+02  0.17190881450E+02  0.72164866923E+02  0.14701321180E+03  0.12500212050E+03 0.  0.
          4    1    3    3  502    0 -0.16252185612E+02  0.62430369453E+02  0.18644282855E+02  0.67163284244E+02  0.12700000000E+01 0. -1.
         -4    1    3    3    0  502  0.38253546724E+02 -0.45239488003E+02  0.53520584068E+02  0.79849927556E+02  0.12700000000E+01 0. -1.
          2    1    1    2  503    0 -0.70214329678E+01 -0.48270876518E+02 -0.16570182698E+03  0.17273237538E+03  0.00000000000E+00 0. -1.
         -2    1    1    2    0  501 -0.14979928144E+02  0.31079995068E+02  0.73592779725E+03  0.73673610411E+03  0.00000000000E+00 0.  1.
<mgrwt>
<rscale>  0 0.40649887E+02</rscale>
<asrwt>0</asrwt>
<pdfrwt beam="2">  1        1 0.31853143E-01 0.47893737E+02</pdfrwt>
<pdfrwt beam="1">  1       -1 0.13068250E+00 0.34501657E+02</pdfrwt>
<totfact> 0.83423889E+01</totfact>
</mgrwt>
</event>
<event>
 7    1  0.7037933E-004  0.1121989E+03  0.7546771E-02  0.1412739E+00
         -2   -1    0    0    0  501 -0.00000000000E+00  0.00000000000E+00  0.24492036924E+03  0.24492036924E+03  0.00000000000E+00 0.  1.
          2   -1    0    0  503    0  0.00000000000E+00 -0.00000000000E+00 -0.13538476381E+04  0.13538476381E+04  0.00000000000E+00 0. -1.
         25    2    1    2    0    0  0.60339638318E+02 -0.10571023712E+03  0.98622265531E+02  0.20041545826E+03  0.12499791386E+03 0.  0.
          4    1    3    3  502    0  0.36510033434E+02 -0.59950746653E+01  0.90244566288E+02  0.97542903925E+02  0.12700000000E+01 0.  1.
         -4    1    3    3    0  502  0.23829604884E+02 -0.99715162450E+02  0.83776992430E+01  0.10287255434E+03  0.12700000000E+01 0.  1.
          1    1    1    2  503    0  0.11821133289E+02  0.25976282063E+02 -0.12724348310E+04  0.12727548489E+04  0.00000000000E+00 0. -1.
         -1    1    1    2    0  501 -0.72160771608E+02  0.79733955052E+02  0.64885296640E+02  0.12559770009E+03  0.00000000000E+00 0.  1.
<mgrwt>
<rscale>  0 0.56587159E+02</rscale>
<asrwt>0</asrwt>
<pdfrwt beam="2">  1        2 0.20828425E+00 0.28539559E+02</pdfrwt>
<pdfrwt beam="1">  1       -2 0.37680057E-01 0.11219888E+03</pdfrwt>
<totfact> 0.12992268E+02</totfact>
</mgrwt>
</event>
<event>
 7    1  0.7037933E-004  0.6155178E+03  0.7546771E-02  0.9873725E-01
          2   -1    0    0  503    0  0.00000000000E+00  0.00000000000E+00  0.53070299124E+03  0.53070299124E+03  0.00000000000E+00 0. -1.
         -2   -1    0    0    0  501 -0.00000000000E+00 -0.00000000000E+00 -0.17847182778E+03  0.17847182778E+03  0.00000000000E+00 0.  1.
         25    2    1    2    0    0 -0.83317423809E+01  0.19573351094E+03 -0.63676743292E+02  0.24095722589E+03  0.12499852734E+03 0.  0.
          4    1    3    3  502    0 -0.31640795264E+02  0.16276035685E+03 -0.31606549601E+00  0.16581250401E+03  0.12700000000E+01 0.  1.
         -4    1    3    3    0  502  0.23309052883E+02  0.32973154089E+02 -0.63360677796E+02  0.75144721888E+02  0.12700000000E+01 0.  1.
          3    1    1    2  503    0 -0.32339757309E+02 -0.84895077808E+02  0.12727681270E+03  0.15637269963E+03  0.00000000000E+00 0. -1.
         -3    1    1    2    0  501  0.40671499690E+02 -0.11083843313E+03  0.28863109405E+03  0.31184489350E+03  0.00000000000E+00 0.  1.
<mgrwt>
<rscale>  0 0.61551778E+03</rscale>
<asrwt>0</asrwt>
<pdfrwt beam="1">  1        2 0.81646613E-01 0.61551778E+03</pdfrwt>
<pdfrwt beam="2">  1       -2 0.27457205E-01 0.61551778E+03</pdfrwt>
<totfact> 0.69747353E+02</totfact>
</mgrwt>
</event>
<event>
 7    1  0.7037933E-004  0.7212404E+02  0.7546771E-02  0.1368315E+00
         -2   -1    0    0    0  501 -0.00000000000E+00  0.00000000000E+00  0.59083200587E+03  0.59083200587E+03  0.00000000000E+00 0.  1.
          2   -1    0    0  503    0  0.00000000000E+00 -0.00000000000E+00 -0.89978300322E+03  0.89978300322E+03  0.00000000000E+00 0. -1.
         25    2    1    2    0    0 -0.22486379964E+02 -0.21626212180E+02 -0.97462240652E+02  0.16154266826E+03  0.12499525983E+03 0.  0.
          4    1    3    3  502    0  0.10268349177E+00 -0.23706281716E+02  0.26463299890E+02  0.35551617091E+02  0.12700000000E+01 0.  1.
         -4    1    3    3    0  502 -0.22589063456E+02  0.20800695358E+01 -0.12392554054E+03  0.12599105117E+03  0.12700000000E+01 0.  1.
          1    1    1    2  503    0  0.39669997546E+02 -0.49494952845E+02 -0.76656987469E+03  0.76918972422E+03  0.00000000000E+00 0. -1.
         -1    1    1    2    0  501 -0.17183617582E+02  0.71121165025E+02  0.55508111800E+03  0.55988261661E+03  0.00000000000E+00 0.  1.
<mgrwt>
<rscale>  0 0.67637868E+02</rscale>
<asrwt>0</asrwt>
<pdfrwt beam="2">  1        2 0.13842815E+00 0.63430742E+02</pdfrwt>
<pdfrwt beam="1">  1       -2 0.90897232E-01 0.72124036E+02</pdfrwt>
<totfact> 0.36298587E+01</totfact>
</mgrwt>
</event>
<event>
 7    1  0.7037933E-004  0.4939944E+02  0.7546771E-02  0.1450489E+00
          2   -1    0    0  503    0  0.00000000000E+00  0.00000000000E+00  0.51908443627E+03  0.51908443627E+03  0.00000000000E+00 0. -1.
          1   -1    0    0  502    0 -0.00000000000E+00 -0.00000000000E+00 -0.48327131005E+03  0.48327131005E+03  0.00000000000E+00 0. -1.
         25    2    1    2    0    0  0.43635213789E+01  0.94733636003E+02 -0.16282495349E+03  0.22611937268E+03  0.12499801244E+03 0.  0.
          4    1    3    3  501    0  0.16146152868E+02  0.22494520581E+02  0.16618266949E+02  0.32318437539E+02  0.12700000000E+01 0. -1.
         -4    1    3    3    0  501 -0.11782631489E+02  0.72239115422E+02 -0.17944322044E+03  0.19380093515E+03  0.12700000000E+01 0. -1.
          2    1    1    2  502    0  0.98609495353E+01 -0.47710713792E+02 -0.28549248254E+03  0.28961959209E+03  0.00000000000E+00 0. -1.
          1    1    1    2  503    0 -0.14224470914E+02 -0.47022922211E+02  0.48413056225E+03  0.48661678155E+03  0.00000000000E+00 0. -1.
<mgrwt>
<rscale>  0 0.49058088E+02</rscale>
<asrwt>0</asrwt>
<pdfrwt beam="1">  1        2 0.79859144E-01 0.49399437E+02</pdfrwt>
<pdfrwt beam="2">  1        1 0.74349432E-01 0.48719098E+02</pdfrwt>
<totfact> 0.41045075E+02</totfact>
</mgrwt>
</event>
<event>
 7    1  0.7037933E-004  0.1339932E+03  0.7546771E-02  0.1385680E+00
          1   -1    0    0  502    0 -0.00000000000E+00  0.00000000000E+00  0.11412120060E+04  0.11412120060E+04  0.00000000000E+00 0. -1.
          2   -1    0    0  503    0  0.00000000000E+00 -0.00000000000E+00 -0.17993473499E+04  0.17993473499E+04  0.00000000000E+00 0. -1.
         25    2    1    2    0    0 -0.10393850532E+03  0.21458285670E+02 -0.97740167007E+03  0.99106304676E+03  0.12501306771E+03 0.  0.
          4    1    3    3  501    0 -0.12380055319E+02  0.15661706604E+02 -0.16894859946E+02  0.26184041248E+02  0.12700000000E+01 0. -1.
         -4    1    3    3    0  501 -0.91558449998E+02  0.57965790658E+01 -0.96050681012E+03  0.96487900551E+03  0.12700000000E+01 0. -1.
          2    1    1    2  502    0  0.12869551476E+03 -0.37711009445E+02  0.11301465208E+04  0.11380754870E+04  0.00000000000E+00 0. -1.
          1    1    1    2  503    0 -0.24757009440E+02  0.16252723774E+02 -0.81088019459E+03  0.81142082210E+03  0.00000000000E+00 0. -1.
<mgrwt>
<rscale>  0 0.62993949E+02</rscale>
<asrwt>0</asrwt>
<pdfrwt beam="2">  1        2 0.27682267E+00 0.29615208E+02</pdfrwt>
<pdfrwt beam="1">  1        1 0.17557108E+00 0.13399324E+03</pdfrwt>
<totfact> 0.21580187E+01</totfact>
</mgrwt>
</event>
<event>
 7    1  0.7037933E-004  0.9490999E+02  0.7546771E-02  0.1359472E+00
          2   -1    0    0  503    0  0.00000000000E+00  0.00000000000E+00  0.15669304963E+04  0.15669304963E+04  0.00000000000E+00 0. -1.
          1   -1    0    0  502    0 -0.00000000000E+00 -0.00000000000E+00 -0.33450194871E+02  0.33450194871E+02  0.00000000000E+00 0. -1.
         25    2    1    2    0    0  0.68400394790E+02  0.15237536353E+02  0.89355717857E+03  0.90497517851E+03  0.12499938328E+03 0.  0.
          4    1    3    3  501    0  0.37429929109E+02  0.68334807995E+02  0.60074008277E+03  0.60577298184E+03  0.12700000000E+01 0. -1.
         -4    1    3    3    0  501  0.30970465681E+02 -0.53097271643E+02  0.29281709580E+03  0.29920219667E+03  0.12700000000E+01 0. -1.
          2    1    1    2  502    0  0.51360752019E+02 -0.74486932249E+01  0.83922660541E+01  0.52572236097E+02  0.00000000000E+00 0. -1.
          1    1    1    2  503    0 -0.11976114681E+03 -0.77888431278E+01  0.63153085676E+03  0.64283327652E+03  0.00000000000E+00 0. -1.
<mgrwt>
<rscale>  0 0.70182945E+02</rscale>
<asrwt>0</asrwt>
<pdfrwt beam="1">  1        2 0.24106617E+00 0.94909995E+02</pdfrwt>
<pdfrwt beam="2">  1        1 0.51461850E-02 0.51898072E+02</pdfrwt>
<totfact> 0.25677471E+03</totfact>
</mgrwt>
</event>
<event>
 7    1  0.7037933E-004  0.8567925E+02  0.7546771E-02  0.1480432E+00
          2   -1    0    0  503    0  0.00000000000E+00  0.00000000000E+00  0.20111557328E+03  0.20111557328E+03  0.00000000000E+00 0. -1.
         -2   -1    0    0    0  501 -0.00000000000E+00 -0.00000000000E+00 -0.26621216105E+03  0.26621216105E+03  0.00000000000E+00 0.  1.
         25    2    1    2    0    0 -0.99106197597E+01 -0.98212633647E+02 -0.41879379341E+02  0.16468574216E+03  0.12499427772E+03 0.  0.
          4    1    3    3  502    0 -0.66578341859E+02 -0.67372532015E+02 -0.26031968846E+02  0.98239554033E+02  0.12700000000E+01 0.  1.
         -4    1    3    3    0  502  0.56667722099E+02 -0.30840101632E+02 -0.15847410495E+02  0.66446188122E+02  0.12700000000E+01 0.  1.
          1    1    1    2  503    0 -0.13738428752E+02  0.17989973677E+02  0.12791978355E+03  0.12990709988E+03  0.00000000000E+00 0. -1.
         -1    1    1    2    0  501  0.23649048511E+02  0.80222659970E+02 -0.15113699198E+03  0.17273489228E+03  0.00000000000E+00 0.  1.
<mgrwt>
<rscale>  0 0.44038917E+02</rscale>
<asrwt>0</asrwt>
<pdfrwt beam="1">  1        2 0.30940858E-01 0.22635891E+02</pdfrwt>
<pdfrwt beam="2">  1       -2 0.40955717E-01 0.85679249E+02</pdfrwt>
<totfact> 0.90301355E+02</totfact>
</mgrwt>
</event>
<event>
 7    1  0.7037933E-004  0.7366450E+02  0.7546771E-02  0.1433118E+00
          1   -1    0    0  502    0 -0.00000000000E+00  0.00000000000E+00  0.16643523059E+04  0.16643523059E+04  0.00000000000E+00 0. -1.
          2   -1    0    0  503    0  0.00000000000E+00 -0.00000000000E+00 -0.10750788259E+03  0.10750788259E+03  0.00000000000E+00 0. -1.
         25    2    1    2    0    0  0.63534442055E+02 -0.42856196879E+01  0.20901217503E+03  0.25172795192E+03  0.12500352237E+03 0.  0.
          4    1    3    3  501    0  0.24408340897E+02 -0.50382265013E+02  0.17185683397E+03  0.18074989354E+03  0.12700000000E+01 0. -1.
         -4    1    3    3    0  501  0.39126101158E+02  0.46096645325E+02  0.37155341059E+02  0.70978058379E+02  0.12700000000E+01 0. -1.
          2    1    1    2  502    0 -0.11108431151E+01 -0.37170861078E+02  0.14173968500E+04  0.14178845994E+04  0.00000000000E+00 0. -1.
          1    1    1    2  503    0 -0.62423598940E+02  0.41456480766E+02 -0.69564601681E+02  0.10224763718E+03  0.00000000000E+00 0. -1.
<mgrwt>
<rscale>  0 0.52339235E+02</rscale>
<asrwt>0</asrwt>
<pdfrwt beam="2">  1        2 0.16539675E-01 0.73664504E+02</pdfrwt>
<pdfrwt beam="1">  1        1 0.25605418E+00 0.37187456E+02</pdfrwt>
<totfact> 0.30827947E+02</totfact>
</mgrwt>
</event>
<event>
 7    1  0.7037933E-004  0.1084731E+03  0.7546771E-02  0.1416106E+00
         -1   -1    0    0    0  501 -0.00000000000E+00  0.00000000000E+00  0.13455429025E+04  0.13455429025E+04  0.00000000000E+00 0.  1.
          1   -1    0    0  503    0  0.00000000000E+00 -0.00000000000E+00 -0.19008002095E+02  0.19008002095E+02  0.00000000000E+00 0. -1.
         25    2    1    2    0    0  0.10479471180E+03  0.28482465303E+02  0.91459729550E+03  0.92946644281E+03  0.12500589148E+03 0.  0.
          4    1    3    3  502    0  0.60033150679E+02  0.23465142880E+02  0.14660943813E+03  0.16015783577E+03  0.12700000000E+01 0.  1.
         -4    1    3    3    0  502  0.44761561125E+02  0.50173224230E+01  0.76798785738E+03  0.76930860704E+03  0.12700000000E+01 0.  1.
          2    1    1    2  503    0 -0.93981185192E+01  0.27180106773E+02  0.10552355705E+03  0.10937231793E+03  0.00000000000E+00 0. -1.
         -2    1    1    2    0  501 -0.95396593285E+02 -0.55662572076E+02  0.30641404787E+03  0.32571214388E+03  0.00000000000E+00 0.  1.
<mgrwt>
<rscale>  0 0.55853235E+02</rscale>
<asrwt>0</asrwt>
<pdfrwt beam="2">  1        1 0.29243091E-02 0.28759048E+02</pdfrwt>
<pdfrwt beam="1">  1       -1 0.20700653E+00 0.10847313E+03</pdfrwt>
<totfact> 0.43981030E+02</totfact>
</mgrwt>
</event>
<event>
 7    1  0.7037933E-004  0.4429326E+02  0.7546771E-02  0.1498300E+00
          1   -1    0    0  502    0 -0.00000000000E+00  0.00000000000E+00  0.20569321530E+03  0.20569321530E+03  0.00000000000E+00 0. -1.
          2   -1    0    0  503    0  0.00000000000E+00 -0.00000000000E+00 -0.10739547789E+04  0.10739547789E+04  0.00000000000E+00 0. -1.
         25    2    1    2    0    0  0.23952642194E+00  0.64345505114E+01 -0.16514182918E+03  0.20721237341E+03  0.12499473243E+03 0.  0.
          4    1    3    3  501    0 -0.17417692195E+02  0.59503905262E+02 -0.12094348863E+03  0.13591552923E+03  0.12700000000E+01 0. -1.
         -4    1    3    3    0  501  0.17657218617E+02 -0.53069354750E+02 -0.44198340547E+02  0.71296844180E+02  0.12700000000E+01 0. -1.
          2    1    1    2  502    0  0.97468789275E+01 -0.43779468121E+02  0.18150611467E+03  0.18696553998E+03  0.00000000000E+00 0. -1.
          1    1    1    2  503    0 -0.99864053494E+01  0.37344917610E+02 -0.88462584905E+03  0.88547008079E+03  0.00000000000E+00 0. -1.
<mgrwt>
<rscale>  0 0.41379327E+02</rscale>
<asrwt>0</asrwt>
<pdfrwt beam="2">  1        2 0.16522382E+00 0.38657097E+02</pdfrwt>
<pdfrwt beam="1">  1        1 0.31645109E-01 0.44293256E+02</pdfrwt>
<totfact> 0.49476927E+02</totfact>
</mgrwt>
</event>
<event>
 7    1  0.7037933E-004  0.1035243E+03  0.7546771E-02  0.1414378E+00
          2   -1    0    0  503    0  0.00000000000E+00  0.00000000000E+00  0.67719963972E+03  0.67719963972E+03  0.00000000000E+00 0. -1.
          1   -1    0    0  502    0 -0.00000000000E+00 -0.00000000000E+00 -0.51898180392E+03  0.51898180392E+03  0.00000000000E+00 0. -1.
         25    2    1    2    0    0  0.71803346961E+02  0.62537634889E+02 -0.19037675529E+03  0.24686270292E+03  0.12502483244E+03 0.  0.
          4    1    3    3  501    0  0.25859380391E+02 -0.38253519705E+02 -0.50612009280E+02  0.68521731643E+02  0.12700000000E+01 0. -1.
         -4    1    3    3    0  501  0.45943966570E+02  0.10079115459E+03 -0.13976474601E+03  0.17834097128E+03  0.12700000000E+01 0. -1.
          2    1    1    2  502    0 -0.97168477764E+02 -0.45528866345E+02 -0.29040180336E+03  0.30959295557E+03  0.00000000000E+00 0. -1.
          1    1    1    2  503    0  0.25365130804E+02 -0.17008768544E+02  0.63899639445E+03  0.63972578515E+03  0.00000000000E+00 0. -1.
<mgrwt>
<rscale>  0 0.56228332E+02</rscale>
<asrwt>0</asrwt>
<pdfrwt beam="1">  1        2 0.10418456E+00 0.30539942E+02</pdfrwt>
<pdfrwt beam="2">  1        1 0.79843355E-01 0.10352427E+03</pdfrwt>
<totfact> 0.27971979E+02</totfact>
</mgrwt>
</event>
<event>
 7    1  0.7037933E-004  0.7592859E+02  0.7546771E-02  0.1483647E+00
          2   -1    0    0  503    0  0.00000000000E+00  0.00000000000E+00  0.35326859101E+03  0.35326859101E+03  0.00000000000E+00 0. -1.
          1   -1    0    0  502    0 -0.00000000000E+00 -0.00000000000E+00 -0.15864752652E+04  0.15864752652E+04  0.00000000000E+00 0. -1.
         25    2    1    2    0    0 -0.47085160788E+02  0.27979946817E+02 -0.42152505028E+03  0.44306741242E+03  0.12500189655E+03 0.  0.
          4    1    3    3  501    0 -0.34415220676E+02 -0.48084186002E+02 -0.19514263375E+03  0.20390869712E+03  0.12700000000E+01 0. -1.
         -4    1    3    3    0  501 -0.12669940112E+02  0.76064132819E+02 -0.22638241653E+03  0.23915871529E+03  0.12700000000E+01 0. -1.
          2    1    1    2  502    0  0.62567216693E+02 -0.47571972602E+02 -0.11523834484E+04  0.11550607609E+04  0.00000000000E+00 0. -1.
          1    1    1    2  503    0 -0.15482055905E+02  0.19592025785E+02  0.34070182455E+03  0.34161568286E+03  0.00000000000E+00 0. -1.
<mgrwt>
<rscale>  0 0.43543067E+02</rscale>
<asrwt>0</asrwt>
<pdfrwt beam="1">  1        2 0.54349013E-01 0.24970814E+02</pdfrwt>
<pdfrwt beam="2">  1        1 0.24407312E+00 0.75928591E+02</pdfrwt>
<totfact> 0.88483831E+01</totfact>
</mgrwt>
</event>
<event>
 7    1  0.7037933E-004  0.8647204E+02  0.7546771E-02  0.1468945E+00
          2   -1    0    0  503    0  0.00000000000E+00  0.00000000000E+00  0.37195835240E+02  0.37195835240E+02  0.00000000000E+00 0. -1.
         -2   -1    0    0    0  501 -0.00000000000E+00 -0.00000000000E+00 -0.11357275920E+04  0.11357275920E+04  0.00000000000E+00 0.  1.
         25    2    1    2    0    0  0.63785397737E+02  0.30883977248E+02 -0.66117529369E+03  0.67660530721E+03  0.12497830105E+03 0.  0.
          4    1    3    3  502    0 -0.34819747881E+02 -0.91740896374E+01 -0.13184254643E+03  0.13667716968E+03  0.12700000000E+01 0.  1.
         -4    1    3    3    0  502  0.98605145618E+02  0.40058066886E+02 -0.52933274727E+03  0.53992813753E+03  0.12700000000E+01 0.  1.
          1    1    1    2  503    0 -0.69244909395E+02 -0.54602574456E+02 -0.37671620985E+02  0.95892907152E+02  0.00000000000E+00 0. -1.
         -1    1    1    2    0  501  0.54595116580E+01  0.23718597208E+02 -0.39968484208E+03  0.40042521288E+03  0.00000000000E+00 0.  1.
<mgrwt>
<rscale>  0 0.45876219E+02</rscale>
<asrwt>0</asrwt>
<pdfrwt beam="1">  1        2 0.57224370E-02 0.86472044E+02</pdfrwt>
<pdfrwt beam="2">  1       -2 0.17472730E+00 0.24338819E+02</pdfrwt>
<totfact> 0.29144174E+02</totfact>
</mgrwt>
</event>
<event>
 7    1  0.7037933E-004  0.9856373E+02  0.7546771E-02  0.1457533E+00
          1   -1    0    0  502    0 -0.00000000000E+00  0.00000000000E+00  0.10161913233E+03  0.10161913233E+03  0.00000000000E+00 0. -1.
          2   -1    0    0  503    0  0.00000000000E+00 -0.00000000000E+00 -0.53238633577E+03  0.53238633577E+03  0.00000000000E+00 0. -1.
         25    2    1    2    0    0  0.11134805120E+03 -0.34731997318E+02 -0.22428109971E+03  0.28201062727E+03  0.12499312806E+03 0.  0.
          4    1    3    3  501    0  0.32945417384E+02 -0.52022452476E+02 -0.23767493091E+02  0.66016988087E+02  0.12700000000E+01 0.  1.
         -4    1    3    3    0  501  0.78402633820E+02  0.17290455158E+02 -0.20051360662E+03  0.21599363919E+03  0.12700000000E+01 0.  1.
          2    1    1    2  502    0 -0.22758433101E+02  0.44517663648E+01  0.62775324883E+02  0.66921640112E+02  0.00000000000E+00 0. -1.
          1    1    1    2  503    0 -0.88589618103E+02  0.30280230953E+02 -0.26926142861E+03  0.28507320071E+03  0.00000000000E+00 0. -1.
<mgrwt>
<rscale>  0 0.47808663E+02</rscale>
<asrwt>0</asrwt>
<pdfrwt beam="2">  1        2 0.81905590E-01 0.98563729E+02</pdfrwt>
<pdfrwt beam="1">  1        1 0.15633713E-01 0.23189750E+02</pdfrwt>
<totfact> 0.24938066E+03</totfact>
</mgrwt>
</event>
<event>
 7    1  0.7037933E-004  0.7376635E+02  0.7546771E-02  0.1360130E+00
          2   -1    0    0  503    0  0.00000000000E+00  0.00000000000E+00  0.30771543321E+04  0.30771543321E+04  0.00000000000E+00 0. -1.
          1   -1    0    0  502    0 -0.00000000000E+00 -0.00000000000E+00 -0.51552929655E+02  0.51552929655E+02  0.00000000000E+00 0. -1.
         25    2    1    2    0    0 -0.36413790469E+02  0.12947415696E+03  0.12292663122E+04  0.12429039950E+04  0.12500061222E+03 0.  0.
          4    1    3    3  501    0 -0.50626132272E+02  0.31157505801E+02  0.80365782079E+03  0.80585439209E+03  0.12700000000E+01 0. -1.
         -4    1    3    3    0  501  0.14212341803E+02  0.98316651157E+02  0.42560849140E+03  0.43704960291E+03  0.12700000000E+01 0. -1.
          2    1    1    2  502    0  0.35534278788E+02 -0.63074528261E+02 -0.14431289579E+02  0.73819666779E+02  0.00000000000E+00 0. -1.
          1    1    1    2  503    0  0.87951168080E+00 -0.66399628697E+02  0.18107663799E+04  0.18119836000E+04  0.00000000000E+00 0. -1.
<mgrwt>
<rscale>  0 0.69989199E+02</rscale>
<asrwt>0</asrwt>
<pdfrwt beam="1">  1        2 0.47340821E+00 0.66405453E+02</pdfrwt>
<pdfrwt beam="2">  1        1 0.79312224E-02 0.73766351E+02</pdfrwt>
<totfact> 0.25688862E+02</totfact>
</mgrwt>
</event>
<event>
 7    1  0.7037933E-004  0.1000787E+03  0.7546771E-02  0.1311021E+00
          2   -1    0    0  503    0  0.00000000000E+00  0.00000000000E+00  0.29932223492E+03  0.29932223492E+03  0.00000000000E+00 0. -1.
          1   -1    0    0  502    0 -0.00000000000E+00 -0.00000000000E+00 -0.62975489943E+03  0.62975489943E+03  0.00000000000E+00 0. -1.
         25    2    1    2    0    0 -0.14453911630E+03  0.59562693027E+02 -0.37756735770E+03  0.42735028223E+03  0.12502753128E+03 0.  0.
          4    1    3    3  501    0  0.16786082707E+02  0.50578541270E+01 -0.59207094817E+01  0.18547834423E+02  0.12700000000E+01 0.  1.
         -4    1    3    3    0  501 -0.16132519901E+03  0.54504838900E+02 -0.37164664822E+03  0.40880244781E+03  0.12700000000E+01 0.  1.
          2    1    1    2  502    0  0.80277377035E+02 -0.20647019717E+02 -0.21426821185E+03  0.22974251521E+03  0.00000000000E+00 0. -1.
          1    1    1    2  503    0  0.64261739263E+02 -0.38915673310E+02  0.26140290504E+03  0.27198433692E+03  0.00000000000E+00 0. -1.
<mgrwt>
<rscale>  0 0.86709691E+02</rscale>
<asrwt>0</asrwt>
<pdfrwt beam="1">  1        2 0.46049575E-01 0.75126565E+02</pdfrwt>
<pdfrwt beam="2">  1        1 0.96885368E-01 0.10007872E+03</pdfrwt>
<totfact> 0.50506004E+02</totfact>
</mgrwt>
</event>
<event>
 7    1  0.7037933E-004  0.1510964E+03  0.7546771E-02  0.1278432E+00
          2   -1    0    0  503    0  0.00000000000E+00  0.00000000000E+00  0.12560158051E+04  0.12560158051E+04  0.00000000000E+00 0. -1.
          1   -1    0    0  502    0 -0.00000000000E+00 -0.00000000000E+00 -0.10561838731E+04  0.10561838731E+04  0.00000000000E+00 0. -1.
         25    2    1    2    0    0 -0.12835343109E+03 -0.25408934846E+02 -0.17907061354E+03  0.25458084320E+03  0.12499961540E+03 0.  0.
          4    1    3    3  501    0 -0.40319379138E+02 -0.61814371154E+02 -0.12463715443E+03  0.14485407132E+03  0.12700000000E+01 0. -1.
         -4    1    3    3    0  501 -0.88034051955E+02  0.36405436308E+02 -0.54433459116E+02  0.10972677188E+03  0.12700000000E+01 0. -1.
          2    1    1    2  502    0  0.15258111471E+03 -0.37452106421E+02 -0.83106097668E+03  0.84578129786E+03  0.00000000000E+00 0. -1.
          1    1    1    2  503    0 -0.24227683614E+02  0.62861041266E+02  0.12099635223E+04  0.12118375372E+04  0.00000000000E+00 0. -1.
<mgrwt>
<rscale>  0 0.10089159E+03</rscale>
<asrwt>0</asrwt>
<pdfrwt beam="1">  1        2 0.19323320E+00 0.67368325E+02</pdfrwt>
<pdfrwt beam="2">  1        1 0.16248983E+00 0.15109641E+03</pdfrwt>
<totfact> 0.42297655E+01</totfact>
</mgrwt>
</event>
<event>
 7    1  0.7037933E-004  0.1078892E+03  0.7546771E-02  0.1319373E+00
         -2   -1    0    0    0  501 -0.00000000000E+00  0.00000000000E+00  0.66855096912E+03  0.66855096912E+03  0.00000000000E+00 0.  1.
          2   -1    0    0  503    0  0.00000000000E+00 -0.00000000000E+00 -0.71071883226E+03  0.71071883226E+03  0.00000000000E+00 0. -1.
         25    2    1    2    0    0  0.51361658486E+02  0.15512279314E+03  0.33186558005E+03  0.39046235141E+03  0.12499993495E+03 0.  0.
          4    1    3    3  502    0 -0.15970578177E+02  0.66660138616E+02  0.42969185102E+02  0.80911045080E+02  0.12700000000E+01 0.  1.
         -4    1    3    3    0  502  0.67332236663E+02  0.88462654521E+02  0.28889639495E+03  0.30955130633E+03  0.12700000000E+01 0.  1.
          1    1    1    2  503    0 -0.82297818747E+01 -0.10697606135E+03 -0.67372963096E+03  0.68221933617E+03  0.00000000000E+00 0. -1.
         -3    1    1    2    0  501 -0.43131876611E+02 -0.48146731788E+02  0.29969618777E+03  0.30658811380E+03  0.00000000000E+00 0.  1.
<mgrwt>
<rscale>  0 0.83510917E+02</rscale>
<asrwt>0</asrwt>
<pdfrwt beam="2">  1        2 0.10934136E+00 0.10788922E+03</pdfrwt>
<pdfrwt beam="1">  1       -2 0.10285400E+00 0.64641059E+02</pdfrwt>
<totfact> 0.35978395E+01</totfact>
</mgrwt>
</event>
<event>
 7    1  0.7037933E-004  0.1102931E+03  0.7546771E-02  0.1275686E+00
          1   -1    0    0  502    0 -0.00000000000E+00  0.00000000000E+00  0.34798859778E+03  0.34798859778E+03  0.00000000000E+00 0. -1.
          2   -1    0    0  503    0  0.00000000000E+00 -0.00000000000E+00 -0.17939810714E+04  0.17939810714E+04  0.00000000000E+00 0. -1.
         25    2    1    2    0    0 -0.56714079780E+02 -0.18541922737E+03 -0.71995268553E+03  0.75601146385E+03  0.12499874939E+03 0.  0.
          4    1    3    3  501    0  0.13315086196E+02 -0.14796977971E+03 -0.41159230125E+03  0.43758677148E+03  0.12700000000E+01 0. -1.
         -4    1    3    3    0  501 -0.70029165976E+02 -0.37449447663E+02 -0.30836038428E+03  0.31842469237E+03  0.12700000000E+01 0. -1.
          2    1    1    2  502    0  0.22987655109E+02  0.91915881831E+02  0.32075438622E+03  0.33445528535E+03  0.00000000000E+00 0. -1.
          1    1    1    2  503    0  0.33726424671E+02  0.93503345543E+02 -0.10467941743E+04  0.10515029200E+04  0.00000000000E+00 0. -1.
<mgrwt>
<rscale>  0 0.10222484E+03</rscale>
<asrwt>0</asrwt>
<pdfrwt beam="2">  1        2 0.27599709E+00 0.11029306E+03</pdfrwt>
<pdfrwt beam="1">  1        1 0.53536708E-01 0.94746829E+02</pdfrwt>
<totfact> 0.10377729E+02</totfact>
</mgrwt>
</event>
<event>
 7    1  0.7037933E-004  0.4394569E+02  0.7546771E-02  0.1530755E+00
         -1   -1    0    0    0  501 -0.00000000000E+00  0.00000000000E+00  0.28598963572E+03  0.28598963572E+03  0.00000000000E+00 0.  1.
          1   -1    0    0  503    0  0.00000000000E+00 -0.00000000000E+00 -0.91681575759E+03  0.91681575759E+03  0.00000000000E+00 0. -1.
         25    2    1    2    0    0 -0.57997750857E+02  0.14514786034E+02 -0.79706638283E+01  0.13878750595E+03  0.12499608877E+03 0.  0.
          4    1    3    3  502    0 -0.78620426789E+01  0.47788409571E+02  0.39199234962E+02  0.62319633552E+02  0.12700000000E+01 0.  1.
         -4    1    3    3    0  502 -0.50135708178E+02 -0.33273623537E+02 -0.47169898790E+02  0.76467872402E+02  0.12700000000E+01 0.  1.
          2    1    1    2  503    0  0.31254404921E+02 -0.30798068063E+02 -0.84175124265E+03  0.84289412937E+03  0.00000000000E+00 0. -1.
         -2    1    1    2    0  501  0.26743345936E+02  0.16283282029E+02  0.21889578461E+03  0.22112375798E+03  0.00000000000E+00 0.  1.
<mgrwt>
<rscale>  0 0.37093999E+02</rscale>
<asrwt>0</asrwt>
<pdfrwt beam="2">  1        1 0.14104858E+00 0.43945693E+02</pdfrwt>
<pdfrwt beam="1">  1       -1 0.43998406E-01 0.31310571E+02</pdfrwt>
<totfact> 0.10805694E+02</totfact>
</mgrwt>
</event>
<event>
 7    1  0.7037933E-004  0.1054212E+03  0.7546771E-02  0.1285365E+00
         -1   -1    0    0    0  501 -0.00000000000E+00  0.00000000000E+00  0.92587956124E+03  0.92587956124E+03  0.00000000000E+00 0.  1.
          1   -1    0    0  503    0  0.00000000000E+00 -0.00000000000E+00 -0.33064169303E+03  0.33064169303E+03  0.00000000000E+00 0. -1.
         25    2    1    2    0    0  0.10433578309E+03  0.13367248170E+03  0.48129698531E+03  0.52538139151E+03  0.12499812193E+03 0.  0.
          4    1    3    3  502    0  0.11540369252E+03  0.72521089303E+02  0.23798208003E+03  0.27425244567E+03  0.12700000000E+01 0. -1.
         -4    1    3    3    0  502 -0.11067909426E+02  0.61151392395E+02  0.24331490527E+03  0.25112894584E+03  0.12700000000E+01 0. -1.
          2    1    1    2  503    0 -0.78461854787E+02 -0.44919735294E+02 -0.29672695723E+03  0.31019499097E+03  0.00000000000E+00 0. -1.
         -2    1    1    2    0  501 -0.25873928302E+02 -0.88752746404E+02  0.41066784013E+03  0.42094487178E+03  0.00000000000E+00 0.  1.
<mgrwt>
<rscale>  0 0.97627736E+02</rscale>
<asrwt>0</asrwt>
<pdfrwt beam="2">  1        1 0.50867953E-01 0.90410427E+02</pdfrwt>
<pdfrwt beam="1">  1       -1 0.14244301E+00 0.10542119E+03</pdfrwt>
<totfact> 0.36132119E+01</totfact>
</mgrwt>
</event>
<event>
 7    1  0.7037933E-004  0.1012302E+03  0.7546771E-02  0.1424046E+00
          1   -1    0    0  502    0 -0.00000000000E+00  0.00000000000E+00  0.11921849607E+04  0.11921849607E+04  0.00000000000E+00 0. -1.
          2   -1    0    0  503    0  0.00000000000E+00 -0.00000000000E+00 -0.26469922588E+02  0.26469922588E+02  0.00000000000E+00 0. -1.
         25    2    1    2    0    0 -0.74617555933E+02 -0.87163646076E+02  0.45582067798E+03  0.48637760579E+03  0.12500161636E+03 0.  0.
          4    1    3    3  501    0  0.17352281442E+02  0.13130920159E+02  0.15092221140E+03  0.15248819472E+03  0.12700000000E+01 0.  1.
         -4    1    3    3    0  501 -0.91969837375E+02 -0.10029456624E+03  0.30489846657E+03  0.33388941107E+03  0.12700000000E+01 0.  1.
          2    1    1    2  502    0  0.45627653060E+02  0.87479620426E+02  0.69022957618E+03  0.69724560562E+03  0.00000000000E+00 0. -1.
          1    1    1    2  503    0  0.28989902873E+02 -0.31597434972E+00  0.19664784002E+02  0.35031671931E+02  0.00000000000E+00 0. -1.
<mgrwt>
<rscale>  0 0.54174041E+02</rscale>
<asrwt>0</asrwt>
<pdfrwt beam="2">  1        2 0.40722967E-02 0.28991625E+02</pdfrwt>
<pdfrwt beam="1">  1        1 0.18341303E+00 0.10123015E+03</pdfrwt>
<totfact> 0.27788652E+03</totfact>
</mgrwt>
</event>
<event>
 7    1  0.7037933E-004  0.7324782E+02  0.7546771E-02  0.1386151E+00
          2   -1    0    0  503    0  0.00000000000E+00  0.00000000000E+00  0.11693344327E+04  0.11693344327E+04  0.00000000000E+00 0. -1.
          1   -1    0    0  502    0 -0.00000000000E+00 -0.00000000000E+00 -0.17247918680E+04  0.17247918680E+04  0.00000000000E+00 0. -1.
         25    2    1    2    0    0 -0.10707485779E+03  0.53946825377E+02  0.48733501946E+03  0.51719495419E+03  0.12497965560E+03 0.  0.
          4    1    3    3  501    0 -0.94486908026E+02  0.48743010867E+01  0.43166267313E+03  0.44191154191E+03  0.12700000000E+01 0. -1.
         -4    1    3    3    0  501 -0.12587949761E+02  0.49072524290E+02  0.55672346329E+02  0.75283412284E+02  0.12700000000E+01 0. -1.
          2    1    1    2  502    0  0.52157213131E+02 -0.13869170407E+02 -0.17077022230E+04  0.17085548312E+04  0.00000000000E+00 0. -1.
          1    1    1    2  503    0  0.54917644656E+02 -0.40077654970E+02  0.66490976831E+03  0.66837651523E+03  0.00000000000E+00 0. -1.
<mgrwt>
<rscale>  0 0.62874185E+02</rscale>
<asrwt>0</asrwt>
<pdfrwt beam="1">  1        2 0.17989761E+00 0.73247821E+02</pdfrwt>
<pdfrwt beam="2">  1        1 0.26535259E+00 0.53969702E+02</pdfrwt>
<totfact> 0.18777934E+01</totfact>
</mgrwt>
</event>
<event>
 7    1  0.7037933E-004  0.1004967E+03  0.7546771E-02  0.1403506E+00
          2   -1    0    0  503    0  0.00000000000E+00  0.00000000000E+00  0.30489802917E+03  0.30489802917E+03  0.00000000000E+00 0. -1.
          1   -1    0    0  502    0 -0.00000000000E+00 -0.00000000000E+00 -0.76445727259E+03  0.76445727259E+03  0.00000000000E+00 0. -1.
         25    2    1    2    0    0  0.53554603802E+02  0.95570711383E+02  0.12218788924E+02  0.16666841005E+03  0.12500881426E+03 0.  0.
          4    1    3    3  501    0  0.22254324740E+02  0.21614471475E+02 -0.54188378172E+02  0.62453451271E+02  0.12700000000E+01 0.  1.
         -4    1    3    3    0  501  0.31300279062E+02  0.73956239908E+02  0.66407167096E+02  0.10421495878E+03  0.12700000000E+01 0.  1.
          2    1    1    2  502    0  0.19854644196E+02 -0.27907857541E+02 -0.67520976590E+03  0.67607786784E+03  0.00000000000E+00 0. -1.
          1    1    1    2  503    0 -0.73409247997E+02 -0.67662853842E+02  0.20343173357E+03  0.22660902388E+03  0.00000000000E+00 0. -1.
<mgrwt>
<rscale>  0 0.58668562E+02</rscale>
<asrwt>0</asrwt>
<pdfrwt beam="1">  1        2 0.46907390E-01 0.10049666E+03</pdfrwt>
<pdfrwt beam="2">  1        1 0.11760881E+00 0.34249896E+02</pdfrwt>
<totfact> 0.39770023E+02</totfact>
</mgrwt>
</event>
<event>
 7    1  0.7037933E-004  0.1303011E+03  0.7546771E-02  0.1343154E+00
         -2   -1    0    0    0  501 -0.00000000000E+00  0.00000000000E+00  0.20196521922E+03  0.20196521922E+03  0.00000000000E+00 0.  1.
          2   -1    0    0  503    0  0.00000000000E+00 -0.00000000000E+00 -0.20546765857E+04  0.20546765857E+04  0.00000000000E+00 0. -1.
         25    2    1    2    0    0  0.96248632165E+02  0.98172815544E+01  0.30681733729E+02  0.16101741291E+03  0.12500024106E+03 0.  0.
          4    1    3    3  502    0  0.59357358693E+02 -0.23377213163E+02 -0.39506237102E+02  0.75047623522E+02  0.12700000000E+01 0. -1.
         -4    1    3    3    0  502  0.36891273471E+02  0.33194494718E+02  0.70187970831E+02  0.85969789387E+02  0.12700000000E+01 0. -1.
          1    1    1    2  503    0 -0.12369984822E+03 -0.43479987990E+02 -0.19828058392E+04  0.19871364215E+04  0.00000000000E+00 0. -1.
         -1    1    1    2    0  501  0.27451216052E+02  0.33662706436E+02  0.99412738983E+02  0.10848797048E+03  0.00000000000E+00 0.  1.
<mgrwt>
<rscale>  0 0.75231980E+02</rscale>
<asrwt>0</asrwt>
<pdfrwt beam="2">  1        2 0.31610409E+00 0.13030112E+03</pdfrwt>
<pdfrwt beam="1">  1       -2 0.31071572E-01 0.43436702E+02</pdfrwt>
<totfact> 0.70130226E+01</totfact>
</mgrwt>
</event>
<event>
 7    1  0.7037933E-004  0.7654566E+02  0.7546771E-02  0.1493523E+00
          2   -1    0    0  503    0  0.00000000000E+00  0.00000000000E+00  0.47294720607E+02  0.47294720607E+02  0.00000000000E+00 0. -1.
          1   -1    0    0  502    0 -0.00000000000E+00 -0.00000000000E+00 -0.99399010086E+03  0.99399010086E+03  0.00000000000E+00 0. -1.
         25    2    1    2    0    0 -0.18761059687E+02 -0.63472554770E+02 -0.11698245256E+03  0.18354702207E+03  0.12499549006E+03 0.  0.
          4    1    3    3  501    0 -0.47356126392E+02 -0.90261616917E+02 -0.79064725123E+02  0.12900622409E+03  0.12700000000E+01 0. -1.
         -4    1    3    3    0  501  0.28595066706E+02  0.26789062147E+02 -0.37917727433E+02  0.54540797980E+02  0.12700000000E+01 0. -1.
          2    1    1    2  502    0  0.41834693180E+02  0.64930361216E+02 -0.83100035577E+03  0.83458234144E+03  0.00000000000E+00 0. -1.
          1    1    1    2  503    0 -0.23073633494E+02 -0.14578064460E+01  0.12874280671E+01  0.23155457958E+02  0.00000000000E+00 0. -1.
<mgrwt>
<rscale>  0 0.42067898E+02</rscale>
<asrwt>0</asrwt>
<pdfrwt beam="1">  1        2 0.72761105E-02 0.23119640E+02</pdfrwt>
<pdfrwt beam="2">  1        1 0.15292156E+00 0.76545656E+02</pdfrwt>
<totfact> 0.18621180E+03</totfact>
</mgrwt>
</event>
<event>
 7    1  0.7037933E-004  0.7137365E+02  0.7546771E-02  0.1464563E+00
         -1   -1    0    0    0  501 -0.00000000000E+00  0.00000000000E+00  0.67726714690E+02  0.67726714690E+02  0.00000000000E+00 0.  1.
          1   -1    0    0  503    0  0.00000000000E+00 -0.00000000000E+00 -0.42683838997E+03  0.42683838997E+03  0.00000000000E+00 0. -1.
         25    2    1    2    0    0  0.15529002666E+02  0.93885818123E+02 -0.86729662417E+02  0.17945086932E+03  0.12499953356E+03 0.  0.
          4    1    3    3  502    0  0.20869301757E+02 -0.84416816345E+01 -0.72582764057E+02  0.76004343842E+02  0.12700000000E+01 0.  1.
         -4    1    3    3    0  502 -0.53402990910E+01  0.10232749976E+03 -0.14146898360E+02  0.10344652548E+03  0.12700000000E+01 0.  1.
          2    1    1    2  503    0  0.23854027535E+01 -0.69285521916E+02 -0.27590275079E+03  0.28447935178E+03  0.00000000000E+00 0. -1.
         -2    1    1    2    0  501 -0.17914405420E+02 -0.24600296206E+02  0.35207379301E+01  0.30634883557E+02  0.00000000000E+00 0.  1.
<mgrwt>
<rscale>  0 0.46605103E+02</rscale>
<asrwt>0</asrwt>
<pdfrwt beam="2">  1        1 0.65667446E-01 0.71373646E+02</pdfrwt>
<pdfrwt beam="1">  1       -1 0.10419494E-01 0.30431899E+02</pdfrwt>
<totfact> 0.27994885E+03</totfact>
</mgrwt>
</event>
<event>
 7    1  0.7037933E-004  0.6308072E+02  0.7546771E-02  0.1461239E+00
          1   -1    0    0  502    0 -0.00000000000E+00  0.00000000000E+00  0.57490936389E+03  0.57490936389E+03  0.00000000000E+00 0. -1.
          2   -1    0    0  503    0  0.00000000000E+00 -0.00000000000E+00 -0.29087954896E+03  0.29087954896E+03  0.00000000000E+00 0. -1.
         25    2    1    2    0    0  0.52291430779E+02  0.81304190287E+02  0.81927440096E+02  0.17799790418E+03  0.12500553332E+03 0.  0.
          4    1    3    3  501    0  0.13222626422E+02  0.52854926902E+02  0.10952114782E+03  0.12233141815E+03  0.12700000000E+01 0.  1.
         -4    1    3    3    0  501  0.39068804357E+02  0.28449263384E+02 -0.27593707720E+02  0.55666486028E+02  0.12700000000E+01 0.  1.
          2    1    1    2  502    0 -0.14255307950E+02 -0.32261588805E+02  0.44026443958E+03  0.44167499440E+03  0.00000000000E+00 0. -1.
          1    1    1    2  503    0 -0.38036122829E+02 -0.49042601481E+02 -0.23816206474E+03  0.24611601427E+03  0.00000000000E+00 0. -1.
<mgrwt>
<rscale>  0 0.47168874E+02</rscale>
<asrwt>0</asrwt>
<pdfrwt beam="2">  1        2 0.44750700E-01 0.63080720E+02</pdfrwt>
<pdfrwt beam="1">  1        1 0.88447594E-01 0.35270723E+02</pdfrwt>
<totfact> 0.60591672E+02</totfact>
</mgrwt>
</event>
<event>
 7    1  0.7037933E-004  0.8666529E+02  0.7546771E-02  0.1327517E+00
          1   -1    0    0  502    0 -0.00000000000E+00  0.00000000000E+00  0.23027394272E+03  0.23027394272E+03  0.00000000000E+00 0. -1.
          2   -1    0    0  503    0  0.00000000000E+00 -0.00000000000E+00 -0.12646495124E+03  0.12646495124E+03  0.00000000000E+00 0. -1.
         25    2    1    2    0    0 -0.44489004252E+02  0.75024002117E+01  0.27813608140E+02  0.13577311261E+03  0.12500073520E+03 0.  0.
          4    1    3    3  501    0  0.38192335023E+02  0.28156036985E+02  0.13496540976E+02  0.49347607759E+02  0.12700000000E+01 0. -1.
         -4    1    3    3    0  501 -0.82681339275E+02 -0.20653636773E+02  0.14317067164E+02  0.86425504849E+02  0.12700000000E+01 0. -1.
          2    1    1    2  502    0  0.52031512749E+02  0.78834056132E+02  0.93102835782E+02  0.13262814466E+03  0.00000000000E+00 0. -1.
          1    1    1    2  503    0 -0.75425084973E+01 -0.86336456344E+02 -0.17107452443E+02  0.88337636699E+02  0.00000000000E+00 0. -1.
<mgrwt>
<rscale>  0 0.80543307E+02</rscale>
<asrwt>0</asrwt>
<pdfrwt beam="2">  1        2 0.19456146E-01 0.86665294E+02</pdfrwt>
<pdfrwt beam="1">  1        1 0.35426760E-01 0.74853774E+02</pdfrwt>
<totfact> 0.45050452E+03</totfact>
</mgrwt>
</event>
<event>
 7    1  0.7037933E-004  0.9871119E+02  0.7546771E-02  0.1382460E+00
         -1   -1    0    0    0  501 -0.00000000000E+00  0.00000000000E+00  0.21389333665E+03  0.21389333665E+03  0.00000000000E+00 0.  1.
          1   -1    0    0  503    0  0.00000000000E+00 -0.00000000000E+00 -0.10747237183E+04  0.10747237183E+04  0.00000000000E+00 0. -1.
         25    2    1    2    0    0  0.48614419278E+02 -0.37475295753E+02 -0.14899059357E+03  0.20393552812E+03  0.12499497232E+03 0.  0.
          4    1    3    3  502    0 -0.24226198977E+02 -0.58497296009E+02 -0.63945615154E+02  0.89997205260E+02  0.12700000000E+01 0.  1.
         -4    1    3    3    0  502  0.72840618256E+02  0.21022000256E+02 -0.85044978411E+02  0.11393832286E+03  0.12700000000E+01 0.  1.
          2    1    1    2  503    0  0.38369032264E+02 -0.15182950894E+02 -0.88387827871E+03  0.88484095532E+03  0.00000000000E+00 0. -1.
         -2    1    1    2    0  501 -0.86983451543E+02  0.52658246647E+02  0.17203849061E+03  0.19984057154E+03  0.00000000000E+00 0.  1.
<mgrwt>
<rscale>  0 0.63821649E+02</rscale>
<asrwt>0</asrwt>
<pdfrwt beam="2">  1        1 0.16534211E+00 0.41263842E+02</pdfrwt>
<pdfrwt beam="1">  1       -1 0.32906667E-01 0.98711188E+02</pdfrwt>
<totfact> 0.13984725E+02</totfact>
</mgrwt>
</event>
<event>
 7    1  0.7037933E-004  0.5702881E+02  0.7546771E-02  0.1421656E+00
          2   -1    0    0  503    0  0.00000000000E+00  0.00000000000E+00  0.39580410464E+03  0.39580410464E+03  0.00000000000E+00 0. -1.
          1   -1    0    0  502    0 -0.00000000000E+00 -0.00000000000E+00 -0.15330876887E+04  0.15330876887E+04  0.00000000000E+00 0. -1.
         25    2    1    2    0    0  0.36616675179E+02  0.29830742238E+02  0.68892400292E+02  0.15034060373E+03  0.12500192090E+03 0.  0.
          4    1    3    3  501    0 -0.24578684302E+02  0.60458691141E+01 -0.25107926531E+02  0.35674712753E+02  0.12700000000E+01 0. -1.
         -4    1    3    3    0  501  0.61195359480E+02  0.23784873124E+02  0.94000326822E+02  0.11466589098E+03  0.12700000000E+01 0. -1.
          2    1    1    2  502    0 -0.53684227195E+02  0.19725378382E+02 -0.14894103746E+04  0.14905080848E+04  0.00000000000E+00 0. -1.
          1    1    1    2  503    0  0.17067552016E+02 -0.49556120620E+02  0.28323439025E+03  0.28804310483E+03  0.00000000000E+00 0. -1.
<mgrwt>
<rscale>  0 0.54672153E+02</rscale>
<asrwt>0</asrwt>
<pdfrwt beam="1">  1        2 0.60892939E-01 0.52412884E+02</pdfrwt>
<pdfrwt beam="2">  1        1 0.23585964E+00 0.57028809E+02</pdfrwt>
<totfact> 0.88092549E+01</totfact>
</mgrwt>
</event>
<event>
 7    1  0.7037933E-004  0.2955991E+02  0.7546771E-02  0.1665695E+00
          1   -1    0    0  502    0 -0.00000000000E+00  0.00000000000E+00  0.13458757810E+04  0.13458757810E+04  0.00000000000E+00 0. -1.
          2   -1    0    0  503    0  0.00000000000E+00 -0.00000000000E+00 -0.11873759477E+03  0.11873759477E+03  0.00000000000E+00 0. -1.
         25    2    1    2    0    0 -0.95453329904E+01 -0.10161705828E+02  0.70905627460E+03  0.72012667987E+03  0.12500904314E+03 0.  0.
          4    1    3    3  501    0 -0.49443792543E+02 -0.39230369636E+02  0.22916165707E+03  0.23769810368E+03  0.12700000000E+01 0. -1.
         -4    1    3    3    0  501  0.39898459553E+02  0.29068663808E+02  0.47989461753E+03  0.48242857619E+03  0.12700000000E+01 0. -1.
          2    1    1    2  502    0 -0.19750164500E+02  0.58542233375E+01  0.62917653978E+03  0.62951366875E+03  0.00000000000E+00 0. -1.
          1    1    1    2  503    0  0.29295497491E+02  0.43074824901E+01 -0.11109462812E+03  0.11497302717E+03  0.00000000000E+00 0. -1.
<mgrwt>
<rscale>  0 0.24676315E+02</rscale>
<asrwt>0</asrwt>
<pdfrwt beam="2">  1        2 0.18267323E-01 0.29559912E+02</pdfrwt>
<pdfrwt beam="1">  1        1 0.20705780E+00 0.20599537E+02</pdfrwt>
<totfact> 0.43781718E+02</totfact>
</mgrwt>
</event>
<event>
 7    1  0.7037933E-004  0.1673252E+03  0.7546771E-02  0.1317266E+00
         -1   -1    0    0    0  501 -0.00000000000E+00  0.00000000000E+00  0.14710087773E+03  0.14710087773E+03  0.00000000000E+00 0.  1.
          1   -1    0    0  503    0  0.00000000000E+00 -0.00000000000E+00 -0.73974994587E+03  0.73974994587E+03  0.00000000000E+00 0. -1.
         25    2    1    2    0    0  0.71069310165E+02  0.17895846559E+03 -0.14659284960E+03  0.27238175500E+03  0.12500151060E+03 0.  0.
          4    1    3    3  502    0  0.19558801614E+02  0.10081652522E+03 -0.14633651596E+03  0.17878061215E+03  0.12700000000E+01 0. -1.
         -4    1    3    3    0  502  0.51510508551E+02  0.78141940368E+02 -0.25633363388E+00  0.93601142849E+02  0.12700000000E+01 0. -1.
          2    1    1    2  503    0 -0.33450879448E+02 -0.15923853947E+03 -0.51132883546E+03  0.53659393563E+03  0.00000000000E+00 0. -1.
         -2    1    1    2    0  501 -0.37618430717E+02 -0.19719926120E+02  0.65272616915E+02  0.77875132968E+02  0.00000000000E+00 0.  1.
<mgrwt>
<rscale>  0 0.84302636E+02</rscale>
<asrwt>0</asrwt>
<pdfrwt beam="2">  1        1 0.11380768E+00 0.16732523E+03</pdfrwt>
<pdfrwt beam="1">  1       -1 0.22630904E-01 0.42473778E+02</pdfrwt>
<totfact> 0.41471238E+02</totfact>
</mgrwt>
</event>
<event>
 7    1  0.7037933E-004  0.5977345E+02  0.7546771E-02  0.1461923E+00
          1   -1    0    0  502    0 -0.00000000000E+00  0.00000000000E+00  0.40555226838E+02  0.40555226838E+02  0.00000000000E+00 0. -1.
          2   -1    0    0  503    0  0.00000000000E+00 -0.00000000000E+00 -0.18005378554E+04  0.18005378554E+04  0.00000000000E+00 0. -1.
         25    2    1    2    0    0 -0.19345437926E+01  0.25861562201E+02 -0.15985604415E+03  0.20457882963E+03  0.12500391924E+03 0.  0.
          4    1    3    3  501    0  0.42601669049E+02  0.37909680308E+02 -0.25435083942E+02  0.62454803354E+02  0.12700000000E+01 0.  1.
         -4    1    3    3    0  501 -0.44536212842E+02 -0.12048118108E+02 -0.13442096020E+03  0.14212402628E+03  0.12700000000E+01 0.  1.
          2    1    1    2  502    0  0.16956547974E+02  0.32928818168E+02 -0.18480952157E+01  0.37084323387E+02  0.00000000000E+00 0. -1.
          1    1    1    2  503    0 -0.15022004182E+02 -0.58790380368E+02 -0.15982784892E+04  0.15994299292E+04  0.00000000000E+00 0. -1.
<mgrwt>
<rscale>  0 0.47052137E+02</rscale>
<asrwt>0</asrwt>
<pdfrwt beam="2">  1        2 0.27700580E+00 0.59773447E+02</pdfrwt>
<pdfrwt beam="1">  1        1 0.62392661E-02 0.37038245E+02</pdfrwt>
<totfact> 0.15369335E+03</totfact>
</mgrwt>
</event>
<event>
 7    1  0.7037933E-004  0.1086770E+03  0.7546771E-02  0.1328035E+00
         -1   -1    0    0    0  501 -0.00000000000E+00  0.00000000000E+00  0.24952993711E+03  0.24952993711E+03  0.00000000000E+00 0.  1.
          1   -1    0    0  503    0  0.00000000000E+00 -0.00000000000E+00 -0.21991844093E+03  0.21991844093E+03  0.00000000000E+00 0. -1.
         25    2    1    2    0    0 -0.11997444834E+01 -0.90375802978E+02 -0.68592039031E+02  0.16883038983E+03  0.12501842888E+03 0.  0.
          4    1    3    3  502    0 -0.33758205790E+02 -0.29115808980E+02  0.25919906386E+02  0.51582954915E+02  0.12700000000E+01 0.  1.
         -4    1    3    3    0  502  0.32558461306E+02 -0.61259993998E+02 -0.94511945417E+02  0.11724743491E+03  0.12700000000E+01 0.  1.
          2    1    1    2  503    0 -0.59198341598E+02 -0.51277455093E+01 -0.73842710472E+02  0.94781239240E+02  0.00000000000E+00 0. -1.
         -2    1    1    2    0  501  0.60398086082E+02  0.95503548487E+02  0.17204624568E+03  0.20583674898E+03  0.00000000000E+00 0.  1.
<mgrwt>
<rscale>  0 0.80359134E+02</rscale>
<asrwt>0</asrwt>
<pdfrwt beam="2">  1        1 0.33833606E-01 0.59420009E+02</pdfrwt>
<pdfrwt beam="1">  1       -1 0.38389221E-01 0.10867704E+03</pdfrwt>
<totfact> 0.84819081E+02</totfact>
</mgrwt>
</event>
<event>
 7    1  0.7037933E-004  0.4791702E+02  0.7546771E-02  0.1548843E+00
          2   -1    0    0  503    0  0.00000000000E+00  0.00000000000E+00  0.27652580622E+03  0.27652580622E+03  0.00000000000E+00 0. -1.
         -2   -1    0    0    0  501 -0.00000000000E+00 -0.00000000000E+00 -0.12726480080E+03  0.12726480080E+03  0.00000000000E+00 0.  1.
         25    2    1    2    0    0  0.54337096676E+02 -0.27526903666E+02  0.22930168645E+03  0.26816989225E+03  0.12500230877E+03 0.  0.
          4    1    3    3  502    0  0.15720132249E+01 -0.64668359677E+02  0.16425537242E+03  0.17653868766E+03  0.12700000000E+01 0. -1.
         -4    1    3    3    0  502  0.52765083451E+02  0.37141456011E+02  0.65046314029E+02  0.91631204592E+02  0.12700000000E+01 0. -1.
          1    1    1    2  503    0 -0.38148571614E+02  0.77919689383E+01  0.11491114622E+02  0.40596477820E+02  0.00000000000E+00 0. -1.
         -1    1    1    2    0  501 -0.16188525062E+02  0.19734934728E+02 -0.91531795656E+02  0.95024236952E+02  0.00000000000E+00 0.  1.
<mgrwt>
<rscale>  0 0.34972727E+02</rscale>
<asrwt>0</asrwt>
<pdfrwt beam="1">  1        2 0.42542432E-01 0.47917019E+02</pdfrwt>
<pdfrwt beam="2">  1       -2 0.19579200E-01 0.25525203E+02</pdfrwt>
<totfact> 0.23067180E+03</totfact>
</mgrwt>
</event>
<event>
 7    1  0.7037933E-004  0.9312811E+02  0.7546771E-02  0.1298793E+00
         -2   -1    0    0    0  501 -0.00000000000E+00  0.00000000000E+00  0.61796822064E+03  0.61796822064E+03  0.00000000000E+00 0.  1.
          2   -1    0    0  503    0  0.00000000000E+00 -0.00000000000E+00 -0.24386805403E+04  0.24386805403E+04  0.00000000000E+00 0. -1.
         25    2    1    2    0    0  0.48903343020E+01  0.27163571902E+01 -0.22700045728E+03  0.25921245580E+03  0.12502238068E+03 0.  0.
          4    1    3    3  502    0  0.45970508675E+02  0.22149379732E+02 -0.34970503696E+02  0.61874321969E+02  0.12700000000E+01 0. -1.
         -4    1    3    3    0  502 -0.41080174373E+02 -0.19433022542E+02 -0.19202995358E+03  0.19733813383E+03  0.12700000000E+01 0. -1.
          1    1    1    2  503    0  0.87795197291E+02 -0.21071895983E+02 -0.21909302435E+04  0.21927898562E+04  0.00000000000E+00 0. -1.
         -1    1    1    2    0  501 -0.92685531593E+02  0.18355538793E+02  0.59721838108E+03  0.60464644899E+03  0.00000000000E+00 0.  1.
<mgrwt>
<rscale>  0 0.91697339E+02</rscale>
<asrwt>0</asrwt>
<pdfrwt beam="2">  1        2 0.37518162E+00 0.90288546E+02</pdfrwt>
<pdfrwt beam="1">  1       -2 0.95072034E-01 0.93128113E+02</pdfrwt>
<totfact> 0.50259570E+00</totfact>
</mgrwt>
</event>
<event>
 7    1  0.7037933E-004  0.6685088E+02  0.7546771E-02  0.1409843E+00
          1   -1    0    0  502    0 -0.00000000000E+00  0.00000000000E+00  0.38687465842E+02  0.38687465842E+02  0.00000000000E+00 0. -1.
          2   -1    0    0  503    0  0.00000000000E+00 -0.00000000000E+00 -0.98620776926E+03  0.98620776926E+03  0.00000000000E+00 0. -1.
         25    2    1    2    0    0  0.74456004094E+02 -0.23589974418E+02 -0.47943651504E+03  0.50158130298E+03  0.12499699242E+03 0.  0.
          4    1    3    3  501    0  0.26926577403E+02 -0.46216124389E+02 -0.41468637301E+03  0.41812363194E+03  0.12700000000E+01 0.  1.
         -4    1    3    3    0  501  0.47529426691E+02  0.22626149971E+02 -0.64750142027E+02  0.83457671047E+02  0.12700000000E+01 0.  1.
          2    1    1    2  502    0 -0.11485359920E+02  0.47626300327E+02  0.14047795916E+01  0.49011747378E+02  0.00000000000E+00 0. -1.
          1    1    1    2  503    0 -0.62970644174E+02 -0.24036325909E+02 -0.46948856798E+03  0.47430218474E+03  0.00000000000E+00 0. -1.
<mgrwt>
<rscale>  0 0.57228771E+02</rscale>
<asrwt>0</asrwt>
<pdfrwt beam="2">  1        2 0.15172429E+00 0.66850878E+02</pdfrwt>
<pdfrwt beam="1">  1        1 0.59519170E-02 0.48991611E+02</pdfrwt>
<totfact> 0.44059454E+03</totfact>
</mgrwt>
</event>
<event>
 7    1  0.7037933E-004  0.1487200E+03  0.7546771E-02  0.1384264E+00
         -2   -1    0    0    0  501 -0.00000000000E+00  0.00000000000E+00  0.60504436883E+03  0.60504436883E+03  0.00000000000E+00 0.  1.
          2   -1    0    0  503    0  0.00000000000E+00 -0.00000000000E+00 -0.28965397610E+04  0.28965397610E+04  0.00000000000E+00 0. -1.
         25    2    1    2    0    0 -0.47591232572E+02  0.15037837939E+03 -0.15474679880E+04  0.15605007220E+04  0.12500698816E+03 0.  0.
          4    1    3    3  502    0 -0.82299217772E+02  0.87525078911E+02 -0.11785677833E+04  0.11846760880E+04  0.12700000000E+01 0.  1.
         -4    1    3    3    0  502  0.34707985200E+02  0.62853300476E+02 -0.36890020475E+03  0.37582463408E+03  0.12700000000E+01 0.  1.
          1    1    1    2  503    0 -0.20106582557E+02 -0.18005657688E+02 -0.13331834168E+04  0.13334565989E+04  0.00000000000E+00 0. -1.
         -1    1    1    2    0  501  0.67697815129E+02 -0.13237272170E+03  0.58915601266E+03  0.60762680888E+03  0.00000000000E+00 0.  1.
<mgrwt>
<rscale>  0 0.63356159E+02</rscale>
<asrwt>0</asrwt>
<pdfrwt beam="2">  1        2 0.44562149E+00 0.26990338E+02</pdfrwt>
<pdfrwt beam="1">  1       -2 0.93083752E-01 0.14871999E+03</pdfrwt>
<totfact> 0.36384010E+00</totfact>
</mgrwt>
</event>
<event>
 7    1  0.7037933E-004  0.6820610E+02  0.7546771E-02  0.1414019E+00
          1   -1    0    0  502    0 -0.00000000000E+00  0.00000000000E+00  0.80918770921E+02  0.80918770921E+02  0.00000000000E+00 0. -1.
          2   -1    0    0  503    0  0.00000000000E+00 -0.00000000000E+00 -0.70688954227E+03  0.70688954227E+03  0.00000000000E+00 0. -1.
         25    2    1    2    0    0  0.24320355929E+02 -0.74152600921E+01 -0.24044597605E+03  0.27218651385E+03  0.12499906050E+03 0.  0.
          4    1    3    3  501    0  0.60058575473E+02  0.29121955478E+02 -0.82241938306E+02  0.10592672040E+03  0.12700000000E+01 0. -1.
         -4    1    3    3    0  501 -0.35738219544E+02 -0.36537215570E+02 -0.15820403774E+03  0.16625979345E+03  0.12700000000E+01 0. -1.
          2    1    1    2  502    0 -0.70599422894E+02  0.11767032049E+02  0.43718331251E+02  0.83869148342E+02  0.00000000000E+00 0. -1.
          1    1    1    2  503    0  0.46279066965E+02 -0.43517719573E+01 -0.42924312655E+03  0.43175265100E+03  0.00000000000E+00 0. -1.
<mgrwt>
<rscale>  0 0.56306654E+02</rscale>
<asrwt>0</asrwt>
<pdfrwt beam="2">  1        2 0.10875224E+00 0.46483222E+02</pdfrwt>
<pdfrwt beam="1">  1        1 0.12449042E-01 0.68206098E+02</pdfrwt>
<totfact> 0.26389520E+03</totfact>
</mgrwt>
</event>
<event>
 7    1  0.7037933E-004  0.8017743E+02  0.7546771E-02  0.1366826E+00
          1   -1    0    0  502    0 -0.00000000000E+00  0.00000000000E+00  0.88313910971E+03  0.88313910971E+03  0.00000000000E+00 0. -1.
          2   -1    0    0  503    0  0.00000000000E+00 -0.00000000000E+00 -0.92205553715E+03  0.92205553715E+03  0.00000000000E+00 0. -1.
         25    2    1    2    0    0 -0.73656267927E+02  0.37349767717E+00 -0.22146166994E+03  0.26475426838E+03  0.12499666422E+03 0.  0.
          4    1    3    3  501    0 -0.49662402607E+02 -0.30878228342E+01 -0.23272841427E+03  0.23799163135E+03  0.12700000000E+01 0.  1.
         -4    1    3    3    0  501 -0.23993865320E+02  0.34613205114E+01  0.11266744335E+02  0.26762637026E+02  0.12700000000E+01 0.  1.
          2    1    1    2  502    0  0.57755089774E+02 -0.55911527885E+02  0.85838269779E+03  0.86213839099E+03  0.00000000000E+00 0. -1.
          1    1    1    2  503    0  0.15901178153E+02  0.55538030208E+02 -0.67583745529E+03  0.67830198749E+03  0.00000000000E+00 0. -1.
<mgrwt>
<rscale>  0 0.68057430E+02</rscale>
<asrwt>0</asrwt>
<pdfrwt beam="2">  1        2 0.14185470E+00 0.57769544E+02</pdfrwt>
<pdfrwt beam="1">  1        1 0.13586756E+00 0.80177432E+02</pdfrwt>
<totfact> 0.91245943E+01</totfact>
</mgrwt>
</event>
<event>
 7    1  0.7037933E-004  0.1358276E+03  0.7546771E-02  0.1430245E+00
         -2   -1    0    0    0  501 -0.00000000000E+00  0.00000000000E+00  0.93030510460E+03  0.93030510460E+03  0.00000000000E+00 0.  1.
          2   -1    0    0  503    0  0.00000000000E+00 -0.00000000000E+00 -0.15164967460E+03  0.15164967460E+03  0.00000000000E+00 0. -1.
         25    2    1    2    0    0  0.11631510682E+03  0.42066921412E+02  0.52924392003E+03  0.55769356688E+03  0.12499663075E+03 0.  0.
          4    1    3    3  502    0  0.29295549270E+02 -0.44278673513E+02  0.17058983163E+03  0.17866542388E+03  0.12700000000E+01 0. -1.
         -4    1    3    3    0  502  0.87019557552E+02  0.86345594925E+02  0.35865408840E+03  0.37902814300E+03  0.12700000000E+01 0. -1.
          1    1    1    2  503    0 -0.12180157714E+03 -0.61934411343E+02 -0.10308250610E+03  0.17116512076E+03  0.00000000000E+00 0. -1.
         -1    1    1    2    0  501  0.54864703195E+01  0.19867489932E+02  0.35249401607E+03  0.35309609156E+03  0.00000000000E+00 0.  1.
<mgrwt>
<rscale>  0 0.52910861E+02</rscale>
<asrwt>0</asrwt>
<pdfrwt beam="2">  1        2 0.23330720E-01 0.13582757E+03</pdfrwt>
<pdfrwt beam="1">  1       -2 0.14312386E+00 0.20611126E+02</pdfrwt>
<totfact> 0.91782412E+01</totfact>
</mgrwt>
</event>
<event>
 7    1  0.7037933E-004  0.2022123E+03  0.7546771E-02  0.1185845E+00
         -2   -1    0    0    0  501 -0.00000000000E+00  0.00000000000E+00  0.12854234194E+04  0.12854234194E+04  0.00000000000E+00 0.  1.
          2   -1    0    0  503    0  0.00000000000E+00 -0.00000000000E+00 -0.12760312024E+04  0.12760312024E+04  0.00000000000E+00 0. -1.
         25    2    1    2    0    0 -0.27782318371E+03  0.13054805012E+03  0.32944545937E+03  0.46732038633E+03  0.12500207189E+03 0.  0.
          4    1    3    3  502    0 -0.21170266830E+03  0.95882110981E+02  0.31469303826E+03  0.39120930485E+03  0.12700000000E+01 0.  1.
         -4    1    3    3    0  502 -0.66120515413E+02  0.34665939137E+02  0.14752421112E+02  0.76111081476E+02  0.12700000000E+01 0.  1.
          1    1    1    2  503    0  0.19852078172E+03 -0.26692791186E+02 -0.11938923401E+04  0.12105791695E+04  0.00000000000E+00 0. -1.
         -1    1    1    2    0  501  0.79302401994E+02 -0.10385525893E+03  0.87383909776E+03  0.88355506594E+03  0.00000000000E+00 0.  1.
<mgrwt>
<rscale>  0 0.16255212E+03</rscale>
<asrwt>0</asrwt>
<pdfrwt beam="2">  1        2 0.19631249E+00 0.20221232E+03</pdfrwt>
<pdfrwt beam="1">  1       -2 0.19775745E+00 0.13067052E+03</pdfrwt>
<totfact> 0.29373394E+00</totfact>
</mgrwt>
</event>
<event>
 7    1  0.7037933E-004  0.1210248E+03  0.7546771E-02  0.1289080E+00
          2   -1    0    0  503    0  0.00000000000E+00  0.00000000000E+00  0.19566034556E+03  0.19566034556E+03  0.00000000000E+00 0. -1.
          1   -1    0    0  502    0 -0.00000000000E+00 -0.00000000000E+00 -0.12691764549E+04  0.12691764549E+04  0.00000000000E+00 0. -1.
         25    2    1    2    0    0 -0.85819257326E+02 -0.12969165623E+03 -0.29220596885E+03  0.35382499102E+03  0.12499170137E+03 0.  0.
          4    1    3    3  501    0 -0.90449468017E+02 -0.13837749856E+03 -0.29909497741E+03  0.34174384674E+03  0.12700000000E+01 0.  1.
         -4    1    3    3    0  501  0.46302106907E+01  0.86858423239E+01  0.68890085667E+01  0.12081144273E+02  0.12700000000E+01 0.  1.
          2    1    1    2  502    0  0.10625278254E+02  0.11831514327E+03 -0.93342082077E+03  0.94094941326E+03  0.00000000000E+00 0. -1.
          1    1    1    2  503    0  0.75193979072E+02  0.11376512964E+02  0.15211068028E+03  0.17006239617E+03  0.00000000000E+00 0. -1.
<mgrwt>
<rscale>  0 0.95936974E+02</rscale>
<asrwt>0</asrwt>
<pdfrwt beam="1">  1        2 0.30101592E-01 0.76049718E+02</pdfrwt>
<pdfrwt beam="2">  1        1 0.19525791E+00 0.12102481E+03</pdfrwt>
<totfact> 0.25376073E+02</totfact>
</mgrwt>
</event>
<event>
 7    1  0.7037933E-004  0.4234079E+02  0.7546771E-02  0.1527760E+00
          1   -1    0    0  502    0 -0.00000000000E+00  0.00000000000E+00  0.11392679545E+04  0.11392679545E+04  0.00000000000E+00 0. -1.
          2   -1    0    0  503    0  0.00000000000E+00 -0.00000000000E+00 -0.13255105486E+04  0.13255105486E+04  0.00000000000E+00 0. -1.
         25    2    1    2    0    0  0.64025933729E+02  0.37314002439E+02 -0.27697155420E+03  0.31277855318E+03  0.12500210610E+03 0.  0.
          4    1    3    3  501    0  0.84512812033E+02 -0.12671303003E+02 -0.12448023358E+03  0.15099641973E+03  0.12700000000E+01 0.  1.
         -4    1    3    3    0  501 -0.20486878305E+02  0.49985305443E+02 -0.15249132062E+03  0.16178213346E+03  0.12700000000E+01 0.  1.
          2    1    1    2  502    0 -0.39574914709E+02 -0.14934795826E+02  0.11206988572E+04  0.11214968348E+04  0.00000000000E+00 0. -1.
          1    1    1    2  503    0 -0.24451019019E+02 -0.22379206613E+02 -0.10299698971E+04  0.10305031151E+04  0.00000000000E+00 0. -1.
<mgrwt>
<rscale>  0 0.37462555E+02</rscale>
<asrwt>0</asrwt>
<pdfrwt beam="2">  1        2 0.20392470E+00 0.33146361E+02</pdfrwt>
<pdfrwt beam="1">  1        1 0.17527199E+00 0.42340788E+02</pdfrwt>
<totfact> 0.39450265E+01</totfact>
</mgrwt>
</event>
<event>
 7    1  0.7037933E-004  0.6706519E+02  0.7546771E-02  0.1378694E+00
         -2   -1    0    0    0  501 -0.00000000000E+00  0.00000000000E+00  0.89197584980E+02  0.89197584980E+02  0.00000000000E+00 0.  1.
          2   -1    0    0  503    0  0.00000000000E+00 -0.00000000000E+00 -0.42676647097E+03  0.42676647097E+03  0.00000000000E+00 0. -1.
         25    2    1    2    0    0  0.20984547730E+02  0.56819785659E+02 -0.21838753012E+03  0.25881974588E+03  0.12500283302E+03 0.  0.
          4    1    3    3  502    0  0.58048081424E+02 -0.72984908426E+01 -0.13585828872E+03  0.14792543810E+03  0.12700000000E+01 0.  1.
         -4    1    3    3    0  502 -0.37063533694E+02  0.64118276501E+02 -0.82529241404E+02  0.11089430778E+03  0.12700000000E+01 0.  1.
          1    1    1    2  503    0  0.46981994607E+02 -0.41410973898E+02 -0.16313966930E+03  0.17474761307E+03  0.00000000000E+00 0. -1.
         -1    1    1    2    0  501 -0.67966542337E+02 -0.15408811761E+02  0.43958313422E+02  0.82396696998E+02  0.00000000000E+00 0.  1.
<mgrwt>
<rscale>  0 0.64808262E+02</rscale>
<asrwt>0</asrwt>
<pdfrwt beam="2">  1        2 0.65656380E-01 0.62627283E+02</pdfrwt>
<pdfrwt beam="1">  1       -2 0.13722705E-01 0.67065193E+02</pdfrwt>
<totfact> 0.27758356E+03</totfact>
</mgrwt>
</event>
<event>
 7    1  0.7037933E-004  0.2114098E+03  0.7546771E-02  0.1250811E+00
          2   -1    0    0  503    0  0.00000000000E+00  0.00000000000E+00  0.14495225187E+04  0.14495225187E+04  0.00000000000E+00 0. -1.
          1   -1    0    0  502    0 -0.00000000000E+00 -0.00000000000E+00 -0.42878432976E+03  0.42878432976E+03  0.00000000000E+00 0. -1.
         25    2    1    2    0    0  0.24817313830E+03 -0.30862903245E+02  0.58492434545E+03  0.64831260630E+03  0.12502127907E+03 0.  0.
          4    1    3    3  501    0  0.16925739037E+03  0.39500656359E+02  0.35791689024E+03  0.39788752087E+03  0.12700000000E+01 0. -1.
         -4    1    3    3    0  501  0.78915747939E+02 -0.70363559604E+02  0.22700745521E+03  0.25042508543E+03  0.12700000000E+01 0. -1.
          2    1    1    2  502    0 -0.50467030207E+02  0.37774844746E+02 -0.38272865512E+03  0.38788539994E+03  0.00000000000E+00 0. -1.
          1    1    1    2  503    0 -0.19770610810E+03 -0.69119415011E+01  0.81854249863E+03  0.84210884224E+03  0.00000000000E+00 0. -1.
<mgrwt>
<rscale>  0 0.11544249E+03</rscale>
<asrwt>0</asrwt>
<pdfrwt beam="1">  1        2 0.22300346E+00 0.21140979E+03</pdfrwt>
<pdfrwt beam="2">  1        1 0.65966821E-01 0.63038560E+02</pdfrwt>
<totfact> 0.11507778E+02</totfact>
</mgrwt>
</event>
<event>
 7    1  0.7037933E-004  0.1604515E+03  0.7546771E-02  0.1206623E+00
          2   -1    0    0  503    0  0.00000000000E+00  0.00000000000E+00  0.15849278813E+04  0.15849278813E+04  0.00000000000E+00 0. -1.
          1   -1    0    0  502    0 -0.00000000000E+00 -0.00000000000E+00 -0.20597078564E+04  0.20597078564E+04  0.00000000000E+00 0. -1.
         25    2    1    2    0    0  0.13782323296E+03  0.53011065468E+02 -0.21387375597E+02  0.19464686404E+03  0.12499826094E+03 0.  0.
          4    1    3    3  501    0  0.24364513209E+02  0.55496803555E+02 -0.48876707445E+02  0.77872139687E+02  0.12700000000E+01 0.  1.
         -4    1    3    3    0  501  0.11345871975E+03 -0.24857380868E+01  0.27489331848E+02  0.11677472435E+03  0.12700000000E+01 0.  1.
          2    1    1    2  502    0 -0.83923246795E+02  0.10087765706E+03 -0.19450372532E+04  0.19494587272E+04  0.00000000000E+00 0. -1.
          3    1    1    2  503    0 -0.53899986165E+02 -0.15388872253E+03  0.14916446537E+04  0.15005301464E+04  0.00000000000E+00 0. -1.
<mgrwt>
<rscale>  0 0.14510301E+03</rscale>
<asrwt>0</asrwt>
<pdfrwt beam="1">  1        2 0.24383506E+00 0.16045146E+03</pdfrwt>
<pdfrwt beam="2">  1        1 0.31687813E+00 0.13122276E+03</pdfrwt>
<totfact> 0.59470671E+00</totfact>
</mgrwt>
</event>
<event>
 7    1  0.7037933E-004  0.2457877E+03  0.7546771E-02  0.1238047E+00
          2   -1    0    0  503    0  0.00000000000E+00  0.00000000000E+00  0.26148361736E+04  0.26148361736E+04  0.00000000000E+00 0. -1.
          1   -1    0    0  502    0 -0.00000000000E+00 -0.00000000000E+00 -0.49934145883E+04  0.49934145883E+04  0.00000000000E+00 0. -1.
         25    2    1    2    0    0  0.18674866002E+03  0.10216500118E+03  0.23822748078E+02  0.24800362895E+03  0.12500210862E+03 0.  0.
          4    1    3    3  501    0  0.16583880183E+03  0.26121186914E+02  0.19364900563E+02  0.16900129252E+03  0.12700000000E+01 0. -1.
         -4    1    3    3    0  501  0.20909858192E+02  0.76043814263E+02  0.44578475149E+01  0.79002336433E+02  0.12700000000E+01 0. -1.
          2    1    1    2  502    0 -0.18443527822E+03 -0.16378850449E+03 -0.48778237921E+04  0.48840565100E+04  0.00000000000E+00 0. -1.
          1    1    1    2  503    0 -0.23133818022E+01  0.61623503310E+02  0.24754226292E+04  0.24761906230E+04  0.00000000000E+00 0. -1.
<mgrwt>
<rscale>  0 0.12311364E+03</rscale>
<asrwt>0</asrwt>
<pdfrwt beam="1">  1        2 0.40228249E+00 0.61666911E+02</pdfrwt>
<pdfrwt beam="2">  1        1 0.76821762E+00 0.24578772E+03</pdfrwt>
<totfact> 0.77114368E-03</totfact>
</mgrwt>
</event>
<event>
 7    1  0.7037933E-004  0.8298870E+02  0.7546771E-02  0.1436677E+00
          2   -1    0    0  503    0  0.00000000000E+00  0.00000000000E+00  0.69971691367E+03  0.69971691367E+03  0.00000000000E+00 0. -1.
         -2   -1    0    0    0  501 -0.00000000000E+00 -0.00000000000E+00 -0.25687054191E+03  0.25687054191E+03  0.00000000000E+00 0.  1.
         25    2    1    2    0    0  0.43182956507E+02  0.10439143549E+03 -0.24625878473E+02  0.17028707826E+03  0.12501566140E+03 0.  0.
          4    1    3    3  502    0  0.29941084819E+02 -0.19167590113E+02  0.16732974766E+02  0.39312471500E+02  0.12700000000E+01 0. -1.
         -4    1    3    3    0  502  0.13241871688E+02  0.12355902560E+03 -0.41358853239E+02  0.13097460676E+03  0.12700000000E+01 0. -1.
          1    1    1    2  503    0 -0.38491365288E+02 -0.72599011425E+02  0.62253892855E+03  0.62793862695E+03  0.00000000000E+00 0. -1.
         -1    1    1    2    0  501 -0.46915912191E+01 -0.31792424067E+02 -0.15506667832E+03  0.15836175037E+03  0.00000000000E+00 0.  1.
<mgrwt>
<rscale>  0 0.51642861E+02</rscale>
<asrwt>0</asrwt>
<pdfrwt beam="1">  1        2 0.10764876E+00 0.82988697E+02</pdfrwt>
<pdfrwt beam="2">  1       -2 0.39518545E-01 0.32136728E+02</pdfrwt>
<totfact> 0.26075627E+02</totfact>
</mgrwt>
</event>
<event>
 7    1  0.7037933E-004  0.1008618E+03  0.7546771E-02  0.1302318E+00
          2   -1    0    0  503    0  0.00000000000E+00  0.00000000000E+00  0.84469182563E+03  0.84469182563E+03  0.00000000000E+00 0. -1.
          1   -1    0    0  502    0 -0.00000000000E+00 -0.00000000000E+00 -0.75651373826E+02  0.75651373826E+02  0.00000000000E+00 0. -1.
         25    2    1    2    0    0 -0.70547417849E+02 -0.49307739932E+00  0.11234872640E+03  0.18227574055E+03  0.12500011191E+03 0.  0.
          4    1    3    3  501    0  0.25949053791E+02  0.31577175938E+02  0.42015878213E+02  0.58629500722E+02  0.12700000000E+01 0.  1.
         -4    1    3    3    0  501 -0.96496471640E+02 -0.32070253337E+02  0.70332848190E+02  0.12364623982E+03  0.12700000000E+01 0.  1.
          2    1    1    2  502    0  0.37815369743E+02  0.95895980147E+02  0.35929962344E+02  0.10916502824E+03  0.00000000000E+00 0. -1.
          1    1    1    2  503    0  0.32732048105E+02 -0.95402902748E+02  0.62076176306E+03  0.62890243067E+03  0.00000000000E+00 0. -1.
<mgrwt>
<rscale>  0 0.90220863E+02</rscale>
<asrwt>0</asrwt>
<pdfrwt beam="1">  1        2 0.12995258E+00 0.10086179E+03</pdfrwt>
<pdfrwt beam="2">  1        1 0.11638673E-01 0.80702555E+02</pdfrwt>
<totfact> 0.22872092E+03</totfact>
</mgrwt>
</event>
<event>
 7    1  0.7037933E-004  0.6549135E+02  0.7546771E-02  0.1388981E+00
          1   -1    0    0  502    0 -0.00000000000E+00  0.00000000000E+00  0.16891850956E+03  0.16891850956E+03  0.00000000000E+00 0. -1.
          2   -1    0    0  503    0  0.00000000000E+00 -0.00000000000E+00 -0.29038943603E+04  0.29038943603E+04  0.00000000000E+00 0. -1.
         25    2    1    2    0    0  0.54400548028E+02  0.74743131356E+02 -0.24236736387E+03  0.28794267757E+03  0.12499236451E+03 0.  0.
          4    1    3    3  501    0  0.79841464754E+02  0.64862047952E+02 -0.10174516388E+03  0.14469082912E+03  0.12700000000E+01 0. -1.
         -4    1    3    3    0  501 -0.25440916726E+02  0.98810834032E+01 -0.14062220000E+03  0.14325184845E+03  0.12700000000E+01 0. -1.
          2    1    1    2  502    0 -0.58233363089E+02 -0.94781168572E+01  0.13975319030E+03  0.15169678136E+03  0.00000000000E+00 0. -1.
          1    1    1    2  503    0  0.38328150611E+01 -0.65265014498E+02 -0.26323616772E+04  0.26331734109E+04  0.00000000000E+00 0. -1.
<mgrwt>
<rscale>  0 0.62160815E+02</rscale>
<asrwt>0</asrwt>
<pdfrwt beam="2">  1        2 0.44675297E+00 0.65491347E+02</pdfrwt>
<pdfrwt beam="1">  1        1 0.25987463E-01 0.58999655E+02</pdfrwt>
<totfact> 0.70647172E+01</totfact>
</mgrwt>
</event>
<event>
 7    1  0.7037933E-004  0.1163553E+03  0.7546771E-02  0.1376188E+00
          2   -1    0    0  503    0  0.00000000000E+00  0.00000000000E+00  0.77899618497E+03  0.77899618497E+03  0.00000000000E+00 0. -1.
          1   -1    0    0  502    0 -0.00000000000E+00 -0.00000000000E+00 -0.86220585258E+02  0.86220585258E+02  0.00000000000E+00 0. -1.
         25    2    1    2    0    0  0.36160455509E+02  0.10794042688E+03  0.67538401315E+02  0.18204680336E+03  0.12498355357E+03 0.  0.
          4    1    3    3  501    0  0.44533383846E+01 -0.21691300355E+01 -0.30692202877E+02  0.31115294717E+02  0.12700000000E+01 0.  1.
         -4    1    3    3    0  501  0.31707117125E+02  0.11010955692E+03  0.98230604192E+02  0.15093150864E+03  0.12700000000E+01 0.  1.
          2    1    1    2  502    0  0.33998175493E+02 -0.14202887929E+02 -0.92345711011E+01  0.37985197983E+02  0.00000000000E+00 0. -1.
          1    1    1    2  503    0 -0.70158631002E+02 -0.93737538952E+02  0.63447176950E+03  0.64518476889E+03  0.00000000000E+00 0. -1.
<mgrwt>
<rscale>  0 0.65476575E+02</rscale>
<asrwt>0</asrwt>
<pdfrwt beam="1">  1        2 0.11984556E+00 0.11635534E+03</pdfrwt>
<pdfrwt beam="2">  1        1 0.13264706E-01 0.36845596E+02</pdfrwt>
<totfact> 0.20257640E+03</totfact>
</mgrwt>
</event>
<event>
 7    1  0.7037933E-004  0.2851626E+02  0.7546771E-02  0.1626014E+00
          2   -1    0    0  503    0  0.00000000000E+00  0.00000000000E+00  0.26428290733E+03  0.26428290733E+03  0.00000000000E+00 0. -1.
          1   -1    0    0  502    0 -0.00000000000E+00 -0.00000000000E+00 -0.10477686935E+04  0.10477686935E+04  0.00000000000E+00 0. -1.
         25    2    1    2    0    0  0.28449532479E+02 -0.44707562985E+02 -0.10420869612E+03  0.17115378747E+03  0.12500409806E+03 0.  0.
          4    1    3    3  501    0  0.18623607437E+01 -0.86012359793E+02 -0.58520957622E+02  0.10405724293E+03  0.12700000000E+01 0. -1.
         -4    1    3    3    0  501  0.26587171735E+02  0.41304796807E+02 -0.45687738499E+02  0.67096544541E+02  0.12700000000E+01 0. -1.
          2    1    1    2  502    0 -0.82880977528E+01  0.27129264125E+02 -0.90909050706E+03  0.90953297882E+03  0.00000000000E+00 0. -1.
          1    1    1    2  503    0 -0.20161434726E+02  0.17578298861E+02  0.22981341700E+03  0.23136483456E+03  0.00000000000E+00 0. -1.
<mgrwt>
<rscale>  0 0.27618221E+02</rscale>
<asrwt>0</asrwt>
<pdfrwt beam="1">  1        2 0.40658909E-01 0.26748459E+02</pdfrwt>
<pdfrwt beam="2">  1        1 0.16119518E+00 0.28516264E+02</pdfrwt>
<totfact> 0.28576144E+02</totfact>
</mgrwt>
</event>
<event>
 7    1  0.7037933E-004  0.5245080E+02  0.7546771E-02  0.1461459E+00
          2   -1    0    0  503    0  0.00000000000E+00  0.00000000000E+00  0.10010574153E+04  0.10010574153E+04  0.00000000000E+00 0. -1.
         -2   -1    0    0    0  501 -0.00000000000E+00 -0.00000000000E+00 -0.15646440826E+02  0.15646440826E+02  0.00000000000E+00 0.  1.
         25    2    1    2    0    0  0.33013488663E+02  0.46082645026E+02  0.40038755676E+03  0.42325948103E+03  0.12499956826E+03 0.  0.
          4    1    3    3  502    0  0.53836654607E+01 -0.41555815731E+02  0.17291659971E+03  0.17792592007E+03  0.12700000000E+01 0. -1.
         -4    1    3    3    0  502  0.27629823202E+02  0.87638460757E+02  0.22747095705E+03  0.24533356096E+03  0.12700000000E+01 0. -1.
          1    1    1    2  503    0  0.22491225638E+02 -0.35885461813E+02  0.21358610578E+03  0.21774445155E+03  0.00000000000E+00 0. -1.
         -1    1    1    2    0  501 -0.55504714302E+02 -0.10197183213E+02  0.37143731194E+03  0.37569992355E+03  0.00000000000E+00 0.  1.
<mgrwt>
<rscale>  0 0.47131230E+02</rscale>
<asrwt>0</asrwt>
<pdfrwt beam="1">  1        2 0.15400878E+00 0.42351170E+02</pdfrwt>
<pdfrwt beam="2">  1       -2 0.24071455E-02 0.52450802E+02</pdfrwt>
<totfact> 0.13866840E+04</totfact>
</mgrwt>
</event>
<event>
 7    1  0.7037933E-004  0.6725820E+02  0.7546771E-02  0.1421528E+00
          1   -1    0    0  503    0  0.00000000000E+00  0.00000000000E+00  0.11014138529E+04  0.11014138529E+04  0.00000000000E+00 0. -1.
         -1   -1    0    0    0  501 -0.00000000000E+00 -0.00000000000E+00 -0.52556335722E+02  0.52556335722E+02  0.00000000000E+00 0.  1.
         25    2    1    2    0    0 -0.71949665344E+02 -0.73965085177E+02  0.12030651767E+03  0.20185482773E+03  0.12499650042E+03 0.  0.
          4    1    3    3  502    0 -0.65008813632E+02 -0.10826225936E+03  0.10204941365E+03  0.16236550858E+03  0.12700000000E+01 0. -1.
         -4    1    3    3    0  502 -0.69408517117E+01  0.34297174184E+02  0.18257104027E+02  0.39489319150E+02  0.12700000000E+01 0. -1.
          2    1    1    2  503    0  0.30012070996E+02  0.59128008003E+02  0.89221784389E+03  0.89467844877E+03  0.00000000000E+00 0. -1.
         -2    1    1    2    0  501  0.41937594348E+02  0.14837077174E+02  0.36333155655E+02  0.57436912161E+02  0.00000000000E+00 0.  1.
<mgrwt>
<rscale>  0 0.54698901E+02</rscale>
<asrwt>0</asrwt>
<pdfrwt beam="1">  1        1 0.16944827E+00 0.67258195E+02</pdfrwt>
<pdfrwt beam="2">  1       -1 0.80855909E-02 0.44484837E+02</pdfrwt>
<totfact> 0.11008228E+03</totfact>
</mgrwt>
</event>
<event>
 7    1  0.7037933E-004  0.2792107E+03  0.7546771E-02  0.1261044E+00
          2   -1    0    0  503    0  0.00000000000E+00  0.00000000000E+00  0.19460339270E+04  0.19460339270E+04  0.00000000000E+00 0. -1.
          1   -1    0    0  502    0 -0.00000000000E+00 -0.00000000000E+00 -0.28009642842E+03  0.28009642842E+03  0.00000000000E+00 0. -1.
         25    2    1    2    0    0 -0.20717541728E+03  0.23220990465E+03  0.21595002133E+02  0.33605903203E+03  0.12500494210E+03 0.  0.
          4    1    3    3  501    0 -0.93472933926E+02  0.14472837431E+03 -0.44725750592E+02  0.17800420606E+03  0.12700000000E+01 0. -1.
         -4    1    3    3    0  501 -0.11370248336E+03  0.87481530334E+02  0.66320752725E+02  0.15805482597E+03  0.12700000000E+01 0. -1.
          2    1    1    2  502    0  0.42023013763E+02 -0.97323115958E+01 -0.10782419302E+03  0.11613228739E+03  0.00000000000E+00 0. -1.
          1    1    1    2  503    0  0.16515240352E+03 -0.22247759305E+03  0.17521666895E+04  0.17739390360E+04  0.00000000000E+00 0. -1.
<mgrwt>
<rscale>  0 0.10974438E+03</rscale>
<asrwt>0</asrwt>
<pdfrwt beam="1">  1        2 0.29938983E+00 0.27921068E+03</pdfrwt>
<pdfrwt beam="2">  1        1 0.43091759E-01 0.43135271E+02</pdfrwt>
<totfact> 0.10291844E+02</totfact>
</mgrwt>
</event>
<event>
 7    1  0.7037933E-004  0.1854164E+03  0.7546771E-02  0.1352933E+00
          1   -1    0    0  502    0 -0.00000000000E+00  0.00000000000E+00  0.67647899028E+03  0.67647899028E+03  0.00000000000E+00 0. -1.
          2   -1    0    0  503    0  0.00000000000E+00 -0.00000000000E+00 -0.45207500840E+03  0.45207500840E+03  0.00000000000E+00 0. -1.
         25    2    1    2    0    0 -0.66764077231E+02 -0.16521213645E+03 -0.67574150885E+02  0.22789295546E+03  0.12496576027E+03 0.  0.
          4    1    3    3  501    0 -0.63297958324E+02 -0.14865372261E+02 -0.57399083668E+01  0.65285299023E+02  0.12700000000E+01 0.  1.
         -4    1    3    3    0  501 -0.34661189072E+01 -0.15034676419E+03 -0.61834242518E+02  0.16260765643E+03  0.12700000000E+01 0.  1.
          2    1    1    2  502    0  0.43632604465E+02  0.18112208929E+03  0.58107162090E+03  0.61020754175E+03  0.00000000000E+00 0. -1.
          1    1    1    2  503    0  0.23131472766E+02 -0.15909952836E+02 -0.28909348814E+03  0.29045350147E+03  0.00000000000E+00 0. -1.
<mgrwt>
<rscale>  0 0.72149286E+02</rscale>
<asrwt>0</asrwt>
<pdfrwt beam="2">  1        2 0.69550001E-01 0.28074751E+02</pdfrwt>
<pdfrwt beam="1">  1        1 0.10407369E+00 0.18541641E+03</pdfrwt>
<totfact> 0.29237150E+02</totfact>
</mgrwt>
</event>
<event>
 7    1  0.7037933E-004  0.2270399E+03  0.7546771E-02  0.1314484E+00
          2   -1    0    0  503    0  0.00000000000E+00  0.00000000000E+00  0.78747669398E+03  0.78747669398E+03  0.00000000000E+00 0. -1.
          1   -1    0    0  502    0 -0.00000000000E+00 -0.00000000000E+00 -0.10411689377E+04  0.10411689377E+04  0.00000000000E+00 0. -1.
         25    2    1    2    0    0 -0.14878534153E+03 -0.12812965902E+03 -0.36188958819E+03  0.43028225465E+03  0.12499782900E+03 0.  0.
          4    1    3    3  501    0  0.11968791016E+02 -0.54570982226E+02 -0.92150590166E+02  0.10777099901E+03  0.12700000000E+01 0.  1.
         -4    1    3    3    0  501 -0.16075413254E+03 -0.73558676792E+02 -0.26973899802E+03  0.32251125564E+03  0.12700000000E+01 0.  1.
          2    1    1    2  502    0 -0.25709031370E+02 -0.19213852850E+02 -0.62735292734E+03  0.62817340113E+03  0.00000000000E+00 0. -1.
          1    1    1    2  503    0  0.17449437290E+03  0.14734351187E+03  0.73555027180E+03  0.77018997592E+03  0.00000000000E+00 0. -1.
<mgrwt>
<rscale>  0 0.85363789E+02</rscale>
<asrwt>0</asrwt>
<pdfrwt beam="1">  1        2 0.12115026E+00 0.22703986E+03</pdfrwt>
<pdfrwt beam="2">  1        1 0.16017983E+00 0.32095583E+02</pdfrwt>
<totfact> 0.86228761E+01</totfact>
</mgrwt>
</event>
<event>
 7    1  0.7037933E-004  0.4795287E+02  0.7546771E-02  0.1491708E+00
          2   -1    0    0  503    0  0.00000000000E+00  0.00000000000E+00  0.40670839282E+03  0.40670839282E+03  0.00000000000E+00 0. -1.
         -2   -1    0    0    0  501 -0.00000000000E+00 -0.00000000000E+00 -0.56610392823E+02  0.56610392823E+02  0.00000000000E+00 0.  1.
         25    2    1    2    0    0 -0.23590806985E+02  0.39178782096E+02  0.35127650929E+03  0.37564736353E+03  0.12499701041E+03 0.  0.
          4    1    3    3  502    0 -0.72991051466E+02  0.74968530962E+01  0.21786929942E+03  0.22989680496E+03  0.12700000000E+01 0. -1.
         -4    1    3    3    0  502  0.49400244481E+02  0.31681929000E+02  0.13340720987E+03  0.14575055858E+03  0.12700000000E+01 0. -1.
          1    1    1    2  503    0  0.36523317047E+02  0.79237975725E+01  0.73442376160E+01  0.38087755017E+02  0.00000000000E+00 0. -1.
         -1    1    1    2    0  501 -0.12932510062E+02 -0.47102579669E+02 -0.85227469033E+01  0.49583667096E+02  0.00000000000E+00 0.  1.
<mgrwt>
<rscale>  0 0.42333690E+02</rscale>
<asrwt>0</asrwt>
<pdfrwt beam="1">  1        2 0.62570520E-01 0.37372975E+02</pdfrwt>
<pdfrwt beam="2">  1       -2 0.87092915E-02 0.47952867E+02</pdfrwt>
<totfact> 0.57564839E+03</totfact>
</mgrwt>
</event>
<event>
 7    1  0.7037933E-004  0.6934418E+02  0.7546771E-02  0.1366741E+00
          2   -1    0    0  503    0  0.00000000000E+00  0.00000000000E+00  0.25454946954E+03  0.25454946954E+03  0.00000000000E+00 0. -1.
         -2   -1    0    0    0  501 -0.00000000000E+00 -0.00000000000E+00 -0.43632407521E+03  0.43632407521E+03  0.00000000000E+00 0.  1.
         25    2    1    2    0    0 -0.39094443233E+01  0.10698719212E+02 -0.11680643154E+03  0.17145621592E+03  0.12499498063E+03 0.  0.
          4    1    3    3  502    0 -0.28182353251E+02  0.55879382822E+02 -0.99039536029E+02  0.11716310450E+03  0.12700000000E+01 0.  1.
         -4    1    3    3    0  502  0.24272908928E+02 -0.45180663610E+02 -0.17766895509E+02  0.54293111424E+02  0.12700000000E+01 0.  1.
          1    1    1    2  503    0 -0.45680236364E+02 -0.55517687831E+02  0.21753832850E+03  0.22911093824E+03  0.00000000000E+00 0. -1.
         -1    1    1    2    0  501  0.49589680687E+02  0.44818968619E+02 -0.28250650263E+03  0.29030639058E+03  0.00000000000E+00 0.  1.
<mgrwt>
<rscale>  0 0.68081683E+02</rscale>
<asrwt>0</asrwt>
<pdfrwt beam="1">  1        2 0.39161457E-01 0.69344177E+02</pdfrwt>
<pdfrwt beam="2">  1       -2 0.67126781E-01 0.66842175E+02</pdfrwt>
<totfact> 0.27527422E+02</totfact>
</mgrwt>
</event>
<event>
 7    1  0.7037933E-004  0.3951671E+02  0.7546771E-02  0.1613764E+00
          2   -1    0    0  503    0  0.00000000000E+00  0.00000000000E+00  0.19754326762E+04  0.19754326762E+04  0.00000000000E+00 0. -1.
         -2   -1    0    0    0  501 -0.00000000000E+00 -0.00000000000E+00 -0.14903489631E+02  0.14903489631E+02  0.00000000000E+00 0.  1.
         25    2    1    2    0    0  0.11716657042E+02 -0.23140810471E+02  0.64518228908E+03  0.65769179249E+03  0.12500212239E+03 0.  0.
          4    1    3    3  502    0  0.36376408822E+02 -0.26942851265E+02  0.79771468351E+02  0.91729277856E+02  0.12700000000E+01 0. -1.
         -4    1    3    3    0  502 -0.24659751780E+02  0.38020407939E+01  0.56541082073E+03  0.56596251464E+03  0.12700000000E+01 0. -1.
          1    1    1    2  503    0 -0.32441158920E+02  0.23948117729E+02  0.13107892112E+04  0.13114092791E+04  0.00000000000E+00 0. -1.
         -1    1    1    2    0  501  0.20724501878E+02 -0.80730725772E+00  0.45576862991E+01  0.21235094243E+02  0.00000000000E+00 0.  1.
<mgrwt>
<rscale>  0 0.28628401E+02</rscale>
<asrwt>0</asrwt>
<pdfrwt beam="1">  1        2 0.30391251E+00 0.39516714E+02</pdfrwt>
<pdfrwt beam="2">  1       -2 0.22928461E-02 0.20740220E+02</pdfrwt>
<totfact> 0.41610443E+03</totfact>
</mgrwt>
</event>
<event>
 7    1  0.7037933E-004  0.8258074E+02  0.7546771E-02  0.1342393E+00
          1   -1    0    0  502    0 -0.00000000000E+00  0.00000000000E+00  0.15135125006E+04  0.15135125006E+04  0.00000000000E+00 0. -1.
          2   -1    0    0  503    0  0.00000000000E+00 -0.00000000000E+00 -0.35673277552E+03  0.35673277552E+03  0.00000000000E+00 0. -1.
         25    2    1    2    0    0  0.29095789644E+02 -0.52516751408E+01  0.12551505617E+03  0.17961135308E+03  0.12502825187E+03 0.  0.
          4    1    3    3  501    0  0.19278140097E+02 -0.55343357372E+02  0.19221267610E+02  0.61689577072E+02  0.12700000000E+01 0.  1.
         -4    1    3    3    0  501  0.98176495477E+01  0.50091682231E+02  0.10629378856E+03  0.11792177601E+03  0.12700000000E+01 0.  1.
          2    1    1    2  502    0  0.37347299927E+02  0.58005598780E+02  0.13545989132E+04  0.13563545576E+04  0.00000000000E+00 0. -1.
          1    1    1    2  503    0 -0.66443089572E+02 -0.52753923639E+02 -0.32333424430E+03  0.33427936542E+03  0.00000000000E+00 0. -1.
<mgrwt>
<rscale>  0 0.75479507E+02</rscale>
<asrwt>0</asrwt>
<pdfrwt beam="2">  1        2 0.54881967E-01 0.82580745E+02</pdfrwt>
<pdfrwt beam="1">  1        1 0.23284807E+00 0.68988914E+02</pdfrwt>
<totfact> 0.98969756E+01</totfact>
</mgrwt>
</event>
<event>
 7    1  0.7037933E-004  0.7860585E+02  0.7546771E-02  0.1447700E+00
          2   -1    0    0  503    0  0.00000000000E+00  0.00000000000E+00  0.60045098538E+03  0.60045098538E+03  0.00000000000E+00 0. -1.
          1   -1    0    0  502    0 -0.00000000000E+00 -0.00000000000E+00 -0.43257855068E+03  0.43257855068E+03  0.00000000000E+00 0. -1.
         25    2    1    2    0    0  0.58677186772E+02  0.39916781110E+02  0.15066453044E+03  0.20823539343E+03  0.12500326669E+03 0.  0.
          4    1    3    3  501    0 -0.29992932241E+02  0.38349270141E+02  0.84692504456E+02  0.97696856222E+02  0.12700000000E+01 0.  1.
         -4    1    3    3    0  501  0.88670119013E+02  0.15675109695E+01  0.65972025981E+02  0.11053853721E+03  0.12700000000E+01 0.  1.
          2    1    1    2  502    0 -0.14974964725E+02  0.27432528005E+02 -0.39934933208E+03  0.40057044598E+03  0.00000000000E+00 0. -1.
          1    1    1    2  503    0 -0.43702222047E+02 -0.67349309115E+02  0.41655723634E+03  0.42422369665E+03  0.00000000000E+00 0. -1.
<mgrwt>
<rscale>  0 0.49565341E+02</rscale>
<asrwt>0</asrwt>
<pdfrwt beam="1">  1        2 0.92377075E-01 0.78605853E+02</pdfrwt>
<pdfrwt beam="2">  1        1 0.66550546E-01 0.31253690E+02</pdfrwt>
<totfact> 0.40079554E+02</totfact>
</mgrwt>
</event>
<event>
 7    1  0.7037933E-004  0.6159538E+02  0.7546771E-02  0.1411222E+00
          1   -1    0    0  503    0  0.00000000000E+00  0.00000000000E+00  0.90900903063E+03  0.90900903063E+03  0.00000000000E+00 0. -1.
         -1   -1    0    0    0  501 -0.00000000000E+00 -0.00000000000E+00 -0.40760582751E+02  0.40760582751E+02  0.00000000000E+00 0.  1.
         25    2    1    2    0    0 -0.10258361940E+03 -0.38429095939E+02  0.48628491280E+03  0.51390511990E+03  0.12500104584E+03 0.  0.
          4    1    3    3  502    0 -0.40195016419E+02  0.40253958134E+02  0.10288210299E+03  0.11756853536E+03  0.12700000000E+01 0.  1.
         -4    1    3    3    0  502 -0.62388602981E+02 -0.78683054073E+02  0.38340280980E+03  0.39633658454E+03  0.12700000000E+01 0.  1.
          2    1    1    2  503    0  0.45375307775E+02  0.26611636852E+02  0.37308780725E+03  0.37677793153E+03  0.00000000000E+00 0. -1.
         -2    1    1    2    0  501  0.57208311625E+02  0.11817459087E+02  0.88757278341E+01  0.59086561948E+02  0.00000000000E+00 0.  1.
<mgrwt>
<rscale>  0 0.56922004E+02</rscale>
<asrwt>0</asrwt>
<pdfrwt beam="1">  1        1 0.13984753E+00 0.52603211E+02</pdfrwt>
<pdfrwt beam="2">  1       -1 0.62708595E-02 0.61595375E+02</pdfrwt>
<totfact> 0.22876354E+03</totfact>
</mgrwt>
</event>
<event>
 7    1  0.7037933E-004  0.3373503E+02  0.7546771E-02  0.1631029E+00
          1   -1    0    0  502    0 -0.00000000000E+00  0.00000000000E+00  0.74696284875E+03  0.74696284875E+03  0.00000000000E+00 0. -1.
          2   -1    0    0  503    0  0.00000000000E+00 -0.00000000000E+00 -0.12915984904E+04  0.12915984904E+04  0.00000000000E+00 0. -1.
         25    2    1    2    0    0 -0.10668074525E+02  0.46897054380E+02  0.81098881067E+02  0.15657864259E+03  0.12500680494E+03 0.  0.
          4    1    3    3  501    0 -0.30454847655E+02  0.30645036357E+02  0.10985581945E+03  0.11805308113E+03  0.12700000000E+01 0.  1.
         -4    1    3    3    0  501  0.19786773130E+02  0.16252018023E+02 -0.28756938379E+02  0.38525561458E+02  0.12700000000E+01 0.  1.
          2    1    1    2  502    0 -0.94364109918E+01 -0.19831603080E+02  0.62770536100E+03  0.62808945108E+03  0.00000000000E+00 0. -1.
          1    1    1    2  503    0  0.20104485517E+02 -0.27065451300E+02 -0.12534398837E+04  0.12538932455E+04  0.00000000000E+00 0. -1.
<mgrwt>
<rscale>  0 0.27219396E+02</rscale>
<asrwt>0</asrwt>
<pdfrwt beam="2">  1        2 0.19870746E+00 0.33735028E+02</pdfrwt>
<pdfrwt beam="1">  1        1 0.11491736E+00 0.21962202E+02</pdfrwt>
<totfact> 0.81026784E+01</totfact>
</mgrwt>
</event>
<event>
 7    1  0.7037933E-004  0.5730292E+02  0.7546771E-02  0.1429569E+00
          1   -1    0    0  502    0 -0.00000000000E+00  0.00000000000E+00  0.44825941003E+03  0.44825941003E+03  0.00000000000E+00 0. -1.
          2   -1    0    0  503    0  0.00000000000E+00 -0.00000000000E+00 -0.43335320388E+03  0.43335320388E+03  0.00000000000E+00 0. -1.
         25    2    1    2    0    0  0.53077635011E+01 -0.68859742348E+02 -0.18552028701E+02  0.14401129324E+03  0.12500095337E+03 0.  0.
          4    1    3    3  501    0 -0.15429431708E+02 -0.96718094091E+02 -0.36952804676E+02  0.10468801154E+03  0.12700000000E+01 0.  1.
         -4    1    3    3    0  501  0.20737195209E+02  0.27858351743E+02  0.18400775975E+02  0.39323281698E+02  0.12700000000E+01 0.  1.
          2    1    1    2  502    0 -0.43337994869E+02  0.37792988539E+02  0.38165316788E+03  0.38596066164E+03  0.00000000000E+00 0. -1.
          1    1    1    2  503    0  0.38030231368E+02  0.31066753809E+02 -0.34819493304E+03  0.35164065903E+03  0.00000000000E+00 0. -1.
<mgrwt>
<rscale>  0 0.53046603E+02</rscale>
<asrwt>0</asrwt>
<pdfrwt beam="2">  1        2 0.66669724E-01 0.49106432E+02</pdfrwt>
<pdfrwt beam="1">  1        1 0.68962986E-01 0.57302923E+02</pdfrwt>
<totfact> 0.54251248E+02</totfact>
</mgrwt>
</event>
<event>
 7    1  0.7037933E-004  0.1341288E+03  0.7546771E-02  0.1275321E+00
         -2   -1    0    0    0  501 -0.00000000000E+00  0.00000000000E+00  0.23283664563E+03  0.23283664563E+03  0.00000000000E+00 0.  1.
          2   -1    0    0  503    0  0.00000000000E+00 -0.00000000000E+00 -0.28600070517E+04  0.28600070517E+04  0.00000000000E+00 0. -1.
         25    2    1    2    0    0 -0.12298624499E+03 -0.13752708624E+03 -0.54700229851E+03  0.59065633016E+03  0.12499627945E+03 0.  0.
          4    1    3    3  502    0 -0.99989335724E+02 -0.15393747714E+03 -0.52041541004E+03  0.55184094270E+03  0.12700000000E+01 0.  1.
         -4    1    3    3    0  502 -0.22996909266E+02  0.16410390903E+02 -0.26586888467E+02  0.38815387461E+02  0.12700000000E+01 0.  1.
          3    1    1    2  503    0  0.46304074631E+02  0.12228287772E+03 -0.22819994018E+04  0.22857424263E+04  0.00000000000E+00 0. -1.
         -1    1    1    2    0  501  0.76682170359E+02  0.15244208519E+02  0.20183129419E+03  0.21644494094E+03  0.00000000000E+00 0.  1.
<mgrwt>
<rscale>  0 0.10240388E+03</rscale>
<asrwt>0</asrwt>
<pdfrwt beam="2">  1        2 0.44000108E+00 0.13412875E+03</pdfrwt>
<pdfrwt beam="1">  1       -2 0.35821023E-01 0.78182742E+02</pdfrwt>
<totfact> 0.20428880E+01</totfact>
</mgrwt>
</event>
<event>
 7    1  0.7037933E-004  0.1177280E+03  0.7546771E-02  0.1341588E+00
          2   -1    0    0  503    0  0.00000000000E+00  0.00000000000E+00  0.19576983445E+04  0.19576983445E+04  0.00000000000E+00 0. -1.
          1   -1    0    0  502    0 -0.00000000000E+00 -0.00000000000E+00 -0.78707023117E+03  0.78707023117E+03  0.00000000000E+00 0. -1.
         25    2    1    2    0    0  0.59365771340E+02 -0.68064568252E+02  0.12194727346E+03  0.19660581804E+03  0.12500251968E+03 0.  0.
          4    1    3    3  501    0  0.35667061120E+02  0.23587199400E-01 -0.17402075644E+02  0.39706233037E+02  0.12700000000E+01 0.  1.
         -4    1    3    3    0  501  0.23698710220E+02 -0.68088155452E+02  0.13934934910E+03  0.15689958500E+03  0.12700000000E+01 0.  1.
          2    1    1    2  502    0 -0.10591513623E+03  0.53650180958E+02 -0.74470751070E+03  0.75411248133E+03  0.00000000000E+00 0. -1.
          1    1    1    2  503    0  0.46549364888E+02  0.14414387295E+02  0.17933883506E+04  0.17940502763E+04  0.00000000000E+00 0. -1.
<mgrwt>
<rscale>  0 0.75742282E+02</rscale>
<asrwt>0</asrwt>
<pdfrwt beam="1">  1        2 0.30118436E+00 0.48730052E+02</pdfrwt>
<pdfrwt beam="2">  1        1 0.12108773E+00 0.11772804E+03</pdfrwt>
<totfact> 0.31722842E+01</totfact>
</mgrwt>
</event>
<event>
 7    1  0.7037933E-004  0.8473268E+02  0.7546771E-02  0.1411195E+00
          1   -1    0    0  502    0 -0.00000000000E+00  0.00000000000E+00  0.61086653411E+03  0.61086653411E+03  0.00000000000E+00 0. -1.
          2   -1    0    0  503    0  0.00000000000E+00 -0.00000000000E+00 -0.84900713225E+02  0.84900713225E+02  0.00000000000E+00 0. -1.
         25    2    1    2    0    0 -0.31646725191E+02 -0.11474032458E+03  0.38276068366E+03  0.41987778480E+03  0.12499902366E+03 0.  0.
          4    1    3    3  501    0 -0.36055431558E+01 -0.12818143937E+03  0.22413422590E+03  0.25822711992E+03  0.12700000000E+01 0.  1.
         -4    1    3    3    0  501 -0.28041182035E+02  0.13441114792E+02  0.15862645776E+03  0.16165066488E+03  0.12700000000E+01 0.  1.
          2    1    1    2  502    0  0.18996245145E+02  0.33196267020E+02  0.18109287723E+03  0.18508776204E+03  0.00000000000E+00 0. -1.
          3    1    1    2  503    0  0.12650480046E+02  0.81544057559E+02 -0.37887740008E+02  0.90801700488E+02  0.00000000000E+00 0. -1.
<mgrwt>
<rscale>  0 0.56927929E+02</rscale>
<asrwt>0</asrwt>
<pdfrwt beam="2">  1        2 0.13061649E-01 0.84732682E+02</pdfrwt>
<pdfrwt beam="1">  1        1 0.93979464E-01 0.38247215E+02</pdfrwt>
<totfact> 0.21624542E+03</totfact>
</mgrwt>
</event>
<event>
 7    1  0.7037933E-004  0.8953581E+02  0.7546771E-02  0.1461032E+00
          1   -1    0    0  502    0 -0.00000000000E+00  0.00000000000E+00  0.82560595950E+03  0.82560595950E+03  0.00000000000E+00 0. -1.
          2   -1    0    0  503    0  0.00000000000E+00 -0.00000000000E+00 -0.64009722775E+03  0.64009722775E+03  0.00000000000E+00 0. -1.
         25    2    1    2    0    0  0.53882139232E+02  0.36497570024E+02  0.25204746734E+03  0.28876757456E+03  0.12499371494E+03 0.  0.
          4    1    3    3  501    0  0.82452705666E+02  0.39863421239E+02  0.10681348464E+03  0.14070634110E+03  0.12700000000E+01 0.  1.
         -4    1    3    3    0  501 -0.28570566434E+02 -0.33658512148E+01  0.14523398270E+03  0.14806123346E+03  0.12700000000E+01 0.  1.
          2    1    1    2  502    0  0.22163063270E+02  0.11320092924E+02  0.55167174908E+03  0.55223279929E+03  0.00000000000E+00 0. -1.
          1    1    1    2  503    0 -0.76045202501E+02 -0.47817662948E+02 -0.61821048468E+03  0.62470281340E+03  0.00000000000E+00 0. -1.
<mgrwt>
<rscale>  0 0.47204315E+02</rscale>
<asrwt>0</asrwt>
<pdfrwt beam="2">  1        2 0.98476496E-01 0.89535811E+02</pdfrwt>
<pdfrwt beam="1">  1        1 0.12701630E+00 0.24886661E+02</pdfrwt>
<totfact> 0.16391086E+02</totfact>
</mgrwt>
</event>
<event>
 7    1  0.7037933E-004  0.9064369E+02  0.7546771E-02  0.1466360E+00
          2   -1    0    0  503    0  0.00000000000E+00  0.00000000000E+00  0.98873587593E+03  0.98873587593E+03  0.00000000000E+00 0. -1.
          1   -1    0    0  502    0 -0.00000000000E+00 -0.00000000000E+00 -0.71469678599E+02  0.71469678599E+02  0.00000000000E+00 0. -1.
         25    2    1    2    0    0  0.10858120415E+03 -0.15900001882E+02  0.33398931952E+03  0.37311807951E+03  0.12500219098E+03 0.  0.
          4    1    3    3  501    0  0.12511758669E+03 -0.65732044570E+01  0.18821030897E+03  0.22610252280E+03  0.12700000000E+01 0. -1.
         -4    1    3    3    0  501 -0.16536382535E+02 -0.93267974255E+01  0.14577901055E+03  0.14701555671E+03  0.12700000000E+01 0. -1.
          2    1    1    2  502    0 -0.23237384696E+02 -0.44194780960E+01 -0.45999682364E+02  0.51725028871E+02  0.00000000000E+00 0. -1.
          1    1    1    2  503    0 -0.85343819457E+02  0.20319479978E+02  0.62927656017E+03  0.63536244614E+03  0.00000000000E+00 0. -1.
<mgrwt>
<rscale>  0 0.46304195E+02</rscale>
<asrwt>0</asrwt>
<pdfrwt beam="1">  1        2 0.15211320E+00 0.90643693E+02</pdfrwt>
<pdfrwt beam="2">  1        1 0.10995336E-01 0.23653918E+02</pdfrwt>
<totfact> 0.18403390E+03</totfact>
</mgrwt>
</event>
<event>
 7    1  0.7037933E-004  0.5847330E+02  0.7546771E-02  0.1431171E+00
          2   -1    0    0  503    0  0.00000000000E+00  0.00000000000E+00  0.33788459810E+04  0.33788459810E+04  0.00000000000E+00 0. -1.
          1   -1    0    0  502    0 -0.00000000000E+00 -0.00000000000E+00 -0.21838577997E+03  0.21838577997E+03  0.00000000000E+00 0. -1.
         25    2    1    2    0    0  0.31904198090E+02  0.39593193997E+01  0.73245753370E+03  0.74374153252E+03  0.12499549776E+03 0.  0.
          4    1    3    3  501    0  0.37605448196E+02  0.39565942194E+02  0.14127897839E+03  0.15146285403E+03  0.12700000000E+01 0. -1.
         -4    1    3    3    0  501 -0.57012501065E+01 -0.35606622795E+02  0.59117855531E+03  0.59227867850E+03  0.12700000000E+01 0. -1.
          2    1    1    2  502    0  0.45850384209E+00  0.47540807680E+02 -0.20973262547E+03  0.21505374400E+03  0.00000000000E+00 0. -1.
          1    1    1    2  503    0 -0.32362701932E+02 -0.51500127080E+02  0.26377352928E+04  0.26384364845E+04  0.00000000000E+00 0. -1.
<mgrwt>
<rscale>  0 0.52725678E+02</rscale>
<asrwt>0</asrwt>
<pdfrwt beam="1">  1        2 0.51982242E+00 0.58473297E+02</pdfrwt>
<pdfrwt beam="2">  1        1 0.33597815E-01 0.47543019E+02</pdfrwt>
<totfact> 0.27976965E+01</totfact>
</mgrwt>
</event>
<event>
 7    1  0.7037933E-004  0.7513514E+02  0.7546771E-02  0.1374855E+00
          2   -1    0    0  503    0  0.00000000000E+00  0.00000000000E+00  0.87324238342E+03  0.87324238342E+03  0.00000000000E+00 0. -1.
          1   -1    0    0  502    0 -0.00000000000E+00 -0.00000000000E+00 -0.67681920751E+02  0.67681920751E+02  0.00000000000E+00 0. -1.
         25    2    1    2    0    0  0.28728278129E+02 -0.24922111408E+02  0.12436089864E+03  0.18037948567E+03  0.12499880055E+03 0.  0.
          4    1    3    3  501    0  0.68013191540E+02 -0.20317210945E+01  0.11547092828E+03  0.13403384010E+03  0.12700000000E+01 0.  1.
         -4    1    3    3    0  501 -0.39284913411E+02 -0.22890390314E+02  0.88899703616E+01  0.46345645572E+02  0.12700000000E+01 0.  1.
          2    1    1    2  502    0 -0.33259513869E+02  0.82431460200E+02  0.12969771375E+02  0.89829593470E+02  0.00000000000E+00 0. -1.
          1    1    1    2  503    0  0.45312357397E+01 -0.57509348792E+02  0.66822979265E+03  0.67071522503E+03  0.00000000000E+00 0. -1.
<mgrwt>
<rscale>  0 0.65835892E+02</rscale>
<asrwt>0</asrwt>
<pdfrwt beam="1">  1        2 0.13434497E+00 0.57687584E+02</pdfrwt>
<pdfrwt beam="2">  1        1 0.10412604E-01 0.75135139E+02</pdfrwt>
<totfact> 0.25837153E+03</totfact>
</mgrwt>
</event>
<event>
 7    1  0.7037933E-004  0.5345176E+02  0.7546771E-02  0.1471103E+00
          2   -1    0    0  503    0  0.00000000000E+00  0.00000000000E+00  0.75562049643E+02  0.75562049643E+02  0.00000000000E+00 0. -1.
          1   -1    0    0  502    0 -0.00000000000E+00 -0.00000000000E+00 -0.29867109990E+03  0.29867109990E+03  0.00000000000E+00 0. -1.
         25    2    1    2    0    0  0.16876928914E+02  0.39484017958E+02 -0.22177819799E+03  0.25817455867E+03  0.12499886095E+03 0.  0.
          4    1    3    3  501    0 -0.28972527313E+02 -0.78513174432E+01 -0.17448011007E+03  0.17704793768E+03  0.12700000000E+01 0.  1.
         -4    1    3    3    0  501  0.45849456227E+02  0.47335335401E+02 -0.47298087913E+02  0.81126620995E+02  0.12700000000E+01 0.  1.
          2    1    1    2  502    0 -0.50847240593E+02 -0.58169733760E+02 -0.19099434778E+01  0.77283941966E+02  0.00000000000E+00 0. -1.
          1    1    1    2  503    0  0.33970311679E+02  0.18685715802E+02  0.57909121284E+00  0.38774648899E+02  0.00000000000E+00 0. -1.
<mgrwt>
<rscale>  0 0.45522982E+02</rscale>
<asrwt>0</asrwt>
<pdfrwt beam="1">  1        2 0.11624931E-01 0.38770324E+02</pdfrwt>
<pdfrwt beam="2">  1        1 0.45949400E-01 0.53451756E+02</pdfrwt>
<totfact> 0.56436055E+03</totfact>
</mgrwt>
</event>
<event>
 7    1  0.7037933E-004  0.2471426E+03  0.7546771E-02  0.1192565E+00
          1   -1    0    0  502    0 -0.00000000000E+00  0.00000000000E+00  0.24351793825E+03  0.24351793825E+03  0.00000000000E+00 0. -1.
          2   -1    0    0  503    0  0.00000000000E+00 -0.00000000000E+00 -0.16405782826E+04  0.16405782826E+04  0.00000000000E+00 0. -1.
         25    2    1    2    0    0 -0.16863586681E+03 -0.35753993816E+02 -0.24645236089E+03  0.32569962352E+03  0.12500029968E+03 0.  0.
          4    1    3    3  501    0 -0.15474061912E+03 -0.62909536533E+02 -0.14992113497E+03  0.22445540449E+03  0.12700000000E+01 0. -1.
         -4    1    3    3    0  501 -0.13895247690E+02  0.27155542717E+02 -0.96531225920E+02  0.10124421903E+03  0.12700000000E+01 0. -1.
          2    1    1    2  502    0  0.26770077234E+03  0.41899245133E+02  0.11105514596E+03  0.29283527058E+03  0.00000000000E+00 0. -1.
          1    1    1    2  503    0 -0.99064905526E+02 -0.61452513176E+01 -0.12616631294E+04  0.12655613267E+04  0.00000000000E+00 0. -1.
<mgrwt>
<rscale>  0 0.15662127E+03</rscale>
<asrwt>0</asrwt>
<pdfrwt beam="2">  1        2 0.25239666E+00 0.99255325E+02</pdfrwt>
<pdfrwt beam="1">  1        1 0.37464298E-01 0.24714262E+03</pdfrwt>
<totfact> 0.19506905E+02</totfact>
</mgrwt>
</event>
<event>
 7    1  0.7037933E-004  0.9388218E+02  0.7546771E-02  0.1308428E+00
          2   -1    0    0  503    0  0.00000000000E+00  0.00000000000E+00  0.35605330057E+03  0.35605330057E+03  0.00000000000E+00 0. -1.
          1   -1    0    0  502    0 -0.00000000000E+00 -0.00000000000E+00 -0.91206042280E+03  0.91206042280E+03  0.00000000000E+00 0. -1.
         25    2    1    2    0    0  0.71804694035E+02 -0.15080389491E+03 -0.20418571406E+03  0.29191548029E+03  0.12500045202E+03 0.  0.
          4    1    3    3  501    0  0.58208691225E+02 -0.37719181291E+01 -0.79736788297E+02  0.98803073881E+02  0.12700000000E+01 0.  1.
         -4    1    3    3    0  501  0.13596002810E+02 -0.14703197678E+03 -0.12444892576E+03  0.19311240641E+03  0.12700000000E+01 0.  1.
          2    1    1    2  502    0 -0.11655243428E+02  0.81160401708E+02 -0.65461502129E+03  0.65973000660E+03  0.00000000000E+00 0. -1.
          1    1    1    2  503    0 -0.60149450607E+02  0.69643493198E+02  0.30279361312E+03  0.31646823648E+03  0.00000000000E+00 0. -1.
<mgrwt>
<rscale>  0 0.87736446E+02</rscale>
<asrwt>0</asrwt>
<pdfrwt beam="1">  1        2 0.54777431E-01 0.93882184E+02</pdfrwt>
<pdfrwt beam="2">  1        1 0.14031699E+00 0.81993021E+02</pdfrwt>
<totfact> 0.24839537E+02</totfact>
</mgrwt>
</event>
<event>
 7    1  0.7037933E-004  0.1202831E+03  0.7546771E-02  0.1434459E+00
          1   -1    0    0  502    0 -0.00000000000E+00  0.00000000000E+00  0.58649373134E+03  0.58649373134E+03  0.00000000000E+00 0. -1.
          2   -1    0    0  503    0  0.00000000000E+00 -0.00000000000E+00 -0.13039490770E+04  0.13039490770E+04  0.00000000000E+00 0. -1.
         25    2    1    2    0    0  0.69585461874E+02 -0.71399976569E+02 -0.49056858365E+02  0.16726782382E+03  0.12502742249E+03 0.  0.
          4    1    3    3  501    0 -0.69434400592E+01 -0.24161340784E+01  0.34070275099E+02  0.34877580321E+02  0.12700000000E+01 0.  1.
         -4    1    3    3    0  501  0.76528901933E+02 -0.68983842491E+02 -0.83127133464E+02  0.13239024350E+03  0.12700000000E+01 0.  1.
          2    1    1    2  502    0  0.19914927469E+02 -0.10568539937E+02  0.52406587181E+03  0.52455060420E+03  0.00000000000E+00 0. -1.
          1    1    1    2  503    0 -0.89500389344E+02  0.81968516507E+02 -0.11924643591E+04  0.11986243803E+04  0.00000000000E+00 0. -1.
<mgrwt>
<rscale>  0 0.52075329E+02</rscale>
<asrwt>0</asrwt>
<pdfrwt beam="2">  1        2 0.20060755E+00 0.12028312E+03</pdfrwt>
<pdfrwt beam="1">  1        1 0.90229806E-01 0.22545473E+02</pdfrwt>
<totfact> 0.99402970E+01</totfact>
</mgrwt>
</event>
<event>
 7    1  0.7037933E-004  0.2639740E+02  0.7546771E-02  0.1691743E+00
          1   -1    0    0  502    0 -0.00000000000E+00  0.00000000000E+00  0.92277709312E+03  0.92277709312E+03  0.00000000000E+00 0. -1.
          2   -1    0    0  503    0  0.00000000000E+00 -0.00000000000E+00 -0.10563619688E+04  0.10563619688E+04  0.00000000000E+00 0. -1.
         25    2    1    2    0    0 -0.34048557043E+02 -0.26118365076E+02 -0.12139671197E+03  0.17944928479E+03  0.12499364345E+03 0.  0.
          4    1    3    3  501    0  0.36288798325E+01  0.29129936936E+02  0.10792674245E+02  0.31302024089E+02  0.12700000000E+01 0. -1.
         -4    1    3    3    0  501 -0.37677436876E+02 -0.55248302012E+02 -0.13218938621E+03  0.14814726070E+03  0.12700000000E+01 0. -1.
          2    1    1    2  502    0  0.14447198048E+02  0.22071190403E+02  0.89344556685E+03  0.89383490640E+03  0.00000000000E+00 0. -1.
          1    1    1    2  503    0  0.19601358995E+02  0.40471746734E+01 -0.90563373059E+03  0.90585487076E+03  0.00000000000E+00 0. -1.
<mgrwt>
<rscale>  0 0.22985627E+02</rscale>
<asrwt>0</asrwt>
<pdfrwt beam="2">  1        2 0.16251723E+00 0.20014817E+02</pdfrwt>
<pdfrwt beam="1">  1        1 0.14196571E+00 0.26397397E+02</pdfrwt>
<totfact> 0.81300398E+01</totfact>
</mgrwt>
</event>
<event>
 7    1  0.7037933E-004  0.8615045E+02  0.7546771E-02  0.1342699E+00
          1   -1    0    0  502    0 -0.00000000000E+00  0.00000000000E+00  0.18546829419E+03  0.18546829419E+03  0.00000000000E+00 0. -1.
          2   -1    0    0  503    0  0.00000000000E+00 -0.00000000000E+00 -0.58512164448E+03  0.58512164448E+03  0.00000000000E+00 0. -1.
         25    2    1    2    0    0 -0.10828163796E+03 -0.18089878095E+02  0.88289577961E+01  0.16660159017E+03  0.12500393012E+03 0.  0.
          4    1    3    3  501    0  0.21435461748E+02 -0.14388101776E+02 -0.21161345149E+02  0.33405267872E+02  0.12700000000E+01 0.  1.
         -4    1    3    3    0  501 -0.12971709971E+03 -0.37017763188E+01  0.29990302945E+02  0.13319632230E+03  0.12700000000E+01 0.  1.
          2    1    1    2  502    0  0.75115750233E+02 -0.38920458268E+02  0.76790472247E+02  0.11425390423E+03  0.00000000000E+00 0. -1.
          1    1    1    2  503    0  0.33165887724E+02  0.57010336363E+02 -0.48527278033E+03  0.48973444426E+03  0.00000000000E+00 0. -1.
<mgrwt>
<rscale>  0 0.75379794E+02</rscale>
<asrwt>0</asrwt>
<pdfrwt beam="2">  1        2 0.90018714E-01 0.65955702E+02</pdfrwt>
<pdfrwt beam="1">  1        1 0.28533584E-01 0.86150450E+02</pdfrwt>
<totfact> 0.11518050E+03</totfact>
</mgrwt>
</event>
<event>
 7    1  0.7037933E-004  0.7555394E+02  0.7546771E-02  0.1354665E+00
         -2   -1    0    0    0  501 -0.00000000000E+00  0.00000000000E+00  0.78204439579E+02  0.78204439579E+02  0.00000000000E+00 0.  1.
          2   -1    0    0  503    0  0.00000000000E+00 -0.00000000000E+00 -0.37244040953E+03  0.37244040953E+03  0.00000000000E+00 0. -1.
         25    2    1    2    0    0  0.37226438188E+02  0.55195964038E+02 -0.95931590382E+02  0.17106028469E+03  0.12500539516E+03 0.  0.
          4    1    3    3  502    0  0.78060187919E+00  0.23976673226E+02 -0.11641450244E+03  0.11886731879E+03  0.12700000000E+01 0. -1.
         -4    1    3    3    0  502  0.36445836309E+02  0.31219290813E+02  0.20482912057E+02  0.52192965900E+02  0.12700000000E+01 0. -1.
          1    1    1    2  503    0 -0.61675062266E+02  0.28384162568E+02 -0.17751422773E+03  0.19005466329E+03  0.00000000000E+00 0. -1.
         -1    1    1    2    0  501  0.24448624078E+02 -0.83580126606E+02 -0.20790151837E+02  0.89529901129E+02  0.00000000000E+00 0.  1.
<mgrwt>
<rscale>  0 0.71621170E+02</rscale>
<asrwt>0</asrwt>
<pdfrwt beam="2">  1        2 0.57298524E-01 0.67893107E+02</pdfrwt>
<pdfrwt beam="1">  1       -2 0.12031452E-01 0.75553944E+02</pdfrwt>
<totfact> 0.39655685E+03</totfact>
</mgrwt>
</event>
<event>
 7    1  0.7037933E-004  0.1150471E+03  0.7546771E-02  0.1270299E+00
         -2   -1    0    0    0  501 -0.00000000000E+00  0.00000000000E+00  0.96185799179E+03  0.96185799179E+03  0.00000000000E+00 0.  1.
          2   -1    0    0  503    0  0.00000000000E+00 -0.00000000000E+00 -0.28109769958E+03  0.28109769958E+03  0.00000000000E+00 0. -1.
         25    2    1    2    0    0  0.26098133918E+02 -0.80481193259E+01 -0.96144313529E+01  0.12830974874E+03  0.12500027805E+03 0.  0.
          4    1    3    3  502    0 -0.40333837580E+02  0.25557606418E+02  0.14706803800E+02  0.49979122419E+02  0.12700000000E+01 0.  1.
         -4    1    3    3    0  502  0.66431971498E+02 -0.33605725744E+02 -0.24321235153E+02  0.78330626317E+02  0.12700000000E+01 0.  1.
          1    1    1    2  503    0  0.66626325929E+02 -0.68648130846E+02 -0.19707947438E+03  0.21907065618E+03  0.00000000000E+00 0. -1.
         -1    1    1    2    0  501 -0.92724459847E+02  0.76696250172E+02  0.88745419795E+03  0.89557528645E+03  0.00000000000E+00 0.  1.
<mgrwt>
<rscale>  0 0.10490893E+03</rscale>
<asrwt>0</asrwt>
<pdfrwt beam="2">  1        2 0.43245800E-01 0.95664169E+02</pdfrwt>
<pdfrwt beam="1">  1       -2 0.14797815E+00 0.11504708E+03</pdfrwt>
<totfact> 0.40257571E+01</totfact>
</mgrwt>
</event>
<event>
 7    1  0.7037933E-004  0.1299536E+03  0.7546771E-02  0.1337606E+00
          1   -1    0    0  502    0 -0.00000000000E+00  0.00000000000E+00  0.17158873143E+04  0.17158873143E+04  0.00000000000E+00 0. -1.
          2   -1    0    0  503    0  0.00000000000E+00 -0.00000000000E+00 -0.36810519925E+03  0.36810519925E+03  0.00000000000E+00 0. -1.
         25    2    1    2    0    0  0.10061132265E+02 -0.11708708183E+03  0.19592799794E+03  0.26039346795E+03  0.12492544441E+03 0.  0.
          4    1    3    3  501    0 -0.43005256283E+02 -0.10786270183E+03  0.11714395845E+03  0.16494888425E+03  0.12700000000E+01 0. -1.
         -4    1    3    3    0  501  0.53066388547E+02 -0.92243800009E+01  0.78784039485E+02  0.95444583699E+02  0.12700000000E+01 0. -1.
          2    1    1    2  502    0 -0.44743855603E+02 -0.92793796091E+01  0.14745779925E+04  0.14752858623E+04  0.00000000000E+00 0. -1.
          1    1    1    2  503    0  0.34682723339E+02  0.12636646144E+03 -0.32272387542E+03  0.34831318327E+03  0.00000000000E+00 0. -1.
<mgrwt>
<rscale>  0 0.77060696E+02</rscale>
<asrwt>0</asrwt>
<pdfrwt beam="2">  1        2 0.56631570E-01 0.12995356E+03</pdfrwt>
<pdfrwt beam="1">  1        1 0.26398266E+00 0.45695946E+02</pdfrwt>
<totfact> 0.75023792E+01</totfact>
</mgrwt>
</event>
<event>
 7    1  0.7037933E-004  0.7514560E+02  0.7546771E-02  0.1353431E+00
          2   -1    0    0  503    0  0.00000000000E+00  0.00000000000E+00  0.48887737268E+03  0.48887737268E+03  0.00000000000E+00 0. -1.
          1   -1    0    0  502    0 -0.00000000000E+00 -0.00000000000E+00 -0.10196342391E+04  0.10196342391E+04  0.00000000000E+00 0. -1.
         25    2    1    2    0    0 -0.41033167338E+02 -0.21665138094E+02  0.20302703590E+03  0.24288729626E+03  0.12498464845E+03 0.  0.
          4    1    3    3  501    0 -0.67935986988E+02 -0.49522795220E+02  0.88904213725E+02  0.12236575376E+03  0.12700000000E+01 0. -1.
         -4    1    3    3    0  501  0.26902819650E+02  0.27857657127E+02  0.11412282218E+03  0.12052154250E+03  0.12700000000E+01 0. -1.
          2    1    1    2  502    0 -0.27655889621E+02  0.69871404521E+02 -0.99162649215E+03  0.99446968849E+03  0.00000000000E+00 0. -1.
          1    1    1    2  503    0  0.68689056959E+02 -0.48206266428E+02  0.25784258979E+03  0.27115462707E+03  0.00000000000E+00 0. -1.
<mgrwt>
<rscale>  0 0.71996910E+02</rscale>
<asrwt>0</asrwt>
<pdfrwt beam="1">  1        2 0.75211904E-01 0.68980153E+02</pdfrwt>
<pdfrwt beam="2">  1        1 0.15686681E+00 0.75145601E+02</pdfrwt>
<totfact> 0.14963353E+02</totfact>
</mgrwt>
</event>
<event>
 7    1  0.7037933E-004  0.8473723E+02  0.7546771E-02  0.1397454E+00
          1   -1    0    0  503    0  0.00000000000E+00  0.00000000000E+00  0.10738434478E+03  0.10738434478E+03  0.00000000000E+00 0. -1.
         -1   -1    0    0    0  501 -0.00000000000E+00 -0.00000000000E+00 -0.51416854029E+03  0.51416854029E+03  0.00000000000E+00 0.  1.
         25    2    1    2    0    0 -0.41508729907E+02 -0.19987268579E+02 -0.20499418746E+03  0.24446314561E+03  0.12496858447E+03 0.  0.
          4    1    3    3  502    0 -0.34419058123E+02  0.51155569133E+02 -0.93177513217E+02  0.11173730659E+03  0.12700000000E+01 0. -1.
         -4    1    3    3    0  502 -0.70896717841E+01 -0.71142837712E+02 -0.11181667424E+03  0.13272583901E+03  0.12700000000E+01 0. -1.
          2    1    1    2  503    0  0.80419008952E+02  0.37358675029E+02  0.63075609455E+02  0.10881828940E+03  0.00000000000E+00 0. -1.
         -2    1    1    2    0  501 -0.38910279045E+02 -0.17371406450E+02 -0.26486561751E+03  0.26827145006E+03  0.00000000000E+00 0.  1.
<mgrwt>
<rscale>  0 0.60090066E+02</rscale>
<asrwt>0</asrwt>
<pdfrwt beam="1">  1        1 0.16520668E-01 0.84737234E+02</pdfrwt>
<pdfrwt beam="2">  1       -1 0.79102852E-01 0.42611918E+02</pdfrwt>
<totfact> 0.55499899E+02</totfact>
</mgrwt>
</event>
<event>
 7    1  0.7037933E-004  0.1026581E+03  0.7546771E-02  0.1310317E+00
          2   -1    0    0  503    0  0.00000000000E+00  0.00000000000E+00  0.34714153306E+03  0.34714153306E+03  0.00000000000E+00 0. -1.
          1   -1    0    0  502    0 -0.00000000000E+00 -0.00000000000E+00 -0.25354102050E+04  0.25354102050E+04  0.00000000000E+00 0. -1.
         25    2    1    2    0    0 -0.39814214960E+02 -0.70470644868E+02 -0.65351788105E+03  0.67027106333E+03  0.12500557579E+03 0.  0.
          4    1    3    3  501    0 -0.39305460475E+02 -0.57579753412E+02 -0.13823650250E+03  0.15482664741E+03  0.12700000000E+01 0.  1.
         -4    1    3    3    0  501 -0.50875448488E+00 -0.12890891456E+02 -0.51528137856E+03  0.51544441592E+03  0.12700000000E+01 0.  1.
          2    1    1    2  502    0  0.67825591600E+02 -0.28854055371E+02 -0.18649113328E+04  0.18663673665E+04  0.00000000000E+00 0. -1.
          1    1    1    2  503    0 -0.28011376640E+02  0.99324700239E+02  0.33016054199E+03  0.34591330819E+03  0.00000000000E+00 0. -1.
<mgrwt>
<rscale>  0 0.86986925E+02</rscale>
<asrwt>0</asrwt>
<pdfrwt beam="1">  1        2 0.53406389E-01 0.10265814E+03</pdfrwt>
<pdfrwt beam="2">  1        1 0.39006312E+00 0.73707987E+02</pdfrwt>
<totfact> 0.23148474E+01</totfact>
</mgrwt>
</event>
<event>
 7    1  0.7037933E-004  0.8121656E+02  0.7546771E-02  0.1385885E+00
          2   -1    0    0  503    0  0.00000000000E+00  0.00000000000E+00  0.81606627673E+03  0.81606627673E+03  0.00000000000E+00 0. -1.
          1   -1    0    0  502    0 -0.00000000000E+00 -0.00000000000E+00 -0.29129146034E+03  0.29129146034E+03  0.00000000000E+00 0. -1.
         25    2    1    2    0    0 -0.94876740727E+02 -0.72413734274E+01 -0.17628141998E+03  0.23612328679E+03  0.12500013646E+03 0.  0.
          4    1    3    3  501    0 -0.69555186676E+02  0.53388011046E+02 -0.12535930767E+03  0.15298618446E+03  0.12700000000E+01 0.  1.
         -4    1    3    3    0  501 -0.25321554051E+02 -0.60629384473E+02 -0.50922112309E+02  0.83137102326E+02  0.12700000000E+01 0.  1.
          2    1    1    2  502    0  0.69523551399E+02 -0.34431564966E+02 -0.66467893786E+02  0.10216182149E+03  0.00000000000E+00 0. -1.
          1    1    1    2  503    0  0.25353189327E+02  0.41672938394E+02  0.76752413015E+03  0.76907262880E+03  0.00000000000E+00 0. -1.
<mgrwt>
<rscale>  0 0.62941921E+02</rscale>
<asrwt>0</asrwt>
<pdfrwt beam="1">  1        2 0.12554866E+00 0.48779278E+02</pdfrwt>
<pdfrwt beam="2">  1        1 0.44814071E-01 0.81216563E+02</pdfrwt>
<totfact> 0.45844515E+02</totfact>
</mgrwt>
</event>
<event>
 7    1  0.7037933E-004  0.5534218E+02  0.7546771E-02  0.1550396E+00
          2   -1    0    0  503    0  0.00000000000E+00  0.00000000000E+00  0.15438530816E+04  0.15438530816E+04  0.00000000000E+00 0. -1.
          1   -1    0    0  502    0 -0.00000000000E+00 -0.00000000000E+00 -0.61078645452E+03  0.61078645452E+03  0.00000000000E+00 0. -1.
         25    2    1    2    0    0  0.44008863761E+02  0.22796329932E+02  0.22830991643E+03  0.26496800715E+03  0.12500469640E+03 0.  0.
          4    1    3    3  501    0  0.17146523041E+02 -0.22733668688E+02 -0.20881678426E+01  0.28579648167E+02  0.12700000000E+01 0. -1.
         -4    1    3    3    0  501  0.26862340720E+02  0.45529998620E+02  0.23039808427E+03  0.23638835898E+03  0.12700000000E+01 0. -1.
          2    1    1    2  502    0 -0.35156940542E+02 -0.42806897917E+02 -0.59107005047E+03  0.59366004206E+03  0.00000000000E+00 0. -1.
          1    1    1    2  503    0 -0.88519232189E+01  0.20010567985E+02  0.12958267611E+04  0.12960114869E+04  0.00000000000E+00 0. -1.
<mgrwt>
<rscale>  0 0.34798617E+02</rscale>
<asrwt>0</asrwt>
<pdfrwt beam="1">  1        2 0.23751586E+00 0.21881028E+02</pdfrwt>
<pdfrwt beam="2">  1        1 0.93967147E-01 0.55342179E+02</pdfrwt>
<totfact> 0.79993571E+01</totfact>
</mgrwt>
</event>
<event>
 7    1  0.7037933E-004  0.1097964E+03  0.7546771E-02  0.1448675E+00
          2   -1    0    0  503    0  0.00000000000E+00  0.00000000000E+00  0.75481104947E+03  0.75481104947E+03  0.00000000000E+00 0. -1.
         -2   -1    0    0    0  501 -0.00000000000E+00 -0.00000000000E+00 -0.35415678265E+02  0.35415678265E+02  0.00000000000E+00 0.  1.
         25    2    1    2    0    0 -0.79184236063E+02  0.91902459017E+02  0.35704998149E+03  0.39728405266E+03  0.12503489113E+03 0.  0.
          4    1    3    3  502    0 -0.66681700628E+02  0.81264477721E+02  0.36439380160E+03  0.37925561312E+03  0.12700000000E+01 0.  1.
         -4    1    3    3    0  502 -0.12502535435E+02  0.10637981296E+02 -0.73438201120E+01  0.18028439538E+02  0.12700000000E+01 0.  1.
          1    1    1    2  503    0  0.14493405270E+01 -0.22167356320E+02  0.19095616293E+03  0.19224398153E+03  0.00000000000E+00 0. -1.
         -1    1    1    2    0  501  0.77734895536E+02 -0.69735102696E+02  0.17138922679E+03  0.20069869354E+03  0.00000000000E+00 0.  1.
<mgrwt>
<rscale>  0 0.49387167E+02</rscale>
<asrwt>0</asrwt>
<pdfrwt beam="1">  1        2 0.11612477E+00 0.22214686E+02</pdfrwt>
<pdfrwt beam="2">  1       -2 0.54485664E-02 0.10979639E+03</pdfrwt>
<totfact> 0.66205956E+03</totfact>
</mgrwt>
</event>
<event>
 7    1  0.7037933E-004  0.9014273E+02  0.7546771E-02  0.1391864E+00
          2   -1    0    0  503    0  0.00000000000E+00  0.00000000000E+00  0.54848747583E+03  0.54848747583E+03  0.00000000000E+00 0. -1.
          1   -1    0    0  502    0 -0.00000000000E+00 -0.00000000000E+00 -0.25043292093E+04  0.25043292093E+04  0.00000000000E+00 0. -1.
         25    2    1    2    0    0  0.31757383510E+02 -0.79021081720E+02  0.14216641731E+03  0.20757110200E+03  0.12498643690E+03 0.  0.
          4    1    3    3  501    0  0.54174032270E+02  0.12488358127E+02  0.66774571754E+02  0.86897877960E+02  0.12700000000E+01 0. -1.
         -4    1    3    3    0  501 -0.22416648760E+02 -0.91509439846E+02  0.75391845558E+02  0.12067322404E+03  0.12700000000E+01 0. -1.
          2    1    1    2  502    0  0.37755136297E+02  0.18133207213E+02 -0.24657323649E+04  0.24660880680E+04  0.00000000000E+00 0. -1.
          1    1    1    2  503    0 -0.69512519807E+02  0.60887874507E+02  0.36772421412E+03  0.37915751519E+03  0.00000000000E+00 0. -1.
<mgrwt>
<rscale>  0 0.61445356E+02</rscale>
<asrwt>0</asrwt>
<pdfrwt beam="1">  1        2 0.84382686E-01 0.90142732E+02</pdfrwt>
<pdfrwt beam="2">  1        1 0.38528143E+00 0.41883929E+02</pdfrwt>
<totfact> 0.16308026E+01</totfact>
</mgrwt>
</event>
<event>
 7    1  0.7037933E-004  0.5291331E+02  0.7546771E-02  0.1471934E+00
          1   -1    0    0  502    0 -0.00000000000E+00  0.00000000000E+00  0.33195952955E+03  0.33195952955E+03  0.00000000000E+00 0. -1.
          2   -1    0    0  503    0  0.00000000000E+00 -0.00000000000E+00 -0.19154948491E+04  0.19154948491E+04  0.00000000000E+00 0. -1.
         25    2    1    2    0    0 -0.30872860608E+02  0.52117150221E+02 -0.23561124392E+03  0.27350897695E+03  0.12500068537E+03 0.  0.
          4    1    3    3  501    0 -0.24866024135E+02 -0.30131201524E+02 -0.22746131710E+02  0.45223974497E+02  0.12700000000E+01 0.  1.
         -4    1    3    3    0  501 -0.60068364729E+01  0.82248351745E+02 -0.21286511221E+03  0.22828500246E+03  0.12700000000E+01 0.  1.
          2    1    1    2  502    0  0.38931700812E+02  0.30980308261E+00  0.31137458608E+03  0.31379914939E+03  0.00000000000E+00 0. -1.
          1    1    1    2  503    0 -0.80588402038E+01 -0.52426953304E+02 -0.16592986617E+04  0.16601462523E+04  0.00000000000E+00 0. -1.
<mgrwt>
<rscale>  0 0.45387997E+02</rscale>
<asrwt>0</asrwt>
<pdfrwt beam="2">  1        2 0.29469151E+00 0.52913308E+02</pdfrwt>
<pdfrwt beam="1">  1        1 0.51070697E-01 0.38932933E+02</pdfrwt>
<totfact> 0.10344228E+02</totfact>
</mgrwt>
</event>
<event>
 7    1  0.7037933E-004  0.1109354E+03  0.7546771E-02  0.1342611E+00
          1   -1    0    0  502    0 -0.00000000000E+00  0.00000000000E+00  0.10883877169E+03  0.10883877169E+03  0.00000000000E+00 0. -1.
          2   -1    0    0  503    0  0.00000000000E+00 -0.00000000000E+00 -0.21690242143E+04  0.21690242143E+04  0.00000000000E+00 0. -1.
         25    2    1    2    0    0 -0.14819303965E+03  0.20717039988E+02 -0.10582489407E+04  0.10760555516E+04  0.12495742064E+03 0.  0.
          4    1    3    3  501    0 -0.35226278468E+02 -0.49818334754E+02 -0.29065156447E+03  0.29698939712E+03  0.12700000000E+01 0.  1.
         -4    1    3    3    0  501 -0.11296676118E+03  0.70535374742E+02 -0.76759737621E+03  0.77906615450E+03  0.12700000000E+01 0.  1.
          2    1    1    2  502    0  0.10159550976E+03 -0.42074562425E+02  0.68886365694E+02  0.12975842086E+03  0.00000000000E+00 0. -1.
          1    1    1    2  503    0  0.46597529894E+02  0.21357522436E+02 -0.10708228677E+04  0.10720490136E+04  0.00000000000E+00 0. -1.
<mgrwt>
<rscale>  0 0.75408373E+02</rscale>
<asrwt>0</asrwt>
<pdfrwt beam="2">  1        2 0.33369599E+00 0.51258888E+02</pdfrwt>
<pdfrwt beam="1">  1        1 0.16744428E-01 0.11093535E+03</pdfrwt>
<totfact> 0.31149798E+02</totfact>
</mgrwt>
</event>
<event>
 7    1  0.7037933E-004  0.8821335E+02  0.7546771E-02  0.1352858E+00
          1   -1    0    0  502    0 -0.00000000000E+00  0.00000000000E+00  0.14360098825E+03  0.14360098825E+03  0.00000000000E+00 0. -1.
          2   -1    0    0  503    0  0.00000000000E+00 -0.00000000000E+00 -0.12966017808E+04  0.12966017808E+04  0.00000000000E+00 0. -1.
         25    2    1    2    0    0 -0.12107300648E+03  0.28133108065E+02 -0.20912403921E+03  0.27351347397E+03  0.12500644784E+03 0.  0.
          4    1    3    3  501    0 -0.12760000158E+03  0.61337241656E+02 -0.17870564219E+03  0.22799416016E+03  0.12700000000E+01 0. -1.
         -4    1    3    3    0  501  0.65269950971E+01 -0.33204133591E+02 -0.30418397018E+02  0.45519313810E+02  0.12700000000E+01 0. -1.
          2    1    1    2  502    0  0.84502075941E+02  0.18226745656E+02  0.93670223910E+02  0.12746342983E+03  0.00000000000E+00 0. -1.
          1    1    1    2  503    0  0.36570930541E+02 -0.46359853721E+02 -0.10375469772E+04  0.10392258652E+04  0.00000000000E+00 0. -1.
<mgrwt>
<rscale>  0 0.72172184E+02</rscale>
<asrwt>0</asrwt>
<pdfrwt beam="2">  1        2 0.19947719E+00 0.59048023E+02</pdfrwt>
<pdfrwt beam="1">  1        1 0.22092460E-01 0.88213354E+02</pdfrwt>
<totfact> 0.57988779E+02</totfact>
</mgrwt>
</event>
<event>
 7    1  0.7037933E-004  0.5309793E+02  0.7546771E-02  0.1482557E+00
          1   -1    0    0  503    0  0.00000000000E+00  0.00000000000E+00  0.29997023480E+04  0.29997023480E+04  0.00000000000E+00 0. -1.
         -1   -1    0    0    0  501 -0.00000000000E+00 -0.00000000000E+00 -0.13916054377E+03  0.13916054377E+03  0.00000000000E+00 0.  1.
         25    2    1    2    0    0  0.25576854210E+02  0.64311133421E+02  0.66045296537E+03  0.67573104154E+03  0.12499689471E+03 0.  0.
          4    1    3    3  502    0  0.53178639177E+02  0.38254962031E+02  0.14778649376E+03  0.16165973655E+03  0.12700000000E+01 0.  1.
         -4    1    3    3    0  502 -0.27601784967E+02  0.26056171390E+02  0.51266647161E+03  0.51407130499E+03  0.12700000000E+01 0.  1.
          2    1    1    2  503    0 -0.41862899573E+02 -0.32225196899E+02  0.23288440708E+04  0.23294432107E+04  0.00000000000E+00 0. -1.
         -2    1    1    2    0  501  0.16286045363E+02 -0.32085936522E+02 -0.12875523194E+03  0.13368863956E+03  0.00000000000E+00 0.  1.
<mgrwt>
<rscale>  0 0.43710387E+02</rscale>
<asrwt>0</asrwt>
<pdfrwt beam="1">  1        1 0.46149262E+00 0.53097929E+02</pdfrwt>
<pdfrwt beam="2">  1       -1 0.21409317E-01 0.35982532E+02</pdfrwt>
<totfact> 0.16174089E+01</totfact>
</mgrwt>
</event>
<event>
 7    1  0.7037933E-004  0.9200980E+02  0.7546771E-02  0.1349005E+00
         -2   -1    0    0    0  501 -0.00000000000E+00  0.00000000000E+00  0.23501137143E+03  0.23501137143E+03  0.00000000000E+00 0.  1.
          2   -1    0    0  503    0  0.00000000000E+00 -0.00000000000E+00 -0.75466897749E+03  0.75466897749E+03  0.00000000000E+00 0. -1.
         25    2    1    2    0    0 -0.10232981714E+03  0.82437258452E+02 -0.44576306389E+03  0.48124280395E+03  0.12499053632E+03 0.  0.
          4    1    3    3  502    0 -0.25246490843E+01  0.74140139022E+02 -0.12666108415E+03  0.14679161150E+03  0.12700000000E+01 0.  1.
         -4    1    3    3    0  502 -0.99805168055E+02  0.82971194304E+01 -0.31910197973E+03  0.33445119245E+03  0.12700000000E+01 0.  1.
          1    1    1    2  503    0  0.74319621987E+02 -0.31077593032E+02 -0.28147277633E+03  0.29277320030E+03  0.00000000000E+00 0. -1.
         -1    1    1    2    0  501  0.28010195152E+02 -0.51359665420E+02  0.20757823415E+03  0.21566434466E+03  0.00000000000E+00 0.  1.
<mgrwt>
<rscale>  0 0.73366751E+02</rscale>
<asrwt>0</asrwt>
<pdfrwt beam="2">  1        2 0.11610292E+00 0.92009795E+02</pdfrwt>
<pdfrwt beam="1">  1       -2 0.36155595E-01 0.58501165E+02</pdfrwt>
<totfact> 0.28340342E+02</totfact>
</mgrwt>
</event>
<event>
 7    1  0.7037933E-004  0.6155580E+02  0.7546771E-02  0.1421865E+00
          1   -1    0    0  503    0  0.00000000000E+00  0.00000000000E+00  0.20336269130E+04  0.20336269130E+04  0.00000000000E+00 0. -1.
         -1   -1    0    0    0  501 -0.00000000000E+00 -0.00000000000E+00 -0.19259806083E+02  0.19259806083E+02  0.00000000000E+00 0.  1.
         25    2    1    2    0    0 -0.75290801241E+02 -0.79039778288E+00  0.47610230214E+03  0.49796427669E+03  0.12500275707E+03 0.  0.
          4    1    3    3  502    0  0.13851491941E+02  0.26880444878E+02  0.31560770907E+02  0.43727763561E+02  0.12700000000E+01 0.  1.
         -4    1    3    3    0  502 -0.89142293182E+02 -0.27670842661E+02  0.44454153123E+03  0.45423651312E+03  0.12700000000E+01 0.  1.
          2    1    1    2  503    0  0.46916502506E+02  0.40100209537E+02  0.14694470201E+04  0.14707425778E+04  0.00000000000E+00 0. -1.
         -2    1    1    2    0  501  0.28374298735E+02 -0.39309811754E+02  0.68817784637E+02  0.84179864642E+02  0.00000000000E+00 0.  1.
<mgrwt>
<rscale>  0 0.54628361E+02</rscale>
<asrwt>0</asrwt>
<pdfrwt beam="1">  1        1 0.31286551E+00 0.61555795E+02</pdfrwt>
<pdfrwt beam="2">  1       -1 0.29630487E-02 0.48480534E+02</pdfrwt>
<totfact> 0.12154045E+03</totfact>
</mgrwt>
</event>
<event>
 7    1  0.7037933E-004  0.7365100E+02  0.7546771E-02  0.1363156E+00
         -1   -1    0    0    0  501 -0.00000000000E+00  0.00000000000E+00  0.56182117079E+03  0.56182117079E+03  0.00000000000E+00 0.  1.
          1   -1    0    0  503    0  0.00000000000E+00 -0.00000000000E+00 -0.20349012478E+03  0.20349012478E+03  0.00000000000E+00 0. -1.
         25    2    1    2    0    0  0.21594094251E+02 -0.26630096060E+02  0.20594547368E+03  0.24334149030E+03  0.12500430332E+03 0.  0.
          4    1    3    3  502    0  0.19528469309E+02 -0.76741334221E+02  0.11857293505E+03  0.14258943621E+03  0.12700000000E+01 0.  1.
         -4    1    3    3    0  502  0.20656249423E+01  0.50111238161E+02  0.87372538632E+02  0.10075205409E+03  0.12700000000E+01 0.  1.
          2    1    1    2  503    0 -0.20731282817E+02 -0.61440048345E+02 -0.17306419451E+03  0.18481309761E+03  0.00000000000E+00 0. -1.
         -2    1    1    2    0  501 -0.86281143432E+00  0.88070144405E+02  0.32544976684E+03  0.33715670766E+03  0.00000000000E+00 0.  1.
<mgrwt>
<rscale>  0 0.69107026E+02</rscale>
<asrwt>0</asrwt>
<pdfrwt beam="2">  1        1 0.31306173E-01 0.64843393E+02</pdfrwt>
<pdfrwt beam="1">  1       -1 0.86434026E-01 0.73651004E+02</pdfrwt>
<totfact> 0.20510710E+02</totfact>
</mgrwt>
</event>
<event>
 7    1  0.7037933E-004  0.1068774E+03  0.7546771E-02  0.1350162E+00
         -1   -1    0    0    0  501 -0.00000000000E+00  0.00000000000E+00  0.13748842556E+03  0.13748842556E+03  0.00000000000E+00 0.  1.
          1   -1    0    0  503    0  0.00000000000E+00 -0.00000000000E+00 -0.14113202021E+04  0.14113202021E+04  0.00000000000E+00 0. -1.
         25    2    1    2    0    0 -0.62242240100E+02  0.75973281130E+02 -0.17738898825E+03  0.23818750554E+03  0.12498159363E+03 0.  0.
          4    1    3    3  502    0 -0.17217330801E+02  0.10423842495E+03 -0.11360814895E+03  0.15514673740E+03  0.12700000000E+01 0. -1.
         -4    1    3    3    0  502 -0.45024909299E+02 -0.28265143825E+02 -0.63780839295E+02  0.83040768144E+02  0.12700000000E+01 0. -1.
          2    1    1    2  503    0  0.22466900515E+02 -0.10605238802E+03 -0.11951370966E+04  0.12000435619E+04  0.00000000000E+00 0. -1.
         -2    1    1    2    0  501  0.39775339585E+02  0.30079106887E+02  0.98694308399E+02  0.11057756020E+03  0.00000000000E+00 0.  1.
<mgrwt>
<rscale>  0 0.73005324E+02</rscale>
<asrwt>0</asrwt>
<pdfrwt beam="2">  1        1 0.21712619E+00 0.10687743E+03</pdfrwt>
<pdfrwt beam="1">  1       -1 0.21152065E-01 0.49868129E+02</pdfrwt>
<totfact> 0.15599925E+02</totfact>
</mgrwt>
</event>
<event>
 7    1  0.7037933E-004  0.3400662E+02  0.7546771E-02  0.1575602E+00
          2   -1    0    0  503    0  0.00000000000E+00  0.00000000000E+00  0.69719858317E+03  0.69719858317E+03  0.00000000000E+00 0. -1.
         -2   -1    0    0    0  501 -0.00000000000E+00 -0.00000000000E+00 -0.30625161408E+02  0.30625161408E+02  0.00000000000E+00 0.  1.
         25    2    1    2    0    0  0.11765748147E+02 -0.23326935892E+02  0.55924516642E+03  0.57364050373E+03  0.12500277031E+03 0.  0.
          4    1    3    3  502    0  0.46588367115E+02 -0.34711880018E+02  0.12496659647E+03  0.13781746514E+03  0.12700000000E+01 0. -1.
         -4    1    3    3    0  502 -0.34822618968E+02  0.11384944126E+02  0.43427856995E+03  0.43582303858E+03  0.12700000000E+01 0. -1.
          1    1    1    2  503    0  0.14522138677E+02  0.38534841018E+02  0.11559261290E+03  0.12270891834E+03  0.00000000000E+00 0. -1.
         -1    1    1    2    0  501 -0.26287886824E+02 -0.15207905126E+02 -0.82643575510E+01  0.31474322514E+02  0.00000000000E+00 0.  1.
<mgrwt>
<rscale>  0 0.32136881E+02</rscale>
<asrwt>0</asrwt>
<pdfrwt beam="1">  1        2 0.10726131E+00 0.34006621E+02</pdfrwt>
<pdfrwt beam="2">  1       -2 0.47115638E-02 0.30369942E+02</pdfrwt>
<totfact> 0.76632671E+03</totfact>
</mgrwt>
</event>
<event>
 7    1  0.7037933E-004  0.8193698E+02  0.7546771E-02  0.1414947E+00
          1   -1    0    0  503    0  0.00000000000E+00  0.00000000000E+00  0.18035967780E+04  0.18035967780E+04  0.00000000000E+00 0. -1.
         -1   -1    0    0    0  501 -0.00000000000E+00 -0.00000000000E+00 -0.54224134195E+02  0.54224134195E+02  0.00000000000E+00 0.  1.
         25    2    1    2    0    0  0.72319341068E+02 -0.63034765275E+02  0.58868184410E+03  0.60940561557E+03  0.12500168793E+03 0.  0.
          4    1    3    3  502    0  0.48558125894E+02 -0.80648393585E+02  0.21695668359E+03  0.23650342584E+03  0.12700000000E+01 0. -1.
         -4    1    3    3    0  502  0.23761215174E+02  0.17613628310E+02  0.37172516051E+03  0.37290218973E+03  0.12700000000E+01 0. -1.
          2    1    1    2  503    0 -0.36978292608E+02 -0.10412460987E+02  0.11660960612E+04  0.11667286906E+04  0.00000000000E+00 0. -1.
         -2    1    1    2    0  501 -0.35341048460E+02  0.73447226262E+02 -0.54052615230E+01  0.81686606026E+02  0.00000000000E+00 0.  1.
<mgrwt>
<rscale>  0 0.56104520E+02</rscale>
<asrwt>0</asrwt>
<pdfrwt beam="1">  1        1 0.27747638E+00 0.38416318E+02</pdfrwt>
<pdfrwt beam="2">  1       -1 0.83421759E-02 0.81936982E+02</pdfrwt>
<totfact> 0.42177821E+02</totfact>
</mgrwt>
</event>
<event>
 7    1  0.7037933E-004  0.4861508E+02  0.7546771E-02  0.1458105E+00
          1   -1    0    0  503    0  0.00000000000E+00  0.00000000000E+00  0.45738806512E+02  0.45738806512E+02  0.00000000000E+00 0. -1.
         -1   -1    0    0    0  501 -0.00000000000E+00 -0.00000000000E+00 -0.72933065377E+03  0.72933065377E+03  0.00000000000E+00 0.  1.
         25    2    1    2    0    0 -0.39137789577E+02 -0.19897716449E+02 -0.17925655612E+03  0.22291164715E+03  0.12501601431E+03 0.  0.
          4    1    3    3  502    0  0.41076566434E+02  0.37979751178E+01 -0.97805683046E+02  0.10615683426E+03  0.12700000000E+01 0. -1.
         -4    1    3    3    0  502 -0.80214356010E+02 -0.23695691566E+02 -0.81450873070E+02  0.11675481289E+03  0.12700000000E+01 0. -1.
          2    1    1    2  503    0  0.10666177746E+01  0.50130346125E+02 -0.49206526314E+01  0.50382557482E+02  0.00000000000E+00 0. -1.
         -2    1    1    2    0  501  0.38071171802E+02 -0.30232629676E+02 -0.49941463851E+03  0.50177525565E+03  0.00000000000E+00 0.  1.
<mgrwt>
<rscale>  0 0.47709112E+02</rscale>
<asrwt>0</asrwt>
<pdfrwt beam="1">  1        1 0.70367396E-02 0.46820027E+02</pdfrwt>
<pdfrwt beam="2">  1       -1 0.11220471E+00 0.48615080E+02</pdfrwt>
<totfact> 0.76511909E+02</totfact>
</mgrwt>
</event>
<event>
 7    1  0.7037933E-004  0.7472783E+02  0.7546771E-02  0.1376330E+00
         -2   -1    0    0    0  501 -0.00000000000E+00  0.00000000000E+00  0.39333180523E+03  0.39333180523E+03  0.00000000000E+00 0.  1.
          2   -1    0    0  503    0  0.00000000000E+00 -0.00000000000E+00 -0.74602769688E+02  0.74602769688E+02  0.00000000000E+00 0. -1.
         25    2    1    2    0    0 -0.53156017241E+02  0.89272165663E+02  0.28429574638E+03  0.32748218954E+03  0.12500172528E+03 0.  0.
          4    1    3    3  502    0 -0.83365344349E+02  0.67559072579E+02  0.26423923648E+03  0.28519816957E+03  0.12700000000E+01 0.  1.
         -4    1    3    3    0  502  0.30209327108E+02  0.21713093084E+02  0.20056509897E+02  0.42284019970E+02  0.12700000000E+01 0.  1.
          1    1    1    2  503    0  0.49154106762E+02 -0.29454888930E+02 -0.18768549719E+02  0.60299047687E+02  0.00000000000E+00 0. -1.
         -1    1    1    2    0  501  0.40019104789E+01 -0.59817276733E+02  0.53201838877E+02  0.80153337692E+02  0.00000000000E+00 0.  1.
<mgrwt>
<rscale>  0 0.65438389E+02</rscale>
<asrwt>0</asrwt>
<pdfrwt beam="2">  1        2 0.11477349E-01 0.57303723E+02</pdfrwt>
<pdfrwt beam="1">  1       -2 0.60512584E-01 0.74727828E+02</pdfrwt>
<totfact> 0.13023928E+03</totfact>
</mgrwt>
</event>
<event>
 7    1  0.7037933E-004  0.1164370E+03  0.7546771E-02  0.1252074E+00
          2   -1    0    0  503    0  0.00000000000E+00  0.00000000000E+00  0.64757351961E+03  0.64757351961E+03  0.00000000000E+00 0. -1.
          1   -1    0    0  502    0 -0.00000000000E+00 -0.00000000000E+00 -0.21629876761E+03  0.21629876761E+03  0.00000000000E+00 0. -1.
         25    2    1    2    0    0 -0.93113234782E+02  0.23016479543E+02  0.45165148643E+02  0.16390531792E+03  0.12500091907E+03 0.  0.
          4    1    3    3  501    0 -0.89212887176E+02 -0.16950595750E+02  0.71740005532E+02  0.11573462415E+03  0.12700000000E+01 0. -1.
         -4    1    3    3    0  501 -0.39003476060E+01  0.39967075293E+02 -0.26574856889E+02  0.48170693763E+02  0.12700000000E+01 0. -1.
          2    1    1    2  502    0  0.44193852065E+02 -0.12490614030E+03 -0.12159532074E+03  0.17983342979E+03  0.00000000000E+00 0. -1.
          1    1    1    2  503    0  0.48919382717E+02  0.10188966075E+03  0.50770492410E+03  0.52013353951E+03  0.00000000000E+00 0. -1.
<mgrwt>
<rscale>  0 0.11471822E+03</rscale>
<asrwt>0</asrwt>
<pdfrwt beam="1">  1        2 0.99626695E-01 0.11302482E+03</pdfrwt>
<pdfrwt beam="2">  1        1 0.33276734E-01 0.11643700E+03</pdfrwt>
<totfact> 0.84406051E+02</totfact>
</mgrwt>
</event>
<event>
 7    1  0.7037933E-004  0.3574876E+02  0.7546771E-02  0.1560290E+00
         -2   -1    0    0    0  501  0.00000000000E+00  0.00000000000E+00  0.39141412202E+03  0.39141412202E+03  0.00000000000E+00 0.  1.
         -1   -1    0    0    0  502 -0.00000000000E+00 -0.00000000000E+00 -0.62810210779E+03  0.62810210779E+03  0.00000000000E+00 0.  1.
         25    2    1    2    0    0  0.38258168158E+01 -0.19688030767E+02  0.13195875737E+03  0.18286604145E+03  0.12499848014E+03 0.  0.
          4    1    3    3  503    0 -0.53943468161E+02 -0.26762669196E+01  0.23735315147E+02  0.59008798047E+02  0.12700000000E+01 0.  1.
         -4    1    3    3    0  503  0.57769284977E+02 -0.17011763848E+02  0.10822344222E+03  0.12385724340E+03  0.12700000000E+01 0.  1.
         -2    1    1    2    0  502 -0.31348389398E+02 -0.53541526548E+01 -0.60074594224E+03  0.60158713050E+03  0.00000000000E+00 0.  1.
         -1    1    1    2    0  501  0.27522572582E+02  0.25042183422E+02  0.23209919909E+03  0.23506305786E+03  0.00000000000E+00 0.  1.
<mgrwt>
<rscale>  0 0.33717859E+02</rscale>
<asrwt>0</asrwt>
<pdfrwt beam="1">  1       -2 0.60217557E-01 0.35748760E+02</pdfrwt>
<pdfrwt beam="2">  1       -1 0.96631094E-01 0.31802334E+02</pdfrwt>
<totfact> 0.23574931E+01</totfact>
</mgrwt>
</event>
<event>
 7    1  0.7037933E-004  0.4718139E+02  0.7546771E-02  0.1555588E+00
          1   -1    0    0  502    0 -0.00000000000E+00  0.00000000000E+00  0.39902055870E+03  0.39902055870E+03  0.00000000000E+00 0. -1.
          2   -1    0    0  503    0  0.00000000000E+00 -0.00000000000E+00 -0.30226824740E+04  0.30226824740E+04  0.00000000000E+00 0. -1.
         25    2    1    2    0    0 -0.40870649158E+02 -0.58320967151E+02 -0.10648367620E+03  0.17898650993E+03  0.12500260904E+03 0.  0.
          4    1    3    3  501    0 -0.37284070981E+02  0.29511744819E+01  0.16986150526E+02  0.41096880531E+02  0.12700000000E+01 0. -1.
         -4    1    3    3    0  501 -0.35865781767E+01 -0.61272141633E+02 -0.12346982673E+03  0.13788962940E+03  0.12700000000E+01 0. -1.
          2    1    1    2  502    0  0.17796962586E+02  0.17310607941E+02  0.36215189551E+03  0.36300190694E+03  0.00000000000E+00 0. -1.
          1    1    1    2  503    0  0.23073686572E+02  0.41010359210E+02 -0.28793301346E+04  0.28797146158E+04  0.00000000000E+00 0. -1.
<mgrwt>
<rscale>  0 0.34225444E+02</rscale>
<asrwt>0</asrwt>
<pdfrwt beam="2">  1        2 0.46502807E+00 0.47181390E+02</pdfrwt>
<pdfrwt beam="1">  1        1 0.61387778E-01 0.24827183E+02</pdfrwt>
<totfact> 0.22931517E+01</totfact>
</mgrwt>
</event>
<event>
 7    1  0.7037933E-004  0.1854074E+03  0.7546771E-02  0.1329934E+00
          1   -1    0    0  503    0  0.00000000000E+00  0.00000000000E+00  0.47082216691E+03  0.47082216691E+03  0.00000000000E+00 0. -1.
         -1   -1    0    0    0  501 -0.00000000000E+00 -0.00000000000E+00 -0.14181401700E+03  0.14181401700E+03  0.00000000000E+00 0.  1.
         25    2    1    2    0    0  0.16282802799E+03 -0.64509315843E+02  0.69157519002E+02  0.22601524602E+03  0.12500284185E+03 0.  0.
          4    1    3    3  502    0 -0.20463670815E+00  0.13149433084E+02  0.41211245763E+02  0.43277351397E+02  0.12700000000E+01 0.  1.
         -4    1    3    3    0  502  0.16303266470E+03 -0.77658748927E+02  0.27946273239E+02  0.18273789462E+03  0.12700000000E+01 0.  1.
          2    1    1    2  503    0 -0.18577662121E+03  0.39082511575E+02  0.28617728794E+03  0.34342078538E+03  0.00000000000E+00 0. -1.
         -2    1    1    2    0  501  0.22948593218E+02  0.25426804268E+02 -0.26326657034E+02  0.43200152506E+02  0.00000000000E+00 0.  1.
<mgrwt>
<rscale>  0 0.79689830E+02</rscale>
<asrwt>0</asrwt>
<pdfrwt beam="1">  1        1 0.72434179E-01 0.18540742E+03</pdfrwt>
<pdfrwt beam="2">  1       -1 0.21817541E-01 0.34251428E+02</pdfrwt>
<totfact> 0.80628830E+02</totfact>
</mgrwt>
</event>
<event>
 7    1  0.7037933E-004  0.7689081E+02  0.7546771E-02  0.1415091E+00
          1   -1    0    0  503    0  0.00000000000E+00  0.00000000000E+00  0.41903572204E+04  0.41903572204E+04  0.00000000000E+00 0. -1.
         -1   -1    0    0    0  501 -0.00000000000E+00 -0.00000000000E+00 -0.42296326923E+02  0.42296326923E+02  0.00000000000E+00 0.  1.
         25    2    1    2    0    0 -0.94352360803E+02  0.66837087574E+02  0.15277400083E+04  0.15372000443E+04  0.12499951592E+03 0.  0.
          4    1    3    3  502    0 -0.42928535854E+02  0.80288496511E+01  0.12743005403E+03  0.13471211225E+03  0.12700000000E+01 0. -1.
         -4    1    3    3    0  502 -0.51423824949E+02  0.58808237923E+02  0.14003099543E+04  0.14024879321E+04  0.12700000000E+01 0. -1.
          2    1    1    2  503    0  0.37326335010E+02 -0.16699990298E+02  0.26191937665E+04  0.26195129569E+04  0.00000000000E+00 0. -1.
         -2    1    1    2    0  501  0.57026025793E+02 -0.50137097275E+02  0.11271186397E+01  0.75940546070E+02  0.00000000000E+00 0.  1.
<mgrwt>
<rscale>  0 0.56073246E+02</rscale>
<asrwt>0</asrwt>
<pdfrwt beam="1">  1        1 0.64467001E+00 0.40891869E+02</pdfrwt>
<pdfrwt beam="2">  1       -1 0.65071305E-02 0.76890808E+02</pdfrwt>
<totfact> 0.14287499E+01</totfact>
</mgrwt>
</event>
<event>
 7    1  0.7037933E-004  0.8842022E+02  0.7546771E-02  0.1316605E+00
          2   -1    0    0  503    0  0.00000000000E+00  0.00000000000E+00  0.22173042877E+04  0.22173042877E+04  0.00000000000E+00 0. -1.
          1   -1    0    0  502    0 -0.00000000000E+00 -0.00000000000E+00 -0.12606177968E+04  0.12606177968E+04  0.00000000000E+00 0. -1.
         25    2    1    2    0    0  0.11032773271E+03 -0.51992062874E+02  0.49228318140E+02  0.18144768513E+03  0.12499780768E+03 0.  0.
          4    1    3    3  501    0  0.13428643624E+03 -0.24060390927E+02  0.47924347560E+02  0.14460326884E+03  0.12700000000E+01 0.  1.
         -4    1    3    3    0  501 -0.23958703530E+02 -0.27931671947E+02  0.13039705802E+01  0.36844416292E+02  0.12700000000E+01 0.  1.
          2    1    1    2  502    0 -0.75403789412E+02 -0.29185964344E+02 -0.11922093513E+04  0.11949479861E+04  0.00000000000E+00 0. -1.
          1    1    1    2  503    0 -0.34923943300E+02  0.81178027218E+02  0.20996675242E+04  0.21015264133E+04  0.00000000000E+00 0. -1.
<mgrwt>
<rscale>  0 0.84553108E+02</rscale>
<asrwt>0</asrwt>
<pdfrwt beam="1">  1        2 0.34112374E+00 0.88420217E+02</pdfrwt>
<pdfrwt beam="2">  1        1 0.19394120E+00 0.80855130E+02</pdfrwt>
<totfact> 0.10224642E+01</totfact>
</mgrwt>
</event>
<event>
 7    1  0.7037933E-004  0.4903180E+02  0.7546771E-02  0.1507344E+00
          2   -1    0    0  503    0  0.00000000000E+00  0.00000000000E+00  0.27273964084E+02  0.27273964084E+02  0.00000000000E+00 0. -1.
          1   -1    0    0  502    0 -0.00000000000E+00 -0.00000000000E+00 -0.23444700048E+04  0.23444700048E+04  0.00000000000E+00 0. -1.
         25    2    1    2    0    0  0.63052154447E+02  0.12954371439E+02 -0.21189680703E+03  0.25430070753E+03  0.12500081241E+03 0.  0.
          4    1    3    3  501    0  0.94981882034E+02 -0.11908364323E+02 -0.11732844809E+03  0.15142966911E+03  0.12700000000E+01 0. -1.
         -4    1    3    3    0  501 -0.31929727587E+02  0.24862735762E+02 -0.94568358944E+02  0.10287103843E+03  0.12700000000E+01 0. -1.
          2    1    1    2  502    0 -0.36638290285E+02 -0.32442302006E+02 -0.20644943436E+04  0.20650742751E+04  0.00000000000E+00 0. -1.
          3    1    1    2  503    0 -0.26413864161E+02  0.19487930567E+02 -0.40804890101E+02  0.52368986183E+02  0.00000000000E+00 0. -1.
<mgrwt>
<rscale>  0 0.40118101E+02</rscale>
<asrwt>0</asrwt>
<pdfrwt beam="1">  1        2 0.41959938E-02 0.32824863E+02</pdfrwt>
<pdfrwt beam="2">  1        1 0.36068775E+00 0.49031797E+02</pdfrwt>
<totfact> 0.55602493E+02</totfact>
</mgrwt>
</event>
<event>
 7    1  0.7037933E-004  0.9721991E+02  0.7546771E-02  0.1456453E+00
         -1   -1    0    0    0  501 -0.00000000000E+00  0.00000000000E+00  0.50975801334E+03  0.50975801334E+03  0.00000000000E+00 0.  1.
          1   -1    0    0  503    0  0.00000000000E+00 -0.00000000000E+00 -0.53211653205E+03  0.53211653205E+03  0.00000000000E+00 0. -1.
         25    2    1    2    0    0  0.31843470160E+02  0.72985940773E+02 -0.90556598422E+02  0.17368689061E+03  0.12500273721E+03 0.  0.
          4    1    3    3  502    0 -0.47910398917E+02  0.20965461023E+02 -0.40127371821E+02  0.65930082281E+02  0.12700000000E+01 0. -1.
         -4    1    3    3    0  502  0.79753869076E+02  0.52020479750E+02 -0.50429226600E+02  0.10775680833E+03  0.12700000000E+01 0. -1.
          2    1    1    2  503    0 -0.52068421196E+02 -0.85333293131E+02 -0.39344051755E+03  0.40594129164E+03  0.00000000000E+00 0. -1.
         -2    1    1    2    0  501  0.20224951037E+02  0.12347352358E+02  0.46163859727E+03  0.46224636315E+03  0.00000000000E+00 0.  1.
<mgrwt>
<rscale>  0 0.47997227E+02</rscale>
<asrwt>0</asrwt>
<pdfrwt beam="2">  1        1 0.81864081E-01 0.97219906E+02</pdfrwt>
<pdfrwt beam="1">  1       -1 0.78424311E-01 0.23696113E+02</pdfrwt>
<totfact> 0.78624602E+01</totfact>
</mgrwt>
</event>
<event>
 7    1  0.7037933E-004  0.6589061E+02  0.7546771E-02  0.1375978E+00
          2   -1    0    0  503    0  0.00000000000E+00  0.00000000000E+00  0.16657552496E+04  0.16657552496E+04  0.00000000000E+00 0. -1.
          1   -1    0    0  502    0 -0.00000000000E+00 -0.00000000000E+00 -0.82700070060E+02  0.82700070060E+02  0.00000000000E+00 0. -1.
         25    2    1    2    0    0  0.11427450901E+02  0.86990348122E+02  0.10996627811E+04  0.11102165613E+04  0.12499869389E+03 0.  0.
          4    1    3    3  501    0  0.38906016453E+02  0.10569542935E+03  0.68273071628E+03  0.69195956945E+03  0.12700000000E+01 0. -1.
         -4    1    3    3    0  501 -0.27478565552E+02 -0.18705081223E+02  0.41693206486E+03  0.41825699186E+03  0.12700000000E+01 0. -1.
          2    1    1    2  502    0  0.42532233065E+02 -0.50433150716E+02 -0.61063369801E+02  0.89895654356E+02  0.00000000000E+00 0. -1.
          1    1    1    2  503    0 -0.53959683966E+02 -0.36557197406E+02  0.54445576820E+03  0.54834310400E+03  0.00000000000E+00 0. -1.
<mgrwt>
<rscale>  0 0.65532969E+02</rscale>
<asrwt>0</asrwt>
<pdfrwt beam="1">  1        2 0.25627001E+00 0.65177267E+02</pdfrwt>
<pdfrwt beam="2">  1        1 0.12723089E-01 0.65890612E+02</pdfrwt>
<totfact> 0.74247818E+02</totfact>
</mgrwt>
</event>
<event>
 7    1  0.7037933E-004  0.6478839E+02  0.7546771E-02  0.1460297E+00
          2   -1    0    0  503    0  0.00000000000E+00  0.00000000000E+00  0.54106285190E+02  0.54106285190E+02  0.00000000000E+00 0.  1.
         -2   -1    0    0    0  501 -0.00000000000E+00 -0.00000000000E+00 -0.29676694077E+03  0.29676694077E+03  0.00000000000E+00 0. -1.
         25    2    1    2    0    0 -0.29144662808E+02  0.60721976965E+02 -0.13268117621E+03  0.19433426413E+03  0.12499976735E+03 0.  0.
          4    1    3    3  502    0 -0.83319911998E+00  0.44269477414E+02 -0.15060449843E+03  0.15698346632E+03  0.12700000000E+01 0. -1.
         -4    1    3    3    0  502 -0.28311463688E+02  0.16452499552E+02  0.17923322218E+02  0.37350797809E+02  0.12700000000E+01 0. -1.
          1    1    1    2  503    0  0.34091564102E+02  0.57704326762E+01 -0.71833982208E+02  0.79722353427E+02  0.00000000000E+00 0. -1.
         -1    1    1    2    0  501 -0.49469012939E+01 -0.66492409641E+02 -0.38145497154E+02  0.76816608396E+02  0.00000000000E+00 0.  1.
<mgrwt>
<rscale>  0 0.47330267E+02</rscale>
<asrwt>0</asrwt>
<pdfrwt beam="1">  1        2 0.83240439E-02 0.34576475E+02</pdfrwt>
<pdfrwt beam="2">  1       -2 0.45656452E-01 0.64788391E+02</pdfrwt>
<totfact> 0.31896029E+03</totfact>
</mgrwt>
</event>
<event>
 7    1  0.7037933E-004  0.1519836E+03  0.7546771E-02  0.1276023E+00
          1   -1    0    0  503    0  0.00000000000E+00  0.00000000000E+00  0.18979816783E+04  0.18979816783E+04  0.00000000000E+00 0. -1.
         -1   -1    0    0    0  501 -0.00000000000E+00 -0.00000000000E+00 -0.97755079441E+02  0.97755079441E+02  0.00000000000E+00 0.  1.
         25    2    1    2    0    0 -0.13851856576E+03  0.66162209364E+02  0.11703867853E+04  0.11870141940E+04  0.12503055029E+03 0.  0.
          4    1    3    3  502    0 -0.28655374670E+02 -0.40733146810E+01  0.64626368363E+03  0.64691273296E+03  0.12700000000E+01 0. -1.
         -4    1    3    3    0  502 -0.10986319109E+03  0.70235524045E+02  0.52412310172E+03  0.54010146107E+03  0.12700000000E+01 0. -1.
          2    1    1    2  503    0  0.15819915406E+03 -0.51391857039E+00  0.69582690710E+03  0.71358413736E+03  0.00000000000E+00 0. -1.
         -2    1    1    2    0  501 -0.19680588297E+02 -0.65648290794E+02 -0.65987093611E+02  0.95138426322E+02  0.00000000000E+00 0.  1.
<mgrwt>
<rscale>  0 0.10205965E+03</rscale>
<asrwt>0</asrwt>
<pdfrwt beam="1">  1        1 0.29199715E+00 0.15198362E+03</pdfrwt>
<pdfrwt beam="2">  1       -1 0.15039244E-01 0.68534835E+02</pdfrwt>
<totfact> 0.12674198E+02</totfact>
</mgrwt>
</event>
<event>
 7    1  0.7037933E-004  0.6057176E+02  0.7546771E-02  0.1461193E+00
         -2   -1    0    0    0  501  0.00000000000E+00  0.00000000000E+00  0.13174610736E+03  0.13174610736E+03  0.00000000000E+00 0.  1.
         -1   -1    0    0    0  502 -0.00000000000E+00 -0.00000000000E+00 -0.66305991582E+03  0.66305991582E+03  0.00000000000E+00 0.  1.
         25    2    1    2    0    0 -0.42289382445E+02 -0.19604232675E+02 -0.24392302392E+03  0.27802245791E+03  0.12500131078E+03 0.  0.
          4    1    3    3  503    0 -0.54065571658E+02 -0.46104485678E+02 -0.63572085232E+02  0.95350577130E+02  0.12700000000E+01 0. -1.
         -4    1    3    3    0  503  0.11776189213E+02  0.26500253004E+02 -0.18035093869E+03  0.18267188078E+03  0.12700000000E+01 0. -1.
         -2    1    1    2    0  502  0.62852985686E+02 -0.10846484592E+02 -0.39652904873E+03  0.40162598338E+03  0.00000000000E+00 0.  1.
         -1    1    1    2    0  501 -0.20563603241E+02  0.30450717267E+02  0.10913826418E+03  0.11515758190E+03  0.00000000000E+00 0.  1.
<mgrwt>
<rscale>  0 0.47176661E+02</rscale>
<asrwt>0</asrwt>
<pdfrwt beam="1">  1       -2 0.20268632E-01 0.36743815E+02</pdfrwt>
<pdfrwt beam="2">  1       -1 0.10200922E+00 0.60571755E+02</pdfrwt>
<totfact> 0.14526643E+02</totfact>
</mgrwt>
</event>
<event>
 7    1  0.7037933E-004  0.1007825E+03  0.7546771E-02  0.1310403E+00
          1   -1    0    0  502    0 -0.00000000000E+00  0.00000000000E+00  0.26515598067E+04  0.26515598067E+04  0.00000000000E+00 0. -1.
          2   -1    0    0  503    0  0.00000000000E+00 -0.00000000000E+00 -0.48947779858E+03  0.48947779858E+03  0.00000000000E+00 0. -1.
         25    2    1    2    0    0 -0.67006804474E+02 -0.15955112391E+03  0.17115593841E+03  0.27361601016E+03  0.12499957109E+03 0.  0.
          4    1    3    3  501    0  0.11929142905E+02 -0.12747961238E+03  0.96651286319E+02  0.16042580862E+03  0.12700000000E+01 0. -1.
         -4    1    3    3    0  501 -0.78935947379E+02 -0.32071511530E+02  0.74504652093E+02  0.11319020154E+03  0.12700000000E+01 0. -1.
          2    1    1    2  502    0  0.48089572384E+02  0.86954383940E+02  0.24249382602E+04  0.24269732668E+04  0.00000000000E+00 0. -1.
          1    1    1    2  503    0  0.18917232090E+02  0.72596739973E+02 -0.43401219056E+03  0.44044832827E+03  0.00000000000E+00 0. -1.
<mgrwt>
<rscale>  0 0.86952873E+02</rscale>
<asrwt>0</asrwt>
<pdfrwt beam="2">  1        2 0.75304278E-01 0.75020986E+02</pdfrwt>
<pdfrwt beam="1">  1        1 0.40793227E+00 0.10078249E+03</pdfrwt>
<totfact> 0.12920550E+01</totfact>
</mgrwt>
</event>
<event>
 7    1  0.7037933E-004  0.5649962E+02  0.7546771E-02  0.1448193E+00
          1   -1    0    0  503    0  0.00000000000E+00  0.00000000000E+00  0.11893291300E+04  0.11893291300E+04  0.00000000000E+00 0. -1.
         -1   -1    0    0    0  501 -0.00000000000E+00 -0.00000000000E+00 -0.17330007417E+03  0.17330007417E+03  0.00000000000E+00 0.  1.
         25    2    1    2    0    0  0.12511047694E+02  0.13052901497E+02  0.48873585457E+02  0.13542540199E+03  0.12499803037E+03 0.  0.
          4    1    3    3  502    0 -0.96708189731E+01  0.63082446778E+02  0.28298128979E+01  0.63894761695E+02  0.12700000000E+01 0.  1.
         -4    1    3    3    0  502  0.22181866667E+02 -0.50029545281E+02  0.46043772559E+02  0.71530640297E+02  0.12700000000E+01 0.  1.
          2    1    1    2  503    0  0.41985452253E+02  0.10686628976E+02  0.10899329161E+04  0.10907936303E+04  0.00000000000E+00 0. -1.
         -2    1    1    2    0  501 -0.54496499947E+02 -0.23739530473E+02 -0.12277744574E+03  0.13641017190E+03  0.00000000000E+00 0.  1.
<mgrwt>
<rscale>  0 0.49475226E+02</rscale>
<asrwt>0</asrwt>
<pdfrwt beam="1">  1        1 0.18297371E+00 0.43324153E+02</pdfrwt>
<pdfrwt beam="2">  1       -1 0.26661551E-01 0.56499615E+02</pdfrwt>
<totfact> 0.16351811E+02</totfact>
</mgrwt>
</event>
<event>
 7    1  0.7037933E-004  0.1307401E+03  0.7546771E-02  0.1300742E+00
         -1   -1    0    0    0  501 -0.00000000000E+00  0.00000000000E+00  0.11191080900E+03  0.11191080900E+03  0.00000000000E+00 0.  1.
          1   -1    0    0  503    0  0.00000000000E+00 -0.00000000000E+00 -0.59926160189E+03  0.59926160189E+03  0.00000000000E+00 0. -1.
         25    2    1    2    0    0 -0.10789677237E+03 -0.51201711440E+02 -0.76311956975E+02  0.18898006161E+03  0.12500648049E+03 0.  0.
          4    1    3    3  502    0 -0.60955498210E+02  0.76523445656E+01  0.21895821988E+02  0.65231672214E+02  0.12700000000E+01 0.  1.
         -4    1    3    3    0  502 -0.46941274158E+02 -0.58854056006E+02 -0.98207778963E+02  0.12374838939E+03  0.12700000000E+01 0.  1.
          2    1    1    2  503    0  0.13485757534E+03 -0.59240290779E+01 -0.43436354660E+03  0.45485530706E+03  0.00000000000E+00 0. -1.
         -2    1    1    2    0  501 -0.26960802974E+02  0.57125740518E+02  0.23324710678E+02  0.67337042220E+02  0.00000000000E+00 0.  1.
<mgrwt>
<rscale>  0 0.90876995E+02</rscale>
<asrwt>0</asrwt>
<pdfrwt beam="2">  1        1 0.92194093E-01 0.13074006E+03</pdfrwt>
<pdfrwt beam="1">  1       -1 0.17217048E-01 0.63168308E+02</pdfrwt>
<totfact> 0.87951245E+02</totfact>
</mgrwt>
</event>
<event>
 7    1  0.7037933E-004  0.8985798E+02  0.7546771E-02  0.1420963E+00
          1   -1    0    0  502    0 -0.00000000000E+00  0.00000000000E+00  0.76642816362E+03  0.76642816362E+03  0.00000000000E+00 0. -1.
          2   -1    0    0  503    0  0.00000000000E+00 -0.00000000000E+00 -0.56801614013E+02  0.56801614013E+02  0.00000000000E+00 0. -1.
         25    2    1    2    0    0  0.52147299937E+02 -0.35316582461E+02  0.29574053509E+03  0.32719036941E+03  0.12499788737E+03 0.  0.
          4    1    3    3  501    0  0.51854393135E+02  0.28399831903E+02  0.22193106414E+03  0.22967463654E+03  0.12700000000E+01 0. -1.
         -4    1    3    3    0  501  0.29290680151E+00 -0.63716414364E+02  0.73809470953E+02  0.97515732865E+02  0.12700000000E+01 0. -1.
          2    1    1    2  502    0  0.18409329821E+02 -0.27918100705E+02  0.39868066936E+03  0.40008074171E+03  0.00000000000E+00 0. -1.
          1    1    1    2  503    0 -0.70556629757E+02  0.63234683166E+02  0.15205345157E+02  0.95958666514E+02  0.00000000000E+00 0. -1.
<mgrwt>
<rscale>  0 0.54817623E+02</rscale>
<asrwt>0</asrwt>
<pdfrwt beam="2">  1        2 0.87387104E-02 0.89857975E+02</pdfrwt>
<pdfrwt beam="1">  1        1 0.11791202E+00 0.33441348E+02</pdfrwt>
<totfact> 0.26110238E+03</totfact>
</mgrwt>
</event>
<event>
 7    1  0.7037933E-004  0.1129575E+03  0.7546771E-02  0.1298929E+00
          1   -1    0    0  502    0 -0.00000000000E+00  0.00000000000E+00  0.80473600408E+02  0.80473600408E+02  0.00000000000E+00 0. -1.
          2   -1    0    0  503    0  0.00000000000E+00 -0.00000000000E+00 -0.21074354824E+04  0.21074354824E+04  0.00000000000E+00 0. -1.
         25    2    1    2    0    0  0.17877958146E+02  0.64730215109E+02 -0.34722419691E+03  0.37509415379E+03  0.12498543577E+03 0.  0.
          4    1    3    3  501    0 -0.22019293288E+01 -0.13665260224E+02  0.41602771105E+01  0.14508915721E+02  0.12700000000E+01 0. -1.
         -4    1    3    3    0  501  0.20079887475E+02  0.78395475332E+02 -0.35138447402E+03  0.36058523807E+03  0.12700000000E+01 0. -1.
          2    1    1    2  502    0 -0.53765233773E+02  0.51346938081E+02  0.42942120931E+02  0.85855891836E+02  0.00000000000E+00 0. -1.
          1    1    1    2  503    0  0.35887275626E+02 -0.11607715319E+03 -0.17226798060E+04  0.17269590372E+04  0.00000000000E+00 0. -1.
<mgrwt>
<rscale>  0 0.91639787E+02</rscale>
<asrwt>0</asrwt>
<pdfrwt beam="2">  1        2 0.32422089E+00 0.11295754E+03</pdfrwt>
<pdfrwt beam="1">  1        1 0.12380552E-01 0.74345198E+02</pdfrwt>
<totfact> 0.43940424E+02</totfact>
</mgrwt>
</event>
<event>
 7    1  0.7037933E-004  0.4648405E+02  0.7546771E-02  0.1559227E+00
          2   -1    0    0  503    0  0.00000000000E+00  0.00000000000E+00  0.30861710770E+04  0.30861710770E+04  0.00000000000E+00 0. -1.
          1   -1    0    0  502    0 -0.00000000000E+00 -0.00000000000E+00 -0.25756619083E+03  0.25756619083E+03  0.00000000000E+00 0. -1.
         25    2    1    2    0    0 -0.11877971358E+02 -0.43823926528E+02  0.47545844270E+03  0.49370701549E+03  0.12499705464E+03 0.  0.
          4    1    3    3  501    0 -0.33619790301E+02 -0.81295579091E+02  0.35321104231E+03  0.36400400381E+03  0.12700000000E+01 0. -1.
         -4    1    3    3    0  501  0.21741818943E+02  0.37471652563E+02  0.12224740040E+03  0.12970301168E+03  0.12700000000E+01 0. -1.
          2    1    1    2  502    0  0.24600293250E+02 -0.10622994842E+01 -0.24762207217E+03  0.24884331121E+03  0.00000000000E+00 0. -1.
          1    1    1    2  503    0 -0.12722321892E+02  0.44886226012E+02  0.26007685156E+04  0.26011869411E+04  0.00000000000E+00 0. -1.
<mgrwt>
<rscale>  0 0.33831745E+02</rscale>
<asrwt>0</asrwt>
<pdfrwt beam="1">  1        2 0.47479552E+00 0.46484051E+02</pdfrwt>
<pdfrwt beam="2">  1        1 0.39625570E-01 0.24623219E+02</pdfrwt>
<totfact> 0.35217900E+01</totfact>
</mgrwt>
</event>
<event>
 7    1  0.7037933E-004  0.6452257E+02  0.7546771E-02  0.1491775E+00
          2   -1    0    0  503    0  0.00000000000E+00  0.00000000000E+00  0.11932905340E+04  0.11932905340E+04  0.00000000000E+00 0. -1.
          1   -1    0    0  502    0 -0.00000000000E+00 -0.00000000000E+00 -0.12435922782E+04  0.12435922782E+04  0.00000000000E+00 0. -1.
         25    2    1    2    0    0 -0.40501736212E+02 -0.80868323457E+01 -0.91065353023E+02  0.16008013413E+03  0.12500785306E+03 0.  0.
          4    1    3    3  501    0  0.36376374727E+02  0.12109070643E+02 -0.66681356723E+02  0.76927800336E+02  0.12700000000E+01 0. -1.
         -4    1    3    3    0  501 -0.76878110939E+02 -0.20195902989E+02 -0.24383996300E+02  0.83152333790E+02  0.12700000000E+01 0. -1.
          2    1    1    2  502    0 -0.16675913932E+02 -0.22196173414E+02 -0.11169437355E+04  0.11172887113E+04  0.00000000000E+00 0. -1.
          3    1    1    2  503    0  0.57177650144E+02  0.30283005759E+02  0.11577073443E+04  0.11595139668E+04  0.00000000000E+00 0. -1.
<mgrwt>
<rscale>  0 0.42323842E+02</rscale>
<asrwt>0</asrwt>
<pdfrwt beam="1">  1        2 0.18358316E+00 0.64522570E+02</pdfrwt>
<pdfrwt beam="2">  1        1 0.19132189E+00 0.27762497E+02</pdfrwt>
<totfact> 0.39080751E+01</totfact>
</mgrwt>
</event>
<event>
 7    1  0.7037933E-004  0.1705205E+03  0.7546771E-02  0.1327671E+00
          2   -1    0    0  503    0  0.00000000000E+00  0.00000000000E+00  0.18000966672E+04  0.18000966672E+04  0.00000000000E+00 0. -1.
          1   -1    0    0  502    0 -0.00000000000E+00 -0.00000000000E+00 -0.47897864810E+03  0.47897864810E+03  0.00000000000E+00 0. -1.
         25    2    1    2    0    0 -0.60434364210E+02 -0.14790727542E+03  0.44586325283E+03  0.48983711878E+03  0.12496994924E+03 0.  0.
          4    1    3    3  501    0  0.89748233850E+01  0.18816611758E+02  0.31123213803E+02  0.37481724483E+02  0.12700000000E+01 0. -1.
         -4    1    3    3    0  501 -0.69409187595E+02 -0.16672388718E+03  0.41474003903E+03  0.45235539430E+03  0.12700000000E+01 0. -1.
          2    1    1    2  502    0  0.28579431511E+02  0.16861088760E+03 -0.44070854004E+03  0.47272659390E+03  0.00000000000E+00 0. -1.
          1    1    1    2  503    0  0.31854932699E+02 -0.20703612183E+02  0.13159633063E+04  0.13165116026E+04  0.00000000000E+00 0. -1.
<mgrwt>
<rscale>  0 0.80488381E+02</rscale>
<asrwt>0</asrwt>
<pdfrwt beam="1">  1        2 0.27693795E+00 0.37991792E+02</pdfrwt>
<pdfrwt beam="2">  1        1 0.73689023E-01 0.17052050E+03</pdfrwt>
<totfact> 0.76167896E+01</totfact>
</mgrwt>
</event>
<event>
 7    1  0.7037933E-004  0.5314272E+02  0.7546771E-02  0.1521707E+00
         -2   -1    0    0    0  501 -0.00000000000E+00  0.00000000000E+00  0.31493139736E+03  0.31493139736E+03  0.00000000000E+00 0.  1.
          2   -1    0    0  503    0  0.00000000000E+00 -0.00000000000E+00 -0.11007606718E+04  0.11007606718E+04  0.00000000000E+00 0. -1.
         25    2    1    2    0    0 -0.22182808755E+02 -0.22221114357E+02 -0.33182690807E+03  0.35597381319E+03  0.12498961490E+03 0.  0.
          4    1    3    3  502    0 -0.28216592202E+02 -0.19452992308E+02 -0.34202452752E+03  0.34373970575E+03  0.12700000000E+01 0. -1.
         -4    1    3    3    0  502  0.60337834473E+01 -0.27681220490E+01  0.10197619451E+02  0.12234107439E+02  0.12700000000E+01 0. -1.
          1    1    1    2  503    0  0.26183675088E+01 -0.27367763468E+02 -0.75426208720E+03  0.75476297373E+03  0.00000000000E+00 0. -1.
         -1    1    1    2    0  501  0.19564441246E+02  0.49588877825E+02  0.30025972087E+03  0.30495528220E+03  0.00000000000E+00 0.  1.
<mgrwt>
<rscale>  0 0.38223536E+02</rscale>
<asrwt>0</asrwt>
<pdfrwt beam="2">  1        2 0.16934780E+00 0.27492732E+02</pdfrwt>
<pdfrwt beam="1">  1       -2 0.48450984E-01 0.53142724E+02</pdfrwt>
<totfact> 0.10780803E+02</totfact>
</mgrwt>
</event>
<event>
 7    1  0.7037933E-004  0.1142649E+03  0.7546771E-02  0.1342255E+00
          2   -1    0    0  503    0  0.00000000000E+00  0.00000000000E+00  0.28908864702E+04  0.28908864702E+04  0.00000000000E+00 0. -1.
         -2   -1    0    0    0  501 -0.00000000000E+00 -0.00000000000E+00 -0.10015823401E+04  0.10015823401E+04  0.00000000000E+00 0.  1.
         25    2    1    2    0    0 -0.15691546093E+03 -0.40631968417E+02  0.46292097229E+02  0.20986115784E+03  0.12500131427E+03 0.  0.
          4    1    3    3  502    0 -0.85895579003E+02  0.37301054767E+02  0.46166493029E+02  0.10441444899E+03  0.12700000000E+01 0.  1.
         -4    1    3    3    0  502 -0.71019881928E+02 -0.77933023185E+02  0.12560419994E+00  0.10544670885E+03  0.12700000000E+01 0.  1.
          1    1    1    2  503    0  0.11202389066E+03  0.18800708945E+02  0.27609638662E+04  0.27632995294E+04  0.00000000000E+00 0. -1.
         -1    1    1    2    0  501  0.44891570276E+02  0.21831259473E+02 -0.91795183330E+03  0.91930812311E+03  0.00000000000E+00 0.  1.
<mgrwt>
<rscale>  0 0.75524385E+02</rscale>
<asrwt>0</asrwt>
<pdfrwt beam="1">  1        2 0.44475176E+00 0.11426490E+03</pdfrwt>
<pdfrwt beam="2">  1       -2 0.15408959E+00 0.49918503E+02</pdfrwt>
<totfact> 0.89699631E-01</totfact>
</mgrwt>
</event>
<event>
 7    1  0.7037933E-004  0.1938052E+03  0.7546771E-02  0.1244408E+00
          2   -1    0    0  503    0  0.00000000000E+00  0.00000000000E+00  0.36610775706E+03  0.36610775706E+03  0.00000000000E+00 0. -1.
          1   -1    0    0  502    0 -0.00000000000E+00 -0.00000000000E+00 -0.19985116086E+04  0.19985116086E+04  0.00000000000E+00 0. -1.
         25    2    1    2    0    0  0.49454356275E+02 -0.20685426415E+03  0.14634019741E+03  0.28682957980E+03  0.12498533722E+03 0.  0.
          4    1    3    3  501    0  0.70953604157E+02 -0.21281625995E+03  0.13248056806E+03  0.26053385241E+03  0.12700000000E+01 0. -1.
         -4    1    3    3    0  501 -0.21499247882E+02  0.59619957912E+01  0.13859629348E+02  0.26295727390E+02  0.12700000000E+01 0. -1.
          2    1    1    2  502    0  0.22424059721E+02  0.19236196500E+03 -0.19140875452E+04  0.19238599467E+04  0.00000000000E+00 0. -1.
          1    1    1    2  503    0 -0.71878415996E+02  0.14492299150E+02  0.13534349619E+03  0.15392983916E+03  0.00000000000E+00 0. -1.
<mgrwt>
<rscale>  0 0.11920881E+03</rscale>
<asrwt>0</asrwt>
<pdfrwt beam="1">  1        2 0.56324271E-01 0.73324849E+02</pdfrwt>
<pdfrwt beam="2">  1        1 0.30746332E+00 0.19380524E+03</pdfrwt>
<totfact> 0.42437658E+01</totfact>
</mgrwt>
</event>
<event>
 7    1  0.7037933E-004  0.4072180E+02  0.7546771E-02  0.1547621E+00
         -1   -1    0    0    0  501 -0.00000000000E+00  0.00000000000E+00  0.95556230160E+01  0.95556230160E+01  0.00000000000E+00 0.  1.
          1   -1    0    0  503    0  0.00000000000E+00 -0.00000000000E+00 -0.12675028972E+04  0.12675028972E+04  0.00000000000E+00 0. -1.
         25    2    1    2    0    0 -0.14256510517E+02  0.15795016531E+02 -0.71844054560E+03  0.72954822529E+03  0.12502425693E+03 0.  0.
          4    1    3    3  502    0  0.54774292566E+02  0.49081252174E+00 -0.36650034558E+03  0.37057331290E+03  0.12700000000E+01 0.  1.
         -4    1    3    3    0  502 -0.69030803083E+02  0.15304204009E+02 -0.35194020002E+03  0.35897491239E+03  0.12700000000E+01 0.  1.
          2    1    1    2  503    0  0.78569804185E+01  0.29235137032E+02 -0.39159976852E+03  0.39276813018E+03  0.00000000000E+00 0. -1.
         -2    1    1    2    0  501  0.63995300983E+01 -0.45030153563E+02 -0.14790696002E+03  0.15474216470E+03  0.00000000000E+00 0.  1.
<mgrwt>
<rscale>  0 0.35110559E+02</rscale>
<asrwt>0</asrwt>
<pdfrwt beam="2">  1        1 0.19500046E+00 0.30272519E+02</pdfrwt>
<pdfrwt beam="1">  1       -1 0.14700958E-02 0.40721798E+02</pdfrwt>
<totfact> 0.10100653E+04</totfact>
</mgrwt>
</event>
<event>
 7    1  0.7037933E-004  0.1045370E+03  0.7546771E-02  0.1377623E+00
          2   -1    0    0  503    0  0.00000000000E+00  0.00000000000E+00  0.52491978215E+03  0.52491978215E+03  0.00000000000E+00 0. -1.
          1   -1    0    0  502    0 -0.00000000000E+00 -0.00000000000E+00 -0.19446404968E+03  0.19446404968E+03  0.00000000000E+00 0. -1.
         25    2    1    2    0    0  0.96541656031E+02  0.74633547491E+01  0.22887335991E+02  0.15976232948E+03  0.12499671500E+03 0.  0.
          4    1    3    3  501    0  0.52178264007E+01 -0.15494197189E+02  0.57221544959E+02  0.59524902070E+02  0.12700000000E+01 0.  1.
         -4    1    3    3    0  501  0.91323829630E+02  0.22957551938E+02 -0.34334208968E+02  0.10023742741E+03  0.12700000000E+01 0.  1.
          2    1    1    2  502    0  0.41524411174E+01 -0.40318288901E+02 -0.11606977505E+03  0.12294307572E+03  0.00000000000E+00 0. -1.
          1    1    1    2  503    0 -0.10069409715E+03  0.32854934152E+02  0.42363817153E+03  0.43667842662E+03  0.00000000000E+00 0. -1.
<mgrwt>
<rscale>  0 0.65092614E+02</rscale>
<asrwt>0</asrwt>
<pdfrwt beam="1">  1        2 0.80756889E-01 0.10453702E+03</pdfrwt>
<pdfrwt beam="2">  1        1 0.29917546E-01 0.40531558E+02</pdfrwt>
<totfact> 0.11927745E+03</totfact>
</mgrwt>
</event>
<event>
 7    1  0.7037933E-004  0.1894326E+03  0.7546771E-02  0.1339760E+00
          2   -1    0    0  503    0  0.00000000000E+00  0.00000000000E+00  0.14508626000E+04  0.14508626000E+04  0.00000000000E+00 0. -1.
          1   -1    0    0  502    0 -0.00000000000E+00 -0.00000000000E+00 -0.80915706218E+02  0.80915706218E+02  0.00000000000E+00 0. -1.
         25    2    1    2    0    0 -0.17708255993E+03  0.89077853696E+02  0.74588154070E+03  0.78183149961E+03  0.12501249528E+03 0.  0.
          4    1    3    3  501    0 -0.11140592441E+03  0.10633229880E+03  0.61949532138E+03  0.63835249187E+03  0.12700000000E+01 0. -1.
         -4    1    3    3    0  501 -0.65676635521E+02 -0.17254445100E+02  0.12638621932E+03  0.14347900774E+03  0.12700000000E+01 0. -1.
          2    1    1    2  502    0  0.26073686761E+02  0.16334037028E+02 -0.45829262372E+02  0.55199268080E+02  0.00000000000E+00 0. -1.
          1    1    1    2  503    0  0.15100887317E+03 -0.10541189072E+03  0.66989461550E+03  0.69474753858E+03  0.00000000000E+00 0. -1.
<mgrwt>
<rscale>  0 0.76343719E+02</rscale>
<asrwt>0</asrwt>
<pdfrwt beam="1">  1        2 0.22320961E+00 0.18943258E+03</pdfrwt>
<pdfrwt beam="2">  1        1 0.12448571E-01 0.30767481E+02</pdfrwt>
<totfact> 0.85481970E+02</totfact>
</mgrwt>
</event>
<event>
 7    1  0.7037933E-004  0.5787274E+02  0.7546771E-02  0.1490191E+00
         -1   -1    0    0    0  501 -0.00000000000E+00  0.00000000000E+00  0.37442422129E+03  0.37442422129E+03  0.00000000000E+00 0.  1.
          1   -1    0    0  503    0  0.00000000000E+00 -0.00000000000E+00 -0.12021577241E+04  0.12021577241E+04  0.00000000000E+00 0. -1.
         25    2    1    2    0    0  0.14130098993E+02  0.22626963746E+02 -0.72450295282E+03  0.73569025108E+03  0.12499591077E+03 0.  0.
          4    1    3    3  502    0 -0.31023538769E+02  0.50411844309E+01 -0.47605466003E+02  0.57059326947E+02  0.12700000000E+01 0. -1.
         -4    1    3    3    0  502  0.45153637762E+02  0.17585779315E+02 -0.67689748682E+03  0.67863092414E+03  0.12700000000E+01 0. -1.
          2    1    1    2  503    0  0.17015248059E+02  0.26265899517E+02 -0.46925885110E+03  0.47030127098E+03  0.00000000000E+00 0. -1.
         -2    1    1    2    0  501 -0.31145347052E+02 -0.48892863263E+02  0.36602830107E+03  0.37059042338E+03  0.00000000000E+00 0.  1.
<mgrwt>
<rscale>  0 0.42557766E+02</rscale>
<asrwt>0</asrwt>
<pdfrwt beam="2">  1        1 0.18494735E+00 0.31295625E+02</pdfrwt>
<pdfrwt beam="1">  1       -1 0.57603725E-01 0.57872735E+02</pdfrwt>
<totfact> 0.44120362E+01</totfact>
</mgrwt>
</event>
<event>
 7    1  0.7037933E-004  0.5549721E+02  0.7546771E-02  0.1441052E+00
          2   -1    0    0  503    0  0.00000000000E+00  0.00000000000E+00  0.75883271255E+03  0.75883271255E+03  0.00000000000E+00 0. -1.
         -2   -1    0    0    0  501 -0.00000000000E+00 -0.00000000000E+00 -0.54420579818E+02  0.54420579818E+02  0.00000000000E+00 0.  1.
         25    2    1    2    0    0 -0.12359729400E+02 -0.21301888511E+02  0.96297417800E+02  0.15970091349E+03  0.12499862291E+03 0.  0.
          4    1    3    3  502    0 -0.20675210137E+02 -0.59190259252E+01  0.12457774126E+03  0.12642676022E+03  0.12700000000E+01 0. -1.
         -4    1    3    3    0  502  0.83154807373E+01 -0.15382862585E+02 -0.28280323457E+02  0.33274153273E+02  0.12700000000E+01 0. -1.
          1    1    1    2  503    0 -0.39465558201E+02 -0.24606283562E+02  0.57487284126E+03  0.57675105817E+03  0.00000000000E+00 0. -1.
         -1    1    1    2    0  501  0.51825287602E+02  0.45908172072E+02  0.33241873670E+02  0.76801320712E+02  0.00000000000E+00 0.  1.
<mgrwt>
<rscale>  0 0.50804209E+02</rscale>
<asrwt>0</asrwt>
<pdfrwt beam="1">  1        2 0.11674349E+00 0.46508058E+02</pdfrwt>
<pdfrwt beam="2">  1       -2 0.83723974E-02 0.55497215E+02</pdfrwt>
<totfact> 0.31644324E+03</totfact>
</mgrwt>
</event>
<event>
 7    1  0.7037933E-004  0.7361079E+02  0.7546771E-02  0.1394541E+00
         -2   -1    0    0    0  501 -0.00000000000E+00  0.00000000000E+00  0.15789735645E+03  0.15789735645E+03  0.00000000000E+00 0.  1.
          2   -1    0    0  503    0  0.00000000000E+00 -0.00000000000E+00 -0.31996143397E+04  0.31996143397E+04  0.00000000000E+00 0. -1.
         25    2    1    2    0    0  0.29619818955E+02  0.32852064065E+02 -0.12329124392E+03  0.18106555901E+03  0.12500965580E+03 0.  0.
          4    1    3    3  502    0  0.17031897184E+02  0.62961297322E+02 -0.13631360326E+02  0.66645610257E+02  0.12700000000E+01 0.  1.
         -4    1    3    3    0  502  0.12587921771E+02 -0.30109233257E+02 -0.10965988360E+03  0.11441994875E+03  0.12700000000E+01 0.  1.
          1    1    1    2  503    0 -0.11911026127E+01 -0.74231469496E+02 -0.30420816410E+04  0.30429874203E+04  0.00000000000E+00 0. -1.
         -1    1    1    2    0  501 -0.28428716342E+02  0.41379405432E+02  0.12365590160E+03  0.13345871687E+03  0.00000000000E+00 0.  1.
<mgrwt>
<rscale>  0 0.60791118E+02</rscale>
<asrwt>0</asrwt>
<pdfrwt beam="2">  1        2 0.49224837E+00 0.73610789E+02</pdfrwt>
<pdfrwt beam="1">  1       -2 0.24291901E-01 0.50204055E+02</pdfrwt>
<totfact> 0.28132815E+01</totfact>
</mgrwt>
</event>
<event>
 7    1  0.7037933E-004  0.8673692E+02  0.7546771E-02  0.1443020E+00
          1   -1    0    0  502    0 -0.00000000000E+00  0.00000000000E+00  0.54885042011E+03  0.54885042011E+03  0.00000000000E+00 0. -1.
          2   -1    0    0  503    0  0.00000000000E+00 -0.00000000000E+00 -0.87716716724E+03  0.87716716724E+03  0.00000000000E+00 0. -1.
         25    2    1    2    0    0  0.75135087760E+02  0.80954479464E+02 -0.10857684610E+03  0.19900037682E+03  0.12495322847E+03 0.  0.
          4    1    3    3  501    0 -0.23343915545E+02  0.46745565523E+02 -0.71028506562E+02  0.88185871507E+02  0.12700000000E+01 0. -1.
         -4    1    3    3    0  501  0.98479003306E+02  0.34208913941E+02 -0.37548339541E+02  0.11081450531E+03  0.12700000000E+01 0. -1.
          2    1    1    2  502    0 -0.78230279799E+01 -0.28261317180E+02  0.50068268927E+03  0.50154068344E+03  0.00000000000E+00 0. -1.
          1    1    1    2  503    0 -0.67312059781E+02 -0.52693162284E+02 -0.72042259029E+03  0.72547652708E+03  0.00000000000E+00 0. -1.
<mgrwt>
<rscale>  0 0.50432933E+02</rscale>
<asrwt>0</asrwt>
<pdfrwt beam="2">  1        2 0.13494880E+00 0.86736924E+02</pdfrwt>
<pdfrwt beam="1">  1        1 0.84438526E-01 0.29324083E+02</pdfrwt>
<totfact> 0.19139457E+02</totfact>
</mgrwt>
</event>
<event>
 7    1  0.7037933E-004  0.1136088E+03  0.7546771E-02  0.1407884E+00
          2   -1    0    0  503    0  0.00000000000E+00  0.00000000000E+00  0.69811008827E+03  0.69811008827E+03  0.00000000000E+00 0. -1.
          1   -1    0    0  502    0 -0.00000000000E+00 -0.00000000000E+00 -0.18467038962E+03  0.18467038962E+03  0.00000000000E+00 0. -1.
         25    2    1    2    0    0  0.24423499473E+02 -0.89231741988E+02 -0.11870645828E+02  0.15597114885E+03  0.12500910341E+03 0.  0.
          4    1    3    3  501    0  0.61130889973E+02 -0.93840790044E+02  0.10865659595E+02  0.11252890759E+03  0.12700000000E+01 0. -1.
         -4    1    3    3    0  501 -0.36707390499E+02  0.46090480557E+01 -0.22736305423E+02  0.43442241259E+02  0.12700000000E+01 0. -1.
          2    1    1    2  502    0  0.25478219621E+02 -0.14414192849E+02 -0.93201899481E+02  0.97690852681E+02  0.00000000000E+00 0. -1.
          1    1    1    2  503    0 -0.49901719095E+02  0.10364593484E+03  0.61851224396E+03  0.62911847636E+03  0.00000000000E+00 0. -1.
<mgrwt>
<rscale>  0 0.57668631E+02</rscale>
<asrwt>0</asrwt>
<pdfrwt beam="1">  1        2 0.10740155E+00 0.11360881E+03</pdfrwt>
<pdfrwt beam="2">  1        1 0.28410830E-01 0.29273002E+02</pdfrwt>
<totfact> 0.90726128E+02</totfact>
</mgrwt>
</event>
<event>
 7    1  0.7037933E-004  0.6636376E+02  0.7546771E-02  0.1487315E+00
         -2   -1    0    0    0  501  0.00000000000E+00  0.00000000000E+00  0.69858777048E+03  0.69858777048E+03  0.00000000000E+00 0.  1.
         -1   -1    0    0    0  502 -0.00000000000E+00 -0.00000000000E+00 -0.50490658752E+03  0.50490658752E+03  0.00000000000E+00 0.  1.
         25    2    1    2    0    0 -0.45469364173E+02 -0.75426587489E+02 -0.80899954223E+01  0.15312427629E+03  0.12499985114E+03 0.  0.
          4    1    3    3  503    0  0.16843969847E+02  0.26512569658E+02 -0.11814958132E+02  0.33583356082E+02  0.12700000000E+01 0. -1.
         -4    1    3    3    0  503 -0.62313334019E+02 -0.10193915715E+03  0.37249627097E+01  0.11954092021E+03  0.12700000000E+01 0. -1.
         -2    1    1    2    0  502  0.24708084509E+02  0.12838956487E+02 -0.42210314904E+03  0.42302056294E+03  0.00000000000E+00 0.  1.
         -1    1    1    2    0  501  0.20761279664E+02  0.62587631002E+02  0.62387432743E+03  0.62734951878E+03  0.00000000000E+00 0.  1.
<mgrwt>
<rscale>  0 0.42986977E+02</rscale>
<asrwt>0</asrwt>
<pdfrwt beam="1">  1       -2 0.10747504E+00 0.66363763E+02</pdfrwt>
<pdfrwt beam="2">  1       -1 0.77677937E-01 0.27844717E+02</pdfrwt>
<totfact> 0.10483123E+01</totfact>
</mgrwt>
</event>
<event>
 7    1  0.7037933E-004  0.6131925E+02  0.7546771E-02  0.1437363E+00
          1   -1    0    0  502    0 -0.00000000000E+00  0.00000000000E+00  0.15316314685E+03  0.15316314685E+03  0.00000000000E+00 0. -1.
          2   -1    0    0  503    0  0.00000000000E+00 -0.00000000000E+00 -0.10231044826E+04  0.10231044826E+04  0.00000000000E+00 0. -1.
         25    2    1    2    0    0 -0.32265038953E+02 -0.21098404876E+02 -0.27231984786E+03  0.30210801825E+03  0.12499991891E+03 0.  0.
          4    1    3    3  501    0 -0.10845199129E+02 -0.73083109505E+02 -0.16964142531E+03  0.18503671344E+03  0.12700000000E+01 0. -1.
         -4    1    3    3    0  501 -0.21419839824E+02  0.51984704628E+02 -0.10267842255E+03  0.11707130482E+03  0.12700000000E+01 0. -1.
          2    1    1    2  502    0  0.61122956702E+02 -0.11143179059E+02  0.13061482652E+03  0.14463892693E+03  0.00000000000E+00 0. -1.
          1    1    1    2  503    0 -0.28857917749E+02  0.32241583935E+02 -0.72823631437E+03  0.72952068423E+03  0.00000000000E+00 0. -1.
<mgrwt>
<rscale>  0 0.51510082E+02</rscale>
<asrwt>0</asrwt>
<pdfrwt beam="2">  1        2 0.15740069E+00 0.43270072E+02</pdfrwt>
<pdfrwt beam="1">  1        1 0.23563561E-01 0.61319253E+02</pdfrwt>
<totfact> 0.75599262E+02</totfact>
</mgrwt>
</event>
<event>
 7    1  0.7037933E-004  0.1129435E+03  0.7546771E-02  0.1357888E+00
          2   -1    0    0  503    0  0.00000000000E+00  0.00000000000E+00  0.56711784491E+03  0.56711784491E+03  0.00000000000E+00 0. -1.
          1   -1    0    0  502    0 -0.00000000000E+00 -0.00000000000E+00 -0.33161712344E+04  0.33161712344E+04  0.00000000000E+00 0. -1.
         25    2    1    2    0    0 -0.73782305655E+02  0.55573544410E+02  0.15866351853E+03  0.22210640244E+03  0.12499957770E+03 0.  0.
          4    1    3    3  501    0  0.10408648475E+02 -0.32125734714E+02  0.36985446238E+02  0.50099290688E+02  0.12700000000E+01 0.  1.
         -4    1    3    3    0  501 -0.84190954130E+02  0.87699279124E+02  0.12167807229E+03  0.17200711175E+03  0.12700000000E+01 0.  1.
          2    1    1    2  502    0  0.58480379243E+01  0.43808626594E+02 -0.32746800482E+04  0.32749782921E+04  0.00000000000E+00 0. -1.
          1    1    1    2  503    0  0.67934267731E+02 -0.99382171004E+02  0.36696314015E+03  0.38620438485E+03  0.00000000000E+00 0. -1.
<mgrwt>
<rscale>  0 0.70652608E+02</rscale>
<asrwt>0</asrwt>
<pdfrwt beam="1">  1        2 0.87248901E-01 0.11294352E+03</pdfrwt>
<pdfrwt beam="2">  1        1 0.51018018E+00 0.44197232E+02</pdfrwt>
<totfact> 0.45373959E+00</totfact>
</mgrwt>
</event>
<event>
 7    1  0.7037933E-004  0.1287125E+03  0.7546771E-02  0.1290178E+00
         -1   -1    0    0    0  501 -0.00000000000E+00  0.00000000000E+00  0.19509689854E+03  0.19509689854E+03  0.00000000000E+00 0.  1.
          1   -1    0    0  503    0  0.00000000000E+00 -0.00000000000E+00 -0.40576226549E+04  0.40576226549E+04  0.00000000000E+00 0. -1.
         25    2    1    2    0    0 -0.86654616800E+02 -0.17543831938E+03 -0.81773217240E+03  0.85005856454E+03  0.12500412338E+03 0.  0.
          4    1    3    3  502    0 -0.43210083677E+02 -0.18468812524E+02 -0.38197391834E+03  0.38485568147E+03  0.12700000000E+01 0.  1.
         -4    1    3    3    0  502 -0.43444533122E+02 -0.15696950686E+03 -0.43575825406E+03  0.46520288307E+03  0.12700000000E+01 0.  1.
          2    1    1    2  503    0  0.42908375147E+02  0.56285001799E+02 -0.32007766917E+04  0.32015590828E+04  0.00000000000E+00 0. -1.
         -2    1    1    2    0  501  0.43746241652E+02  0.11915331758E+03  0.15598310775E+03  0.20110190614E+03  0.00000000000E+00 0.  1.
<mgrwt>
<rscale>  0 0.95444518E+02</rscale>
<asrwt>0</asrwt>
<pdfrwt beam="2">  1        1 0.62424964E+00 0.70775208E+02</pdfrwt>
<pdfrwt beam="1">  1       -1 0.30014907E-01 0.12871253E+03</pdfrwt>
<totfact> 0.15305726E+00</totfact>
</mgrwt>
</event>
<event>
 7    1  0.7037933E-004  0.1031355E+03  0.7546771E-02  0.1437515E+00
          2   -1    0    0  503    0  0.00000000000E+00  0.00000000000E+00  0.60175471194E+03  0.60175471194E+03  0.00000000000E+00 0. -1.
          1   -1    0    0  502    0 -0.00000000000E+00 -0.00000000000E+00 -0.36282181943E+03  0.36282181943E+03  0.00000000000E+00 0. -1.
         25    2    1    2    0    0 -0.11145861347E+03 -0.39439200207E+02  0.23022515414E+03  0.28741579042E+03  0.12500296778E+03 0.  0.
          4    1    3    3  501    0 -0.10915075441E+03 -0.53088825647E+02  0.24099008619E+03  0.26983355080E+03  0.12700000000E+01 0. -1.
         -4    1    3    3    0  501 -0.23078590587E+01  0.13649625440E+02 -0.10764932047E+02  0.17582239620E+02  0.12700000000E+01 0. -1.
          2    1    1    2  502    0  0.10152162441E+03  0.15741401253E+02 -0.32582743294E+03  0.34164008545E+03  0.00000000000E+00 0. -1.
          1    1    1    2  503    0  0.99369890628E+01  0.23697798953E+02  0.33453517131E+03  0.33552065550E+03  0.00000000000E+00 0. -1.
<mgrwt>
<rscale>  0 0.51480681E+02</rscale>
<asrwt>0</asrwt>
<pdfrwt beam="1">  1        2 0.92577648E-01 0.25696876E+02</pdfrwt>
<pdfrwt beam="2">  1        1 0.55818741E-01 0.10313551E+03</pdfrwt>
<totfact> 0.50106314E+02</totfact>
</mgrwt>
</event>
<event>
 7    1  0.7037933E-004  0.2750439E+02  0.7546771E-02  0.1714698E+00
          1   -1    0    0  502    0 -0.00000000000E+00  0.00000000000E+00  0.40874976095E+03  0.40874976095E+03  0.00000000000E+00 0. -1.
          2   -1    0    0  503    0  0.00000000000E+00 -0.00000000000E+00 -0.65141912216E+02  0.65141912216E+02  0.00000000000E+00 0. -1.
         25    2    1    2    0    0  0.12371914733E+01 -0.35729031969E-01  0.48225580335E+01  0.12505792351E+03  0.12495877419E+03 0.  0.
          4    1    3    3  501    0 -0.44938933466E+02 -0.37848922605E+02 -0.17509639025E+02  0.61320869549E+02  0.12700000000E+01 0.  1.
         -4    1    3    3    0  501  0.46176124940E+02  0.37813193573E+02  0.22332197058E+02  0.63737053965E+02  0.12700000000E+01 0.  1.
          2    1    1    2  502    0  0.20144901438E+02  0.18726306899E+02  0.29723741337E+03  0.29850723866E+03  0.00000000000E+00 0. -1.
          1    1    1    2  503    0 -0.21382092912E+02 -0.18690577867E+02  0.41547877330E+02  0.50326510995E+02  0.00000000000E+00 0. -1.
<mgrwt>
<rscale>  0 0.21631845E+02</rscale>
<asrwt>0</asrwt>
<pdfrwt beam="2">  1        2 0.10021833E-01 0.17013163E+02</pdfrwt>
<pdfrwt beam="1">  1        1 0.62884577E-01 0.27504393E+02</pdfrwt>
<totfact> 0.42851069E+03</totfact>
</mgrwt>
</event>
<event>
 7    1  0.7037933E-004  0.4985324E+02  0.7546771E-02  0.1448623E+00
          1   -1    0    0  502    0 -0.00000000000E+00  0.00000000000E+00  0.12781667435E+04  0.12781667435E+04  0.00000000000E+00 0. -1.
          2   -1    0    0  503    0  0.00000000000E+00 -0.00000000000E+00 -0.25782991004E+04  0.25782991004E+04  0.00000000000E+00 0. -1.
         25    2    1    2    0    0 -0.18316431876E+02  0.94201569605E+02 -0.54409582931E+02  0.16671580764E+03  0.12499732161E+03 0.  0.
          4    1    3    3  501    0  0.25511882347E+02 -0.18371466667E+02  0.53783834989E+01  0.31920320134E+02  0.12700000000E+01 0.  1.
         -4    1    3    3    0  501 -0.43828314223E+02  0.11257303627E+03 -0.59787966430E+02  0.13479548751E+03  0.12700000000E+01 0.  1.
          2    1    1    2  502    0  0.20336324201E+02 -0.45298768727E+02  0.12212663909E+04  0.12222753954E+04  0.00000000000E+00 0. -1.
          3    1    1    2  503    0 -0.20198923248E+01 -0.48902800878E+02 -0.24669891649E+04  0.24674746409E+04  0.00000000000E+00 0. -1.
<mgrwt>
<rscale>  0 0.49396779E+02</rscale>
<asrwt>0</asrwt>
<pdfrwt beam="2">  1        2 0.39666140E+00 0.48944498E+02</pdfrwt>
<pdfrwt beam="1">  1        1 0.19664104E+00 0.49853239E+02</pdfrwt>
<totfact> 0.73600033E+00</totfact>
</mgrwt>
</event>
<event>
 7    1  0.7037933E-004  0.6966921E+02  0.7546771E-02  0.1470676E+00
         -1   -1    0    0    0  501 -0.00000000000E+00  0.00000000000E+00  0.16971888321E+03  0.16971888321E+03  0.00000000000E+00 0.  1.
          1   -1    0    0  503    0  0.00000000000E+00 -0.00000000000E+00 -0.16862854325E+04  0.16862854325E+04  0.00000000000E+00 0. -1.
         25    2    1    2    0    0  0.80091545030E+02 -0.35464173914E+02 -0.12004805923E+04  0.12101453580E+04  0.12500308712E+03 0.  0.
          4    1    3    3  502    0  0.23545361248E+02  0.27828610773E+02 -0.79693053288E+03  0.79776481670E+03  0.12700000000E+01 0. -1.
         -4    1    3    3    0  502  0.56546183782E+02 -0.63292784687E+02 -0.40355005940E+03  0.41238054129E+03  0.12700000000E+01 0. -1.
          2    1    1    2  503    0 -0.61460084839E+02  0.12159932893E+02 -0.47755969437E+03  0.48165181167E+03  0.00000000000E+00 0. -1.
         -2    1    1    2    0  501 -0.18631460191E+02  0.23304241021E+02  0.16147373737E+03  0.16420714606E+03  0.00000000000E+00 0.  1.
<mgrwt>
<rscale>  0 0.45592630E+02</rscale>
<asrwt>0</asrwt>
<pdfrwt beam="2">  1        1 0.25942853E+00 0.69669207E+02</pdfrwt>
<pdfrwt beam="1">  1       -1 0.26110598E-01 0.29836537E+02</pdfrwt>
<totfact> 0.76520849E+01</totfact>
</mgrwt>
</event>
<event>
 7    1  0.7037933E-004  0.8214447E+02  0.7546771E-02  0.1359628E+00
          2   -1    0    0  503    0  0.00000000000E+00  0.00000000000E+00  0.17468800485E+04  0.17468800485E+04  0.00000000000E+00 0. -1.
          1   -1    0    0  502    0 -0.00000000000E+00 -0.00000000000E+00 -0.37460978464E+02  0.37460978464E+02  0.00000000000E+00 0. -1.
         25    2    1    2    0    0 -0.86337438171E+01  0.74569383054E+02  0.60366681801E+03  0.62102620680E+03  0.12499915178E+03 0.  0.
          4    1    3    3  501    0 -0.26184837679E+02  0.53225989756E+02  0.97706081759E+02  0.11430985532E+03  0.12700000000E+01 0.  1.
         -4    1    3    3    0  501  0.17551093862E+02  0.21343393298E+02  0.50596073625E+03  0.50671635149E+03  0.12700000000E+01 0.  1.
          2    1    1    2  502    0  0.59735508797E+02 -0.42258995034E+01  0.60598395562E+01  0.60190621306E+02  0.00000000000E+00 0. -1.
          1    1    1    2  503    0 -0.51101764980E+02 -0.70343483551E+02  0.10996924125E+04  0.11031241989E+04  0.00000000000E+00 0. -1.
<mgrwt>
<rscale>  0 0.70137046E+02</rscale>
<asrwt>0</asrwt>
<pdfrwt beam="1">  1        2 0.26875071E+00 0.82144471E+02</pdfrwt>
<pdfrwt beam="2">  1        1 0.57632288E-02 0.59884800E+02</pdfrwt>
<totfact> 0.18442234E+03</totfact>
</mgrwt>
</event>
<event>
 7    1  0.7037933E-004  0.1804637E+03  0.7546771E-02  0.1259982E+00
          2   -1    0    0  503    0  0.00000000000E+00  0.00000000000E+00  0.11490736137E+04  0.11490736137E+04  0.00000000000E+00 0. -1.
          1   -1    0    0  502    0 -0.00000000000E+00 -0.00000000000E+00 -0.29172347159E+04  0.29172347159E+04  0.00000000000E+00 0. -1.
         25    2    1    2    0    0 -0.19393781975E+03  0.80296950049E+02  0.77096518087E+03  0.80874710060E+03  0.12500033802E+03 0.  0.
          4    1    3    3  501    0 -0.23881127032E+02  0.57871754396E+02  0.32403023160E+03  0.33002522946E+03  0.12700000000E+01 0. -1.
         -4    1    3    3    0  501 -0.17005669272E+03  0.22425195653E+02  0.44693494926E+03  0.47872187114E+03  0.12700000000E+01 0. -1.
          2    1    1    2  502    0  0.66664674160E+02  0.10182519634E+02 -0.28809595902E+04  0.28817487786E+04  0.00000000000E+00 0. -1.
          3    1    1    2  503    0  0.12727314559E+03 -0.90479469683E+02  0.34183330711E+03  0.37581245040E+03  0.00000000000E+00 0. -1.
<mgrwt>
<rscale>  0 0.11031811E+03</rscale>
<asrwt>0</asrwt>
<pdfrwt beam="1">  1        2 0.17678056E+00 0.18046374E+03</pdfrwt>
<pdfrwt beam="2">  1        1 0.44880533E+00 0.67437842E+02</pdfrwt>
<totfact> 0.31258440E+00</totfact>
</mgrwt>
</event>
<event>
 7    1  0.7037933E-004  0.1146476E+03  0.7546771E-02  0.1385214E+00
         -2   -1    0    0    0  501 -0.00000000000E+00  0.00000000000E+00  0.44809292446E+03  0.44809292446E+03  0.00000000000E+00 0.  1.
          2   -1    0    0  503    0  0.00000000000E+00 -0.00000000000E+00 -0.31014738257E+04  0.31014738257E+04  0.00000000000E+00 0. -1.
         25    2    1    2    0    0  0.99378943160E+02 -0.27228925319E+02 -0.12889824344E+03  0.20701711553E+03  0.12499496088E+03 0.  0.
          4    1    3    3  502    0 -0.22696606883E+02 -0.27111686301E+02 -0.10388819403E+02  0.36874380898E+02  0.12700000000E+01 0.  1.
         -4    1    3    3    0  502  0.12207555004E+03 -0.11723901847E+00 -0.11850942404E+03  0.17014273463E+03  0.12700000000E+01 0.  1.
          1    1    1    2  503    0 -0.11505119999E+03 -0.37786744306E+01 -0.29316467671E+04  0.29339058990E+04  0.00000000000E+00 0. -1.
         -1    1    1    2    0  501  0.15672256826E+02  0.31007599750E+02  0.40716410924E+03  0.40864373570E+03  0.00000000000E+00 0.  1.
<mgrwt>
<rscale>  0 0.63112797E+02</rscale>
<asrwt>0</asrwt>
<pdfrwt beam="2">  1        2 0.47714982E+00 0.11464758E+03</pdfrwt>
<pdfrwt beam="1">  1       -2 0.68937373E-01 0.34743213E+02</pdfrwt>
<totfact> 0.42485398E+00</totfact>
</mgrwt>
</event>
<event>
 7    1  0.7037933E-004  0.4665114E+02  0.7546771E-02  0.1474061E+00
          2   -1    0    0  503    0  0.00000000000E+00  0.00000000000E+00  0.12676491942E+04  0.12676491942E+04  0.00000000000E+00 0. -1.
          1   -1    0    0  502    0 -0.00000000000E+00 -0.00000000000E+00 -0.43930834471E+02  0.43930834471E+02  0.00000000000E+00 0. -1.
         25    2    1    2    0    0  0.26420271949E+02 -0.41773897366E+01  0.58139101114E+03  0.59527835930E+03  0.12500134342E+03 0.  0.
          4    1    3    3  501    0 -0.12058739052E+02  0.50627358792E+02  0.15135018858E+03  0.16005322592E+03  0.12700000000E+01 0.  1.
         -4    1    3    3    0  501  0.38479011002E+02 -0.54804748529E+02  0.43004082256E+03  0.43522513337E+03  0.12700000000E+01 0.  1.
          2    1    1    2  502    0 -0.13364029493E+02  0.45665605479E+02 -0.20671776536E+02  0.51877424312E+02  0.00000000000E+00 0. -1.
          1    1    1    2  503    0 -0.13056242456E+02 -0.41488215742E+02  0.66299912516E+03  0.66442424510E+03  0.00000000000E+00 0. -1.
<mgrwt>
<rscale>  0 0.45044977E+02</rscale>
<asrwt>0</asrwt>
<pdfrwt beam="1">  1        2 0.19502292E+00 0.43494109E+02</pdfrwt>
<pdfrwt beam="2">  1        1 0.67585909E-02 0.46651145E+02</pdfrwt>
<totfact> 0.26813279E+03</totfact>
</mgrwt>
</event>
<event>
 7    1  0.7037933E-004  0.1289048E+03  0.7546771E-02  0.1304290E+00
          1   -1    0    0  502    0 -0.00000000000E+00  0.00000000000E+00  0.89209671390E+03  0.89209671390E+03  0.00000000000E+00 0. -1.
          2   -1    0    0  503    0  0.00000000000E+00 -0.00000000000E+00 -0.70356829987E+03  0.70356829987E+03  0.00000000000E+00 0. -1.
         25    2    1    2    0    0 -0.11457479384E+03  0.11347562720E+02  0.11392900485E+02  0.17032570521E+03  0.12499958845E+03 0.  0.
          4    1    3    3  501    0  0.18581466676E+02  0.39456623166E+01 -0.25618009005E+02  0.31917619591E+02  0.12700000000E+01 0.  1.
         -4    1    3    3    0  501 -0.13315626052E+03  0.74019004038E+01  0.37010909490E+02  0.13840808562E+03  0.12700000000E+01 0.  1.
          2    1    1    2  502    0  0.12061150799E+03  0.50372222849E+02  0.79434257270E+03  0.80502460801E+03  0.00000000000E+00 0. -1.
          1    1    1    2  503    0 -0.60367141470E+01 -0.61719785569E+02 -0.61720705915E+03  0.62031470055E+03  0.00000000000E+00 0. -1.
<mgrwt>
<rscale>  0 0.89408845E+02</rscale>
<asrwt>0</asrwt>
<pdfrwt beam="2">  1        2 0.10824128E+00 0.62014304E+02</pdfrwt>
<pdfrwt beam="1">  1        1 0.13724565E+00 0.12890480E+03</pdfrwt>
<totfact> 0.12075647E+02</totfact>
</mgrwt>
</event>
<event>
 7    1  0.7037933E-004  0.4097131E+02  0.7546771E-02  0.1526641E+00
          1   -1    0    0  502    0 -0.00000000000E+00  0.00000000000E+00  0.43907253442E+02  0.43907253442E+02  0.00000000000E+00 0. -1.
          2   -1    0    0  503    0  0.00000000000E+00 -0.00000000000E+00 -0.23457770999E+04  0.23457770999E+04  0.00000000000E+00 0. -1.
         25    2    1    2    0    0 -0.14719398225E+02  0.13688267809E+02 -0.10708263126E+03  0.16582418219E+03  0.12500776025E+03 0.  0.
          4    1    3    3  501    0 -0.65862217147E+02  0.26536183184E+02 -0.43790768115E+02  0.83434075399E+02  0.12700000000E+01 0.  1.
         -4    1    3    3    0  501  0.51142818923E+02 -0.12847915374E+02 -0.63291863148E+02  0.82390106795E+02  0.12700000000E+01 0.  1.
          2    1    1    2  502    0  0.81351600844E+01 -0.47563410381E+02 -0.26027639189E+02  0.54826059848E+02  0.00000000000E+00 0. -1.
          3    1    1    2  503    0  0.65842381403E+01  0.33875142572E+02 -0.21687595760E+04  0.21690341113E+04  0.00000000000E+00 0. -1.
<mgrwt>
<rscale>  0 0.37601633E+02</rscale>
<asrwt>0</asrwt>
<pdfrwt beam="2">  1        2 0.36088876E+00 0.34509093E+02</pdfrwt>
<pdfrwt beam="1">  1        1 0.67549626E-02 0.40971312E+02</pdfrwt>
<totfact> 0.81252989E+02</totfact>
</mgrwt>
</event>
<event>
 7    1  0.7037933E-004  0.1055103E+03  0.7546771E-02  0.1447901E+00
          2   -1    0    0  503    0  0.00000000000E+00  0.00000000000E+00  0.76011208407E+02  0.76011208407E+02  0.00000000000E+00 0. -1.
          1   -1    0    0  502    0 -0.00000000000E+00 -0.00000000000E+00 -0.22724310890E+04  0.22724310890E+04  0.00000000000E+00 0. -1.
         25    2    1    2    0    0 -0.97739783919E+02 -0.20496469859E+02 -0.14464070045E+04  0.14552286865E+04  0.12499654674E+03 0.  0.
          4    1    3    3  501    0  0.14665275184E+02  0.14608155036E+02 -0.53919624136E+02  0.57770297358E+02  0.12700000000E+01 0.  1.
         -4    1    3    3    0  501 -0.11240505910E+03 -0.35104624895E+02 -0.13924873803E+04  0.13974583891E+04  0.12700000000E+01 0.  1.
          2    1    1    2  502    0 -0.79772044002E+01  0.21838339610E+02 -0.78231745828E+03  0.78266286126E+03  0.00000000000E+00 0. -1.
          1    1    1    2  503    0  0.10571698832E+03 -0.13418697510E+01  0.32304582133E+02  0.11055074971E+03  0.00000000000E+00 0. -1.
<mgrwt>
<rscale>  0 0.49528618E+02</rscale>
<asrwt>0</asrwt>
<pdfrwt beam="1">  1        2 0.11694032E-01 0.10551032E+03</pdfrwt>
<pdfrwt beam="2">  1        1 0.34960479E+00 0.23249707E+02</pdfrwt>
<totfact> 0.21753213E+02</totfact>
</mgrwt>
</event>
<event>
 7    1  0.7037933E-004  0.6358773E+02  0.7546771E-02  0.1441519E+00
         -2   -1    0    0    0  501 -0.00000000000E+00  0.00000000000E+00  0.18488288289E+02  0.18488288289E+02  0.00000000000E+00 0.  1.
          2   -1    0    0  503    0  0.00000000000E+00 -0.00000000000E+00 -0.13693065591E+04  0.13693065591E+04  0.00000000000E+00 0. -1.
         25    2    1    2    0    0  0.43950927801E+02  0.33312057921E+02 -0.11646792886E+04  0.11726657731E+04  0.12500317115E+03 0.  0.
          4    1    3    3  502    0  0.49754962179E+02  0.46756902021E+02 -0.11495327679E+04  0.11515593609E+04  0.12700000000E+01 0. -1.
         -4    1    3    3    0  502 -0.58040343782E+01 -0.13444844100E+02 -0.15146520653E+02  0.21106412197E+02  0.12700000000E+01 0. -1.
          1    1    1    2  503    0  0.21912984740E+02 -0.33999644627E+02 -0.53855253568E+02  0.67353864565E+02  0.00000000000E+00 0. -1.
         -1    1    1    2    0  501 -0.65863912541E+02  0.68758670604E+00 -0.13228372861E+03  0.14777520971E+03  0.00000000000E+00 0.  1.
<mgrwt>
<rscale>  0 0.50715739E+02</rscale>
<asrwt>0</asrwt>
<pdfrwt beam="2">  1        2 0.21066257E+00 0.40449410E+02</pdfrwt>
<pdfrwt beam="1">  1       -2 0.28443518E-02 0.63587732E+02</pdfrwt>
<totfact> 0.72097612E+03</totfact>
</mgrwt>
</event>
<event>
 7    1  0.7037933E-004  0.5592772E+02  0.7546771E-02  0.1422016E+00
          2   -1    0    0  503    0  0.00000000000E+00  0.00000000000E+00  0.14100215369E+04  0.14100215369E+04  0.00000000000E+00 0. -1.
         -2   -1    0    0    0  501 -0.00000000000E+00 -0.00000000000E+00 -0.14070827306E+03  0.14070827306E+03  0.00000000000E+00 0.  1.
         25    2    1    2    0    0  0.26143932903E+02  0.14985771854E+02  0.22076490438E+03  0.25547882245E+03  0.12499682848E+03 0.  0.
          4    1    3    3  502    0  0.69061386742E+02  0.17776065524E+02  0.75012584107E+02  0.10350828140E+03  0.12700000000E+01 0.  1.
         -4    1    3    3    0  502 -0.42917453839E+02 -0.27902936696E+01  0.14575232027E+03  0.15197054105E+03  0.12700000000E+01 0.  1.
          1    1    1    2  503    0  0.19273807262E+02 -0.49690230669E+02  0.11646356753E+04  0.11658545599E+04  0.00000000000E+00 0. -1.
         -1    1    1    2    0  501 -0.45417740164E+02  0.34704458815E+02 -0.11608731583E+03  0.12939642761E+03  0.00000000000E+00 0.  1.
<mgrwt>
<rscale>  0 0.54596654E+02</rscale>
<asrwt>0</asrwt>
<pdfrwt beam="1">  1        2 0.21692638E+00 0.53297267E+02</pdfrwt>
<pdfrwt beam="2">  1       -2 0.21647428E-01 0.55927720E+02</pdfrwt>
<totfact> 0.30210783E+02</totfact>
</mgrwt>
</event>
<event>
 7    1  0.7037933E-004  0.3735164E+02  0.7546771E-02  0.1551667E+00
          1   -1    0    0  503    0  0.00000000000E+00  0.00000000000E+00  0.16217777214E+04  0.16217777214E+04  0.00000000000E+00 0. -1.
         -1   -1    0    0    0  501 -0.00000000000E+00 -0.00000000000E+00 -0.11499545563E+03  0.11499545563E+03  0.00000000000E+00 0.  1.
         25    2    1    2    0    0 -0.69186585587E+02 -0.33828401496E+01  0.43006235068E+02  0.14924617863E+03  0.12500663322E+03 0.  0.
          4    1    3    3  502    0  0.11720291859E+02  0.46395025285E+02  0.12659134774E+02  0.49514949315E+02  0.12700000000E+01 0. -1.
         -4    1    3    3    0  502 -0.80906877445E+02 -0.49777865435E+02  0.30347100293E+02  0.99731229319E+02  0.12700000000E+01 0. -1.
          2    1    1    2  503    0  0.37215214533E+02 -0.66640787330E-01  0.15212304996E+04  0.15216856474E+04  0.00000000000E+00 0. -1.
         -2    1    1    2    0  501  0.31971371054E+02  0.34494809369E+01 -0.57454468969E+02  0.65841350915E+02  0.00000000000E+00 0.  1.
<mgrwt>
<rscale>  0 0.34657085E+02</rscale>
<asrwt>0</asrwt>
<pdfrwt beam="1">  1        1 0.24950425E+00 0.37351636E+02</pdfrwt>
<pdfrwt beam="2">  1       -1 0.17691610E-01 0.32156920E+02</pdfrwt>
<totfact> 0.16495751E+02</totfact>
</mgrwt>
</event>
<event>
 7    1  0.7037933E-004  0.4995954E+02  0.7546771E-02  0.1541777E+00
          2   -1    0    0  503    0  0.00000000000E+00  0.00000000000E+00  0.49075335537E+03  0.49075335537E+03  0.00000000000E+00 0. -1.
         -2   -1    0    0    0  501 -0.00000000000E+00 -0.00000000000E+00 -0.13188874190E+03  0.13188874190E+03  0.00000000000E+00 0.  1.
         25    2    1    2    0    0 -0.25836867343E+02  0.90479013605E+01  0.14670285641E+03  0.19466867760E+03  0.12499903090E+03 0.  0.
          4    1    3    3  502    0 -0.53074002247E+02 -0.41507398260E+02  0.10025557988E+03  0.12079945373E+03  0.12700000000E+01 0.  1.
         -4    1    3    3    0  502  0.27237134905E+02  0.50555299621E+02  0.46447276535E+02  0.73869223869E+02  0.12700000000E+01 0.  1.
          1    1    1    2  503    0 -0.15591027700E+02  0.20336817348E+02  0.31353895992E+03  0.31458440151E+03  0.00000000000E+00 0. -1.
         -1    1    1    2    0  501  0.41427895042E+02 -0.29384718708E+02 -0.10137720285E+03  0.11338901816E+03  0.00000000000E+00 0.  1.
<mgrwt>
<rscale>  0 0.35780418E+02</rscale>
<asrwt>0</asrwt>
<pdfrwt beam="1">  1        2 0.75500515E-01 0.25625501E+02</pdfrwt>
<pdfrwt beam="2">  1       -2 0.20290576E-01 0.49959542E+02</pdfrwt>
<totfact> 0.12627005E+03</totfact>
</mgrwt>
</event>
<event>
 7    1  0.7037933E-004  0.5160010E+02  0.7546771E-02  0.1471595E+00
          2   -1    0    0  503    0  0.00000000000E+00  0.00000000000E+00  0.27391178851E+04  0.27391178851E+04  0.00000000000E+00 0. -1.
          1   -1    0    0  502    0 -0.00000000000E+00 -0.00000000000E+00 -0.38779390078E+03  0.38779390078E+03  0.00000000000E+00 0. -1.
         25    2    1    2    0    0  0.59740406341E+02 -0.66234348935E+02  0.20564466515E+03  0.25664900897E+03  0.12499232126E+03 0.  0.
          4    1    3    3  501    0  0.54609518991E+02 -0.10282787893E+03  0.16075258950E+03  0.19849125971E+03  0.12700000000E+01 0.  1.
         -4    1    3    3    0  501  0.51308873502E+01  0.36593530000E+02  0.44892075649E+02  0.58157749259E+02  0.12700000000E+01 0.  1.
          2    1    1    2  502    0 -0.18937249267E+02  0.35256661273E+02 -0.36092397479E+03  0.36313601743E+03  0.00000000000E+00 0. -1.
          1    1    1    2  503    0 -0.40803157075E+02  0.30977687662E+02  0.25066032939E+04  0.25071267594E+04  0.00000000000E+00 0. -1.
<mgrwt>
<rscale>  0 0.45443029E+02</rscale>
<asrwt>0</asrwt>
<pdfrwt beam="1">  1        2 0.42140274E+00 0.51600098E+02</pdfrwt>
<pdfrwt beam="2">  1        1 0.59660602E-01 0.40020639E+02</pdfrwt>
<totfact> 0.33177539E+01</totfact>
</mgrwt>
</event>
<event>
 7    1  0.7037933E-004  0.3305200E+02  0.7546771E-02  0.1571002E+00
          1   -1    0    0  502    0 -0.00000000000E+00  0.00000000000E+00  0.11905504053E+04  0.11905504053E+04  0.00000000000E+00 0. -1.
          2   -1    0    0  503    0  0.00000000000E+00 -0.00000000000E+00 -0.33327130914E+03  0.33327130914E+03  0.00000000000E+00 0. -1.
         25    2    1    2    0    0 -0.39835447990E+02 -0.16224296543E+02 -0.12731328857E+03  0.18353322270E+03  0.12500271867E+03 0.  0.
          4    1    3    3  501    0 -0.35150881955E+02  0.21175397402E+01  0.16191618188E+02  0.38779503302E+02  0.12700000000E+01 0. -1.
         -4    1    3    3    0  501 -0.46845660349E+01 -0.18341836284E+02 -0.14350490676E+03  0.14475371940E+03  0.12700000000E+01 0. -1.
          2    1    1    2  502    0  0.98693599312E+01  0.30603232929E+02  0.11606629259E+04  0.11611082592E+04  0.00000000000E+00 0. -1.
          1    1    1    2  503    0  0.29966088059E+02 -0.14378936386E+02 -0.17607054118E+03  0.17918023249E+03  0.00000000000E+00 0. -1.
<mgrwt>
<rscale>  0 0.32600557E+02</rscale>
<asrwt>0</asrwt>
<pdfrwt beam="2">  1        2 0.51272510E-01 0.33051998E+02</pdfrwt>
<pdfrwt beam="1">  1        1 0.18316160E+00 0.32155282E+02</pdfrwt>
<totfact> 0.18175922E+02</totfact>
</mgrwt>
</event>
<event>
 7    1  0.7037933E-004  0.3950720E+02  0.7546771E-02  0.1612824E+00
          1   -1    0    0  502    0 -0.00000000000E+00  0.00000000000E+00  0.56914466485E+03  0.56914466485E+03  0.00000000000E+00 0. -1.
          2   -1    0    0  503    0  0.00000000000E+00 -0.00000000000E+00 -0.60291296367E+02  0.60291296367E+02  0.00000000000E+00 0. -1.
         25    2    1    2    0    0 -0.55745464625E+02  0.58304827316E+01  0.83252867295E+02  0.16030491836E+03  0.12500030232E+03 0.  0.
          4    1    3    3  501    0 -0.73218101682E+02 -0.91408453764E+01  0.10518561469E+03  0.12849152465E+03  0.12700000000E+01 0.  1.
         -4    1    3    3    0  501  0.17472637057E+02  0.14971328108E+02 -0.21932747395E+02  0.31813393710E+02  0.12700000000E+01 0.  1.
          2    1    1    2  502    0  0.36571210045E+02 -0.14047998226E+02  0.44129186201E+03  0.44302743384E+03  0.00000000000E+00 0. -1.
          1    1    1    2  503    0  0.19174254579E+02  0.82175154946E+01 -0.15691360821E+02  0.26103609022E+02  0.00000000000E+00 0. -1.
<mgrwt>
<rscale>  0 0.28708153E+02</rscale>
<asrwt>0</asrwt>
<pdfrwt beam="2">  1        2 0.92755844E-02 0.20860959E+02</pdfrwt>
<pdfrwt beam="1">  1        1 0.87560714E-01 0.39507199E+02</pdfrwt>
<totfact> 0.31690392E+03</totfact>
</mgrwt>
</event>
<event>
 7    1  0.7037933E-004  0.9247246E+02  0.7546771E-02  0.1464889E+00
          2   -1    0    0  503    0  0.00000000000E+00  0.00000000000E+00  0.65228627712E+03  0.65228627712E+03  0.00000000000E+00 0. -1.
          1   -1    0    0  502    0 -0.00000000000E+00 -0.00000000000E+00 -0.45168452282E+03  0.45168452282E+03  0.00000000000E+00 0. -1.
         25    2    1    2    0    0  0.72779728523E+02  0.43034722437E+02  0.17692461524E+02  0.15194019445E+03  0.12499569303E+03 0.  0.
          4    1    3    3  501    0  0.30473624959E+02  0.84905768664E+02  0.14565818512E+01  0.90229517904E+02  0.12700000000E+01 0. -1.
         -4    1    3    3    0  501  0.42306103564E+02 -0.41871046226E+02  0.16235879673E+02  0.61710676545E+02  0.12700000000E+01 0. -1.
          2    1    1    2  502    0 -0.66706623971E+01  0.22463805684E+02 -0.38038228687E+03  0.38110340390E+03  0.00000000000E+00 0. -1.
          1    1    1    2  503    0 -0.66109066126E+02 -0.65498528122E+02  0.56329157965E+03  0.57092720159E+03  0.00000000000E+00 0. -1.
<mgrwt>
<rscale>  0 0.46550365E+02</rscale>
<asrwt>0</asrwt>
<pdfrwt beam="1">  1        2 0.10035174E+00 0.92472464E+02</pdfrwt>
<pdfrwt beam="2">  1        1 0.69489926E-01 0.23433316E+02</pdfrwt>
<totfact> 0.34657677E+02</totfact>
</mgrwt>
</event>
<event>
 7    1  0.7037933E-004  0.5729729E+02  0.7546771E-02  0.1542252E+00
          1   -1    0    0  502    0 -0.00000000000E+00  0.00000000000E+00  0.58763528829E+02  0.58763528829E+02  0.00000000000E+00 0. -1.
          2   -1    0    0  503    0  0.00000000000E+00 -0.00000000000E+00 -0.10539678233E+04  0.10539678233E+04  0.00000000000E+00 0. -1.
         25    2    1    2    0    0  0.41650569911E+02  0.31215638112E+02 -0.53178458966E+03  0.54875239896E+03  0.12500063810E+03 0.  0.
          4    1    3    3  501    0  0.49891788887E+01 -0.39263080345E+02 -0.72164341421E+02  0.82315165413E+02  0.12700000000E+01 0. -1.
         -4    1    3    3    0  501  0.36661391022E+02  0.70478718457E+02 -0.45962024824E+03  0.46643723355E+03  0.12700000000E+01 0. -1.
          2    1    1    2  502    0 -0.11144909018E+02  0.19286501259E+02  0.46023483875E+02  0.51130609187E+02  0.00000000000E+00 0. -1.
          1    1    1    2  503    0 -0.30505660893E+02 -0.50502139372E+02 -0.50944318867E+03  0.51284834397E+03  0.00000000000E+00 0. -1.
<mgrwt>
<rscale>  0 0.35725345E+02</rscale>
<asrwt>0</asrwt>
<pdfrwt beam="2">  1        2 0.16214890E+00 0.57297287E+02</pdfrwt>
<pdfrwt beam="1">  1        1 0.90405429E-02 0.22275056E+02</pdfrwt>
<totfact> 0.21941195E+03</totfact>
</mgrwt>
</event>
<event>
 7    1  0.7037933E-004  0.3630425E+02  0.7546771E-02  0.1610916E+00
          1   -1    0    0  502    0 -0.00000000000E+00  0.00000000000E+00  0.16528661788E+03  0.16528661788E+03  0.00000000000E+00 0. -1.
          2   -1    0    0  503    0  0.00000000000E+00 -0.00000000000E+00 -0.14263520366E+04  0.14263520366E+04  0.00000000000E+00 0. -1.
         25    2    1    2    0    0 -0.12026407399E+02 -0.62019697431E+01 -0.35036340099E+02  0.13052178976E+03  0.12500117428E+03 0.  0.
          4    1    3    3  501    0  0.51943428437E+02 -0.96850419161E+01 -0.39954302370E+02  0.66256161770E+02  0.12700000000E+01 0.  1.
         -4    1    3    3    0  501 -0.63969835835E+02  0.34830721730E+01  0.49179622709E+01  0.64265627994E+02  0.12700000000E+01 0.  1.
          2    1    1    2  502    0 -0.21573803259E+02 -0.78554418617E+01  0.11617333695E+03  0.11842035793E+03  0.00000000000E+00 0. -1.
          1    1    1    2  503    0  0.33600210657E+02  0.14057411605E+02 -0.13422024156E+04  0.13426965068E+04  0.00000000000E+00 0. -1.
<mgrwt>
<rscale>  0 0.28870853E+02</rscale>
<asrwt>0</asrwt>
<pdfrwt beam="2">  1        2 0.21943877E+00 0.36304253E+02</pdfrwt>
<pdfrwt beam="1">  1        1 0.25428711E-01 0.22959463E+02</pdfrwt>
<totfact> 0.41549749E+02</totfact>
</mgrwt>
</event>
<event>
 7    1  0.7037933E-004  0.6091718E+02  0.7546771E-02  0.1421282E+00
          2   -1    0    0  503    0  0.00000000000E+00  0.00000000000E+00  0.12759932421E+04  0.12759932421E+04  0.00000000000E+00 0. -1.
          1   -1    0    0  502    0 -0.00000000000E+00 -0.00000000000E+00 -0.15308340107E+04  0.15308340107E+04  0.00000000000E+00 0. -1.
         25    2    1    2    0    0 -0.54121816840E+02  0.91971489388E+02 -0.50293750237E+03  0.52911406087E+03  0.12501052837E+03 0.  0.
          4    1    3    3  501    0  0.25111495190E+02  0.58695415113E+02 -0.32854843308E+03  0.33469601839E+03  0.12700000000E+01 0.  1.
         -4    1    3    3    0  501 -0.79233312030E+02  0.33276074274E+02 -0.17438906929E+03  0.19441804248E+03  0.12700000000E+01 0.  1.
          2    1    1    2  502    0  0.33891938829E+02 -0.47113836413E+02 -0.10134983724E+04  0.10151587698E+04  0.00000000000E+00 0. -1.
          1    1    1    2  503    0  0.20229878011E+02 -0.44857652974E+02  0.12615951062E+04  0.12625544222E+04  0.00000000000E+00 0. -1.
<mgrwt>
<rscale>  0 0.54750626E+02</rscale>
<asrwt>0</asrwt>
<pdfrwt beam="1">  1        2 0.19630665E+00 0.49208302E+02</pdfrwt>
<pdfrwt beam="2">  1        1 0.23551292E+00 0.60917180E+02</pdfrwt>
<totfact> 0.22048673E+01</totfact>
</mgrwt>
</event>
<event>
 7    1  0.7037933E-004  0.1267227E+03  0.7546771E-02  0.1303860E+00
          2   -1    0    0  503    0  0.00000000000E+00  0.00000000000E+00  0.60476514502E+03  0.60476514502E+03  0.00000000000E+00 0. -1.
          1   -1    0    0  502    0 -0.00000000000E+00 -0.00000000000E+00 -0.10382789883E+04  0.10382789883E+04  0.00000000000E+00 0. -1.
         25    2    1    2    0    0 -0.90648777980E+02  0.54236538484E+02  0.48423809875E+03  0.51114611605E+03  0.12500005047E+03 0.  0.
          4    1    3    3  501    0 -0.12013710875E+03  0.52607279057E+02  0.35191194563E+03  0.37555835909E+03  0.12700000000E+01 0.  1.
         -4    1    3    3    0  501  0.29488330767E+02  0.16292594271E+01  0.13232615312E+03  0.13558775696E+03  0.12700000000E+01 0.  1.
          2    1    1    2  502    0  0.12698006858E+03 -0.23633684254E+01 -0.10111271593E+04  0.10190719580E+04  0.00000000000E+00 0. -1.
          1    1    1    2  503    0 -0.36331290598E+02 -0.51873170059E+02  0.93375217266E+02  0.11282605926E+03  0.00000000000E+00 0. -1.
<mgrwt>
<rscale>  0 0.89584883E+02</rscale>
<asrwt>0</asrwt>
<pdfrwt beam="1">  1        2 0.93040792E-01 0.63330786E+02</pdfrwt>
<pdfrwt beam="2">  1        1 0.15973523E+00 0.12672275E+03</pdfrwt>
<totfact> 0.11154439E+02</totfact>
</mgrwt>
</event>
<event>
 7    1  0.7037933E-004  0.8803526E+02  0.7546771E-02  0.1358435E+00
          2   -1    0    0  503    0  0.00000000000E+00  0.00000000000E+00  0.45652946373E+03  0.45652946373E+03  0.00000000000E+00 0. -1.
          1   -1    0    0  502    0 -0.00000000000E+00 -0.00000000000E+00 -0.47194990637E+03  0.47194990637E+03  0.00000000000E+00 0. -1.
         25    2    1    2    0    0 -0.29618844448E+02  0.35784208954E+02 -0.76149453209E+02  0.15356507949E+03  0.12500283540E+03 0.  0.
          4    1    3    3  501    0 -0.10262054298E+02 -0.46857153039E+02 -0.33848731132E+02  0.58721819187E+02  0.12700000000E+01 0.  1.
         -4    1    3    3    0  501 -0.19356790150E+02  0.82641361993E+02 -0.42300722077E+02  0.94843260305E+02  0.12700000000E+01 0.  1.
          2    1    1    2  502    0  0.25572180337E+02 -0.92080339433E+02 -0.34872810211E+03  0.36158541801E+03  0.00000000000E+00 0. -1.
          1    1    1    2  503    0  0.40466641108E+01  0.56296130479E+02  0.40945711268E+03  0.41332887260E+03  0.00000000000E+00 0. -1.
<mgrwt>
<rscale>  0 0.70489941E+02</rscale>
<asrwt>0</asrwt>
<pdfrwt beam="1">  1        2 0.70235302E-01 0.56441384E+02</pdfrwt>
<pdfrwt beam="2">  1        1 0.72607678E-01 0.88035258E+02</pdfrwt>
<totfact> 0.47757712E+02</totfact>
</mgrwt>
</event>
<event>
 7    1  0.7037933E-004  0.1771442E+03  0.7546771E-02  0.1222706E+00
          2   -1    0    0  503    0  0.00000000000E+00  0.00000000000E+00  0.88363265237E+03  0.88363265237E+03  0.00000000000E+00 0. -1.
          1   -1    0    0  502    0 -0.00000000000E+00 -0.00000000000E+00 -0.16717667549E+03  0.16717667549E+03  0.00000000000E+00 0. -1.
         25    2    1    2    0    0  0.19323264427E+03  0.17275393141E+02  0.80403798492E+02  0.24441149519E+03  0.12503965032E+03 0.  0.
          4    1    3    3  501    0  0.35194215279E+02  0.57765131202E+02  0.22762332900E+02  0.71380528654E+02  0.12700000000E+01 0. -1.
         -4    1    3    3    0  501  0.15803842899E+03 -0.40489738061E+02  0.57641465592E+02  0.17303096654E+03  0.12700000000E+01 0. -1.
          2    1    1    2  502    0 -0.32792213611E+02 -0.94722692056E+02 -0.39506662979E+02  0.10774272172E+03  0.00000000000E+00 0. -1.
          1    1    1    2  503    0 -0.16044043065E+03  0.77447298915E+02  0.67555884137E+03  0.69865511095E+03  0.00000000000E+00 0. -1.
<mgrwt>
<rscale>  0 0.13325404E+03</rscale>
<asrwt>0</asrwt>
<pdfrwt beam="1">  1        2 0.13594348E+00 0.17714425E+03</pdfrwt>
<pdfrwt beam="2">  1        1 0.25719489E-01 0.10023830E+03</pdfrwt>
<totfact> 0.77933308E+02</totfact>
</mgrwt>
</event>
<event>
 7    1  0.7037933E-004  0.1466875E+03  0.7546771E-02  0.1402413E+00
          2   -1    0    0  503    0  0.00000000000E+00  0.00000000000E+00  0.13181103026E+03  0.13181103026E+03  0.00000000000E+00 0. -1.
          1   -1    0    0  502    0 -0.00000000000E+00 -0.00000000000E+00 -0.24615720764E+04  0.24615720764E+04  0.00000000000E+00 0. -1.
         25    2    1    2    0    0  0.82802215687E+02 -0.11792816924E+03 -0.76935783331E+03  0.79265304393E+03  0.12499644932E+03 0.  0.
          4    1    3    3  501    0 -0.16963985000E+02 -0.66620519296E+02 -0.42371117357E+03  0.42925381988E+03  0.12700000000E+01 0.  1.
         -4    1    3    3    0  501  0.99766200687E+02 -0.51307649941E+02 -0.34564665975E+03  0.36339922404E+03  0.12700000000E+01 0.  1.
          2    1    1    2  502    0  0.19888751110E+02  0.12829728868E+02 -0.16355286705E+04  0.16356999103E+04  0.00000000000E+00 0. -1.
          1    1    1    2  503    0 -0.10269096680E+03  0.10509844037E+03  0.75125457694E+02  0.16503015247E+03  0.00000000000E+00 0. -1.
<mgrwt>
<rscale>  0 0.58921728E+02</rscale>
<asrwt>0</asrwt>
<pdfrwt beam="1">  1        2 0.20278617E-01 0.14668754E+03</pdfrwt>
<pdfrwt beam="2">  1        1 0.37870344E+00 0.23667792E+02</pdfrwt>
<totfact> 0.89076756E+01</totfact>
</mgrwt>
</event>
