<event>
 5    0  0.1222151E+000  0.1250002E+03  0.7546771E-02  0.1235069E+00
         21   -1    0    0  503  502  0.00000000000E+00  0.00000000000E+00  0.16980175162E+04  0.16980175162E+04  0.00000000000E+00 0. -1.
         21   -1    0    0  502  503 -0.00000000000E+00 -0.00000000000E+00 -0.23004831089E+01  0.23004831089E+01  0.00000000000E+00 0. -1.
         25    2    1    2    0    0  0.00000000000E+00  0.00000000000E+00  0.16957170331E+04  0.17003179994E+04  0.12500016984E+03 0.  0.
          4    1    3    3  501    0 -0.38016895063E+02 -0.44792658932E+02  0.11371134343E+04  0.11386312097E+04  0.15500000000E+01 0. -1.
         -4    1    3    3    0  501  0.38016895063E+02  0.44792658932E+02  0.55860359880E+03  0.56168678967E+03  0.15500000000E+01 0. -1.
<mgrwt>
<rscale>  2 0.12500017E+03</rscale>
<asrwt>0</asrwt>
<pdfrwt beam="1">  1       21 0.26123246E+00 0.12500017E+03</pdfrwt>
<pdfrwt beam="2">  1       21 0.35392184E-03 0.12500017E+03</pdfrwt>
<totfact> 0.11265790E+06</totfact>
</mgrwt>
</event>
<event>
 5    0  0.1457562E+000  0.1249991E+03  0.7546771E-02  0.1235071E+00
         21   -1    0    0  503  502  0.00000000000E+00  0.00000000000E+00  0.51807804225E+02  0.51807804225E+02  0.00000000000E+00 0.  1.
         21   -1    0    0  502  503 -0.00000000000E+00 -0.00000000000E+00 -0.75397823363E+02  0.75397823363E+02  0.00000000000E+00 0.  1.
         25    2    1    2    0    0  0.00000000000E+00  0.00000000000E+00 -0.23590019138E+02  0.12720562759E+03  0.12499913075E+03 0.  0.
          4    1    3    3  501    0  0.11151612419E+02  0.27574834998E+02  0.44120905090E+02  0.53233323686E+02  0.15500000000E+01 0. -1.
         -4    1    3    3    0  501 -0.11151612419E+02 -0.27574834998E+02 -0.67710924228E+02  0.73972303902E+02  0.15500000000E+01 0. -1.
<mgrwt>
<rscale>  2 0.12499913E+03</rscale>
<asrwt>0</asrwt>
<pdfrwt beam="1">  1       21 0.79704314E-02 0.12499913E+03</pdfrwt>
<pdfrwt beam="2">  1       21 0.11599665E-01 0.12499913E+03</pdfrwt>
<totfact> 0.73742806E+06</totfact>
</mgrwt>
</event>
<event>
 5    0  0.1527701E+000  0.1249997E+03  0.7546771E-02  0.1235070E+00
         21   -1    0    0  503  502  0.00000000000E+00  0.00000000000E+00  0.23247993212E+03  0.23247993212E+03  0.00000000000E+00 0. -1.
         21   -1    0    0  502  503 -0.00000000000E+00 -0.00000000000E+00 -0.16802458119E+02  0.16802458119E+02  0.00000000000E+00 0. -1.
         25    2    1    2    0    0  0.00000000000E+00  0.00000000000E+00  0.21567747400E+03  0.24928239024E+03  0.12499974917E+03 0.  0.
          4    1    3    3  501    0  0.15658745968E+02  0.60342891004E+02  0.99526940439E+02  0.11744988375E+03  0.15500000000E+01 0. -1.
         -4    1    3    3    0  501 -0.15658745968E+02 -0.60342891004E+02  0.11615053356E+03  0.13183250648E+03  0.15500000000E+01 0. -1.
<mgrwt>
<rscale>  2 0.12499975E+03</rscale>
<asrwt>0</asrwt>
<pdfrwt beam="1">  1       21 0.35766141E-01 0.12499975E+03</pdfrwt>
<pdfrwt beam="2">  1       21 0.25849937E-02 0.12499975E+03</pdfrwt>
<totfact> 0.59946197E+06</totfact>
</mgrwt>
</event>
<event>
 5    0  0.1680447E+000  0.1250068E+03  0.7546771E-02  0.1235059E+00
         21   -1    0    0  503  502  0.00000000000E+00  0.00000000000E+00  0.67758116059E+02  0.67758116059E+02  0.00000000000E+00 0.  1.
         21   -1    0    0  502  503 -0.00000000000E+00 -0.00000000000E+00 -0.57656166882E+02  0.57656166882E+02  0.00000000000E+00 0.  1.
         25    2    1    2    0    0  0.00000000000E+00  0.00000000000E+00  0.10101949177E+02  0.12541428294E+03  0.12500677177E+03 0.  0.
          4    1    3    3  501    0 -0.38327476053E+02 -0.90751478996E-01  0.54560271562E+02  0.66695047713E+02  0.15500000000E+01 0. -1.
         -4    1    3    3    0  501  0.38327476053E+02  0.90751478996E-01 -0.44458322385E+02  0.58719235228E+02  0.15500000000E+01 0. -1.
<mgrwt>
<rscale>  2 0.12500677E+03</rscale>
<asrwt>0</asrwt>
<pdfrwt beam="1">  1       21 0.10424326E-01 0.12500677E+03</pdfrwt>
<pdfrwt beam="2">  1       21 0.88701795E-02 0.12500677E+03</pdfrwt>
<totfact> 0.73974639E+06</totfact>
</mgrwt>
</event>
<event>
 5    0  0.1417954E+000  0.1250037E+03  0.7546771E-02  0.1235063E+00
         21   -1    0    0  503  502  0.00000000000E+00  0.00000000000E+00  0.10120520661E+02  0.10120520661E+02  0.00000000000E+00 0. -1.
         21   -1    0    0  502  503 -0.00000000000E+00 -0.00000000000E+00 -0.38599635143E+03  0.38599635143E+03  0.00000000000E+00 0. -1.
         25    2    1    2    0    0  0.00000000000E+00  0.00000000000E+00 -0.37587583077E+03  0.39611687209E+03  0.12500374474E+03 0.  0.
          4    1    3    3  501    0 -0.39684272961E+01  0.49957922542E+02 -0.69687134240E+02  0.85850111349E+02  0.15500000000E+01 0.  1.
         -4    1    3    3    0  501  0.39684272961E+01 -0.49957922542E+02 -0.30618869652E+03  0.31026676074E+03  0.15500000000E+01 0.  1.
<mgrwt>
<rscale>  2 0.12500374E+03</rscale>
<asrwt>0</asrwt>
<pdfrwt beam="1">  1       21 0.15570031E-02 0.12500374E+03</pdfrwt>
<pdfrwt beam="2">  1       21 0.59384056E-01 0.12500374E+03</pdfrwt>
<totfact> 0.48295463E+06</totfact>
</mgrwt>
</event>
<event>
 5    0  0.1382527E+000  0.1250009E+03  0.7546771E-02  0.1235068E+00
         21   -1    0    0  503  502  0.00000000000E+00  0.00000000000E+00  0.30412635292E+03  0.30412635292E+03  0.00000000000E+00 0.  1.
         21   -1    0    0  502  503 -0.00000000000E+00 -0.00000000000E+00 -0.12844358887E+02  0.12844358887E+02  0.00000000000E+00 0.  1.
         25    2    1    2    0    0  0.00000000000E+00  0.00000000000E+00  0.29128199404E+03  0.31697071181E+03  0.12500092838E+03 0.  0.
          4    1    3    3  501    0 -0.80258726756E+01 -0.32266224966E+02  0.11500668290E+02  0.35216356667E+02  0.15500000000E+01 0.  1.
         -4    1    3    3    0  501  0.80258726756E+01  0.32266224966E+02  0.27978132575E+03  0.28175435514E+03  0.15500000000E+01 0.  1.
<mgrwt>
<rscale>  2 0.12500093E+03</rscale>
<asrwt>0</asrwt>
<pdfrwt beam="1">  1       21 0.46788664E-01 0.12500093E+03</pdfrwt>
<pdfrwt beam="2">  1       21 0.19760554E-02 0.12500093E+03</pdfrwt>
<totfact> 0.54073017E+06</totfact>
</mgrwt>
</event>
<event>
 5    0  0.1222151E+000  0.1249938E+03  0.7546771E-02  0.1235079E+00
         21   -1    0    0  503  502  0.00000000000E+00  0.00000000000E+00  0.10720071808E+04  0.10720071808E+04  0.00000000000E+00 0.  1.
         21   -1    0    0  502  503 -0.00000000000E+00 -0.00000000000E+00 -0.36435062166E+01  0.36435062166E+01  0.00000000000E+00 0.  1.
         25    2    1    2    0    0  0.00000000000E+00  0.00000000000E+00  0.10683636746E+04  0.10756506870E+04  0.12499383709E+03 0.  0.
          4    1    3    3  501    0 -0.60618181581E+02 -0.72471851677E+01  0.41989314576E+03  0.42431090251E+03  0.15500000000E+01 0. -1.
         -4    1    3    3    0  501  0.60618181581E+02  0.72471851677E+01  0.64847052881E+03  0.65133978450E+03  0.15500000000E+01 0. -1.
<mgrwt>
<rscale>  2 0.12499384E+03</rscale>
<asrwt>0</asrwt>
<pdfrwt beam="1">  1       21 0.16492393E+00 0.12499384E+03</pdfrwt>
<pdfrwt beam="2">  1       21 0.56054027E-03 0.12499384E+03</pdfrwt>
<totfact> 0.21804584E+06</totfact>
</mgrwt>
</event>
<event>
 5    0  0.1581856E+000  0.1249979E+03  0.7546771E-02  0.1235073E+00
         21   -1    0    0  503  502  0.00000000000E+00  0.00000000000E+00  0.38269873701E+02  0.38269873701E+02  0.00000000000E+00 0. -1.
         21   -1    0    0  502  503 -0.00000000000E+00 -0.00000000000E+00 -0.10206772438E+03  0.10206772438E+03  0.00000000000E+00 0. -1.
         25    2    1    2    0    0  0.00000000000E+00  0.00000000000E+00 -0.63797850679E+02  0.14033759808E+03  0.12499790272E+03 0.  0.
          4    1    3    3  501    0 -0.24807108801E+02 -0.46226686449E+02  0.61978025286E+01  0.52849923778E+02  0.15500000000E+01 0.  1.
         -4    1    3    3    0  501  0.24807108801E+02  0.46226686449E+02 -0.69995653208E+02  0.87487674304E+02  0.15500000000E+01 0.  1.
<mgrwt>
<rscale>  2 0.12499790E+03</rscale>
<asrwt>0</asrwt>
<pdfrwt beam="1">  1       21 0.58876730E-02 0.12499790E+03</pdfrwt>
<pdfrwt beam="2">  1       21 0.15702726E-01 0.12499790E+03</pdfrwt>
<totfact> 0.71999113E+06</totfact>
</mgrwt>
</event>
<event>
 5    0  0.1470106E+000  0.1249916E+03  0.7546771E-02  0.1235082E+00
         21   -1    0    0  503  502  0.00000000000E+00  0.00000000000E+00  0.27031506729E+03  0.27031506729E+03  0.00000000000E+00 0. -1.
         21   -1    0    0  502  503 -0.00000000000E+00 -0.00000000000E+00 -0.14448791308E+02  0.14448791308E+02  0.00000000000E+00 0. -1.
         25    2    1    2    0    0  0.00000000000E+00  0.00000000000E+00  0.25586627598E+03  0.28476385860E+03  0.12499161563E+03 0.  0.
          4    1    3    3  501    0 -0.62558400758E+01 -0.62044592768E+02  0.13665518955E+03  0.15021887483E+03  0.15500000000E+01 0.  1.
         -4    1    3    3    0  501  0.62558400758E+01  0.62044592768E+02  0.11921108644E+03  0.13454498376E+03  0.15500000000E+01 0.  1.
<mgrwt>
<rscale>  2 0.12499162E+03</rscale>
<asrwt>0</asrwt>
<pdfrwt beam="1">  1       21 0.41586930E-01 0.12499162E+03</pdfrwt>
<pdfrwt beam="2">  1       21 0.22228912E-02 0.12499162E+03</pdfrwt>
<totfact> 0.56758581E+06</totfact>
</mgrwt>
</event>
<event>
 5    0  0.1303246E+000  0.1250045E+03  0.7546771E-02  0.1235062E+00
         21   -1    0    0  503  502  0.00000000000E+00  0.00000000000E+00  0.39543506596E+03  0.39543506596E+03  0.00000000000E+00 0.  1.
         21   -1    0    0  502  503 -0.00000000000E+00 -0.00000000000E+00 -0.98790770431E+01  0.98790770431E+01  0.00000000000E+00 0.  1.
         25    2    1    2    0    0  0.00000000000E+00  0.00000000000E+00  0.38555598891E+03  0.40531414300E+03  0.12500453563E+03 0.  0.
          4    1    3    3  501    0 -0.34425253567E+02 -0.14331881426E+02  0.30216879617E+02  0.48020445876E+02  0.15500000000E+01 0.  1.
         -4    1    3    3    0  501  0.34425253567E+02  0.14331881426E+02  0.35533910930E+03  0.35729369712E+03  0.15500000000E+01 0.  1.
<mgrwt>
<rscale>  2 0.12500454E+03</rscale>
<asrwt>0</asrwt>
<pdfrwt beam="1">  1       21 0.60836152E-01 0.12500454E+03</pdfrwt>
<pdfrwt beam="2">  1       21 0.15198583E-02 0.12500454E+03</pdfrwt>
<totfact> 0.47685456E+06</totfact>
</mgrwt>
</event>
<event>
 5    0  0.1347241E+000  0.1250029E+03  0.7546771E-02  0.1235065E+00
         21   -1    0    0  503  502  0.00000000000E+00  0.00000000000E+00  0.12540564421E+02  0.12540564421E+02  0.00000000000E+00 0.  1.
         21   -1    0    0  502  503 -0.00000000000E+00 -0.00000000000E+00 -0.31150381541E+03  0.31150381541E+03  0.00000000000E+00 0.  1.
         25    2    1    2    0    0  0.00000000000E+00  0.00000000000E+00 -0.29896325099E+03  0.32404437984E+03  0.12500293860E+03 0.  0.
          4    1    3    3  501    0  0.40213500184E+02  0.84261726087E+01 -0.27150972781E+03  0.27460528178E+03  0.15500000000E+01 0.  1.
         -4    1    3    3    0  501 -0.40213500184E+02 -0.84261726087E+01 -0.27453523181E+02  0.49439098060E+02  0.15500000000E+01 0.  1.
<mgrwt>
<rscale>  2 0.12500294E+03</rscale>
<asrwt>0</asrwt>
<pdfrwt beam="1">  1       21 0.19293176E-02 0.12500294E+03</pdfrwt>
<pdfrwt beam="2">  1       21 0.47923664E-01 0.12500294E+03</pdfrwt>
<totfact> 0.53510450E+06</totfact>
</mgrwt>
</event>
<event>
 4    0  0.1456815E+000  0.1254477E+03  0.7546771E-02  0.1234371E+00
         21   -1    0    0  503  502  0.00000000000E+00  0.00000000000E+00  0.24635209314E+02  0.24635209314E+02  0.00000000000E+00 0. -1.
         21   -1    0    0  502  503 -0.00000000000E+00 -0.00000000000E+00 -0.15970167083E+03  0.15970167083E+03  0.00000000000E+00 0. -1.
          4    1    1    2  501    0 -0.19385395800E+02  0.45001231695E+02 -0.10037746598E+02  0.50040616315E+02  0.15500000000E+01 0.  1.
         -4    1    1    2    0  501  0.19385395800E+02 -0.45001231695E+02 -0.12502871492E+03  0.13429626383E+03  0.15500000000E+01 0.  1.
<mgrwt>
<rscale>  2 0.12544774E+03</rscale>
<asrwt>0</asrwt>
<pdfrwt beam="1">  1       21 0.37900322E-02 0.12544774E+03</pdfrwt>
<pdfrwt beam="2">  1       21 0.24569488E-01 0.12544774E+03</pdfrwt>
<totfact> 0.65906253E+06</totfact>
</mgrwt>
</event>
<event>
 5    0  0.1515450E+000  0.1249967E+03  0.7546771E-02  0.1235074E+00
         21   -1    0    0  503  502  0.00000000000E+00  0.00000000000E+00  0.81517515729E+02  0.81517515729E+02  0.00000000000E+00 0. -1.
         21   -1    0    0  502  503 -0.00000000000E+00 -0.00000000000E+00 -0.47916641664E+02  0.47916641664E+02  0.00000000000E+00 0. -1.
         25    2    1    2    0    0  0.00000000000E+00  0.00000000000E+00  0.33600874064E+02  0.12943415739E+03  0.12499672941E+03 0.  0.
          4    1    3    3  501    0 -0.39435977638E+02  0.37874948180E+01 -0.33227216466E+02  0.51729989981E+02  0.15500000000E+01 0.  1.
         -4    1    3    3    0  501  0.39435977638E+02 -0.37874948180E+01  0.66828090530E+02  0.77704167412E+02  0.15500000000E+01 0.  1.
<mgrwt>
<rscale>  2 0.12499673E+03</rscale>
<asrwt>0</asrwt>
<pdfrwt beam="1">  1       21 0.12541156E-01 0.12499673E+03</pdfrwt>
<pdfrwt beam="2">  1       21 0.73717910E-02 0.12499673E+03</pdfrwt>
<totfact> 0.73446771E+06</totfact>
</mgrwt>
</event>
<event>
 5    0  0.1450340E+000  0.1250001E+03  0.7546771E-02  0.1235069E+00
         21   -1    0    0  503  502  0.00000000000E+00  0.00000000000E+00  0.27550251260E+03  0.27550251260E+03  0.00000000000E+00 0. -1.
         21   -1    0    0  502  503 -0.00000000000E+00 -0.00000000000E+00 -0.14178657052E+02  0.14178657052E+02  0.00000000000E+00 0. -1.
         25    2    1    2    0    0  0.00000000000E+00  0.00000000000E+00  0.26132385555E+03  0.28968116965E+03  0.12500009029E+03 0.  0.
          4    1    3    3  501    0  0.28670611997E+02 -0.53289639752E+02  0.94606176894E+02  0.11231438422E+03  0.15500000000E+01 0.  1.
         -4    1    3    3    0  501 -0.28670611997E+02  0.53289639752E+02  0.16671767866E+03  0.17736678543E+03  0.15500000000E+01 0.  1.
<mgrwt>
<rscale>  2 0.12500009E+03</rscale>
<asrwt>0</asrwt>
<pdfrwt beam="1">  1       21 0.42384998E-01 0.12500009E+03</pdfrwt>
<pdfrwt beam="2">  1       21 0.21813321E-02 0.12500009E+03</pdfrwt>
<totfact> 0.56324635E+06</totfact>
</mgrwt>
</event>
<event>
 5    0  0.1437964E+000  0.1249991E+03  0.7546771E-02  0.1235071E+00
         21   -1    0    0  503  502  0.00000000000E+00  0.00000000000E+00  0.29285941993E+03  0.29285941993E+03  0.00000000000E+00 0. -1.
         21   -1    0    0  502  503 -0.00000000000E+00 -0.00000000000E+00 -0.13338114659E+02  0.13338114659E+02  0.00000000000E+00 0. -1.
         25    2    1    2    0    0  0.00000000000E+00  0.00000000000E+00  0.27952130527E+03  0.30619753459E+03  0.12499908035E+03 0.  0.
          4    1    3    3  501    0 -0.33906081729E+02  0.51087098912E+02  0.11033731937E+03  0.12623882366E+03  0.15500000000E+01 0.  1.
         -4    1    3    3    0  501  0.33906081729E+02 -0.51087098912E+02  0.16918398590E+03  0.17995871093E+03  0.15500000000E+01 0.  1.
<mgrwt>
<rscale>  2 0.12499908E+03</rscale>
<asrwt>0</asrwt>
<pdfrwt beam="1">  1       21 0.45055291E-01 0.12499908E+03</pdfrwt>
<pdfrwt beam="2">  1       21 0.20520179E-02 0.12499908E+03</pdfrwt>
<totfact> 0.54946307E+06</totfact>
</mgrwt>
</event>
<event>
 5    0  0.1422372E+000  0.1250009E+03  0.7546771E-02  0.1235068E+00
         21   -1    0    0  503  502  0.00000000000E+00  0.00000000000E+00  0.10184188777E+02  0.10184188777E+02  0.00000000000E+00 0. -1.
         21   -1    0    0  502  503 -0.00000000000E+00 -0.00000000000E+00 -0.38356559920E+03  0.38356559920E+03  0.00000000000E+00 0. -1.
         25    2    1    2    0    0  0.00000000000E+00  0.00000000000E+00 -0.37338141042E+03  0.39374978797E+03  0.12500087152E+03 0.  0.
          4    1    3    3  501    0 -0.22451536443E+02 -0.48451769438E+02 -0.84510186109E+02  0.99980095552E+02  0.15500000000E+01 0.  1.
         -4    1    3    3    0  501  0.22451536443E+02  0.48451769438E+02 -0.28887122431E+03  0.29376969242E+03  0.15500000000E+01 0.  1.
<mgrwt>
<rscale>  2 0.12500087E+03</rscale>
<asrwt>0</asrwt>
<pdfrwt beam="1">  1       21 0.15667982E-02 0.12500087E+03</pdfrwt>
<pdfrwt beam="2">  1       21 0.59010093E-01 0.12500087E+03</pdfrwt>
<totfact> 0.48457646E+06</totfact>
</mgrwt>
</event>
<event>
 5    0  0.1380706E+000  0.1250058E+03  0.7546771E-02  0.1235060E+00
         21   -1    0    0  503  502  0.00000000000E+00  0.00000000000E+00  0.26644122081E+03  0.26644122081E+03  0.00000000000E+00 0. -1.
         21   -1    0    0  502  503 -0.00000000000E+00 -0.00000000000E+00 -0.14662187437E+02  0.14662187437E+02  0.00000000000E+00 0. -1.
         25    2    1    2    0    0  0.00000000000E+00  0.00000000000E+00  0.25177903337E+03  0.28110340825E+03  0.12500577779E+03 0.  0.
          4    1    3    3  501    0 -0.10886562243E+01 -0.57477818063E+02  0.70838313480E+02  0.91243377285E+02  0.15500000000E+01 0. -1.
         -4    1    3    3    0  501  0.10886562243E+01  0.57477818063E+02  0.18094071989E+03  0.18986003096E+03  0.15500000000E+01 0. -1.
<mgrwt>
<rscale>  2 0.12500578E+03</rscale>
<asrwt>0</asrwt>
<pdfrwt beam="1">  1       21 0.40990953E-01 0.12500578E+03</pdfrwt>
<pdfrwt beam="2">  1       21 0.22557213E-02 0.12500578E+03</pdfrwt>
<totfact> 0.57055758E+06</totfact>
</mgrwt>
</event>
<event>
 5    0  0.1308768E+000  0.1250009E+03  0.7546771E-02  0.1235068E+00
         21   -1    0    0  503  502  0.00000000000E+00  0.00000000000E+00  0.93079702277E+01  0.93079702277E+01  0.00000000000E+00 0.  1.
         21   -1    0    0  502  503 -0.00000000000E+00 -0.00000000000E+00 -0.41967348955E+03  0.41967348955E+03  0.00000000000E+00 0.  1.
         25    2    1    2    0    0  0.00000000000E+00  0.00000000000E+00 -0.41036551932E+03  0.42898145978E+03  0.12500093353E+03 0.  0.
          4    1    3    3  501    0 -0.30670404039E+02 -0.59870042937E+01 -0.39086287881E+03  0.39211313474E+03  0.15500000000E+01 0. -1.
         -4    1    3    3    0  501  0.30670404039E+02  0.59870042937E+01 -0.19502640518E+02  0.36868325043E+02  0.15500000000E+01 0. -1.
<mgrwt>
<rscale>  2 0.12500093E+03</rscale>
<asrwt>0</asrwt>
<pdfrwt beam="1">  1       21 0.14319956E-02 0.12500093E+03</pdfrwt>
<pdfrwt beam="2">  1       21 0.64565142E-01 0.12500093E+03</pdfrwt>
<totfact> 0.46175557E+06</totfact>
</mgrwt>
</event>
<event>
 5    0  0.1534116E+000  0.1250036E+03  0.7546771E-02  0.1235064E+00
         21   -1    0    0  503  502  0.00000000000E+00  0.00000000000E+00  0.13145722559E+03  0.13145722559E+03  0.00000000000E+00 0. -1.
         21   -1    0    0  502  503 -0.00000000000E+00 -0.00000000000E+00 -0.29716703257E+02  0.29716703257E+02  0.00000000000E+00 0. -1.
         25    2    1    2    0    0  0.00000000000E+00  0.00000000000E+00  0.10174052233E+03  0.16117392885E+03  0.12500360577E+03 0.  0.
          4    1    3    3  501    0  0.60731594074E+02  0.12127751233E+02  0.61554332685E+02  0.87331250083E+02  0.15500000000E+01 0. -1.
         -4    1    3    3    0  501 -0.60731594074E+02 -0.12127751233E+02  0.40186189648E+02  0.73842678765E+02  0.15500000000E+01 0. -1.
<mgrwt>
<rscale>  2 0.12500361E+03</rscale>
<asrwt>0</asrwt>
<pdfrwt beam="1">  1       21 0.20224188E-01 0.12500361E+03</pdfrwt>
<pdfrwt beam="2">  1       21 0.45718006E-02 0.12500361E+03</pdfrwt>
<totfact> 0.69369979E+06</totfact>
</mgrwt>
</event>
<event>
 5    0  0.1556433E+000  0.1249940E+03  0.7546771E-02  0.1235079E+00
         21   -1    0    0  503  502  0.00000000000E+00  0.00000000000E+00  0.54603664379E+02  0.54603664379E+02  0.00000000000E+00 0.  1.
         21   -1    0    0  502  503 -0.00000000000E+00 -0.00000000000E+00 -0.71531345241E+02  0.71531345241E+02  0.00000000000E+00 0.  1.
         25    2    1    2    0    0  0.00000000000E+00  0.00000000000E+00 -0.16927680862E+02  0.12613500962E+03  0.12499397695E+03 0.  0.
          4    1    3    3  501    0 -0.10402256551E+02 -0.58114471853E+02 -0.29094841553E+02  0.65836244464E+02  0.15500000000E+01 0.  1.
         -4    1    3    3    0  501  0.10402256551E+02  0.58114471853E+02  0.12167160691E+02  0.60298765157E+02  0.15500000000E+01 0.  1.
<mgrwt>
<rscale>  2 0.12499398E+03</rscale>
<asrwt>0</asrwt>
<pdfrwt beam="1">  1       21 0.84005638E-02 0.12499398E+03</pdfrwt>
<pdfrwt beam="2">  1       21 0.11004822E-01 0.12499398E+03</pdfrwt>
<totfact> 0.73898801E+06</totfact>
</mgrwt>
</event>
<event>
 5    0  0.1284092E+000  0.1249969E+03  0.7546771E-02  0.1235074E+00
         21   -1    0    0  503  502  0.00000000000E+00  0.00000000000E+00  0.43789879773E+03  0.43789879773E+03  0.00000000000E+00 0.  1.
         21   -1    0    0  502  503 -0.00000000000E+00 -0.00000000000E+00 -0.89200038527E+01  0.89200038527E+01  0.00000000000E+00 0.  1.
         25    2    1    2    0    0  0.00000000000E+00  0.00000000000E+00  0.42897879388E+03  0.44681880158E+03  0.12499694337E+03 0.  0.
          4    1    3    3  501    0 -0.21762677634E+02  0.47073790107E+02  0.33904388614E+03  0.34299083819E+03  0.15500000000E+01 0. -1.
         -4    1    3    3    0  501  0.21762677634E+02 -0.47073790107E+02  0.89934907739E+02  0.10382796340E+03  0.15500000000E+01 0. -1.
<mgrwt>
<rscale>  2 0.12499694E+03</rscale>
<asrwt>0</asrwt>
<pdfrwt beam="1">  1       21 0.67369029E-01 0.12499694E+03</pdfrwt>
<pdfrwt beam="2">  1       21 0.13723086E-02 0.12499694E+03</pdfrwt>
<totfact> 0.45086682E+06</totfact>
</mgrwt>
</event>
<event>
 5    0  0.1480642E+000  0.1249971E+03  0.7546771E-02  0.1235074E+00
         21   -1    0    0  503  502  0.00000000000E+00  0.00000000000E+00  0.17232033069E+03  0.17232033069E+03  0.00000000000E+00 0.  1.
         21   -1    0    0  502  503 -0.00000000000E+00 -0.00000000000E+00 -0.22667473176E+02  0.22667473176E+02  0.00000000000E+00 0.  1.
         25    2    1    2    0    0  0.00000000000E+00  0.00000000000E+00  0.14965285752E+03  0.19498780387E+03  0.12499706354E+03 0.  0.
          4    1    3    3  501    0 -0.44137380026E+02  0.18466896123E+02  0.12146193630E+02  0.49386912109E+02  0.15500000000E+01 0.  1.
         -4    1    3    3    0  501  0.44137380026E+02 -0.18466896123E+02  0.13750666388E+03  0.14560089176E+03  0.15500000000E+01 0.  1.
<mgrwt>
<rscale>  2 0.12499706E+03</rscale>
<asrwt>0</asrwt>
<pdfrwt beam="1">  1       21 0.26510819E-01 0.12499706E+03</pdfrwt>
<pdfrwt beam="2">  1       21 0.34873037E-02 0.12499706E+03</pdfrwt>
<totfact> 0.65477228E+06</totfact>
</mgrwt>
</event>
<event>
 5    0  0.1550542E+000  0.1249983E+03  0.7546771E-02  0.1235072E+00
         21   -1    0    0  503  502  0.00000000000E+00  0.00000000000E+00  0.29939485559E+02  0.29939485559E+02  0.00000000000E+00 0.  1.
         21   -1    0    0  502  503 -0.00000000000E+00 -0.00000000000E+00 -0.13046806864E+03  0.13046806864E+03  0.00000000000E+00 0.  1.
         25    2    1    2    0    0  0.00000000000E+00  0.00000000000E+00 -0.10052858308E+03  0.16040755420E+03  0.12499834970E+03 0.  0.
          4    1    3    3  501    0 -0.50294298378E+02 -0.93754918175E+01 -0.96289568397E+02  0.10904815348E+03  0.15500000000E+01 0. -1.
         -4    1    3    3    0  501  0.50294298378E+02  0.93754918175E+01 -0.42390146835E+01  0.51359400714E+02  0.15500000000E+01 0. -1.
<mgrwt>
<rscale>  2 0.12499835E+03</rscale>
<asrwt>0</asrwt>
<pdfrwt beam="1">  1       21 0.46060747E-02 0.12499835E+03</pdfrwt>
<pdfrwt beam="2">  1       21 0.20072010E-01 0.12499835E+03</pdfrwt>
<totfact> 0.69472646E+06</totfact>
</mgrwt>
</event>
<event>
 5    0  0.1395767E+000  0.1250027E+03  0.7546771E-02  0.1235065E+00
         21   -1    0    0  503  502  0.00000000000E+00  0.00000000000E+00  0.32327379875E+03  0.32327379875E+03  0.00000000000E+00 0. -1.
         21   -1    0    0  502  503 -0.00000000000E+00 -0.00000000000E+00 -0.12083942007E+02  0.12083942007E+02  0.00000000000E+00 0. -1.
         25    2    1    2    0    0  0.00000000000E+00  0.00000000000E+00  0.31118985674E+03  0.33535774075E+03  0.12500274935E+03 0.  0.
          4    1    3    3  501    0 -0.27636529378E+02 -0.27426252160E+02  0.28669706670E+03  0.28933300471E+03  0.15500000000E+01 0.  1.
         -4    1    3    3    0  501  0.27636529378E+02  0.27426252160E+02  0.24492790043E+02  0.46024736041E+02  0.15500000000E+01 0.  1.
<mgrwt>
<rscale>  2 0.12500275E+03</rscale>
<asrwt>0</asrwt>
<pdfrwt beam="1">  1       21 0.49734424E-01 0.12500275E+03</pdfrwt>
<pdfrwt beam="2">  1       21 0.18590682E-02 0.12500275E+03</pdfrwt>
<totfact> 0.52634701E+06</totfact>
</mgrwt>
</event>
<event>
 5    0  0.1408689E+000  0.1249903E+03  0.7546771E-02  0.1235084E+00
         21   -1    0    0  503  502  0.00000000000E+00  0.00000000000E+00  0.26670506006E+03  0.26670506006E+03  0.00000000000E+00 0.  1.
         21   -1    0    0  502  503 -0.00000000000E+00 -0.00000000000E+00 -0.14644051489E+02  0.14644051489E+02  0.00000000000E+00 0.  1.
         25    2    1    2    0    0  0.00000000000E+00  0.00000000000E+00  0.25206100857E+03  0.28134911155E+03  0.12499028173E+03 0.  0.
          4    1    3    3  501    0  0.53483779371E+02  0.11756389114E+02  0.19372863195E+03  0.20132539005E+03  0.15500000000E+01 0. -1.
         -4    1    3    3    0  501 -0.53483779371E+02 -0.11756389114E+02  0.58332376623E+02  0.80023721503E+02  0.15500000000E+01 0. -1.
<mgrwt>
<rscale>  2 0.12499028E+03</rscale>
<asrwt>0</asrwt>
<pdfrwt beam="1">  1       21 0.41031544E-01 0.12499028E+03</pdfrwt>
<pdfrwt beam="2">  1       21 0.22529312E-02 0.12499028E+03</pdfrwt>
<totfact> 0.57056597E+06</totfact>
</mgrwt>
</event>
<event>
 5    0  0.1597260E+000  0.1249976E+03  0.7546771E-02  0.1235073E+00
         21   -1    0    0  503  502  0.00000000000E+00  0.00000000000E+00  0.53733664863E+02  0.53733664863E+02  0.00000000000E+00 0. -1.
         21   -1    0    0  502  503 -0.00000000000E+00 -0.00000000000E+00 -0.72693720262E+02  0.72693720262E+02  0.00000000000E+00 0. -1.
         25    2    1    2    0    0  0.00000000000E+00  0.00000000000E+00 -0.18960055399E+02  0.12642738512E+03  0.12499760001E+03 0.  0.
          4    1    3    3  501    0  0.23911166937E+02 -0.50005748493E+02 -0.38643479900E+02  0.67587275618E+02  0.15500000000E+01 0.  1.
         -4    1    3    3    0  501 -0.23911166937E+02  0.50005748493E+02  0.19683424501E+02  0.58840109507E+02  0.15500000000E+01 0.  1.
<mgrwt>
<rscale>  2 0.12499760E+03</rscale>
<asrwt>0</asrwt>
<pdfrwt beam="1">  1       21 0.82667177E-02 0.12499760E+03</pdfrwt>
<pdfrwt beam="2">  1       21 0.11183649E-01 0.12499760E+03</pdfrwt>
<totfact> 0.73851838E+06</totfact>
</mgrwt>
</event>
<event>
 5    0  0.1544612E+000  0.1250004E+03  0.7546771E-02  0.1235069E+00
         21   -1    0    0  503  502  0.00000000000E+00  0.00000000000E+00  0.77945053075E+02  0.77945053075E+02  0.00000000000E+00 0. -1.
         21   -1    0    0  502  503 -0.00000000000E+00 -0.00000000000E+00 -0.50115722049E+02  0.50115722049E+02  0.00000000000E+00 0. -1.
         25    2    1    2    0    0  0.00000000000E+00  0.00000000000E+00  0.27829331026E+02  0.12806077512E+03  0.12500036184E+03 0.  0.
          4    1    3    3  501    0  0.30511123799E+02 -0.52358963645E+02 -0.16723129670E+01  0.60643127229E+02  0.15500000000E+01 0.  1.
         -4    1    3    3    0  501 -0.30511123799E+02  0.52358963645E+02  0.29501643993E+02  0.67417647895E+02  0.15500000000E+01 0.  1.
<mgrwt>
<rscale>  2 0.12500036E+03</rscale>
<asrwt>0</asrwt>
<pdfrwt beam="1">  1       21 0.11991547E-01 0.12500036E+03</pdfrwt>
<pdfrwt beam="2">  1       21 0.77101111E-02 0.12500036E+03</pdfrwt>
<totfact> 0.73624671E+06</totfact>
</mgrwt>
</event>
<event>
 5    0  0.1460747E+000  0.1250047E+03  0.7546771E-02  0.1235062E+00
         21   -1    0    0  503  502  0.00000000000E+00  0.00000000000E+00  0.20047641182E+02  0.20047641182E+02  0.00000000000E+00 0.  1.
         21   -1    0    0  502  503 -0.00000000000E+00 -0.00000000000E+00 -0.19486290182E+03  0.19486290182E+03  0.00000000000E+00 0.  1.
         25    2    1    2    0    0  0.00000000000E+00  0.00000000000E+00 -0.17481526064E+03  0.21491054300E+03  0.12500466448E+03 0.  0.
          4    1    3    3  501    0  0.15765870802E+02 -0.60048270818E+02 -0.99537764371E+02  0.11732231905E+03  0.15500000000E+01 0. -1.
         -4    1    3    3    0  501 -0.15765870802E+02  0.60048270818E+02 -0.75277496266E+02  0.97588223954E+02  0.15500000000E+01 0. -1.
<mgrwt>
<rscale>  2 0.12500466E+03</rscale>
<asrwt>0</asrwt>
<pdfrwt beam="1">  1       21 0.30842525E-02 0.12500466E+03</pdfrwt>
<pdfrwt beam="2">  1       21 0.29978907E-01 0.12500466E+03</pdfrwt>
<totfact> 0.63339095E+06</totfact>
</mgrwt>
</event>
<event>
 5    0  0.1222151E+000  0.1250017E+03  0.7546771E-02  0.1235067E+00
         21   -1    0    0  503  502  0.00000000000E+00  0.00000000000E+00  0.25128280385E+01  0.25128280385E+01  0.00000000000E+00 0.  1.
         21   -1    0    0  502  503 -0.00000000000E+00 -0.00000000000E+00 -0.15545665729E+04  0.15545665729E+04  0.00000000000E+00 0.  1.
         25    2    1    2    0    0  0.00000000000E+00  0.00000000000E+00 -0.15520537448E+04  0.15570794009E+04  0.12500173554E+03 0.  0.
          4    1    3    3  501    0  0.27935094394E+02 -0.55887812397E+02 -0.78066928579E+03  0.78316712989E+03  0.15500000000E+01 0.  1.
         -4    1    3    3    0  501 -0.27935094394E+02  0.55887812397E+02 -0.77138445905E+03  0.77391227102E+03  0.15500000000E+01 0.  1.
<mgrwt>
<rscale>  2 0.12500174E+03</rscale>
<asrwt>0</asrwt>
<pdfrwt beam="1">  1       21 0.38658816E-03 0.12500174E+03</pdfrwt>
<pdfrwt beam="2">  1       21 0.23916456E+00 0.12500174E+03</pdfrwt>
<totfact> 0.13166725E+06</totfact>
</mgrwt>
</event>
<event>
 5    0  0.1322611E+000  0.1249963E+03  0.7546771E-02  0.1235075E+00
         21   -1    0    0  503  502  0.00000000000E+00  0.00000000000E+00  0.51442579607E+03  0.51442579607E+03  0.00000000000E+00 0.  1.
         21   -1    0    0  502  503 -0.00000000000E+00 -0.00000000000E+00 -0.75929648024E+01  0.75929648024E+01  0.00000000000E+00 0.  1.
         25    2    1    2    0    0  0.00000000000E+00  0.00000000000E+00  0.50683283127E+03  0.52201876087E+03  0.12499627135E+03 0.  0.
          4    1    3    3  501    0 -0.57200312113E+02 -0.24040366602E+02  0.28404862330E+03  0.29075047349E+03  0.15500000000E+01 0. -1.
         -4    1    3    3    0  501  0.57200312113E+02  0.24040366602E+02  0.22278420796E+03  0.23126828739E+03  0.15500000000E+01 0. -1.
<mgrwt>
<rscale>  2 0.12499627E+03</rscale>
<asrwt>0</asrwt>
<pdfrwt beam="1">  1       21 0.79142403E-01 0.12499627E+03</pdfrwt>
<pdfrwt beam="2">  1       21 0.11681488E-02 0.12499627E+03</pdfrwt>
<totfact> 0.40878379E+06</totfact>
</mgrwt>
</event>
<event>
 5    0  0.1537462E+000  0.1250013E+03  0.7546771E-02  0.1235067E+00
         21   -1    0    0  503  502  0.00000000000E+00  0.00000000000E+00  0.66244389510E+02  0.66244389510E+02  0.00000000000E+00 0. -1.
         21   -1    0    0  502  503 -0.00000000000E+00 -0.00000000000E+00 -0.58968469625E+02  0.58968469625E+02  0.00000000000E+00 0. -1.
         25    2    1    2    0    0  0.00000000000E+00  0.00000000000E+00  0.72759198854E+01  0.12521285914E+03  0.12500128432E+03 0.  0.
          4    1    3    3  501    0  0.24825960111E+02  0.39935449880E+02  0.44850754466E+02  0.65001239440E+02  0.15500000000E+01 0. -1.
         -4    1    3    3    0  501 -0.24825960111E+02 -0.39935449880E+02 -0.37574834581E+02  0.60211619695E+02  0.15500000000E+01 0. -1.
<mgrwt>
<rscale>  2 0.12500128E+03</rscale>
<asrwt>0</asrwt>
<pdfrwt beam="1">  1       21 0.10191445E-01 0.12500128E+03</pdfrwt>
<pdfrwt beam="2">  1       21 0.90720723E-02 0.12500128E+03</pdfrwt>
<totfact> 0.74012406E+06</totfact>
</mgrwt>
</event>
<event>
 5    0  0.1484353E+000  0.1249965E+03  0.7546771E-02  0.1235075E+00
         21   -1    0    0  503  502  0.00000000000E+00  0.00000000000E+00  0.14231832269E+02  0.14231832269E+02  0.00000000000E+00 0. -1.
         21   -1    0    0  502  503 -0.00000000000E+00 -0.00000000000E+00 -0.27445731426E+03  0.27445731426E+03  0.00000000000E+00 0. -1.
         25    2    1    2    0    0  0.00000000000E+00  0.00000000000E+00 -0.26022548199E+03  0.28868914653E+03  0.12499648733E+03 0.  0.
          4    1    3    3  501    0  0.14320815742E+02 -0.50828171170E+02 -0.20723464063E+03  0.21386254353E+03  0.15500000000E+01 0.  1.
         -4    1    3    3    0  501 -0.14320815742E+02  0.50828171170E+02 -0.52990841360E+02  0.74826602997E+02  0.15500000000E+01 0.  1.
<mgrwt>
<rscale>  2 0.12499649E+03</rscale>
<asrwt>0</asrwt>
<pdfrwt beam="1">  1       21 0.21895127E-02 0.12499649E+03</pdfrwt>
<pdfrwt beam="2">  1       21 0.42224202E-01 0.12499649E+03</pdfrwt>
<totfact> 0.56414429E+06</totfact>
</mgrwt>
</event>
<event>
 5    0  0.1615236E+000  0.1249956E+03  0.7546771E-02  0.1235076E+00
         21   -1    0    0  503  502  0.00000000000E+00  0.00000000000E+00  0.47250443291E+02  0.47250443291E+02  0.00000000000E+00 0. -1.
         21   -1    0    0  502  503 -0.00000000000E+00 -0.00000000000E+00 -0.82665362233E+02  0.82665362233E+02  0.00000000000E+00 0. -1.
         25    2    1    2    0    0  0.00000000000E+00  0.00000000000E+00 -0.35414918942E+02  0.12991580552E+03  0.12499560009E+03 0.  0.
          4    1    3    3  501    0  0.58070453944E+02  0.22958386362E+02 -0.15550340516E+02  0.64369874288E+02  0.15500000000E+01 0.  1.
         -4    1    3    3    0  501 -0.58070453944E+02 -0.22958386362E+02 -0.19864578426E+02  0.65545931237E+02  0.15500000000E+01 0.  1.
<mgrwt>
<rscale>  2 0.12499560E+03</rscale>
<asrwt>0</asrwt>
<pdfrwt beam="1">  1       21 0.72692990E-02 0.12499560E+03</pdfrwt>
<pdfrwt beam="2">  1       21 0.12717748E-01 0.12499560E+03</pdfrwt>
<totfact> 0.73384413E+06</totfact>
</mgrwt>
</event>
<event>
 5    0  0.1504695E+000  0.1250008E+03  0.7546771E-02  0.1235068E+00
         21   -1    0    0  503  502  0.00000000000E+00  0.00000000000E+00  0.81902266634E+02  0.81902266634E+02  0.00000000000E+00 0. -1.
         21   -1    0    0  502  503 -0.00000000000E+00 -0.00000000000E+00 -0.47694653428E+02  0.47694653428E+02  0.00000000000E+00 0. -1.
         25    2    1    2    0    0  0.00000000000E+00  0.00000000000E+00  0.34207613206E+02  0.12959692006E+03  0.12500080355E+03 0.  0.
          4    1    3    3  501    0  0.45954201795E+02 -0.82470812057E+01 -0.25945130737E+02  0.53435524888E+02  0.15500000000E+01 0.  1.
         -4    1    3    3    0  501 -0.45954201795E+02  0.82470812057E+01  0.60152743943E+02  0.76161395175E+02  0.15500000000E+01 0.  1.
<mgrwt>
<rscale>  2 0.12500080E+03</rscale>
<asrwt>0</asrwt>
<pdfrwt beam="1">  1       21 0.12600349E-01 0.12500080E+03</pdfrwt>
<pdfrwt beam="2">  1       21 0.73376390E-02 0.12500080E+03</pdfrwt>
<totfact> 0.73417330E+06</totfact>
</mgrwt>
</event>
<event>
 5    0  0.1549878E+000  0.1250007E+03  0.7546771E-02  0.1235068E+00
         21   -1    0    0  503  502  0.00000000000E+00  0.00000000000E+00  0.57009896003E+02  0.57009896003E+02  0.00000000000E+00 0.  1.
         21   -1    0    0  502  503 -0.00000000000E+00 -0.00000000000E+00 -0.68519610857E+02  0.68519610857E+02  0.00000000000E+00 0.  1.
         25    2    1    2    0    0  0.00000000000E+00  0.00000000000E+00 -0.11509714854E+02  0.12552950686E+03  0.12500073422E+03 0.  0.
          4    1    3    3  501    0 -0.76767281614E+01 -0.60603587660E+02 -0.18931581560E+02  0.63972918277E+02  0.15500000000E+01 0.  1.
         -4    1    3    3    0  501  0.76767281614E+01  0.60603587660E+02  0.74218667064E+01  0.61556588583E+02  0.15500000000E+01 0.  1.
<mgrwt>
<rscale>  2 0.12500073E+03</rscale>
<asrwt>0</asrwt>
<pdfrwt beam="1">  1       21 0.87707533E-02 0.12500073E+03</pdfrwt>
<pdfrwt beam="2">  1       21 0.10541479E-01 0.12500073E+03</pdfrwt>
<totfact> 0.73969889E+06</totfact>
</mgrwt>
</event>
<event>
 5    0  0.1403119E+000  0.1250069E+03  0.7546771E-02  0.1235058E+00
         21   -1    0    0  503  502  0.00000000000E+00  0.00000000000E+00  0.17807231886E+02  0.17807231886E+02  0.00000000000E+00 0.  1.
         21   -1    0    0  502  503 -0.00000000000E+00 -0.00000000000E+00 -0.21938737504E+03  0.21938737504E+03  0.00000000000E+00 0.  1.
         25    2    1    2    0    0  0.00000000000E+00  0.00000000000E+00 -0.20158014316E+03  0.23719460693E+03  0.12500690957E+03 0.  0.
          4    1    3    3  501    0 -0.23541504824E+02 -0.14036037178E+02 -0.20733612355E+03  0.20914560339E+03  0.15500000000E+01 0. -1.
         -4    1    3    3    0  501  0.23541504824E+02  0.14036037178E+02  0.57559803950E+01  0.28049003536E+02  0.15500000000E+01 0. -1.
<mgrwt>
<rscale>  2 0.12500691E+03</rscale>
<asrwt>0</asrwt>
<pdfrwt beam="1">  1       21 0.27395742E-02 0.12500691E+03</pdfrwt>
<pdfrwt beam="2">  1       21 0.33751903E-01 0.12500691E+03</pdfrwt>
<totfact> 0.61094544E+06</totfact>
</mgrwt>
</event>
<event>
 5    0  0.1222151E+000  0.1250005E+03  0.7546771E-02  0.1235068E+00
         21   -1    0    0  503  502  0.00000000000E+00  0.00000000000E+00  0.17582208179E+04  0.17582208179E+04  0.00000000000E+00 0. -1.
         21   -1    0    0  502  503 -0.00000000000E+00 -0.00000000000E+00 -0.22217241560E+01  0.22217241560E+01  0.00000000000E+00 0. -1.
         25    2    1    2    0    0  0.00000000000E+00  0.00000000000E+00  0.17559990937E+04  0.17604425420E+04  0.12500050660E+03 0.  0.
          4    1    3    3  501    0  0.36566799786E+02 -0.25733998404E+02  0.26338664913E+03  0.26715968813E+03  0.15500000000E+01 0.  1.
         -4    1    3    3    0  501 -0.36566799786E+02  0.25733998404E+02  0.14926124446E+04  0.14932828539E+04  0.15500000000E+01 0.  1.
<mgrwt>
<rscale>  2 0.12500051E+03</rscale>
<asrwt>0</asrwt>
<pdfrwt beam="1">  1       21 0.27049440E+00 0.12500051E+03</pdfrwt>
<pdfrwt beam="2">  1       21 0.34180512E-03 0.12500051E+03</pdfrwt>
<totfact> 0.10532714E+06</totfact>
</mgrwt>
</event>
<event>
 5    0  0.1456843E+000  0.1249979E+03  0.7546771E-02  0.1235073E+00
         21   -1    0    0  503  502  0.00000000000E+00  0.00000000000E+00  0.23522166459E+03  0.23522166459E+03  0.00000000000E+00 0. -1.
         21   -1    0    0  502  503 -0.00000000000E+00 -0.00000000000E+00 -0.16606109996E+02  0.16606109996E+02  0.00000000000E+00 0. -1.
         25    2    1    2    0    0  0.00000000000E+00  0.00000000000E+00  0.21861555459E+03  0.25182777459E+03  0.12499786935E+03 0.  0.
          4    1    3    3  501    0 -0.37881587155E+02  0.12750769150E+02  0.20605572033E+03  0.20990226092E+03  0.15500000000E+01 0. -1.
         -4    1    3    3    0  501  0.37881587155E+02 -0.12750769150E+02  0.12559834264E+02  0.41925513665E+02  0.15500000000E+01 0. -1.
<mgrwt>
<rscale>  2 0.12499787E+03</rscale>
<asrwt>0</asrwt>
<pdfrwt beam="1">  1       21 0.36187946E-01 0.12499787E+03</pdfrwt>
<pdfrwt beam="2">  1       21 0.25547863E-02 0.12499787E+03</pdfrwt>
<totfact> 0.59709740E+06</totfact>
</mgrwt>
</event>
<event>
 5    0  0.1368024E+000  0.1249849E+03  0.7546771E-02  0.1235093E+00
         21   -1    0    0  503  502  0.00000000000E+00  0.00000000000E+00  0.28091591035E+02  0.28091591035E+02  0.00000000000E+00 0.  1.
         21   -1    0    0  502  503 -0.00000000000E+00 -0.00000000000E+00 -0.13902052554E+03  0.13902052554E+03  0.00000000000E+00 0.  1.
         25    2    1    2    0    0  0.00000000000E+00  0.00000000000E+00 -0.11092893450E+03  0.16711211657E+03  0.12498492307E+03 0.  0.
          4    1    3    3  501    0 -0.58599999429E+01 -0.24013137233E+02 -0.13217869738E+03  0.13447892363E+03  0.15500000000E+01 0.  1.
         -4    1    3    3    0  501  0.58599999429E+01  0.24013137233E+02  0.21249762880E+02  0.32633192941E+02  0.15500000000E+01 0.  1.
<mgrwt>
<rscale>  2 0.12498492E+03</rscale>
<asrwt>0</asrwt>
<pdfrwt beam="1">  1       21 0.43217832E-02 0.12498492E+03</pdfrwt>
<pdfrwt beam="2">  1       21 0.21387774E-01 0.12498492E+03</pdfrwt>
<totfact> 0.68687052E+06</totfact>
</mgrwt>
</event>
<event>
 5    0  0.1458788E+000  0.1250056E+03  0.7546771E-02  0.1235060E+00
         21   -1    0    0  503  502  0.00000000000E+00  0.00000000000E+00  0.17046841611E+03  0.17046841611E+03  0.00000000000E+00 0. -1.
         21   -1    0    0  502  503 -0.00000000000E+00 -0.00000000000E+00 -0.22916873001E+02  0.22916873001E+02  0.00000000000E+00 0. -1.
         25    2    1    2    0    0  0.00000000000E+00  0.00000000000E+00  0.14755154311E+03  0.19338528911E+03  0.12500564856E+03 0.  0.
          4    1    3    3  501    0  0.46322889867E+02  0.30816589899E+02  0.11776993774E+03  0.13025986747E+03  0.15500000000E+01 0. -1.
         -4    1    3    3    0  501 -0.46322889867E+02 -0.30816589899E+02  0.29781605367E+02  0.63125421637E+02  0.15500000000E+01 0. -1.
<mgrwt>
<rscale>  2 0.12500565E+03</rscale>
<asrwt>0</asrwt>
<pdfrwt beam="1">  1       21 0.26225909E-01 0.12500565E+03</pdfrwt>
<pdfrwt beam="2">  1       21 0.35256729E-02 0.12500565E+03</pdfrwt>
<totfact> 0.65638789E+06</totfact>
</mgrwt>
</event>
<event>
 5    0  0.1565483E+000  0.1249710E+03  0.7546771E-02  0.1235115E+00
         21   -1    0    0  503  502  0.00000000000E+00  0.00000000000E+00  0.62242488152E+02  0.62242488152E+02  0.00000000000E+00 0.  1.
         21   -1    0    0  502  503 -0.00000000000E+00 -0.00000000000E+00 -0.62729435152E+02  0.62729435152E+02  0.00000000000E+00 0.  1.
         25    2    1    2    0    0  0.00000000000E+00  0.00000000000E+00 -0.48694699981E+00  0.12497192330E+03  0.12497097462E+03 0.  0.
          4    1    3    3  501    0 -0.42556565995E+02  0.44327597058E+02 -0.11470154560E+02  0.62529705867E+02  0.15500000000E+01 0. -1.
         -4    1    3    3    0  501  0.42556565995E+02 -0.44327597058E+02  0.10983207560E+02  0.62442217437E+02  0.15500000000E+01 0. -1.
<mgrwt>
<rscale>  2 0.12497097E+03</rscale>
<asrwt>0</asrwt>
<pdfrwt beam="1">  1       21 0.95757675E-02 0.12497097E+03</pdfrwt>
<pdfrwt beam="2">  1       21 0.96506823E-02 0.12497097E+03</pdfrwt>
<totfact> 0.74102351E+06</totfact>
</mgrwt>
</event>
<event>
 5    0  0.1638782E+000  0.1249879E+03  0.7546771E-02  0.1235088E+00
         21   -1    0    0  503  502  0.00000000000E+00  0.00000000000E+00  0.38333384685E+02  0.38333384685E+02  0.00000000000E+00 0. -1.
         21   -1    0    0  502  503 -0.00000000000E+00 -0.00000000000E+00 -0.10188236862E+03  0.10188236862E+03  0.00000000000E+00 0. -1.
         25    2    1    2    0    0  0.00000000000E+00  0.00000000000E+00 -0.63548983938E+02  0.14021575331E+03  0.12498793588E+03 0.  0.
          4    1    3    3  501    0  0.22465773949E+01 -0.62434034692E+02 -0.31556581423E+02  0.70009114614E+02  0.15500000000E+01 0.  1.
         -4    1    3    3    0  501 -0.22465773949E+01  0.62434034692E+02 -0.31992402514E+02  0.70206638693E+02  0.15500000000E+01 0.  1.
<mgrwt>
<rscale>  2 0.12498794E+03</rscale>
<asrwt>0</asrwt>
<pdfrwt beam="1">  1       21 0.58974438E-02 0.12498794E+03</pdfrwt>
<pdfrwt beam="2">  1       21 0.15674210E-01 0.12498794E+03</pdfrwt>
<totfact> 0.72033292E+06</totfact>
</mgrwt>
</event>
<event>
 5    0  0.1490777E+000  0.1250029E+03  0.7546771E-02  0.1235065E+00
         21   -1    0    0  503  502  0.00000000000E+00  0.00000000000E+00  0.11665269383E+03  0.11665269383E+03  0.00000000000E+00 0. -1.
         21   -1    0    0  502  503 -0.00000000000E+00 -0.00000000000E+00 -0.33487701898E+02  0.33487701898E+02  0.00000000000E+00 0. -1.
         25    2    1    2    0    0  0.00000000000E+00  0.00000000000E+00  0.83164991933E+02  0.15014039573E+03  0.12500289015E+03 0.  0.
          4    1    3    3  501    0 -0.23626554541E+02  0.18660035865E+02 -0.24178076017E+02  0.38644441746E+02  0.15500000000E+01 0. -1.
         -4    1    3    3    0  501  0.23626554541E+02 -0.18660035865E+02  0.10734306795E+03  0.11149595398E+03  0.15500000000E+01 0. -1.
<mgrwt>
<rscale>  2 0.12500289E+03</rscale>
<asrwt>0</asrwt>
<pdfrwt beam="1">  1       21 0.17946568E-01 0.12500289E+03</pdfrwt>
<pdfrwt beam="2">  1       21 0.51519542E-02 0.12500289E+03</pdfrwt>
<totfact> 0.70736365E+06</totfact>
</mgrwt>
</event>
<event>
 5    0  0.1222151E+000  0.1250063E+03  0.7546771E-02  0.1235059E+00
         21   -1    0    0  503  502  0.00000000000E+00  0.00000000000E+00  0.28072855702E+01  0.28072855702E+01  0.00000000000E+00 0.  1.
         21   -1    0    0  502  503 -0.00000000000E+00 -0.00000000000E+00 -0.13916081375E+04  0.13916081375E+04  0.00000000000E+00 0.  1.
         25    2    1    2    0    0  0.00000000000E+00  0.00000000000E+00 -0.13888008520E+04  0.13944154231E+04  0.12500626295E+03 0.  0.
          4    1    3    3  501    0 -0.41071907853E+02 -0.35793653881E+02 -0.10356982458E+04  0.10371313061E+04  0.15500000000E+01 0.  1.
         -4    1    3    3    0  501  0.41071907853E+02  0.35793653881E+02 -0.35310260622E+03  0.35728411705E+03  0.15500000000E+01 0.  1.
<mgrwt>
<rscale>  2 0.12500626E+03</rscale>
<asrwt>0</asrwt>
<pdfrwt beam="1">  1       21 0.43188958E-03 0.12500626E+03</pdfrwt>
<pdfrwt beam="2">  1       21 0.21409381E+00 0.12500626E+03</pdfrwt>
<totfact> 0.15633460E+06</totfact>
</mgrwt>
</event>
<event>
 5    0  0.1334129E+000  0.1249966E+03  0.7546771E-02  0.1235075E+00
         21   -1    0    0  503  502  0.00000000000E+00  0.00000000000E+00  0.12186288078E+02  0.12186288078E+02  0.00000000000E+00 0.  1.
         21   -1    0    0  502  503 -0.00000000000E+00 -0.00000000000E+00 -0.32052749265E+03  0.32052749265E+03  0.00000000000E+00 0.  1.
         25    2    1    2    0    0  0.00000000000E+00  0.00000000000E+00 -0.30834120458E+03  0.33271378073E+03  0.12499664575E+03 0.  0.
          4    1    3    3  501    0 -0.23846474316E+01 -0.43489984316E+02 -0.34936669920E+02  0.55857306454E+02  0.15500000000E+01 0.  1.
         -4    1    3    3    0  501  0.23846474316E+01  0.43489984316E+02 -0.27340453466E+03  0.27685647428E+03  0.15500000000E+01 0.  1.
<mgrwt>
<rscale>  2 0.12499665E+03</rscale>
<asrwt>0</asrwt>
<pdfrwt beam="1">  1       21 0.18748135E-02 0.12499665E+03</pdfrwt>
<pdfrwt beam="2">  1       21 0.49311923E-01 0.12499665E+03</pdfrwt>
<totfact> 0.52845416E+06</totfact>
</mgrwt>
</event>
<event>
 5    0  0.1222151E+000  0.1250047E+03  0.7546771E-02  0.1235062E+00
         21   -1    0    0  503  502  0.00000000000E+00  0.00000000000E+00  0.21275807569E+01  0.21275807569E+01  0.00000000000E+00 0.  1.
         21   -1    0    0  502  503 -0.00000000000E+00 -0.00000000000E+00 -0.18361447384E+04  0.18361447384E+04  0.00000000000E+00 0.  1.
         25    2    1    2    0    0  0.00000000000E+00  0.00000000000E+00 -0.18340171576E+04  0.18382723191E+04  0.12500473931E+03 0.  0.
          4    1    3    3  501    0  0.37707511778E+02 -0.39774254888E+02 -0.47576742773E+03  0.47891637640E+03  0.15500000000E+01 0.  1.
         -4    1    3    3    0  501 -0.37707511778E+02  0.39774254888E+02 -0.13582497299E+04  0.13593559427E+04  0.15500000000E+01 0.  1.
<mgrwt>
<rscale>  2 0.12500474E+03</rscale>
<asrwt>0</asrwt>
<pdfrwt beam="1">  1       21 0.32731998E-03 0.12500474E+03</pdfrwt>
<pdfrwt beam="2">  1       21 0.28248392E+00 0.12500474E+03</pdfrwt>
<totfact> 0.96353408E+05</totfact>
</mgrwt>
</event>
<event>
 5    0  0.1367975E+000  0.1250067E+03  0.7546771E-02  0.1235059E+00
         21   -1    0    0  503  502  0.00000000000E+00  0.00000000000E+00  0.10105695844E+02  0.10105695844E+02  0.00000000000E+00 0. -1.
         21   -1    0    0  502  503 -0.00000000000E+00 -0.00000000000E+00 -0.38658083627E+03  0.38658083627E+03  0.00000000000E+00 0. -1.
         25    2    1    2    0    0  0.00000000000E+00  0.00000000000E+00 -0.37647514042E+03  0.39668653211E+03  0.12500669343E+03 0.  0.
          4    1    3    3  501    0  0.53427649964E+02  0.30542631717E+02 -0.22254758613E+03  0.23090516825E+03  0.15500000000E+01 0. -1.
         -4    1    3    3    0  501 -0.53427649964E+02 -0.30542631717E+02 -0.15392755430E+03  0.16578136386E+03  0.15500000000E+01 0. -1.
<mgrwt>
<rscale>  2 0.12500669E+03</rscale>
<asrwt>0</asrwt>
<pdfrwt beam="1">  1       21 0.15547227E-02 0.12500669E+03</pdfrwt>
<pdfrwt beam="2">  1       21 0.59473966E-01 0.12500669E+03</pdfrwt>
<totfact> 0.48253838E+06</totfact>
</mgrwt>
</event>
<event>
 5    0  0.1275419E+000  0.1250043E+03  0.7546771E-02  0.1235063E+00
         21   -1    0    0  503  502  0.00000000000E+00  0.00000000000E+00  0.93399405144E+01  0.93399405144E+01  0.00000000000E+00 0.  1.
         21   -1    0    0  502  503 -0.00000000000E+00 -0.00000000000E+00 -0.41825935304E+03  0.41825935304E+03  0.00000000000E+00 0.  1.
         25    2    1    2    0    0  0.00000000000E+00  0.00000000000E+00 -0.40891941253E+03  0.42759929356E+03  0.12500427956E+03 0.  0.
          4    1    3    3  501    0 -0.90547675616E+01 -0.28514269136E+02 -0.39210069392E+03  0.39324344754E+03  0.15500000000E+01 0. -1.
         -4    1    3    3    0  501  0.90547675616E+01  0.28514269136E+02 -0.16818718607E+02  0.34355846017E+02  0.15500000000E+01 0. -1.
<mgrwt>
<rscale>  2 0.12500428E+03</rscale>
<asrwt>0</asrwt>
<pdfrwt beam="1">  1       21 0.14369139E-02 0.12500428E+03</pdfrwt>
<pdfrwt beam="2">  1       21 0.64347592E-01 0.12500428E+03</pdfrwt>
<totfact> 0.46258079E+06</totfact>
</mgrwt>
</event>
<event>
 5    0  0.1410151E+000  0.1250270E+03  0.7546771E-02  0.1235027E+00
         21   -1    0    0  503  502  0.00000000000E+00  0.00000000000E+00  0.36321154904E+02  0.36321154904E+02  0.00000000000E+00 0.  1.
         21   -1    0    0  502  503 -0.00000000000E+00 -0.00000000000E+00 -0.10759390792E+03  0.10759390792E+03  0.00000000000E+00 0.  1.
         25    2    1    2    0    0  0.00000000000E+00  0.00000000000E+00 -0.71272753013E+02  0.14391506282E+03  0.12502695703E+03 0.  0.
          4    1    3    3  501    0  0.33125504428E+02 -0.60553011575E+01 -0.96235349505E+02  0.10196867514E+03  0.15500000000E+01 0.  1.
         -4    1    3    3    0  501 -0.33125504428E+02  0.60553011575E+01  0.24962596492E+02  0.41946387680E+02  0.15500000000E+01 0.  1.
<mgrwt>
<rscale>  2 0.12502696E+03</rscale>
<asrwt>0</asrwt>
<pdfrwt beam="1">  1       21 0.55878700E-02 0.12502696E+03</pdfrwt>
<pdfrwt beam="2">  1       21 0.16552909E-01 0.12502696E+03</pdfrwt>
<totfact> 0.71483144E+06</totfact>
</mgrwt>
</event>
<event>
 5    0  0.1490644E+000  0.1250590E+03  0.7546771E-02  0.1234977E+00
         21   -1    0    0  503  502  0.00000000000E+00  0.00000000000E+00  0.10454145508E+03  0.10454145508E+03  0.00000000000E+00 0.  1.
         21   -1    0    0  502  503 -0.00000000000E+00 -0.00000000000E+00 -0.37400832515E+02  0.37400832515E+02  0.00000000000E+00 0.  1.
         25    2    1    2    0    0  0.00000000000E+00  0.00000000000E+00  0.67140622566E+02  0.14194228760E+03  0.12505898532E+03 0.  0.
          4    1    3    3  501    0 -0.42174002333E+02 -0.42158137903E+02  0.54852138424E+02  0.81037735986E+02  0.15500000000E+01 0.  1.
         -4    1    3    3    0  501  0.42174002333E+02  0.42158137903E+02  0.12288484143E+02  0.60904551609E+02  0.15500000000E+01 0.  1.
<mgrwt>
<rscale>  2 0.12505899E+03</rscale>
<asrwt>0</asrwt>
<pdfrwt beam="1">  1       21 0.16083301E-01 0.12505899E+03</pdfrwt>
<pdfrwt beam="2">  1       21 0.57539743E-02 0.12505899E+03</pdfrwt>
<totfact> 0.71678991E+06</totfact>
</mgrwt>
</event>
<event>
 5    0  0.1582752E+000  0.1249994E+03  0.7546771E-02  0.1235070E+00
         21   -1    0    0  503  502  0.00000000000E+00  0.00000000000E+00  0.34370693599E+02  0.34370693599E+02  0.00000000000E+00 0. -1.
         21   -1    0    0  502  503 -0.00000000000E+00 -0.00000000000E+00 -0.11364945041E+03  0.11364945041E+03  0.00000000000E+00 0. -1.
         25    2    1    2    0    0  0.00000000000E+00  0.00000000000E+00 -0.79278756808E+02  0.14802014401E+03  0.12499936700E+03 0.  0.
          4    1    3    3  501    0  0.58509554867E+02 -0.74435478214E+01 -0.64052572329E+02  0.87085641393E+02  0.15500000000E+01 0.  1.
         -4    1    3    3    0  501 -0.58509554867E+02  0.74435478214E+01 -0.15226184479E+02  0.60934502613E+02  0.15500000000E+01 0.  1.
<mgrwt>
<rscale>  2 0.12499937E+03</rscale>
<asrwt>0</asrwt>
<pdfrwt beam="1">  1       21 0.52877991E-02 0.12499937E+03</pdfrwt>
<pdfrwt beam="2">  1       21 0.17484530E-01 0.12499937E+03</pdfrwt>
<totfact> 0.71009946E+06</totfact>
</mgrwt>
</event>
<event>
 5    0  0.1222151E+000  0.1250016E+03  0.7546771E-02  0.1235067E+00
         21   -1    0    0  503  502  0.00000000000E+00  0.00000000000E+00  0.14915371697E+03  0.14915371697E+03  0.00000000000E+00 0.  1.
         21   -1    0    0  502  503 -0.00000000000E+00 -0.00000000000E+00 -0.26190106524E+02  0.26190106524E+02  0.00000000000E+00 0.  1.
         25    2    1    2    0    0  0.00000000000E+00  0.00000000000E+00  0.12296361045E+03  0.17534382350E+03  0.12500162777E+03 0.  0.
          4    1    3    3  501    0 -0.16428412993E+02 -0.16427625288E+02  0.14284257270E+03  0.14472789192E+03  0.15500000000E+01 0.  1.
         -4    1    3    3    0  501  0.16428412993E+02  0.16427625288E+02 -0.19878962248E+02  0.30615931573E+02  0.15500000000E+01 0.  1.
<mgrwt>
<rscale>  2 0.12500163E+03</rscale>
<asrwt>0</asrwt>
<pdfrwt beam="1">  1       21 0.22946725E-01 0.12500163E+03</pdfrwt>
<pdfrwt beam="2">  1       21 0.40292472E-02 0.12500163E+03</pdfrwt>
<totfact> 0.67686939E+06</totfact>
</mgrwt>
</event>
<event>
 5    0  0.1611788E+000  0.1249975E+03  0.7546771E-02  0.1235073E+00
         21   -1    0    0  503  502  0.00000000000E+00  0.00000000000E+00  0.85142219364E+02  0.85142219364E+02  0.00000000000E+00 0. -1.
         21   -1    0    0  502  503 -0.00000000000E+00 -0.00000000000E+00 -0.45877267125E+02  0.45877267125E+02  0.00000000000E+00 0. -1.
         25    2    1    2    0    0  0.00000000000E+00  0.00000000000E+00  0.39264952239E+02  0.13101948649E+03  0.12499747744E+03 0.  0.
          4    1    3    3  501    0 -0.62817619109E+00  0.36428037353E+02 -0.33570055553E+02  0.49565589279E+02  0.15500000000E+01 0.  1.
         -4    1    3    3    0  501  0.62817619109E+00 -0.36428037353E+02  0.72835007792E+02  0.81453897210E+02  0.15500000000E+01 0.  1.
<mgrwt>
<rscale>  2 0.12499748E+03</rscale>
<asrwt>0</asrwt>
<pdfrwt beam="1">  1       21 0.13098803E-01 0.12499748E+03</pdfrwt>
<pdfrwt beam="2">  1       21 0.70580411E-02 0.12499748E+03</pdfrwt>
<totfact> 0.73232758E+06</totfact>
</mgrwt>
</event>
<event>
 5    0  0.1437450E+000  0.1249990E+03  0.7546771E-02  0.1235071E+00
         21   -1    0    0  503  502  0.00000000000E+00  0.00000000000E+00  0.35834044724E+02  0.35834044724E+02  0.00000000000E+00 0. -1.
         21   -1    0    0  502  503 -0.00000000000E+00 -0.00000000000E+00 -0.10900778351E+03  0.10900778351E+03  0.00000000000E+00 0. -1.
         25    2    1    2    0    0  0.00000000000E+00  0.00000000000E+00 -0.73173738783E+02  0.14484182823E+03  0.12499903663E+03 0.  0.
          4    1    3    3  501    0  0.51565598828E+02 -0.29466228353E+00  0.42937852486E+01  0.51768106979E+02  0.15500000000E+01 0. -1.
         -4    1    3    3    0  501 -0.51565598828E+02  0.29466228353E+00 -0.77467524032E+02  0.93073721254E+02  0.15500000000E+01 0. -1.
<mgrwt>
<rscale>  2 0.12499904E+03</rscale>
<asrwt>0</asrwt>
<pdfrwt beam="1">  1       21 0.55129300E-02 0.12499904E+03</pdfrwt>
<pdfrwt beam="2">  1       21 0.16770428E-01 0.12499904E+03</pdfrwt>
<totfact> 0.71415099E+06</totfact>
</mgrwt>
</event>
<event>
 5    0  0.1615542E+000  0.1250025E+03  0.7546771E-02  0.1235065E+00
         21   -1    0    0  503  502  0.00000000000E+00  0.00000000000E+00  0.58856348808E+02  0.58856348808E+02  0.00000000000E+00 0. -1.
         21   -1    0    0  502  503 -0.00000000000E+00 -0.00000000000E+00 -0.66371907766E+02  0.66371907766E+02  0.00000000000E+00 0. -1.
         25    2    1    2    0    0  0.00000000000E+00  0.00000000000E+00 -0.75155589580E+01  0.12522825657E+03  0.12500253045E+03 0.  0.
          4    1    3    3  501    0 -0.12185274818E+02  0.59042124475E+02 -0.20205473809E+02  0.63601234711E+02  0.15500000000E+01 0.  1.
         -4    1    3    3    0  501  0.12185274818E+02 -0.59042124475E+02  0.12689914851E+02  0.61627021864E+02  0.15500000000E+01 0.  1.
<mgrwt>
<rscale>  2 0.12500253E+03</rscale>
<asrwt>0</asrwt>
<pdfrwt beam="1">  1       21 0.90548229E-02 0.12500253E+03</pdfrwt>
<pdfrwt beam="2">  1       21 0.10211063E-01 0.12500253E+03</pdfrwt>
<totfact> 0.74007969E+06</totfact>
</mgrwt>
</event>
<event>
 5    0  0.1506354E+000  0.1249968E+03  0.7546771E-02  0.1235074E+00
         21   -1    0    0  503  502  0.00000000000E+00  0.00000000000E+00  0.16728217655E+02  0.16728217655E+02  0.00000000000E+00 0. -1.
         21   -1    0    0  502  503 -0.00000000000E+00 -0.00000000000E+00 -0.23350074658E+03  0.23350074658E+03  0.00000000000E+00 0. -1.
         25    2    1    2    0    0  0.00000000000E+00  0.00000000000E+00 -0.21677252893E+03  0.25022896424E+03  0.12499682094E+03 0.  0.
          4    1    3    3  501    0 -0.81009303013E+01  0.56291862552E+02 -0.16017469912E+03  0.16997863277E+03  0.15500000000E+01 0.  1.
         -4    1    3    3    0  501  0.81009303013E+01 -0.56291862552E+02 -0.56597829808E+02  0.80250331465E+02  0.15500000000E+01 0.  1.
<mgrwt>
<rscale>  2 0.12499682E+03</rscale>
<asrwt>0</asrwt>
<pdfrwt beam="1">  1       21 0.25735720E-02 0.12499682E+03</pdfrwt>
<pdfrwt beam="2">  1       21 0.35923190E-01 0.12499682E+03</pdfrwt>
<totfact> 0.59861437E+06</totfact>
</mgrwt>
</event>
<event>
 5    0  0.1407710E+000  0.1249910E+03  0.7546771E-02  0.1235083E+00
         21   -1    0    0  503  502  0.00000000000E+00  0.00000000000E+00  0.27081870651E+03  0.27081870651E+03  0.00000000000E+00 0.  1.
         21   -1    0    0  502  503 -0.00000000000E+00 -0.00000000000E+00 -0.14421786148E+02  0.14421786148E+02  0.00000000000E+00 0.  1.
         25    2    1    2    0    0  0.00000000000E+00  0.00000000000E+00  0.25639692036E+03  0.28524049266E+03  0.12499103120E+03 0.  0.
          4    1    3    3  501    0 -0.29019693402E+02 -0.55307986232E+02  0.13156097827E+03  0.14564274596E+03  0.15500000000E+01 0. -1.
         -4    1    3    3    0  501  0.29019693402E+02  0.55307986232E+02  0.12483594209E+03  0.13959774670E+03  0.15500000000E+01 0. -1.
<mgrwt>
<rscale>  2 0.12499103E+03</rscale>
<asrwt>0</asrwt>
<pdfrwt beam="1">  1       21 0.41664412E-01 0.12499103E+03</pdfrwt>
<pdfrwt beam="2">  1       21 0.22187365E-02 0.12499103E+03</pdfrwt>
<totfact> 0.56718287E+06</totfact>
</mgrwt>
</event>
<event>
 5    0  0.1343223E+000  0.1250054E+03  0.7546771E-02  0.1235061E+00
         21   -1    0    0  503  502  0.00000000000E+00  0.00000000000E+00  0.74210892368E+01  0.74210892368E+01  0.00000000000E+00 0. -1.
         21   -1    0    0  502  503 -0.00000000000E+00 -0.00000000000E+00 -0.52641734488E+03  0.52641734488E+03  0.00000000000E+00 0. -1.
         25    2    1    2    0    0  0.00000000000E+00  0.00000000000E+00 -0.51899625564E+03  0.53383843411E+03  0.12500544136E+03 0.  0.
          4    1    3    3  501    0 -0.57778707984E+02 -0.82116243699E+01 -0.16416140259E+03  0.17423311531E+03  0.15500000000E+01 0.  1.
         -4    1    3    3    0  501  0.57778707984E+02  0.82116243699E+01 -0.35483485305E+03  0.35960531880E+03  0.15500000000E+01 0.  1.
<mgrwt>
<rscale>  2 0.12500544E+03</rscale>
<asrwt>0</asrwt>
<pdfrwt beam="1">  1       21 0.11417057E-02 0.12500544E+03</pdfrwt>
<pdfrwt beam="2">  1       21 0.80987311E-01 0.12500544E+03</pdfrwt>
<totfact> 0.40260992E+06</totfact>
</mgrwt>
</event>
<event>
 5    0  0.1596645E+000  0.1249999E+03  0.7546771E-02  0.1235069E+00
         21   -1    0    0  503  502  0.00000000000E+00  0.00000000000E+00  0.42206952012E+02  0.42206952012E+02  0.00000000000E+00 0. -1.
         21   -1    0    0  502  503 -0.00000000000E+00 -0.00000000000E+00 -0.92549720635E+02  0.92549720635E+02  0.00000000000E+00 0. -1.
         25    2    1    2    0    0  0.00000000000E+00  0.00000000000E+00 -0.50342768623E+02  0.13475667265E+03  0.12499986588E+03 0.  0.
          4    1    3    3  501    0  0.52254179873E+02  0.10607654950E+02 -0.60283828474E+02  0.80495739845E+02  0.15500000000E+01 0.  1.
         -4    1    3    3    0  501 -0.52254179873E+02 -0.10607654950E+02  0.99410598504E+01  0.54260932803E+02  0.15500000000E+01 0.  1.
<mgrwt>
<rscale>  2 0.12499987E+03</rscale>
<asrwt>0</asrwt>
<pdfrwt beam="1">  1       21 0.64933773E-02 0.12499987E+03</pdfrwt>
<pdfrwt beam="2">  1       21 0.14238418E-01 0.12499987E+03</pdfrwt>
<totfact> 0.72728955E+06</totfact>
</mgrwt>
</event>
<event>
 5    0  0.1222151E+000  0.1250020E+03  0.7546771E-02  0.1235066E+00
         21   -1    0    0  503  502  0.00000000000E+00  0.00000000000E+00  0.27220003506E+01  0.27220003506E+01  0.00000000000E+00 0. -1.
         21   -1    0    0  502  503 -0.00000000000E+00 -0.00000000000E+00 -0.14351121768E+04  0.14351121768E+04  0.00000000000E+00 0. -1.
         25    2    1    2    0    0  0.00000000000E+00  0.00000000000E+00 -0.14323901765E+04  0.14378341772E+04  0.12500201356E+03 0.  0.
          4    1    3    3  501    0  0.17760091855E+02  0.43407501446E+02 -0.24133017869E+03  0.24585013665E+03  0.15500000000E+01 0. -1.
         -4    1    3    3    0  501 -0.17760091855E+02 -0.43407501446E+02 -0.11910599978E+04  0.11919840405E+04  0.15500000000E+01 0. -1.
<mgrwt>
<rscale>  2 0.12500201E+03</rscale>
<asrwt>0</asrwt>
<pdfrwt beam="1">  1       21 0.41876883E-03 0.12500201E+03</pdfrwt>
<pdfrwt beam="2">  1       21 0.22078673E+00 0.12500201E+03</pdfrwt>
<totfact> 0.14939561E+06</totfact>
</mgrwt>
</event>
<event>
 5    0  0.1222151E+000  0.1250022E+03  0.7546771E-02  0.1235066E+00
         21   -1    0    0  503  502  0.00000000000E+00  0.00000000000E+00  0.26260316191E+01  0.26260316191E+01  0.00000000000E+00 0.  1.
         21   -1    0    0  502  503 -0.00000000000E+00 -0.00000000000E+00 -0.14875624208E+04  0.14875624208E+04  0.00000000000E+00 0.  1.
         25    2    1    2    0    0  0.00000000000E+00  0.00000000000E+00 -0.14849363891E+04  0.14901884524E+04  0.12500217522E+03 0.  0.
          4    1    3    3  501    0 -0.53583371243E+02 -0.55741142827E+01 -0.11197797044E+04  0.11210759284E+04  0.15500000000E+01 0. -1.
         -4    1    3    3    0  501  0.53583371243E+02  0.55741142827E+01 -0.36515668477E+03  0.36911252398E+03  0.15500000000E+01 0. -1.
<mgrwt>
<rscale>  2 0.12500218E+03</rscale>
<asrwt>0</asrwt>
<pdfrwt beam="1">  1       21 0.40400411E-03 0.12500218E+03</pdfrwt>
<pdfrwt beam="2">  1       21 0.22885618E+00 0.12500218E+03</pdfrwt>
<totfact> 0.14138577E+06</totfact>
</mgrwt>
</event>
<event>
 5    0  0.1605245E+000  0.1249994E+03  0.7546771E-02  0.1235070E+00
         21   -1    0    0  503  502  0.00000000000E+00  0.00000000000E+00  0.39904751738E+02  0.39904751738E+02  0.00000000000E+00 0.  1.
         21   -1    0    0  502  503 -0.00000000000E+00 -0.00000000000E+00 -0.97888404849E+02  0.97888404849E+02  0.00000000000E+00 0.  1.
         25    2    1    2    0    0  0.00000000000E+00  0.00000000000E+00 -0.57983653111E+02  0.13779315659E+03  0.12499939989E+03 0.  0.
          4    1    3    3  501    0  0.54755462624E+02 -0.30078011844E+02 -0.27910337054E+02  0.68441485213E+02  0.15500000000E+01 0. -1.
         -4    1    3    3    0  501 -0.54755462624E+02  0.30078011844E+02 -0.30073316057E+02  0.69351671374E+02  0.15500000000E+01 0. -1.
<mgrwt>
<rscale>  2 0.12499940E+03</rscale>
<asrwt>0</asrwt>
<pdfrwt beam="1">  1       21 0.61391926E-02 0.12499940E+03</pdfrwt>
<pdfrwt beam="2">  1       21 0.15059755E-01 0.12499940E+03</pdfrwt>
<totfact> 0.72329814E+06</totfact>
</mgrwt>
</event>
<event>
 5    0  0.1222151E+000  0.1250008E+03  0.7546771E-02  0.1235068E+00
         21   -1    0    0  503  502  0.00000000000E+00  0.00000000000E+00  0.21918539532E+01  0.21918539532E+01  0.00000000000E+00 0.  1.
         21   -1    0    0  502  503 -0.00000000000E+00 -0.00000000000E+00 -0.17821910332E+04  0.17821910332E+04  0.00000000000E+00 0.  1.
         25    2    1    2    0    0  0.00000000000E+00  0.00000000000E+00 -0.17799991792E+04  0.17843828871E+04  0.12500083938E+03 0.  0.
          4    1    3    3  501    0 -0.46243608783E+02  0.38337593269E+02 -0.64454587583E+03  0.64734073792E+03  0.15500000000E+01 0.  1.
         -4    1    3    3    0  501  0.46243608783E+02 -0.38337593269E+02 -0.11354533034E+04  0.11370421492E+04  0.15500000000E+01 0.  1.
<mgrwt>
<rscale>  2 0.12500084E+03</rscale>
<asrwt>0</asrwt>
<pdfrwt beam="1">  1       21 0.33720797E-03 0.12500084E+03</pdfrwt>
<pdfrwt beam="2">  1       21 0.27418350E+00 0.12500084E+03</pdfrwt>
<totfact> 0.10250565E+06</totfact>
</mgrwt>
</event>
<event>
 5    0  0.1241895E+000  0.1249979E+03  0.7546771E-02  0.1235073E+00
         21   -1    0    0  503  502  0.00000000000E+00  0.00000000000E+00  0.71098757594E+03  0.71098757594E+03  0.00000000000E+00 0.  1.
         21   -1    0    0  502  503 -0.00000000000E+00 -0.00000000000E+00 -0.54939355369E+01  0.54939355369E+01  0.00000000000E+00 0.  1.
         25    2    1    2    0    0  0.00000000000E+00  0.00000000000E+00  0.70549364040E+03  0.71648151148E+03  0.12499791854E+03 0.  0.
          4    1    3    3  501    0 -0.50125304306E+02  0.37273817111E+02  0.34498466258E+03  0.35059763760E+03  0.15500000000E+01 0. -1.
         -4    1    3    3    0  501  0.50125304306E+02 -0.37273817111E+02  0.36050897782E+03  0.36588387388E+03  0.15500000000E+01 0. -1.
<mgrwt>
<rscale>  2 0.12499792E+03</rscale>
<asrwt>0</asrwt>
<pdfrwt beam="1">  1       21 0.10938263E+00 0.12499792E+03</pdfrwt>
<pdfrwt beam="2">  1       21 0.84522142E-03 0.12499792E+03</pdfrwt>
<totfact> 0.32286015E+06</totfact>
</mgrwt>
</event>
<event>
 5    0  0.1487087E+000  0.1250001E+03  0.7546771E-02  0.1235069E+00
         21   -1    0    0  503  502  0.00000000000E+00  0.00000000000E+00  0.93293550176E+02  0.93293550176E+02  0.00000000000E+00 0. -1.
         21   -1    0    0  502  503 -0.00000000000E+00 -0.00000000000E+00 -0.41870610839E+02  0.41870610839E+02  0.00000000000E+00 0. -1.
         25    2    1    2    0    0  0.00000000000E+00  0.00000000000E+00  0.51422939337E+02  0.13516416101E+03  0.12500012693E+03 0.  0.
          4    1    3    3  501    0 -0.26983966572E+02 -0.13947207508E+02 -0.33328536189E+02  0.45120426346E+02  0.15500000000E+01 0.  1.
         -4    1    3    3    0  501  0.26983966572E+02  0.13947207508E+02  0.84751475526E+02  0.90043734668E+02  0.15500000000E+01 0.  1.
<mgrwt>
<rscale>  2 0.12500013E+03</rscale>
<asrwt>0</asrwt>
<pdfrwt beam="1">  1       21 0.14352854E-01 0.12500013E+03</pdfrwt>
<pdfrwt beam="2">  1       21 0.64416324E-02 0.12500013E+03</pdfrwt>
<totfact> 0.72674508E+06</totfact>
</mgrwt>
</event>
<event>
 5    0  0.1475040E+000  0.1249923E+03  0.7546771E-02  0.1235081E+00
         21   -1    0    0  503  502  0.00000000000E+00  0.00000000000E+00  0.86571403525E+02  0.86571403525E+02  0.00000000000E+00 0.  1.
         21   -1    0    0  502  503 -0.00000000000E+00 -0.00000000000E+00 -0.45116142302E+02  0.45116142302E+02  0.00000000000E+00 0.  1.
         25    2    1    2    0    0  0.00000000000E+00  0.00000000000E+00  0.41455261222E+02  0.13168754583E+03  0.12499228393E+03 0.  0.
          4    1    3    3  501    0 -0.31222442964E+02  0.47911496637E+02  0.47235068245E+02  0.74188318668E+02  0.15500000000E+01 0. -1.
         -4    1    3    3    0  501  0.31222442964E+02 -0.47911496637E+02 -0.57798070231E+01  0.57499227159E+02  0.15500000000E+01 0. -1.
<mgrwt>
<rscale>  2 0.12499228E+03</rscale>
<asrwt>0</asrwt>
<pdfrwt beam="1">  1       21 0.13318677E-01 0.12499228E+03</pdfrwt>
<pdfrwt beam="2">  1       21 0.69409450E-02 0.12499228E+03</pdfrwt>
<totfact> 0.73152567E+06</totfact>
</mgrwt>
</event>
<event>
 5    0  0.1570669E+000  0.1249943E+03  0.7546771E-02  0.1235078E+00
         21   -1    0    0  503  502  0.00000000000E+00  0.00000000000E+00  0.14292289979E+03  0.14292289979E+03  0.00000000000E+00 0.  1.
         21   -1    0    0  502  503 -0.00000000000E+00 -0.00000000000E+00 -0.27328670797E+02  0.27328670797E+02  0.00000000000E+00 0.  1.
         25    2    1    2    0    0  0.00000000000E+00  0.00000000000E+00  0.11559422899E+03  0.17025157059E+03  0.12499428591E+03 0.  0.
          4    1    3    3  501    0 -0.39386032188E+02  0.38782279199E+02  0.18129022537E+02  0.58192685705E+02  0.15500000000E+01 0.  1.
         -4    1    3    3    0  501  0.39386032188E+02 -0.38782279199E+02  0.97465206457E+02  0.11205888488E+03  0.15500000000E+01 0.  1.
<mgrwt>
<rscale>  2 0.12499429E+03</rscale>
<asrwt>0</asrwt>
<pdfrwt beam="1">  1       21 0.21988138E-01 0.12499429E+03</pdfrwt>
<pdfrwt beam="2">  1       21 0.42044110E-02 0.12499429E+03</pdfrwt>
<totfact> 0.68297733E+06</totfact>
</mgrwt>
</event>
<event>
 5    0  0.1222151E+000  0.1249883E+03  0.7546771E-02  0.1235087E+00
         21   -1    0    0  503  502  0.00000000000E+00  0.00000000000E+00  0.87963421658E+03  0.87963421658E+03  0.00000000000E+00 0. -1.
         21   -1    0    0  502  503 -0.00000000000E+00 -0.00000000000E+00 -0.44399382871E+01  0.44399382871E+01  0.00000000000E+00 0. -1.
         25    2    1    2    0    0  0.00000000000E+00  0.00000000000E+00  0.87519427829E+03  0.88407415487E+03  0.12498834565E+03 0.  0.
          4    1    3    3  501    0 -0.54604801057E+02  0.30175831213E+02  0.46090031239E+03  0.46510618739E+03  0.15500000000E+01 0.  1.
         -4    1    3    3    0  501  0.54604801057E+02 -0.30175831213E+02  0.41429396590E+03  0.41896796748E+03  0.15500000000E+01 0.  1.
<mgrwt>
<rscale>  2 0.12498835E+03</rscale>
<asrwt>0</asrwt>
<pdfrwt beam="1">  1       21 0.13532820E+00 0.12498835E+03</pdfrwt>
<pdfrwt beam="2">  1       21 0.68306813E-03 0.12498835E+03</pdfrwt>
<totfact> 0.26765946E+06</totfact>
</mgrwt>
</event>
<event>
 5    0  0.1222151E+000  0.1250110E+03  0.7546771E-02  0.1235052E+00
         21   -1    0    0  503  502  0.00000000000E+00  0.00000000000E+00  0.15155197615E+04  0.15155197615E+04  0.00000000000E+00 0. -1.
         21   -1    0    0  502  503 -0.00000000000E+00 -0.00000000000E+00 -0.25779516202E+01  0.25779516202E+01  0.00000000000E+00 0. -1.
         25    2    1    2    0    0  0.00000000000E+00  0.00000000000E+00  0.15129418099E+04  0.15180977131E+04  0.12501098551E+03 0.  0.
          4    1    3    3  501    0  0.45054527032E+02 -0.43291985574E+02  0.76441277823E+03  0.76696375693E+03  0.15500000000E+01 0.  1.
         -4    1    3    3    0  501 -0.45054527032E+02  0.43291985574E+02  0.74852903163E+03  0.75113395618E+03  0.15500000000E+01 0.  1.
<mgrwt>
<rscale>  2 0.12501099E+03</rscale>
<asrwt>0</asrwt>
<pdfrwt beam="1">  1       21 0.23315617E+00 0.12501099E+03</pdfrwt>
<pdfrwt beam="2">  1       21 0.39660915E-03 0.12501099E+03</pdfrwt>
<totfact> 0.13722930E+06</totfact>
</mgrwt>
</event>
<event>
 5    0  0.1506019E+000  0.1249883E+03  0.7546771E-02  0.1235088E+00
         21   -1    0    0  503  502  0.00000000000E+00  0.00000000000E+00  0.18216404523E+03  0.18216404523E+03  0.00000000000E+00 0. -1.
         21   -1    0    0  502  503 -0.00000000000E+00 -0.00000000000E+00 -0.21439574607E+02  0.21439574607E+02  0.00000000000E+00 0. -1.
         25    2    1    2    0    0  0.00000000000E+00  0.00000000000E+00  0.16072447062E+03  0.20360361983E+03  0.12498831367E+03 0.  0.
          4    1    3    3  501    0  0.34405031151E+02  0.43956722824E+02  0.12606720793E+03  0.13788126438E+03  0.15500000000E+01 0. -1.
         -4    1    3    3    0  501 -0.34405031151E+02 -0.43956722824E+02  0.34657262685E+02  0.65722355457E+02  0.15500000000E+01 0. -1.
<mgrwt>
<rscale>  2 0.12498831E+03</rscale>
<asrwt>0</asrwt>
<pdfrwt beam="1">  1       21 0.28025237E-01 0.12498831E+03</pdfrwt>
<pdfrwt beam="2">  1       21 0.32983962E-02 0.12498831E+03</pdfrwt>
<totfact> 0.64557947E+06</totfact>
</mgrwt>
</event>
<event>
 5    0  0.1348051E+000  0.1250021E+03  0.7546771E-02  0.1235066E+00
         21   -1    0    0  503  502  0.00000000000E+00  0.00000000000E+00  0.10814204407E+02  0.10814204407E+02  0.00000000000E+00 0.  1.
         21   -1    0    0  502  503 -0.00000000000E+00 -0.00000000000E+00 -0.36122664280E+03  0.36122664280E+03  0.00000000000E+00 0.  1.
         25    2    1    2    0    0  0.00000000000E+00  0.00000000000E+00 -0.35041243839E+03  0.37204084720E+03  0.12500206002E+03 0.  0.
          4    1    3    3  501    0  0.21244342336E+02 -0.15420046978E+02 -0.34396080739E+03  0.34496454811E+03  0.15500000000E+01 0.  1.
         -4    1    3    3    0  501 -0.21244342336E+02  0.15420046978E+02 -0.64516309963E+01  0.27076299093E+02  0.15500000000E+01 0.  1.
<mgrwt>
<rscale>  2 0.12500206E+03</rscale>
<asrwt>0</asrwt>
<pdfrwt beam="1">  1       21 0.16637238E-02 0.12500206E+03</pdfrwt>
<pdfrwt beam="2">  1       21 0.55573328E-01 0.12500206E+03</pdfrwt>
<totfact> 0.49948144E+06</totfact>
</mgrwt>
</event>
<event>
 5    0  0.1222151E+000  0.1249906E+03  0.7546771E-02  0.1235084E+00
         21   -1    0    0  503  502  0.00000000000E+00  0.00000000000E+00  0.11098355545E+04  0.11098355545E+04  0.00000000000E+00 0. -1.
         21   -1    0    0  502  503 -0.00000000000E+00 -0.00000000000E+00 -0.35191356644E+01  0.35191356644E+01  0.00000000000E+00 0. -1.
         25    2    1    2    0    0  0.00000000000E+00  0.00000000000E+00  0.11063164188E+04  0.11133546901E+04  0.12499058975E+03 0.  0.
          4    1    3    3  501    0  0.19881653993E+02 -0.94475707023E+01  0.32337603152E+02  0.39149199676E+02  0.15500000000E+01 0.  1.
         -4    1    3    3    0  501 -0.19881653993E+02  0.94475707023E+01  0.10739788156E+04  0.10742054904E+04  0.15500000000E+01 0.  1.
<mgrwt>
<rscale>  2 0.12499059E+03</rscale>
<asrwt>0</asrwt>
<pdfrwt beam="1">  1       21 0.17074365E+00 0.12499059E+03</pdfrwt>
<pdfrwt beam="2">  1       21 0.54140637E-03 0.12499059E+03</pdfrwt>
<totfact> 0.20961751E+06</totfact>
</mgrwt>
</event>
<event>
 5    0  0.1559046E+000  0.1249709E+03  0.7546771E-02  0.1235115E+00
         21   -1    0    0  503  502  0.00000000000E+00  0.00000000000E+00  0.30695566257E+02  0.30695566257E+02  0.00000000000E+00 0.  1.
         21   -1    0    0  502  503 -0.00000000000E+00 -0.00000000000E+00 -0.12719850509E+03  0.12719850509E+03  0.00000000000E+00 0.  1.
         25    2    1    2    0    0  0.00000000000E+00  0.00000000000E+00 -0.96502938832E+02  0.15789407134E+03  0.12497087886E+03 0.  0.
          4    1    3    3  501    0  0.40890748209E+02 -0.23350652216E+02  0.36071612018E+01  0.47251670446E+02  0.15500000000E+01 0.  1.
         -4    1    3    3    0  501 -0.40890748209E+02  0.23350652216E+02 -0.10011010003E+03  0.11064240090E+03  0.15500000000E+01 0.  1.
<mgrwt>
<rscale>  2 0.12497088E+03</rscale>
<asrwt>0</asrwt>
<pdfrwt beam="1">  1       21 0.47223948E-02 0.12497088E+03</pdfrwt>
<pdfrwt beam="2">  1       21 0.19569001E-01 0.12497088E+03</pdfrwt>
<totfact> 0.69829435E+06</totfact>
</mgrwt>
</event>
<event>
 5    0  0.1597952E+000  0.1250051E+03  0.7546771E-02  0.1235061E+00
         21   -1    0    0  503  502  0.00000000000E+00  0.00000000000E+00  0.62800922339E+02  0.62800922339E+02  0.00000000000E+00 0.  1.
         21   -1    0    0  502  503 -0.00000000000E+00 -0.00000000000E+00 -0.62205614865E+02  0.62205614865E+02  0.00000000000E+00 0.  1.
         25    2    1    2    0    0  0.00000000000E+00  0.00000000000E+00  0.59530747379E+00  0.12500653720E+03  0.12500511971E+03 0.  0.
          4    1    3    3  501    0 -0.49438971808E+02 -0.37592833298E+02  0.71339904188E+01  0.62535824678E+02  0.15500000000E+01 0. -1.
         -4    1    3    3    0  501  0.49438971808E+02  0.37592833298E+02 -0.65386829451E+01  0.62470712526E+02  0.15500000000E+01 0. -1.
<mgrwt>
<rscale>  2 0.12500512E+03</rscale>
<asrwt>0</asrwt>
<pdfrwt beam="1">  1       21 0.96616803E-02 0.12500512E+03</pdfrwt>
<pdfrwt beam="2">  1       21 0.95700947E-02 0.12500512E+03</pdfrwt>
<totfact> 0.74033007E+06</totfact>
</mgrwt>
</event>
<event>
 5    0  0.1265466E+000  0.1249914E+03  0.7546771E-02  0.1235083E+00
         21   -1    0    0  503  502  0.00000000000E+00  0.00000000000E+00  0.11221229016E+02  0.11221229016E+02  0.00000000000E+00 0.  1.
         21   -1    0    0  502  503 -0.00000000000E+00 -0.00000000000E+00 -0.34806460030E+03  0.34806460030E+03  0.00000000000E+00 0.  1.
         25    2    1    2    0    0  0.00000000000E+00  0.00000000000E+00 -0.33684337129E+03  0.35928582932E+03  0.12499140118E+03 0.  0.
          4    1    3    3  501    0  0.41248631283E+02 -0.54898888293E+00 -0.33548651368E+02  0.53194600103E+02  0.15500000000E+01 0. -1.
         -4    1    3    3    0  501 -0.41248631283E+02  0.54898888293E+00 -0.30329471992E+03  0.30609122921E+03  0.15500000000E+01 0. -1.
<mgrwt>
<rscale>  2 0.12499140E+03</rscale>
<asrwt>0</asrwt>
<pdfrwt beam="1">  1       21 0.17263427E-02 0.12499140E+03</pdfrwt>
<pdfrwt beam="2">  1       21 0.53548408E-01 0.12499140E+03</pdfrwt>
<totfact> 0.50870823E+06</totfact>
</mgrwt>
</event>
<event>
 5    0  0.1436994E+000  0.1250096E+03  0.7546771E-02  0.1235054E+00
         21   -1    0    0  503  502  0.00000000000E+00  0.00000000000E+00  0.14201815406E+02  0.14201815406E+02  0.00000000000E+00 0.  1.
         21   -1    0    0  502  503 -0.00000000000E+00 -0.00000000000E+00 -0.27509501543E+03  0.27509501543E+03  0.00000000000E+00 0.  1.
         25    2    1    2    0    0  0.00000000000E+00  0.00000000000E+00 -0.26089320003E+03  0.28929683084E+03  0.12500957769E+03 0.  0.
          4    1    3    3  501    0  0.22982368309E+02 -0.52367822243E+02 -0.72182663276E+02  0.92104926237E+02  0.15500000000E+01 0. -1.
         -4    1    3    3    0  501 -0.22982368309E+02  0.52367822243E+02 -0.18871053675E+03  0.19719190460E+03  0.15500000000E+01 0. -1.
<mgrwt>
<rscale>  2 0.12500958E+03</rscale>
<asrwt>0</asrwt>
<pdfrwt beam="1">  1       21 0.21848948E-02 0.12500958E+03</pdfrwt>
<pdfrwt beam="2">  1       21 0.42322309E-01 0.12500958E+03</pdfrwt>
<totfact> 0.56343978E+06</totfact>
</mgrwt>
</event>
<event>
 5    0  0.1488599E+000  0.1250040E+03  0.7546771E-02  0.1235063E+00
         21   -1    0    0  503  502  0.00000000000E+00  0.00000000000E+00  0.94162653748E+02  0.94162653748E+02  0.00000000000E+00 0. -1.
         21   -1    0    0  502  503 -0.00000000000E+00 -0.00000000000E+00 -0.41486746061E+02  0.41486746061E+02  0.00000000000E+00 0. -1.
         25    2    1    2    0    0  0.00000000000E+00  0.00000000000E+00  0.52675907687E+02  0.13564939981E+03  0.12500403361E+03 0.  0.
          4    1    3    3  501    0  0.12861298201E+02  0.26608873288E+02 -0.33401612025E+02  0.44626397064E+02  0.15500000000E+01 0. -1.
         -4    1    3    3    0  501 -0.12861298201E+02 -0.26608873288E+02  0.86077519712E+02  0.91023002746E+02  0.15500000000E+01 0. -1.
<mgrwt>
<rscale>  2 0.12500403E+03</rscale>
<asrwt>0</asrwt>
<pdfrwt beam="1">  1       21 0.14486562E-01 0.12500403E+03</pdfrwt>
<pdfrwt beam="2">  1       21 0.63825763E-02 0.12500403E+03</pdfrwt>
<totfact> 0.72603132E+06</totfact>
</mgrwt>
</event>
<event>
 5    0  0.1557733E+000  0.1249987E+03  0.7546771E-02  0.1235071E+00
         21   -1    0    0  503  502  0.00000000000E+00  0.00000000000E+00  0.71116887371E+02  0.71116887371E+02  0.00000000000E+00 0.  1.
         21   -1    0    0  502  503 -0.00000000000E+00 -0.00000000000E+00 -0.54926078544E+02  0.54926078544E+02  0.00000000000E+00 0.  1.
         25    2    1    2    0    0  0.00000000000E+00  0.00000000000E+00  0.16190808827E+02  0.12604296591E+03  0.12499874786E+03 0.  0.
          4    1    3    3  501    0  0.53297838241E+02  0.29873266178E+02 -0.50788704519E+01  0.61329185698E+02  0.15500000000E+01 0. -1.
         -4    1    3    3    0  501 -0.53297838241E+02 -0.29873266178E+02  0.21269679279E+02  0.64713780217E+02  0.15500000000E+01 0. -1.
<mgrwt>
<rscale>  2 0.12499875E+03</rscale>
<asrwt>0</asrwt>
<pdfrwt beam="1">  1       21 0.10941060E-01 0.12499875E+03</pdfrwt>
<pdfrwt beam="2">  1       21 0.84501660E-02 0.12499875E+03</pdfrwt>
<totfact> 0.73902477E+06</totfact>
</mgrwt>
</event>
<event>
 5    0  0.1607974E+000  0.1250039E+03  0.7546771E-02  0.1235063E+00
         21   -1    0    0  503  502  0.00000000000E+00  0.00000000000E+00  0.91652560275E+02  0.91652560275E+02  0.00000000000E+00 0. -1.
         21   -1    0    0  502  503 -0.00000000000E+00 -0.00000000000E+00 -0.42622885840E+02  0.42622885840E+02  0.00000000000E+00 0. -1.
         25    2    1    2    0    0  0.00000000000E+00  0.00000000000E+00  0.49029674435E+02  0.13427544611E+03  0.12500394575E+03 0.  0.
          4    1    3    3  501    0 -0.54366695779E+02  0.28696601997E+02  0.12511908660E+02  0.62754943506E+02  0.15500000000E+01 0.  1.
         -4    1    3    3    0  501  0.54366695779E+02 -0.28696601997E+02  0.36517765775E+02  0.71520502608E+02  0.15500000000E+01 0.  1.
<mgrwt>
<rscale>  2 0.12500395E+03</rscale>
<asrwt>0</asrwt>
<pdfrwt beam="1">  1       21 0.14100394E-01 0.12500395E+03</pdfrwt>
<pdfrwt beam="2">  1       21 0.65573671E-02 0.12500395E+03</pdfrwt>
<totfact> 0.72785225E+06</totfact>
</mgrwt>
</event>
<event>
 5    0  0.1572852E+000  0.1249947E+03  0.7546771E-02  0.1235078E+00
         21   -1    0    0  503  502  0.00000000000E+00  0.00000000000E+00  0.22323913583E+02  0.22323913583E+02  0.00000000000E+00 0. -1.
         21   -1    0    0  502  503 -0.00000000000E+00 -0.00000000000E+00 -0.17496564259E+03  0.17496564259E+03  0.00000000000E+00 0. -1.
         25    2    1    2    0    0  0.00000000000E+00  0.00000000000E+00 -0.15264172900E+03  0.19728955617E+03  0.12499468605E+03 0.  0.
          4    1    3    3  501    0  0.11822798456E+02 -0.56731978181E+02 -0.11317601808E+03  0.12715938613E+03  0.15500000000E+01 0.  1.
         -4    1    3    3    0  501 -0.11822798456E+02  0.56731978181E+02 -0.39465710926E+02  0.70130170045E+02  0.15500000000E+01 0.  1.
<mgrwt>
<rscale>  2 0.12499469E+03</rscale>
<asrwt>0</asrwt>
<pdfrwt beam="1">  1       21 0.34344484E-02 0.12499469E+03</pdfrwt>
<pdfrwt beam="2">  1       21 0.26917790E-01 0.12499469E+03</pdfrwt>
<totfact> 0.65230083E+06</totfact>
</mgrwt>
</event>
<event>
 5    0  0.1567669E+000  0.1249995E+03  0.7546771E-02  0.1235070E+00
         21   -1    0    0  503  502  0.00000000000E+00  0.00000000000E+00  0.41394120763E+02  0.41394120763E+02  0.00000000000E+00 0.  1.
         21   -1    0    0  502  503 -0.00000000000E+00 -0.00000000000E+00 -0.94366544857E+02  0.94366544857E+02  0.00000000000E+00 0.  1.
         25    2    1    2    0    0  0.00000000000E+00  0.00000000000E+00 -0.52972424094E+02  0.13576066562E+03  0.12499952246E+03 0.  0.
          4    1    3    3  501    0 -0.28174774465E+02 -0.23646896894E+02 -0.81339902628E+02  0.89283682207E+02  0.15500000000E+01 0. -1.
         -4    1    3    3    0  501  0.28174774465E+02  0.23646896894E+02  0.28367478534E+02  0.46476983414E+02  0.15500000000E+01 0. -1.
<mgrwt>
<rscale>  2 0.12499952E+03</rscale>
<asrwt>0</asrwt>
<pdfrwt beam="1">  1       21 0.63683263E-02 0.12499952E+03</pdfrwt>
<pdfrwt beam="2">  1       21 0.14517930E-01 0.12499952E+03</pdfrwt>
<totfact> 0.72596795E+06</totfact>
</mgrwt>
</event>
<event>
 5    0  0.1423514E+000  0.1249714E+03  0.7546771E-02  0.1235114E+00
         21   -1    0    0  503  502  0.00000000000E+00  0.00000000000E+00  0.18389267338E+02  0.18389267338E+02  0.00000000000E+00 0.  1.
         21   -1    0    0  502  503 -0.00000000000E+00 -0.00000000000E+00 -0.21232291777E+03  0.21232291777E+03  0.00000000000E+00 0.  1.
         25    2    1    2    0    0  0.00000000000E+00  0.00000000000E+00 -0.19393365044E+03  0.23071218511E+03  0.12497140308E+03 0.  0.
          4    1    3    3  501    0  0.47833789966E+02 -0.16120661535E+02 -0.29032796029E+02  0.58251634622E+02  0.15500000000E+01 0. -1.
         -4    1    3    3    0  501 -0.47833789966E+02  0.16120661535E+02 -0.16490085441E+03  0.17246055049E+03  0.15500000000E+01 0. -1.
<mgrwt>
<rscale>  2 0.12497140E+03</rscale>
<asrwt>0</asrwt>
<pdfrwt beam="1">  1       21 0.28291180E-02 0.12497140E+03</pdfrwt>
<pdfrwt beam="2">  1       21 0.32665065E-01 0.12497140E+03</pdfrwt>
<totfact> 0.61787767E+06</totfact>
</mgrwt>
</event>
<event>
 5    0  0.1535569E+000  0.1249979E+03  0.7546771E-02  0.1235073E+00
         21   -1    0    0  503  502  0.00000000000E+00  0.00000000000E+00  0.27499600531E+02  0.27499600531E+02  0.00000000000E+00 0.  1.
         21   -1    0    0  502  503 -0.00000000000E+00 -0.00000000000E+00 -0.14204269853E+03  0.14204269853E+03  0.00000000000E+00 0.  1.
         25    2    1    2    0    0  0.00000000000E+00  0.00000000000E+00 -0.11454309800E+03  0.16954229906E+03  0.12499787947E+03 0.  0.
          4    1    3    3  501    0  0.15676701539E+02 -0.45307842223E+02 -0.29297553842E+01  0.48057730956E+02  0.15500000000E+01 0.  1.
         -4    1    3    3    0  501 -0.15676701539E+02  0.45307842223E+02 -0.11161334262E+03  0.12148456811E+03  0.15500000000E+01 0.  1.
<mgrwt>
<rscale>  2 0.12499788E+03</rscale>
<asrwt>0</asrwt>
<pdfrwt beam="1">  1       21 0.42307078E-02 0.12499788E+03</pdfrwt>
<pdfrwt beam="2">  1       21 0.21852723E-01 0.12499788E+03</pdfrwt>
<totfact> 0.68375601E+06</totfact>
</mgrwt>
</event>
<event>
 4    0  0.1616039E+000  0.1247663E+03  0.7546771E-02  0.1235435E+00
         21   -1    0    0  503  502  0.00000000000E+00  0.00000000000E+00  0.61427906020E+03  0.61427906020E+03  0.00000000000E+00 0. -1.
         21   -1    0    0  502  503 -0.00000000000E+00 -0.00000000000E+00 -0.63353240477E+01  0.63353240477E+01  0.00000000000E+00 0. -1.
          4    1    1    2  501    0 -0.23298019620E+02 -0.51607008852E+02  0.43398583762E+03  0.43766675775E+03  0.15500000000E+01 0. -1.
         -4    1    1    2    0  501  0.23298019620E+02  0.51607008852E+02  0.17395789853E+03  0.18294762650E+03  0.15500000000E+01 0. -1.
<mgrwt>
<rscale>  2 0.12476629E+03</rscale>
<asrwt>0</asrwt>
<pdfrwt beam="1">  1       21 0.94504424E-01 0.12476629E+03</pdfrwt>
<pdfrwt beam="2">  1       21 0.97466572E-03 0.12476629E+03</pdfrwt>
<totfact> 0.36387378E+06</totfact>
</mgrwt>
</event>
<event>
 5    0  0.1449765E+000  0.1250066E+03  0.7546771E-02  0.1235059E+00
         21   -1    0    0  503  502  0.00000000000E+00  0.00000000000E+00  0.22530671104E+03  0.22530671104E+03  0.00000000000E+00 0.  1.
         21   -1    0    0  502  503 -0.00000000000E+00 -0.00000000000E+00 -0.17339311421E+02  0.17339311421E+02  0.00000000000E+00 0.  1.
         25    2    1    2    0    0  0.00000000000E+00  0.00000000000E+00  0.20796739962E+03  0.24264602246E+03  0.12500661147E+03 0.  0.
          4    1    3    3  501    0  0.18250617266E+02  0.57660959354E+02  0.73515186772E+02  0.95209014543E+02  0.15500000000E+01 0.  1.
         -4    1    3    3    0  501 -0.18250617266E+02 -0.57660959354E+02  0.13445221285E+03  0.14743700792E+03  0.15500000000E+01 0.  1.
<mgrwt>
<rscale>  2 0.12500661E+03</rscale>
<asrwt>0</asrwt>
<pdfrwt beam="1">  1       21 0.34662569E-01 0.12500661E+03</pdfrwt>
<pdfrwt beam="2">  1       21 0.26675865E-02 0.12500661E+03</pdfrwt>
<totfact> 0.60567449E+06</totfact>
</mgrwt>
</event>
<event>
 5    0  0.1475227E+000  0.1249967E+03  0.7546771E-02  0.1235074E+00
         21   -1    0    0  503  502  0.00000000000E+00  0.00000000000E+00  0.20346038194E+02  0.20346038194E+02  0.00000000000E+00 0.  1.
         21   -1    0    0  502  503 -0.00000000000E+00 -0.00000000000E+00 -0.19198056829E+03  0.19198056829E+03  0.00000000000E+00 0.  1.
         25    2    1    2    0    0  0.00000000000E+00  0.00000000000E+00 -0.17163453010E+03  0.21232660649E+03  0.12499670356E+03 0.  0.
          4    1    3    3  501    0 -0.58887855572E+02  0.17686104648E+02 -0.10466116298E+03  0.12139579634E+03  0.15500000000E+01 0.  1.
         -4    1    3    3    0  501  0.58887855572E+02 -0.17686104648E+02 -0.66973367112E+02  0.90930810146E+02  0.15500000000E+01 0.  1.
<mgrwt>
<rscale>  2 0.12499670E+03</rscale>
<asrwt>0</asrwt>
<pdfrwt beam="1">  1       21 0.31301596E-02 0.12499670E+03</pdfrwt>
<pdfrwt beam="2">  1       21 0.29535473E-01 0.12499670E+03</pdfrwt>
<totfact> 0.63620881E+06</totfact>
</mgrwt>
</event>
<event>
 5    0  0.1677144E+000  0.1249975E+03  0.7546771E-02  0.1235073E+00
         21   -1    0    0  503  502  0.00000000000E+00  0.00000000000E+00  0.41603953884E+02  0.41603953884E+02  0.00000000000E+00 0.  1.
         21   -1    0    0  502  503 -0.00000000000E+00 -0.00000000000E+00 -0.93887494305E+02  0.93887494305E+02  0.00000000000E+00 0.  1.
         25    2    1    2    0    0  0.00000000000E+00  0.00000000000E+00 -0.52283540421E+02  0.13549144819E+03  0.12499745571E+03 0.  0.
          4    1    3    3  501    0 -0.43920155237E+02  0.41020291350E+02 -0.76177620630E+01  0.60597666105E+02  0.15500000000E+01 0.  1.
         -4    1    3    3    0  501  0.43920155237E+02 -0.41020291350E+02 -0.44665778358E+02  0.74893782084E+02  0.15500000000E+01 0.  1.
<mgrwt>
<rscale>  2 0.12499746E+03</rscale>
<asrwt>0</asrwt>
<pdfrwt beam="1">  1       21 0.64006083E-02 0.12499746E+03</pdfrwt>
<pdfrwt beam="2">  1       21 0.14444230E-01 0.12499746E+03</pdfrwt>
<totfact> 0.72636180E+06</totfact>
</mgrwt>
</event>
<event>
 5    0  0.1595173E+000  0.1249545E+03  0.7546771E-02  0.1235140E+00
         21   -1    0    0  503  502  0.00000000000E+00  0.00000000000E+00  0.75194089179E+02  0.75194089179E+02  0.00000000000E+00 0. -1.
         21   -1    0    0  502  503 -0.00000000000E+00 -0.00000000000E+00 -0.51911087367E+02  0.51911087367E+02  0.00000000000E+00 0. -1.
         25    2    1    2    0    0  0.00000000000E+00  0.00000000000E+00  0.23283001812E+02  0.12710517655E+03  0.12495450265E+03 0.  0.
          4    1    3    3  501    0  0.19493214339E+02 -0.47740634388E+02 -0.24204940511E+02  0.56986272226E+02  0.15500000000E+01 0.  1.
         -4    1    3    3    0  501 -0.19493214339E+02  0.47740634388E+02  0.47487942323E+02  0.70118904321E+02  0.15500000000E+01 0.  1.
<mgrwt>
<rscale>  2 0.12495450E+03</rscale>
<asrwt>0</asrwt>
<pdfrwt beam="1">  1       21 0.11568321E-01 0.12495450E+03</pdfrwt>
<pdfrwt beam="2">  1       21 0.79863211E-02 0.12495450E+03</pdfrwt>
<totfact> 0.73840547E+06</totfact>
</mgrwt>
</event>
<event>
 5    0  0.1541386E+000  0.1249973E+03  0.7546771E-02  0.1235074E+00
         21   -1    0    0  503  502  0.00000000000E+00  0.00000000000E+00  0.23665784517E+03  0.23665784517E+03  0.00000000000E+00 0.  1.
         21   -1    0    0  502  503 -0.00000000000E+00 -0.00000000000E+00 -0.16505180972E+02  0.16505180972E+02  0.00000000000E+00 0.  1.
         25    2    1    2    0    0  0.00000000000E+00  0.00000000000E+00  0.22015266420E+03  0.25316302614E+03  0.12499728898E+03 0.  0.
          4    1    3    3  501    0 -0.21508605560E+02 -0.57505804029E+02  0.86618948571E+02  0.10618277808E+03  0.15500000000E+01 0.  1.
         -4    1    3    3    0  501  0.21508605560E+02  0.57505804029E+02  0.13353371563E+03  0.14698024806E+03  0.15500000000E+01 0.  1.
<mgrwt>
<rscale>  2 0.12499729E+03</rscale>
<asrwt>0</asrwt>
<pdfrwt beam="1">  1       21 0.36408897E-01 0.12499729E+03</pdfrwt>
<pdfrwt beam="2">  1       21 0.25392588E-02 0.12499729E+03</pdfrwt>
<totfact> 0.59585739E+06</totfact>
</mgrwt>
</event>
<event>
 5    0  0.1502256E+000  0.1249946E+03  0.7546771E-02  0.1235078E+00
         21   -1    0    0  503  502  0.00000000000E+00  0.00000000000E+00  0.10546672310E+03  0.10546672310E+03  0.00000000000E+00 0.  1.
         21   -1    0    0  502  503 -0.00000000000E+00 -0.00000000000E+00 -0.37034566129E+02  0.37034566129E+02  0.00000000000E+00 0.  1.
         25    2    1    2    0    0  0.00000000000E+00  0.00000000000E+00  0.68432156971E+02  0.14250128923E+03  0.12499462918E+03 0.  0.
          4    1    3    3  501    0 -0.36018159113E+02 -0.18221634968E+02 -0.20151436537E+02  0.45142204878E+02  0.15500000000E+01 0.  1.
         -4    1    3    3    0  501  0.36018159113E+02  0.18221634968E+02  0.88583593507E+02  0.97359084350E+02  0.15500000000E+01 0.  1.
<mgrwt>
<rscale>  2 0.12499463E+03</rscale>
<asrwt>0</asrwt>
<pdfrwt beam="1">  1       21 0.16225650E-01 0.12499463E+03</pdfrwt>
<pdfrwt beam="2">  1       21 0.56976256E-02 0.12499463E+03</pdfrwt>
<totfact> 0.71724241E+06</totfact>
</mgrwt>
</event>
<event>
 5    0  0.1468891E+000  0.1250033E+03  0.7546771E-02  0.1235064E+00
         21   -1    0    0  503  502  0.00000000000E+00  0.00000000000E+00  0.11566817778E+02  0.11566817778E+02  0.00000000000E+00 0.  1.
         21   -1    0    0  502  503 -0.00000000000E+00 -0.00000000000E+00 -0.33772965137E+03  0.33772965137E+03  0.00000000000E+00 0.  1.
         25    2    1    2    0    0  0.00000000000E+00  0.00000000000E+00 -0.32616283359E+03  0.34929646915E+03  0.12500331733E+03 0.  0.
          4    1    3    3  501    0  0.28099840112E+02  0.54433366603E+02 -0.12869197668E+03  0.14253638053E+03  0.15500000000E+01 0.  1.
         -4    1    3    3    0  501 -0.28099840112E+02 -0.54433366603E+02 -0.19747085691E+03  0.20676008862E+03  0.15500000000E+01 0.  1.
<mgrwt>
<rscale>  2 0.12500332E+03</rscale>
<asrwt>0</asrwt>
<pdfrwt beam="1">  1       21 0.17795107E-02 0.12500332E+03</pdfrwt>
<pdfrwt beam="2">  1       21 0.51958401E-01 0.12500332E+03</pdfrwt>
<totfact> 0.51586147E+06</totfact>
</mgrwt>
</event>
<event>
 5    0  0.1227558E+000  0.1249918E+03  0.7546771E-02  0.1235082E+00
         21   -1    0    0  503  502  0.00000000000E+00  0.00000000000E+00  0.64042356762E+01  0.64042356762E+01  0.00000000000E+00 0.  1.
         21   -1    0    0  502  503 -0.00000000000E+00 -0.00000000000E+00 -0.60986764941E+03  0.60986764941E+03  0.00000000000E+00 0.  1.
         25    2    1    2    0    0  0.00000000000E+00  0.00000000000E+00 -0.60346341374E+03  0.61627188509E+03  0.12499177826E+03 0.  0.
          4    1    3    3  501    0 -0.58320810328E+02  0.98230254236E+01 -0.40102037337E+03  0.40536101330E+03  0.15500000000E+01 0. -1.
         -4    1    3    3    0  501  0.58320810328E+02 -0.98230254236E+01 -0.20244304036E+03  0.21091087179E+03  0.15500000000E+01 0. -1.
<mgrwt>
<rscale>  2 0.12499178E+03</rscale>
<asrwt>0</asrwt>
<pdfrwt beam="1">  1       21 0.98526662E-03 0.12499178E+03</pdfrwt>
<pdfrwt beam="2">  1       21 0.93825831E-01 0.12499178E+03</pdfrwt>
<totfact> 0.36374358E+06</totfact>
</mgrwt>
</event>
<event>
 5    0  0.1403545E+000  0.1250169E+03  0.7546771E-02  0.1235043E+00
         21   -1    0    0  503  502  0.00000000000E+00  0.00000000000E+00  0.51676575388E+03  0.51676575388E+03  0.00000000000E+00 0. -1.
         21   -1    0    0  502  503 -0.00000000000E+00 -0.00000000000E+00 -0.75610780183E+01  0.75610780183E+01  0.00000000000E+00 0. -1.
         25    2    1    2    0    0  0.00000000000E+00  0.00000000000E+00  0.50920467586E+03  0.52432683190E+03  0.12501689777E+03 0.  0.
          4    1    3    3  501    0 -0.60437342408E+02 -0.14749603975E+02  0.22990352464E+03  0.23817694329E+03  0.15500000000E+01 0.  1.
         -4    1    3    3    0  501  0.60437342408E+02  0.14749603975E+02  0.27930115123E+03  0.28614988861E+03  0.15500000000E+01 0.  1.
<mgrwt>
<rscale>  2 0.12501690E+03</rscale>
<asrwt>0</asrwt>
<pdfrwt beam="1">  1       21 0.79502396E-01 0.12501690E+03</pdfrwt>
<pdfrwt beam="2">  1       21 0.11632432E-02 0.12501690E+03</pdfrwt>
<totfact> 0.40737651E+06</totfact>
</mgrwt>
</event>
<event>
 5    0  0.1463557E+000  0.1249821E+03  0.7546771E-02  0.1235097E+00
         21   -1    0    0  503  502  0.00000000000E+00  0.00000000000E+00  0.18771621135E+02  0.18771621135E+02  0.00000000000E+00 0.  1.
         21   -1    0    0  502  503 -0.00000000000E+00 -0.00000000000E+00 -0.20803389380E+03  0.20803389380E+03  0.00000000000E+00 0.  1.
         25    2    1    2    0    0  0.00000000000E+00  0.00000000000E+00 -0.18926227267E+03  0.22680551494E+03  0.12498213372E+03 0.  0.
          4    1    3    3  501    0 -0.16550707309E+02 -0.51448259642E+02 -0.15149485241E+03  0.16085379119E+03  0.15500000000E+01 0. -1.
         -4    1    3    3    0  501  0.16550707309E+02  0.51448259642E+02 -0.37767420260E+02  0.65951723751E+02  0.15500000000E+01 0. -1.
<mgrwt>
<rscale>  2 0.12498213E+03</rscale>
<asrwt>0</asrwt>
<pdfrwt beam="1">  1       21 0.28879418E-02 0.12498213E+03</pdfrwt>
<pdfrwt beam="2">  1       21 0.32005213E-01 0.12498213E+03</pdfrwt>
<totfact> 0.62161369E+06</totfact>
</mgrwt>
</event>
<event>
 5    0  0.1410739E+000  0.1249855E+03  0.7546771E-02  0.1235092E+00
         21   -1    0    0  503  502  0.00000000000E+00  0.00000000000E+00  0.35292591109E+03  0.35292591109E+03  0.00000000000E+00 0.  1.
         21   -1    0    0  502  503 -0.00000000000E+00 -0.00000000000E+00 -0.11065610542E+02  0.11065610542E+02  0.00000000000E+00 0.  1.
         25    2    1    2    0    0  0.00000000000E+00  0.00000000000E+00  0.34186030055E+03  0.36399152163E+03  0.12498545007E+03 0.  0.
          4    1    3    3  501    0  0.17771469140E+02 -0.55356334670E+02  0.10434227679E+03  0.11945652820E+03  0.15500000000E+01 0. -1.
         -4    1    3    3    0  501 -0.17771469140E+02  0.55356334670E+02  0.23751802376E+03  0.24453499344E+03  0.15500000000E+01 0. -1.
<mgrwt>
<rscale>  2 0.12498545E+03</rscale>
<asrwt>0</asrwt>
<pdfrwt beam="1">  1       21 0.54296285E-01 0.12498545E+03</pdfrwt>
<pdfrwt beam="2">  1       21 0.17024019E-02 0.12498545E+03</pdfrwt>
<totfact> 0.50539839E+06</totfact>
</mgrwt>
</event>
<event>
 5    0  0.1493030E+000  0.1250011E+03  0.7546771E-02  0.1235068E+00
         21   -1    0    0  503  502  0.00000000000E+00  0.00000000000E+00  0.17436391186E+03  0.17436391186E+03  0.00000000000E+00 0. -1.
         21   -1    0    0  502  503 -0.00000000000E+00 -0.00000000000E+00 -0.22403238308E+02  0.22403238308E+02  0.00000000000E+00 0. -1.
         25    2    1    2    0    0  0.00000000000E+00  0.00000000000E+00  0.15196067355E+03  0.19676715017E+03  0.12500106031E+03 0.  0.
          4    1    3    3  501    0 -0.18510514576E+02 -0.48648948452E+02  0.13038571967E+03  0.14040013436E+03  0.15500000000E+01 0. -1.
         -4    1    3    3    0  501  0.18510514576E+02  0.48648948452E+02  0.21574953878E+02  0.56367015800E+02  0.15500000000E+01 0. -1.
<mgrwt>
<rscale>  2 0.12500106E+03</rscale>
<asrwt>0</asrwt>
<pdfrwt beam="1">  1       21 0.26825216E-01 0.12500106E+03</pdfrwt>
<pdfrwt beam="2">  1       21 0.34466522E-02 0.12500106E+03</pdfrwt>
<totfact> 0.65276378E+06</totfact>
</mgrwt>
</event>
<event>
 5    0  0.1574937E+000  0.1250011E+03  0.7546771E-02  0.1235068E+00
         21   -1    0    0  503  502  0.00000000000E+00  0.00000000000E+00  0.86554695452E+02  0.86554695452E+02  0.00000000000E+00 0.  1.
         21   -1    0    0  502  503 -0.00000000000E+00 -0.00000000000E+00 -0.45131233691E+02  0.45131233691E+02  0.00000000000E+00 0.  1.
         25    2    1    2    0    0  0.00000000000E+00  0.00000000000E+00  0.41423461762E+02  0.13168592914E+03  0.12500112299E+03 0.  0.
          4    1    3    3  501    0 -0.51628873608E+02  0.35027586232E+02  0.17147719734E+02  0.64721860135E+02  0.15500000000E+01 0. -1.
         -4    1    3    3    0  501  0.51628873608E+02 -0.35027586232E+02  0.24275742027E+02  0.66964069009E+02  0.15500000000E+01 0. -1.
<mgrwt>
<rscale>  2 0.12500112E+03</rscale>
<asrwt>0</asrwt>
<pdfrwt beam="1">  1       21 0.13316107E-01 0.12500112E+03</pdfrwt>
<pdfrwt beam="2">  1       21 0.69432667E-02 0.12500112E+03</pdfrwt>
<totfact> 0.73136291E+06</totfact>
</mgrwt>
</event>
<event>
 5    0  0.1384225E+000  0.1249996E+03  0.7546771E-02  0.1235070E+00
         21   -1    0    0  503  502  0.00000000000E+00  0.00000000000E+00  0.34445386977E+03  0.34445386977E+03  0.00000000000E+00 0.  1.
         21   -1    0    0  502  503 -0.00000000000E+00 -0.00000000000E+00 -0.11340340949E+02  0.11340340949E+02  0.00000000000E+00 0.  1.
         25    2    1    2    0    0  0.00000000000E+00  0.00000000000E+00  0.33311352882E+03  0.35579421072E+03  0.12499958919E+03 0.  0.
          4    1    3    3  501    0  0.26168340779E+02 -0.22597836999E+02  0.18426126743E+02  0.39209296638E+02  0.15500000000E+01 0.  1.
         -4    1    3    3    0  501 -0.26168340779E+02  0.22597836999E+02  0.31468740208E+03  0.31658491408E+03  0.15500000000E+01 0.  1.
<mgrwt>
<rscale>  2 0.12499959E+03</rscale>
<asrwt>0</asrwt>
<pdfrwt beam="1">  1       21 0.52992895E-01 0.12499959E+03</pdfrwt>
<pdfrwt beam="2">  1       21 0.17446681E-02 0.12499959E+03</pdfrwt>
<totfact> 0.51113869E+06</totfact>
</mgrwt>
</event>
<event>
 5    0  0.1445670E+000  0.1249977E+03  0.7546771E-02  0.1235073E+00
         21   -1    0    0  503  502  0.00000000000E+00  0.00000000000E+00  0.98933690532E+01  0.98933690532E+01  0.00000000000E+00 0.  1.
         21   -1    0    0  502  503 -0.00000000000E+00 -0.00000000000E+00 -0.39482046680E+03  0.39482046680E+03  0.00000000000E+00 0.  1.
         25    2    1    2    0    0  0.00000000000E+00  0.00000000000E+00 -0.38492709775E+03  0.40471383586E+03  0.12499767338E+03 0.  0.
          4    1    3    3  501    0 -0.53507372932E+02  0.30259000288E+02 -0.15625605688E+03  0.16791963515E+03  0.15500000000E+01 0.  1.
         -4    1    3    3    0  501  0.53507372932E+02 -0.30259000288E+02 -0.22867104087E+03  0.23679420071E+03  0.15500000000E+01 0.  1.
<mgrwt>
<rscale>  2 0.12499767E+03</rscale>
<asrwt>0</asrwt>
<pdfrwt beam="1">  1       21 0.15220568E-02 0.12499767E+03</pdfrwt>
<pdfrwt beam="2">  1       21 0.60741610E-01 0.12499767E+03</pdfrwt>
<totfact> 0.47733026E+06</totfact>
</mgrwt>
</event>
<event>
 5    0  0.1445716E+000  0.1249911E+03  0.7546771E-02  0.1235083E+00
         21   -1    0    0  503  502  0.00000000000E+00  0.00000000000E+00  0.14460125196E+02  0.14460125196E+02  0.00000000000E+00 0.  1.
         21   -1    0    0  502  503 -0.00000000000E+00 -0.00000000000E+00 -0.27010117209E+03  0.27010117209E+03  0.00000000000E+00 0.  1.
         25    2    1    2    0    0  0.00000000000E+00  0.00000000000E+00 -0.25564104689E+03  0.28456129728E+03  0.12499114791E+03 0.  0.
          4    1    3    3  501    0 -0.41216765360E+02  0.39767602919E+02 -0.18464614311E+03  0.19333102352E+03  0.15500000000E+01 0.  1.
         -4    1    3    3    0  501  0.41216765360E+02 -0.39767602919E+02 -0.70994903777E+02  0.91230273764E+02  0.15500000000E+01 0.  1.
<mgrwt>
<rscale>  2 0.12499115E+03</rscale>
<asrwt>0</asrwt>
<pdfrwt beam="1">  1       21 0.22246346E-02 0.12499115E+03</pdfrwt>
<pdfrwt beam="2">  1       21 0.41554027E-01 0.12499115E+03</pdfrwt>
<totfact> 0.56776740E+06</totfact>
</mgrwt>
</event>
<event>
 5    0  0.1566346E+000  0.1250095E+03  0.7546771E-02  0.1235054E+00
         21   -1    0    0  503  502  0.00000000000E+00  0.00000000000E+00  0.22568427842E+02  0.22568427842E+02  0.00000000000E+00 0.  1.
         21   -1    0    0  502  503 -0.00000000000E+00 -0.00000000000E+00 -0.17311103668E+03  0.17311103668E+03  0.00000000000E+00 0.  1.
         25    2    1    2    0    0  0.00000000000E+00  0.00000000000E+00 -0.15054260884E+03  0.19567946452E+03  0.12500950268E+03 0.  0.
          4    1    3    3  501    0  0.32065780081E+02  0.47464770390E+02 -0.36190929982E+02  0.67773922664E+02  0.15500000000E+01 0.  1.
         -4    1    3    3    0  501 -0.32065780081E+02 -0.47464770390E+02 -0.11435167885E+03  0.12790554185E+03  0.15500000000E+01 0.  1.
<mgrwt>
<rscale>  2 0.12500950E+03</rscale>
<asrwt>0</asrwt>
<pdfrwt beam="1">  1       21 0.34720659E-02 0.12500950E+03</pdfrwt>
<pdfrwt beam="2">  1       21 0.26632467E-01 0.12500950E+03</pdfrwt>
<totfact> 0.65380996E+06</totfact>
</mgrwt>
</event>
<event>
 5    0  0.1450467E+000  0.1250101E+03  0.7546771E-02  0.1235054E+00
         21   -1    0    0  503  502  0.00000000000E+00  0.00000000000E+00  0.12540472990E+02  0.12540472990E+02  0.00000000000E+00 0.  1.
         21   -1    0    0  502  503 -0.00000000000E+00 -0.00000000000E+00 -0.31154165427E+03  0.31154165427E+03  0.00000000000E+00 0.  1.
         25    2    1    2    0    0  0.00000000000E+00  0.00000000000E+00 -0.29900118128E+03  0.32408212726E+03  0.12501007480E+03 0.  0.
          4    1    3    3  501    0  0.47207834638E+02 -0.40808951496E+02 -0.14108929422E+03  0.15428072342E+03  0.15500000000E+01 0.  1.
         -4    1    3    3    0  501 -0.47207834638E+02  0.40808951496E+02 -0.15791188706E+03  0.16980140384E+03  0.15500000000E+01 0.  1.
<mgrwt>
<rscale>  2 0.12501007E+03</rscale>
<asrwt>0</asrwt>
<pdfrwt beam="1">  1       21 0.19293034E-02 0.12501007E+03</pdfrwt>
<pdfrwt beam="2">  1       21 0.47929488E-01 0.12501007E+03</pdfrwt>
<totfact> 0.53497910E+06</totfact>
</mgrwt>
</event>
<event>
 5    0  0.1569712E+000  0.1250109E+03  0.7546771E-02  0.1235052E+00
         21   -1    0    0  503  502  0.00000000000E+00  0.00000000000E+00  0.20937298205E+03  0.20937298205E+03  0.00000000000E+00 0. -1.
         21   -1    0    0  502  503 -0.00000000000E+00 -0.00000000000E+00 -0.18660143189E+02  0.18660143189E+02  0.00000000000E+00 0. -1.
         25    2    1    2    0    0  0.00000000000E+00  0.00000000000E+00  0.19071283886E+03  0.22803312523E+03  0.12501087672E+03 0.  0.
          4    1    3    3  501    0 -0.55071039455E+02  0.12676623125E+02  0.14399583505E+03  0.15469556933E+03  0.15500000000E+01 0.  1.
         -4    1    3    3    0  501  0.55071039455E+02 -0.12676623125E+02  0.46717003809E+02  0.73337555900E+02  0.15500000000E+01 0.  1.
<mgrwt>
<rscale>  2 0.12501088E+03</rscale>
<asrwt>0</asrwt>
<pdfrwt beam="1">  1       21 0.32211226E-01 0.12501088E+03</pdfrwt>
<pdfrwt beam="2">  1       21 0.28707914E-02 0.12501088E+03</pdfrwt>
<totfact> 0.61993239E+06</totfact>
</mgrwt>
</event>
<event>
 5    0  0.1607531E+000  0.1249997E+03  0.7546771E-02  0.1235070E+00
         21   -1    0    0  503  502  0.00000000000E+00  0.00000000000E+00  0.16596694819E+03  0.16596694819E+03  0.00000000000E+00 0.  1.
         21   -1    0    0  502  503 -0.00000000000E+00 -0.00000000000E+00 -0.23536215733E+02  0.23536215733E+02  0.00000000000E+00 0.  1.
         25    2    1    2    0    0  0.00000000000E+00  0.00000000000E+00  0.14243073245E+03  0.18950316392E+03  0.12499974235E+03 0.  0.
          4    1    3    3  501    0 -0.58302868320E+02 -0.21935818233E+02  0.78553135095E+02  0.10026665502E+03  0.15500000000E+01 0.  1.
         -4    1    3    3    0  501  0.58302868320E+02  0.21935818233E+02  0.63877597358E+02  0.89236508897E+02  0.15500000000E+01 0.  1.
<mgrwt>
<rscale>  2 0.12499974E+03</rscale>
<asrwt>0</asrwt>
<pdfrwt beam="1">  1       21 0.25533376E-01 0.12499974E+03</pdfrwt>
<pdfrwt beam="2">  1       21 0.36209564E-02 0.12499974E+03</pdfrwt>
<totfact> 0.66078157E+06</totfact>
</mgrwt>
</event>
<event>
 5    0  0.1489126E+000  0.1250322E+03  0.7546771E-02  0.1235019E+00
         21   -1    0    0  503  502  0.00000000000E+00  0.00000000000E+00  0.44412219581E+02  0.44412219581E+02  0.00000000000E+00 0. -1.
         21   -1    0    0  502  503 -0.00000000000E+00 -0.00000000000E+00 -0.87999676155E+02  0.87999676155E+02  0.00000000000E+00 0. -1.
         25    2    1    2    0    0  0.00000000000E+00  0.00000000000E+00 -0.43587456574E+02  0.13241189574E+03  0.12503217091E+03 0.  0.
          4    1    3    3  501    0  0.54221745014E+02 -0.16883206673E+02  0.58388106780E+01  0.57109845999E+02  0.15500000000E+01 0. -1.
         -4    1    3    3    0  501 -0.54221745014E+02  0.16883206673E+02 -0.49426267252E+02  0.75302049736E+02  0.15500000000E+01 0. -1.
<mgrwt>
<rscale>  2 0.12503217E+03</rscale>
<asrwt>0</asrwt>
<pdfrwt beam="1">  1       21 0.68326492E-02 0.12503217E+03</pdfrwt>
<pdfrwt beam="2">  1       21 0.13538412E-01 0.12503217E+03</pdfrwt>
<totfact> 0.72981120E+06</totfact>
</mgrwt>
</event>
<event>
 5    0  0.1271156E+000  0.1249999E+03  0.7546771E-02  0.1235070E+00
         21   -1    0    0  503  502  0.00000000000E+00  0.00000000000E+00  0.59847332924E+01  0.59847332924E+01  0.00000000000E+00 0.  1.
         21   -1    0    0  502  503 -0.00000000000E+00 -0.00000000000E+00 -0.65270097023E+03  0.65270097023E+03  0.00000000000E+00 0.  1.
         25    2    1    2    0    0  0.00000000000E+00  0.00000000000E+00 -0.64671623694E+03  0.65868570353E+03  0.12499985962E+03 0.  0.
          4    1    3    3  501    0  0.26139078602E+02  0.46975913781E+02 -0.49114412620E+03  0.49407989547E+03  0.15500000000E+01 0.  1.
         -4    1    3    3    0  501 -0.26139078602E+02 -0.46975913781E+02 -0.15557211074E+03  0.16460580806E+03  0.15500000000E+01 0.  1.
<mgrwt>
<rscale>  2 0.12499986E+03</rscale>
<asrwt>0</asrwt>
<pdfrwt beam="1">  1       21 0.92072875E-03 0.12499986E+03</pdfrwt>
<pdfrwt beam="2">  1       21 0.10041547E+00 0.12499986E+03</pdfrwt>
<totfact> 0.34564560E+06</totfact>
</mgrwt>
</event>
<event>
 5    0  0.1417375E+000  0.1249761E+03  0.7546771E-02  0.1235107E+00
         21   -1    0    0  503  502  0.00000000000E+00  0.00000000000E+00  0.19340534411E+02  0.19340534411E+02  0.00000000000E+00 0.  1.
         21   -1    0    0  502  503 -0.00000000000E+00 -0.00000000000E+00 -0.20189482117E+03  0.20189482117E+03  0.00000000000E+00 0.  1.
         25    2    1    2    0    0  0.00000000000E+00  0.00000000000E+00 -0.18255428676E+03  0.22123535558E+03  0.12497605749E+03 0.  0.
          4    1    3    3  501    0  0.32818315253E+02  0.26288012574E+02 -0.17305775208E+03  0.17809966164E+03  0.15500000000E+01 0. -1.
         -4    1    3    3    0  501 -0.32818315253E+02 -0.26288012574E+02 -0.94965346821E+01  0.43135693945E+02  0.15500000000E+01 0. -1.
<mgrwt>
<rscale>  2 0.12497606E+03</rscale>
<asrwt>0</asrwt>
<pdfrwt beam="1">  1       21 0.29754670E-02 0.12497606E+03</pdfrwt>
<pdfrwt beam="2">  1       21 0.31060740E-01 0.12497606E+03</pdfrwt>
<totfact> 0.62734438E+06</totfact>
</mgrwt>
</event>
<event>
 5    0  0.1554284E+000  0.1250011E+03  0.7546771E-02  0.1235068E+00
         21   -1    0    0  503  502  0.00000000000E+00  0.00000000000E+00  0.23159912498E+02  0.23159912498E+02  0.00000000000E+00 0. -1.
         21   -1    0    0  502  503 -0.00000000000E+00 -0.00000000000E+00 -0.16866711710E+03  0.16866711710E+03  0.00000000000E+00 0. -1.
         25    2    1    2    0    0  0.00000000000E+00  0.00000000000E+00 -0.14550720460E+03  0.19182702959E+03  0.12500105077E+03 0.  0.
          4    1    3    3  501    0 -0.54948768070E+02 -0.15161570069E+02 -0.11201884668E+03  0.12569751322E+03  0.15500000000E+01 0.  1.
         -4    1    3    3    0  501  0.54948768070E+02  0.15161570069E+02 -0.33488357921E+02  0.66129516372E+02  0.15500000000E+01 0.  1.
<mgrwt>
<rscale>  2 0.12500105E+03</rscale>
<asrwt>0</asrwt>
<pdfrwt beam="1">  1       21 0.35630634E-02 0.12500105E+03</pdfrwt>
<pdfrwt beam="2">  1       21 0.25948788E-01 0.12500105E+03</pdfrwt>
<totfact> 0.65818228E+06</totfact>
</mgrwt>
</event>
<event>
 5    0  0.1504025E+000  0.1250061E+03  0.7546771E-02  0.1235060E+00
         21   -1    0    0  503  502  0.00000000000E+00  0.00000000000E+00  0.13477945745E+03  0.13477945745E+03  0.00000000000E+00 0. -1.
         21   -1    0    0  502  503 -0.00000000000E+00 -0.00000000000E+00 -0.28985358208E+02  0.28985358208E+02  0.00000000000E+00 0. -1.
         25    2    1    2    0    0  0.00000000000E+00  0.00000000000E+00  0.10579409924E+03  0.16376481566E+03  0.12500609350E+03 0.  0.
          4    1    3    3  501    0  0.21178644433E+02  0.58508074339E+02  0.45428748621E+02  0.77057792884E+02  0.15500000000E+01 0.  1.
         -4    1    3    3    0  501 -0.21178644433E+02 -0.58508074339E+02  0.60365350623E+02  0.86707022776E+02  0.15500000000E+01 0.  1.
<mgrwt>
<rscale>  2 0.12500609E+03</rscale>
<asrwt>0</asrwt>
<pdfrwt beam="1">  1       21 0.20735301E-01 0.12500609E+03</pdfrwt>
<pdfrwt beam="2">  1       21 0.44592860E-02 0.12500609E+03</pdfrwt>
<totfact> 0.69051683E+06</totfact>
</mgrwt>
</event>
<event>
 5    0  0.1235350E+000  0.1249994E+03  0.7546771E-02  0.1235070E+00
         21   -1    0    0  503  502  0.00000000000E+00  0.00000000000E+00  0.92409312624E+03  0.92409312624E+03  0.00000000000E+00 0.  1.
         21   -1    0    0  502  503 -0.00000000000E+00 -0.00000000000E+00 -0.42270791519E+01  0.42270791519E+01  0.00000000000E+00 0.  1.
         25    2    1    2    0    0  0.00000000000E+00  0.00000000000E+00  0.91986604708E+03  0.92832020539E+03  0.12499943661E+03 0.  0.
          4    1    3    3  501    0  0.29272804726E+02  0.54510515791E+02  0.39539473264E+03  0.40020955827E+03  0.15500000000E+01 0. -1.
         -4    1    3    3    0  501 -0.29272804726E+02 -0.54510515791E+02  0.52447131444E+03  0.52811064712E+03  0.15500000000E+01 0. -1.
<mgrwt>
<rscale>  2 0.12499944E+03</rscale>
<asrwt>0</asrwt>
<pdfrwt beam="1">  1       21 0.14216801E+00 0.12499944E+03</pdfrwt>
<pdfrwt beam="2">  1       21 0.65032061E-03 0.12499944E+03</pdfrwt>
<totfact> 0.25501357E+06</totfact>
</mgrwt>
</event>
<event>
 5    0  0.1525851E+000  0.1250016E+03  0.7546771E-02  0.1235067E+00
         21   -1    0    0  503  502  0.00000000000E+00  0.00000000000E+00  0.71508682076E+02  0.71508682076E+02  0.00000000000E+00 0.  1.
         21   -1    0    0  502  503 -0.00000000000E+00 -0.00000000000E+00 -0.54627591656E+02  0.54627591656E+02  0.00000000000E+00 0.  1.
         25    2    1    2    0    0  0.00000000000E+00  0.00000000000E+00  0.16881090420E+02  0.12613627373E+03  0.12500155334E+03 0.  0.
          4    1    3    3  501    0  0.50050319476E+02  0.22160984064E+02  0.38843786719E+02  0.67137068457E+02  0.15500000000E+01 0.  1.
         -4    1    3    3    0  501 -0.50050319476E+02 -0.22160984064E+02 -0.21962696299E+02  0.58999205275E+02  0.15500000000E+01 0.  1.
<mgrwt>
<rscale>  2 0.12500155E+03</rscale>
<asrwt>0</asrwt>
<pdfrwt beam="1">  1       21 0.11001336E-01 0.12500155E+03</pdfrwt>
<pdfrwt beam="2">  1       21 0.84042449E-02 0.12500155E+03</pdfrwt>
<totfact> 0.73884343E+06</totfact>
</mgrwt>
</event>
<event>
 5    0  0.1456529E+000  0.1249980E+03  0.7546771E-02  0.1235072E+00
         21   -1    0    0  503  502  0.00000000000E+00  0.00000000000E+00  0.17319207663E+02  0.17319207663E+02  0.00000000000E+00 0. -1.
         21   -1    0    0  502  503 -0.00000000000E+00 -0.00000000000E+00 -0.22553709063E+03  0.22553709063E+03  0.00000000000E+00 0. -1.
         25    2    1    2    0    0  0.00000000000E+00  0.00000000000E+00 -0.20821788296E+03  0.24285629829E+03  0.12499797932E+03 0.  0.
          4    1    3    3  501    0  0.37065075351E+02 -0.22597986600E+02 -0.16803858058E+02  0.46575325601E+02  0.15500000000E+01 0. -1.
         -4    1    3    3    0  501 -0.37065075351E+02  0.22597986600E+02 -0.19141402491E+03  0.19628097269E+03  0.15500000000E+01 0. -1.
<mgrwt>
<rscale>  2 0.12499798E+03</rscale>
<asrwt>0</asrwt>
<pdfrwt beam="1">  1       21 0.26644935E-02 0.12499798E+03</pdfrwt>
<pdfrwt beam="2">  1       21 0.34698013E-01 0.12499798E+03</pdfrwt>
<totfact> 0.60560441E+06</totfact>
</mgrwt>
</event>
<event>
 5    0  0.1536181E+000  0.1250030E+03  0.7546771E-02  0.1235065E+00
         21   -1    0    0  503  502  0.00000000000E+00  0.00000000000E+00  0.23140411850E+02  0.23140411850E+02  0.00000000000E+00 0. -1.
         21   -1    0    0  502  503 -0.00000000000E+00 -0.00000000000E+00 -0.16881463915E+03  0.16881463915E+03  0.00000000000E+00 0. -1.
         25    2    1    2    0    0  0.00000000000E+00  0.00000000000E+00 -0.14567422730E+03  0.19195505100E+03  0.12500304438E+03 0.  0.
          4    1    3    3  501    0  0.23583602310E+02  0.57664324633E+02 -0.80149735619E+02  0.10152705675E+03  0.15500000000E+01 0. -1.
         -4    1    3    3    0  501 -0.23583602310E+02 -0.57664324633E+02 -0.65524491678E+02  0.90427994244E+02  0.15500000000E+01 0. -1.
<mgrwt>
<rscale>  2 0.12500304E+03</rscale>
<asrwt>0</asrwt>
<pdfrwt beam="1">  1       21 0.35600632E-02 0.12500304E+03</pdfrwt>
<pdfrwt beam="2">  1       21 0.25971484E-01 0.12500304E+03</pdfrwt>
<totfact> 0.65800759E+06</totfact>
</mgrwt>
</event>
<event>
 5    0  0.1597714E+000  0.1249946E+03  0.7546771E-02  0.1235078E+00
         21   -1    0    0  503  502  0.00000000000E+00  0.00000000000E+00  0.48645113005E+02  0.48645113005E+02  0.00000000000E+00 0.  1.
         21   -1    0    0  502  503 -0.00000000000E+00 -0.00000000000E+00 -0.80294091400E+02  0.80294091400E+02  0.00000000000E+00 0.  1.
         25    2    1    2    0    0  0.00000000000E+00  0.00000000000E+00 -0.31648978395E+02  0.12893920440E+03  0.12499464228E+03 0.  0.
          4    1    3    3  501    0  0.27076706892E+02  0.56025073993E+02 -0.21619207703E+02  0.65891954090E+02  0.15500000000E+01 0. -1.
         -4    1    3    3    0  501 -0.27076706892E+02 -0.56025073993E+02 -0.10029770692E+02  0.63047250315E+02  0.15500000000E+01 0. -1.
<mgrwt>
<rscale>  2 0.12499464E+03</rscale>
<asrwt>0</asrwt>
<pdfrwt beam="1">  1       21 0.74838636E-02 0.12499464E+03</pdfrwt>
<pdfrwt beam="2">  1       21 0.12352937E-01 0.12499464E+03</pdfrwt>
<totfact> 0.73517103E+06</totfact>
</mgrwt>
</event>
<event>
 5    0  0.1320739E+000  0.1249966E+03  0.7546771E-02  0.1235075E+00
         21   -1    0    0  503  502  0.00000000000E+00  0.00000000000E+00  0.43227147376E+03  0.43227147376E+03  0.00000000000E+00 0.  1.
         21   -1    0    0  502  503 -0.00000000000E+00 -0.00000000000E+00 -0.90360814669E+01  0.90360814669E+01  0.00000000000E+00 0.  1.
         25    2    1    2    0    0  0.00000000000E+00  0.00000000000E+00  0.42323539230E+03  0.44130755523E+03  0.12499664400E+03 0.  0.
          4    1    3    3  501    0  0.27373964656E+02 -0.48839670267E+02  0.30952238115E+03  0.31454912854E+03  0.15500000000E+01 0.  1.
         -4    1    3    3    0  501 -0.27373964656E+02  0.48839670267E+02  0.11371301114E+03  0.12675842669E+03  0.15500000000E+01 0.  1.
<mgrwt>
<rscale>  2 0.12499664E+03</rscale>
<asrwt>0</asrwt>
<pdfrwt beam="1">  1       21 0.66503288E-01 0.12499664E+03</pdfrwt>
<pdfrwt beam="2">  1       21 0.13901667E-02 0.12499664E+03</pdfrwt>
<totfact> 0.45420752E+06</totfact>
</mgrwt>
</event>
<event>
 5    0  0.1222151E+000  0.1249971E+03  0.7546771E-02  0.1235074E+00
         21   -1    0    0  503  502  0.00000000000E+00  0.00000000000E+00  0.12429628719E+04  0.12429628719E+04  0.00000000000E+00 0. -1.
         21   -1    0    0  502  503 -0.00000000000E+00 -0.00000000000E+00 -0.31425469552E+01  0.31425469552E+01  0.00000000000E+00 0. -1.
         25    2    1    2    0    0  0.00000000000E+00  0.00000000000E+00  0.12398203250E+04  0.12461054189E+04  0.12499710699E+03 0.  0.
          4    1    3    3  501    0 -0.56644907492E+02  0.13951798370E+02  0.39691276782E+03  0.40118006678E+03  0.15500000000E+01 0.  1.
         -4    1    3    3    0  501  0.56644907492E+02 -0.13951798370E+02  0.84290755717E+03  0.84492535212E+03  0.15500000000E+01 0.  1.
<mgrwt>
<rscale>  2 0.12499711E+03</rscale>
<asrwt>0</asrwt>
<pdfrwt beam="1">  1       21 0.19122467E+00 0.12499711E+03</pdfrwt>
<pdfrwt beam="2">  1       21 0.48346975E-03 0.12499711E+03</pdfrwt>
<totfact> 0.18249489E+06</totfact>
</mgrwt>
</event>
<event>
 5    0  0.1542215E+000  0.1250004E+03  0.7546771E-02  0.1235069E+00
         21   -1    0    0  503  502  0.00000000000E+00  0.00000000000E+00  0.54696837633E+02  0.54696837633E+02  0.00000000000E+00 0. -1.
         21   -1    0    0  502  503 -0.00000000000E+00 -0.00000000000E+00 -0.71416885297E+02  0.71416885297E+02  0.00000000000E+00 0. -1.
         25    2    1    2    0    0  0.00000000000E+00  0.00000000000E+00 -0.16720047664E+02  0.12611372293E+03  0.12500044447E+03 0.  0.
          4    1    3    3  501    0 -0.43539639188E+02  0.18877837541E+02 -0.49364364102E+02  0.68493181223E+02  0.15500000000E+01 0.  1.
         -4    1    3    3    0  501  0.43539639188E+02 -0.18877837541E+02  0.32644316439E+02  0.57620541707E+02  0.15500000000E+01 0.  1.
<mgrwt>
<rscale>  2 0.12500044E+03</rscale>
<asrwt>0</asrwt>
<pdfrwt beam="1">  1       21 0.84148981E-02 0.12500044E+03</pdfrwt>
<pdfrwt beam="2">  1       21 0.10987213E-01 0.12500044E+03</pdfrwt>
<totfact> 0.73889536E+06</totfact>
</mgrwt>
</event>
<event>
 5    0  0.1509432E+000  0.1249877E+03  0.7546771E-02  0.1235089E+00
         21   -1    0    0  503  502  0.00000000000E+00  0.00000000000E+00  0.13775030764E+02  0.13775030764E+02  0.00000000000E+00 0. -1.
         21   -1    0    0  502  503 -0.00000000000E+00 -0.00000000000E+00 -0.28351884429E+03  0.28351884429E+03  0.00000000000E+00 0. -1.
         25    2    1    2    0    0  0.00000000000E+00  0.00000000000E+00 -0.26974381353E+03  0.29729387505E+03  0.12498769223E+03 0.  0.
          4    1    3    3  501    0 -0.53863152874E+02 -0.29631705906E+02 -0.10840635753E+03  0.12463393633E+03  0.15500000000E+01 0. -1.
         -4    1    3    3    0  501  0.53863152874E+02  0.29631705906E+02 -0.16133745600E+03  0.17265993872E+03  0.15500000000E+01 0. -1.
<mgrwt>
<rscale>  2 0.12498769E+03</rscale>
<asrwt>0</asrwt>
<pdfrwt beam="1">  1       21 0.21192354E-02 0.12498769E+03</pdfrwt>
<pdfrwt beam="2">  1       21 0.43618285E-01 0.12498769E+03</pdfrwt>
<totfact> 0.55699040E+06</totfact>
</mgrwt>
</event>
<event>
 5    0  0.1270627E+000  0.1250174E+03  0.7546771E-02  0.1235042E+00
         21   -1    0    0  503  502  0.00000000000E+00  0.00000000000E+00  0.65154062591E+03  0.65154062591E+03  0.00000000000E+00 0. -1.
         21   -1    0    0  502  503 -0.00000000000E+00 -0.00000000000E+00 -0.59970719033E+01  0.59970719033E+01  0.00000000000E+00 0. -1.
         25    2    1    2    0    0  0.00000000000E+00  0.00000000000E+00  0.64554355401E+03  0.65753769782E+03  0.12501737450E+03 0.  0.
          4    1    3    3  501    0  0.61922929464E+02 -0.15600728271E+01  0.36615939605E+03  0.37136503448E+03  0.15500000000E+01 0. -1.
         -4    1    3    3    0  501 -0.61922929464E+02  0.15600728271E+01  0.27938415796E+03  0.28617266333E+03  0.15500000000E+01 0. -1.
<mgrwt>
<rscale>  2 0.12501737E+03</rscale>
<asrwt>0</asrwt>
<pdfrwt beam="1">  1       21 0.10023696E+00 0.12501737E+03</pdfrwt>
<pdfrwt beam="2">  1       21 0.92262696E-03 0.12501737E+03</pdfrwt>
<totfact> 0.34597254E+06</totfact>
</mgrwt>
</event>
<event>
 5    0  0.1489432E+000  0.1250032E+03  0.7546771E-02  0.1235064E+00
         21   -1    0    0  503  502  0.00000000000E+00  0.00000000000E+00  0.15279932177E+03  0.15279932177E+03  0.00000000000E+00 0. -1.
         21   -1    0    0  502  503 -0.00000000000E+00 -0.00000000000E+00 -0.25565893440E+02  0.25565893440E+02  0.00000000000E+00 0. -1.
         25    2    1    2    0    0  0.00000000000E+00  0.00000000000E+00  0.12723342833E+03  0.17836521521E+03  0.12500321881E+03 0.  0.
          4    1    3    3  501    0  0.53561563795E+02 -0.73267844795E+01  0.10832003887E+03  0.12107087267E+03  0.15500000000E+01 0. -1.
         -4    1    3    3    0  501 -0.53561563795E+02  0.73267844795E+01  0.18913389462E+02  0.57294342548E+02  0.15500000000E+01 0. -1.
<mgrwt>
<rscale>  2 0.12500322E+03</rscale>
<asrwt>0</asrwt>
<pdfrwt beam="1">  1       21 0.23507587E-01 0.12500322E+03</pdfrwt>
<pdfrwt beam="2">  1       21 0.39332145E-02 0.12500322E+03</pdfrwt>
<totfact> 0.67334072E+06</totfact>
</mgrwt>
</event>
<event>
 5    0  0.1222151E+000  0.1249986E+03  0.7546771E-02  0.1235072E+00
         21   -1    0    0  503  502  0.00000000000E+00  0.00000000000E+00  0.64000523719E+01  0.64000523719E+01  0.00000000000E+00 0.  1.
         21   -1    0    0  502  503 -0.00000000000E+00 -0.00000000000E+00 -0.61033270281E+03  0.61033270281E+03  0.00000000000E+00 0.  1.
         25    2    1    2    0    0  0.00000000000E+00  0.00000000000E+00 -0.60393265044E+03  0.61673275519E+03  0.12499858019E+03 0.  0.
          4    1    3    3  501    0  0.62528662212E+01 -0.32840028251E+02 -0.56240023498E+03  0.56339505908E+03  0.15500000000E+01 0. -1.
         -4    1    3    3    0  501 -0.62528662212E+01  0.32840028251E+02 -0.41532415458E+02  0.53337696100E+02  0.15500000000E+01 0. -1.
<mgrwt>
<rscale>  2 0.12499858E+03</rscale>
<asrwt>0</asrwt>
<pdfrwt beam="1">  1       21 0.98462346E-03 0.12499858E+03</pdfrwt>
<pdfrwt beam="2">  1       21 0.93897337E-01 0.12499858E+03</pdfrwt>
<totfact> 0.36347964E+06</totfact>
</mgrwt>
</event>
<event>
 5    0  0.1499674E+000  0.1249994E+03  0.7546771E-02  0.1235070E+00
         21   -1    0    0  503  502  0.00000000000E+00  0.00000000000E+00  0.94632886727E+01  0.94632886727E+01  0.00000000000E+00 0. -1.
         21   -1    0    0  502  503 -0.00000000000E+00 -0.00000000000E+00 -0.41277554153E+03  0.41277554153E+03  0.00000000000E+00 0. -1.
         25    2    1    2    0    0  0.00000000000E+00  0.00000000000E+00 -0.40331225285E+03  0.42223883020E+03  0.12499942570E+03 0.  0.
          4    1    3    3  501    0  0.61912718691E+01  0.61416468037E+02 -0.16899362176E+03  0.17992098568E+03  0.15500000000E+01 0. -1.
         -4    1    3    3    0  501 -0.61912718691E+01 -0.61416468037E+02 -0.23431863109E+03  0.24231784451E+03  0.15500000000E+01 0. -1.
<mgrwt>
<rscale>  2 0.12499943E+03</rscale>
<asrwt>0</asrwt>
<pdfrwt beam="1">  1       21 0.14558908E-02 0.12499943E+03</pdfrwt>
<pdfrwt beam="2">  1       21 0.63503920E-01 0.12499943E+03</pdfrwt>
<totfact> 0.46601099E+06</totfact>
</mgrwt>
</event>
<event>
 5    0  0.1222151E+000  0.1249989E+03  0.7546771E-02  0.1235071E+00
         21   -1    0    0  503  502  0.00000000000E+00  0.00000000000E+00  0.34111460836E+01  0.34111460836E+01  0.00000000000E+00 0.  1.
         21   -1    0    0  502  503 -0.00000000000E+00 -0.00000000000E+00 -0.11451222458E+04  0.11451222458E+04  0.00000000000E+00 0.  1.
         25    2    1    2    0    0  0.00000000000E+00  0.00000000000E+00 -0.11417110997E+04  0.11485333919E+04  0.12499886822E+03 0.  0.
          4    1    3    3  501    0  0.35433171951E+02  0.47520026974E+02 -0.75233747750E+03  0.75467062033E+03  0.15500000000E+01 0.  1.
         -4    1    3    3    0  501 -0.35433171951E+02 -0.47520026974E+02 -0.38937362222E+03  0.39386277156E+03  0.15500000000E+01 0.  1.
<mgrwt>
<rscale>  2 0.12499887E+03</rscale>
<asrwt>0</asrwt>
<pdfrwt beam="1">  1       21 0.52479060E-03 0.12499887E+03</pdfrwt>
<pdfrwt beam="2">  1       21 0.17617302E+00 0.12499887E+03</pdfrwt>
<totfact> 0.20200664E+06</totfact>
</mgrwt>
</event>
<event>
 5    0  0.1254908E+000  0.1250059E+03  0.7546771E-02  0.1235060E+00
         21   -1    0    0  503  502  0.00000000000E+00  0.00000000000E+00  0.48099340728E+03  0.48099340728E+03  0.00000000000E+00 0. -1.
         21   -1    0    0  502  503 -0.00000000000E+00 -0.00000000000E+00 -0.81219741254E+01  0.81219741254E+01  0.00000000000E+00 0. -1.
         25    2    1    2    0    0  0.00000000000E+00  0.00000000000E+00  0.47287143315E+03  0.48911538140E+03  0.12500585600E+03 0.  0.
          4    1    3    3  501    0 -0.11667031368E+02  0.38942936801E+02  0.50774605094E+02  0.65062546600E+02  0.15500000000E+01 0. -1.
         -4    1    3    3    0  501  0.11667031368E+02 -0.38942936801E+02  0.42209682806E+03  0.42405283480E+03  0.15500000000E+01 0. -1.
<mgrwt>
<rscale>  2 0.12500586E+03</rscale>
<asrwt>0</asrwt>
<pdfrwt beam="1">  1       21 0.73998963E-01 0.12500586E+03</pdfrwt>
<pdfrwt beam="2">  1       21 0.12495349E-02 0.12500586E+03</pdfrwt>
<totfact> 0.42634376E+06</totfact>
</mgrwt>
</event>
<event>
 5    0  0.1427663E+000  0.1250050E+03  0.7546771E-02  0.1235061E+00
         21   -1    0    0  503  502  0.00000000000E+00  0.00000000000E+00  0.24787142167E+03  0.24787142167E+03  0.00000000000E+00 0. -1.
         21   -1    0    0  502  503 -0.00000000000E+00 -0.00000000000E+00 -0.15760436652E+02  0.15760436652E+02  0.00000000000E+00 0. -1.
         25    2    1    2    0    0  0.00000000000E+00  0.00000000000E+00  0.23211098501E+03  0.26363185832E+03  0.12500498933E+03 0.  0.
          4    1    3    3  501    0  0.38333117934E+02 -0.28858619586E+02  0.31646289236E+02  0.57499025882E+02  0.15500000000E+01 0.  1.
         -4    1    3    3    0  501 -0.38333117934E+02  0.28858619586E+02  0.20046469578E+03  0.20613283244E+03  0.15500000000E+01 0.  1.
<mgrwt>
<rscale>  2 0.12500499E+03</rscale>
<asrwt>0</asrwt>
<pdfrwt beam="1">  1       21 0.38134062E-01 0.12500499E+03</pdfrwt>
<pdfrwt beam="2">  1       21 0.24246827E-02 0.12500499E+03</pdfrwt>
<totfact> 0.58610620E+06</totfact>
</mgrwt>
</event>
<event>
 5    0  0.1222151E+000  0.1249841E+03  0.7546771E-02  0.1235094E+00
         21   -1    0    0  503  502  0.00000000000E+00  0.00000000000E+00  0.22037114606E+01  0.22037114606E+01  0.00000000000E+00 0. -1.
         21   -1    0    0  502  503 -0.00000000000E+00 -0.00000000000E+00 -0.17721282807E+04  0.17721282807E+04  0.00000000000E+00 0. -1.
         25    2    1    2    0    0  0.00000000000E+00  0.00000000000E+00 -0.17699245693E+04  0.17743319922E+04  0.12498414943E+03 0.  0.
          4    1    3    3  501    0  0.57305950952E+02  0.23784528068E+02 -0.78143408750E+03  0.78389496197E+03  0.15500000000E+01 0. -1.
         -4    1    3    3    0  501 -0.57305950952E+02 -0.23784528068E+02 -0.98849048177E+03  0.99043703023E+03  0.15500000000E+01 0. -1.
<mgrwt>
<rscale>  2 0.12498415E+03</rscale>
<asrwt>0</asrwt>
<pdfrwt beam="1">  1       21 0.33903091E-03 0.12498415E+03</pdfrwt>
<pdfrwt beam="2">  1       21 0.27263643E+00 0.12498415E+03</pdfrwt>
<totfact> 0.10372501E+06</totfact>
</mgrwt>
</event>
<event>
 5    0  0.1344886E+000  0.1250049E+03  0.7546771E-02  0.1235062E+00
         21   -1    0    0  503  502  0.00000000000E+00  0.00000000000E+00  0.94241966030E+01  0.94241966030E+01  0.00000000000E+00 0.  1.
         21   -1    0    0  502  503 -0.00000000000E+00 -0.00000000000E+00 -0.41452429094E+03  0.41452429094E+03  0.00000000000E+00 0.  1.
         25    2    1    2    0    0  0.00000000000E+00  0.00000000000E+00 -0.40510009434E+03  0.42394848754E+03  0.12500493454E+03 0.  0.
          4    1    3    3  501    0 -0.42229208273E+02 -0.45959750283E+02 -0.19263258832E+03  0.20249770680E+03  0.15500000000E+01 0.  1.
         -4    1    3    3    0  501  0.42229208273E+02  0.45959750283E+02 -0.21246750602E+03  0.22145078074E+03  0.15500000000E+01 0.  1.
<mgrwt>
<rscale>  2 0.12500493E+03</rscale>
<asrwt>0</asrwt>
<pdfrwt beam="1">  1       21 0.14498767E-02 0.12500493E+03</pdfrwt>
<pdfrwt beam="2">  1       21 0.63772956E-01 0.12500493E+03</pdfrwt>
<totfact> 0.46486684E+06</totfact>
</mgrwt>
</event>
<event>
 5    0  0.1547018E+000  0.1250114E+03  0.7546771E-02  0.1235052E+00
         21   -1    0    0  503  502  0.00000000000E+00  0.00000000000E+00  0.48836466401E+02  0.48836466401E+02  0.00000000000E+00 0.  1.
         21   -1    0    0  502  503 -0.00000000000E+00 -0.00000000000E+00 -0.80000878182E+02  0.80000878182E+02  0.00000000000E+00 0.  1.
         25    2    1    2    0    0  0.00000000000E+00  0.00000000000E+00 -0.31164411781E+02  0.12883734458E+03  0.12501136267E+03 0.  0.
          4    1    3    3  501    0 -0.31217529300E+02  0.38895889203E+02 -0.54379160602E+02  0.73803251556E+02  0.15500000000E+01 0. -1.
         -4    1    3    3    0  501  0.31217529300E+02 -0.38895889203E+02  0.23214748821E+02  0.55034093027E+02  0.15500000000E+01 0. -1.
<mgrwt>
<rscale>  2 0.12501136E+03</rscale>
<asrwt>0</asrwt>
<pdfrwt beam="1">  1       21 0.75133026E-02 0.12501136E+03</pdfrwt>
<pdfrwt beam="2">  1       21 0.12307827E-01 0.12501136E+03</pdfrwt>
<totfact> 0.73499410E+06</totfact>
</mgrwt>
</event>
<event>
 5    0  0.1500998E+000  0.1249971E+03  0.7546771E-02  0.1235074E+00
         21   -1    0    0  503  502  0.00000000000E+00  0.00000000000E+00  0.14631744609E+02  0.14631744609E+02  0.00000000000E+00 0. -1.
         21   -1    0    0  502  503 -0.00000000000E+00 -0.00000000000E+00 -0.26695870433E+03  0.26695870433E+03  0.00000000000E+00 0. -1.
         25    2    1    2    0    0  0.00000000000E+00  0.00000000000E+00 -0.25232695973E+03  0.28159044894E+03  0.12499714530E+03 0.  0.
          4    1    3    3  501    0  0.33577611495E+02 -0.52541216719E+02 -0.11725614438E+03  0.13281355858E+03  0.15500000000E+01 0.  1.
         -4    1    3    3    0  501 -0.33577611495E+02  0.52541216719E+02 -0.13507081535E+03  0.14877689036E+03  0.15500000000E+01 0.  1.
<mgrwt>
<rscale>  2 0.12499715E+03</rscale>
<asrwt>0</asrwt>
<pdfrwt beam="1">  1       21 0.22510375E-02 0.12499715E+03</pdfrwt>
<pdfrwt beam="2">  1       21 0.41070573E-01 0.12499715E+03</pdfrwt>
<totfact> 0.57025736E+06</totfact>
</mgrwt>
</event>
<event>
 5    0  0.1397740E+000  0.1250015E+03  0.7546771E-02  0.1235067E+00
         21   -1    0    0  503  502  0.00000000000E+00  0.00000000000E+00  0.14033995153E+02  0.14033995153E+02  0.00000000000E+00 0. -1.
         21   -1    0    0  502  503 -0.00000000000E+00 -0.00000000000E+00 -0.27834860284E+03  0.27834860284E+03  0.00000000000E+00 0. -1.
         25    2    1    2    0    0  0.00000000000E+00  0.00000000000E+00 -0.26431460769E+03  0.29238259800E+03  0.12500148708E+03 0.  0.
          4    1    3    3  501    0 -0.10388123953E+02 -0.31869308217E+02 -0.25549277320E+03  0.25768687507E+03  0.15500000000E+01 0.  1.
         -4    1    3    3    0  501  0.10388123953E+02  0.31869308217E+02 -0.88218344869E+01  0.34695722924E+02  0.15500000000E+01 0.  1.
<mgrwt>
<rscale>  2 0.12500149E+03</rscale>
<asrwt>0</asrwt>
<pdfrwt beam="1">  1       21 0.21590763E-02 0.12500149E+03</pdfrwt>
<pdfrwt beam="2">  1       21 0.42822859E-01 0.12500149E+03</pdfrwt>
<totfact> 0.56093115E+06</totfact>
</mgrwt>
</event>
<event>
 5    0  0.1634695E+000  0.1250029E+03  0.7546771E-02  0.1235065E+00
         21   -1    0    0  503  502  0.00000000000E+00  0.00000000000E+00  0.37817702291E+02  0.37817702291E+02  0.00000000000E+00 0.  1.
         21   -1    0    0  502  503 -0.00000000000E+00 -0.00000000000E+00 -0.10329640175E+03  0.10329640175E+03  0.00000000000E+00 0.  1.
         25    2    1    2    0    0  0.00000000000E+00  0.00000000000E+00 -0.65478699459E+02  0.14111410404E+03  0.12500292107E+03 0.  0.
          4    1    3    3  501    0  0.57716758957E+02 -0.23145105855E+02 -0.25862412917E+02  0.67366067804E+02  0.15500000000E+01 0. -1.
         -4    1    3    3    0  501 -0.57716758957E+02  0.23145105855E+02 -0.39616286543E+02  0.73748036238E+02  0.15500000000E+01 0. -1.
<mgrwt>
<rscale>  2 0.12500292E+03</rscale>
<asrwt>0</asrwt>
<pdfrwt beam="1">  1       21 0.58181082E-02 0.12500292E+03</pdfrwt>
<pdfrwt beam="2">  1       21 0.15891754E-01 0.12500292E+03</pdfrwt>
<totfact> 0.71888847E+06</totfact>
</mgrwt>
</event>
<event>
 5    0  0.1222151E+000  0.1249948E+03  0.7546771E-02  0.1235077E+00
         21   -1    0    0  503  502  0.00000000000E+00  0.00000000000E+00  0.55736417568E+01  0.55736417568E+01  0.00000000000E+00 0. -1.
         21   -1    0    0  502  503 -0.00000000000E+00 -0.00000000000E+00 -0.70078544287E+03  0.70078544287E+03  0.00000000000E+00 0. -1.
         25    2    1    2    0    0  0.00000000000E+00  0.00000000000E+00 -0.69521180112E+03  0.70635908463E+03  0.12499483200E+03 0.  0.
          4    1    3    3  501    0 -0.20042380056E+02  0.37779857501E+02 -0.60499564059E+03  0.60650733076E+03  0.15500000000E+01 0. -1.
         -4    1    3    3    0  501  0.20042380056E+02 -0.37779857501E+02 -0.90216160528E+02  0.99851753873E+02  0.15500000000E+01 0. -1.
<mgrwt>
<rscale>  2 0.12499483E+03</rscale>
<asrwt>0</asrwt>
<pdfrwt beam="1">  1       21 0.85748369E-03 0.12499483E+03</pdfrwt>
<pdfrwt beam="2">  1       21 0.10781310E+00 0.12499483E+03</pdfrwt>
<totfact> 0.32670609E+06</totfact>
</mgrwt>
</event>
<event>
 5    0  0.1508274E+000  0.1249999E+03  0.7546771E-02  0.1235069E+00
         21   -1    0    0  503  502  0.00000000000E+00  0.00000000000E+00  0.12040413589E+03  0.12040413589E+03  0.00000000000E+00 0. -1.
         21   -1    0    0  502  503 -0.00000000000E+00 -0.00000000000E+00 -0.32442770688E+02  0.32442770688E+02  0.00000000000E+00 0. -1.
         25    2    1    2    0    0  0.00000000000E+00  0.00000000000E+00  0.87961365205E+02  0.15284690658E+03  0.12499990033E+03 0.  0.
          4    1    3    3  501    0  0.33939768745E+02 -0.43683944004E+02  0.79496941805E+02  0.96862588870E+02  0.15500000000E+01 0. -1.
         -4    1    3    3    0  501 -0.33939768745E+02  0.43683944004E+02  0.84644234001E+01  0.55984317712E+02  0.15500000000E+01 0. -1.
<mgrwt>
<rscale>  2 0.12499990E+03</rscale>
<asrwt>0</asrwt>
<pdfrwt beam="1">  1       21 0.18523713E-01 0.12499990E+03</pdfrwt>
<pdfrwt beam="2">  1       21 0.49911956E-02 0.12499990E+03</pdfrwt>
<totfact> 0.70403562E+06</totfact>
</mgrwt>
</event>
<event>
 5    0  0.1639249E+000  0.1250018E+03  0.7546771E-02  0.1235066E+00
         21   -1    0    0  503  502  0.00000000000E+00  0.00000000000E+00  0.13121642840E+03  0.13121642840E+03  0.00000000000E+00 0. -1.
         21   -1    0    0  502  503 -0.00000000000E+00 -0.00000000000E+00 -0.29770376540E+02  0.29770376540E+02  0.00000000000E+00 0. -1.
         25    2    1    2    0    0  0.00000000000E+00  0.00000000000E+00  0.10144605185E+03  0.16098680494E+03  0.12500179969E+03 0.  0.
          4    1    3    3  501    0 -0.54539815954E+02 -0.66316795538E+00  0.89975333918E+02  0.10522829719E+03  0.15500000000E+01 0. -1.
         -4    1    3    3    0  501  0.54539815954E+02  0.66316795538E+00  0.11470717937E+02  0.55758507745E+02  0.15500000000E+01 0. -1.
<mgrwt>
<rscale>  2 0.12500180E+03</rscale>
<asrwt>0</asrwt>
<pdfrwt beam="1">  1       21 0.20187142E-01 0.12500180E+03</pdfrwt>
<pdfrwt beam="2">  1       21 0.45800580E-02 0.12500180E+03</pdfrwt>
<totfact> 0.69395945E+06</totfact>
</mgrwt>
</event>
<event>
 5    0  0.1232990E+000  0.1249988E+03  0.7546771E-02  0.1235071E+00
         21   -1    0    0  503  502  0.00000000000E+00  0.00000000000E+00  0.50123381901E+01  0.50123381901E+01  0.00000000000E+00 0. -1.
         21   -1    0    0  502  503 -0.00000000000E+00 -0.00000000000E+00 -0.77931222620E+03  0.77931222620E+03  0.00000000000E+00 0. -1.
         25    2    1    2    0    0  0.00000000000E+00  0.00000000000E+00 -0.77429988801E+03  0.78432456439E+03  0.12499882293E+03 0.  0.
          4    1    3    3  501    0  0.49379710659E+02  0.15021726700E+02 -0.60808250440E+03  0.61027104041E+03  0.15500000000E+01 0.  1.
         -4    1    3    3    0  501 -0.49379710659E+02 -0.15021726700E+02 -0.16621738360E+03  0.17405352398E+03  0.15500000000E+01 0.  1.
<mgrwt>
<rscale>  2 0.12499882E+03</rscale>
<asrwt>0</asrwt>
<pdfrwt beam="1">  1       21 0.77113015E-03 0.12499882E+03</pdfrwt>
<pdfrwt beam="2">  1       21 0.11989400E+00 0.12499882E+03</pdfrwt>
<totfact> 0.29889713E+06</totfact>
</mgrwt>
</event>
<event>
 5    0  0.1554157E+000  0.1250136E+03  0.7546771E-02  0.1235048E+00
         21   -1    0    0  503  502  0.00000000000E+00  0.00000000000E+00  0.10633015416E+03  0.10633015416E+03  0.00000000000E+00 0.  1.
         21   -1    0    0  502  503 -0.00000000000E+00 -0.00000000000E+00 -0.36745008925E+02  0.36745008925E+02  0.00000000000E+00 0.  1.
         25    2    1    2    0    0  0.00000000000E+00  0.00000000000E+00  0.69585145236E+02  0.14307516309E+03  0.12501363867E+03 0.  0.
          4    1    3    3  501    0 -0.45199250218E+02  0.20011586896E+02  0.78541883430E+02  0.92815223876E+02  0.15500000000E+01 0. -1.
         -4    1    3    3    0  501  0.45199250218E+02 -0.20011586896E+02 -0.89567381936E+01  0.50259939210E+02  0.15500000000E+01 0. -1.
<mgrwt>
<rscale>  2 0.12501364E+03</rscale>
<asrwt>0</asrwt>
<pdfrwt beam="1">  1       21 0.16358485E-01 0.12501364E+03</pdfrwt>
<pdfrwt beam="2">  1       21 0.56530783E-02 0.12501364E+03</pdfrwt>
<totfact> 0.71615469E+06</totfact>
</mgrwt>
</event>
<event>
 5    0  0.1568130E+000  0.1249757E+03  0.7546771E-02  0.1235107E+00
         21   -1    0    0  503  502  0.00000000000E+00  0.00000000000E+00  0.81455683883E+02  0.81455683883E+02  0.00000000000E+00 0.  1.
         21   -1    0    0  502  503 -0.00000000000E+00 -0.00000000000E+00 -0.47936861487E+02  0.47936861487E+02  0.00000000000E+00 0.  1.
         25    2    1    2    0    0  0.00000000000E+00  0.00000000000E+00  0.33518822397E+02  0.12939254537E+03  0.12497567500E+03 0.  0.
          4    1    3    3  501    0 -0.49385844764E+02  0.37377955431E+02  0.83320771095E+01  0.62513192402E+02  0.15500000000E+01 0.  1.
         -4    1    3    3    0  501  0.49385844764E+02 -0.37377955431E+02  0.25186745287E+02  0.66879352968E+02  0.15500000000E+01 0.  1.
<mgrwt>
<rscale>  2 0.12497568E+03</rscale>
<asrwt>0</asrwt>
<pdfrwt beam="1">  1       21 0.12531644E-01 0.12497568E+03</pdfrwt>
<pdfrwt beam="2">  1       21 0.73749018E-02 0.12497568E+03</pdfrwt>
<totfact> 0.73491846E+06</totfact>
</mgrwt>
</event>
<event>
 5    0  0.1416296E+000  0.1250030E+03  0.7546771E-02  0.1235065E+00
         21   -1    0    0  503  502  0.00000000000E+00  0.00000000000E+00  0.87231087945E+01  0.87231087945E+01  0.00000000000E+00 0.  1.
         21   -1    0    0  502  503 -0.00000000000E+00 -0.00000000000E+00 -0.44782634590E+03  0.44782634590E+03  0.00000000000E+00 0.  1.
         25    2    1    2    0    0  0.00000000000E+00  0.00000000000E+00 -0.43910323710E+03  0.45654945469E+03  0.12500300694E+03 0.  0.
          4    1    3    3  501    0 -0.13932482638E+01  0.62398405062E+02 -0.23022069741E+03  0.23853610651E+03  0.15500000000E+01 0.  1.
         -4    1    3    3    0  501  0.13932482638E+01 -0.62398405062E+02 -0.20888253970E+03  0.21801334818E+03  0.15500000000E+01 0.  1.
<mgrwt>
<rscale>  2 0.12500301E+03</rscale>
<asrwt>0</asrwt>
<pdfrwt beam="1">  1       21 0.13420167E-02 0.12500301E+03</pdfrwt>
<pdfrwt beam="2">  1       21 0.68896365E-01 0.12500301E+03</pdfrwt>
<totfact> 0.44499602E+06</totfact>
</mgrwt>
</event>
<event>
 5    0  0.1540503E+000  0.1249960E+03  0.7546771E-02  0.1235076E+00
         21   -1    0    0  503  502  0.00000000000E+00  0.00000000000E+00  0.24346448473E+02  0.24346448473E+02  0.00000000000E+00 0. -1.
         21   -1    0    0  502  503 -0.00000000000E+00 -0.00000000000E+00 -0.16043402733E+03  0.16043402733E+03  0.00000000000E+00 0. -1.
         25    2    1    2    0    0  0.00000000000E+00  0.00000000000E+00 -0.13608757886E+03  0.18478047581E+03  0.12499598041E+03 0.  0.
          4    1    3    3  501    0  0.70496379909E+01 -0.55551448897E+02 -0.10900967810E+03  0.12256089625E+03  0.15500000000E+01 0. -1.
         -4    1    3    3    0  501 -0.70496379909E+01  0.55551448897E+02 -0.27077900760E+02  0.62219579555E+02  0.15500000000E+01 0. -1.
<mgrwt>
<rscale>  2 0.12499598E+03</rscale>
<asrwt>0</asrwt>
<pdfrwt beam="1">  1       21 0.37456074E-02 0.12499598E+03</pdfrwt>
<pdfrwt beam="2">  1       21 0.24682158E-01 0.12499598E+03</pdfrwt>
<totfact> 0.66614110E+06</totfact>
</mgrwt>
</event>
<event>
 5    0  0.1494117E+000  0.1250033E+03  0.7546771E-02  0.1235064E+00
         21   -1    0    0  503  502  0.00000000000E+00  0.00000000000E+00  0.15668238789E+03  0.15668238789E+03  0.00000000000E+00 0.  1.
         21   -1    0    0  502  503 -0.00000000000E+00 -0.00000000000E+00 -0.24932340020E+02  0.24932340020E+02  0.00000000000E+00 0.  1.
         25    2    1    2    0    0  0.00000000000E+00  0.00000000000E+00  0.13175004787E+03  0.18161472791E+03  0.12500333708E+03 0.  0.
          4    1    3    3  501    0 -0.25152299194E+02 -0.29398463697E+02  0.13715718803E+03  0.14251808500E+03  0.15500000000E+01 0.  1.
         -4    1    3    3    0  501  0.25152299194E+02  0.29398463697E+02 -0.54071401600E+01  0.39096642914E+02  0.15500000000E+01 0.  1.
<mgrwt>
<rscale>  2 0.12500334E+03</rscale>
<asrwt>0</asrwt>
<pdfrwt beam="1">  1       21 0.24104982E-01 0.12500334E+03</pdfrwt>
<pdfrwt beam="2">  1       21 0.38357447E-02 0.12500334E+03</pdfrwt>
<totfact> 0.66961115E+06</totfact>
</mgrwt>
</event>
<event>
 5    0  0.1498457E+000  0.1249977E+03  0.7546771E-02  0.1235073E+00
         21   -1    0    0  503  502  0.00000000000E+00  0.00000000000E+00  0.18963647203E+02  0.18963647203E+02  0.00000000000E+00 0.  1.
         21   -1    0    0  502  503 -0.00000000000E+00 -0.00000000000E+00 -0.20597854235E+03  0.20597854235E+03  0.00000000000E+00 0.  1.
         25    2    1    2    0    0  0.00000000000E+00  0.00000000000E+00 -0.18701489515E+03  0.22494218955E+03  0.12499767052E+03 0.  0.
          4    1    3    3  501    0 -0.56066700216E+02 -0.11144510482E+02 -0.13889186323E+03  0.15020328611E+03  0.15500000000E+01 0. -1.
         -4    1    3    3    0  501  0.56066700216E+02  0.11144510482E+02 -0.48123031922E+02  0.74738903446E+02  0.15500000000E+01 0. -1.
<mgrwt>
<rscale>  2 0.12499767E+03</rscale>
<asrwt>0</asrwt>
<pdfrwt beam="1">  1       21 0.29174844E-02 0.12499767E+03</pdfrwt>
<pdfrwt beam="2">  1       21 0.31689004E-01 0.12499767E+03</pdfrwt>
<totfact> 0.62324589E+06</totfact>
</mgrwt>
</event>
<event>
 5    0  0.1365376E+000  0.1249912E+03  0.7546771E-02  0.1235083E+00
         21   -1    0    0  503  502  0.00000000000E+00  0.00000000000E+00  0.14830054078E+02  0.14830054078E+02  0.00000000000E+00 0. -1.
         21   -1    0    0  502  503 -0.00000000000E+00 -0.00000000000E+00 -0.26336387169E+03  0.26336387169E+03  0.00000000000E+00 0. -1.
         25    2    1    2    0    0  0.00000000000E+00  0.00000000000E+00 -0.24853381762E+03  0.27819392577E+03  0.12499120704E+03 0.  0.
          4    1    3    3  501    0 -0.16063802171E+02  0.29092415485E+02 -0.24201682272E+03  0.24429277385E+03  0.15500000000E+01 0.  1.
         -4    1    3    3    0  501  0.16063802171E+02 -0.29092415485E+02 -0.65169949005E+01  0.33901151920E+02  0.15500000000E+01 0.  1.
<mgrwt>
<rscale>  2 0.12499121E+03</rscale>
<asrwt>0</asrwt>
<pdfrwt beam="1">  1       21 0.22815470E-02 0.12499121E+03</pdfrwt>
<pdfrwt beam="2">  1       21 0.40517516E-01 0.12499121E+03</pdfrwt>
<totfact> 0.57331152E+06</totfact>
</mgrwt>
</event>
<event>
 5    0  0.1492084E+000  0.1249645E+03  0.7546771E-02  0.1235125E+00
         21   -1    0    0  503  502  0.00000000000E+00  0.00000000000E+00  0.30442453632E+02  0.30442453632E+02  0.00000000000E+00 0.  1.
         21   -1    0    0  502  503 -0.00000000000E+00 -0.00000000000E+00 -0.12824303762E+03  0.12824303762E+03  0.00000000000E+00 0.  1.
         25    2    1    2    0    0  0.00000000000E+00  0.00000000000E+00 -0.97800583989E+02  0.15868549125E+03  0.12496451859E+03 0.  0.
          4    1    3    3  501    0 -0.38046758370E+02 -0.68674316865E+01  0.13398650859E+02  0.40946840968E+02  0.15500000000E+01 0. -1.
         -4    1    3    3    0  501  0.38046758370E+02  0.68674316865E+01 -0.11119923485E+03  0.11773865029E+03  0.15500000000E+01 0. -1.
<mgrwt>
<rscale>  2 0.12496452E+03</rscale>
<asrwt>0</asrwt>
<pdfrwt beam="1">  1       21 0.46834545E-02 0.12496452E+03</pdfrwt>
<pdfrwt beam="2">  1       21 0.19729698E-01 0.12496452E+03</pdfrwt>
<totfact> 0.69743375E+06</totfact>
</mgrwt>
</event>
<event>
 4    0  0.1615649E+000  0.1248988E+03  0.7546771E-02  0.1235228E+00
         21   -1    0    0  503  502  0.00000000000E+00  0.00000000000E+00  0.29290700940E+03  0.29290700940E+03  0.00000000000E+00 0.  1.
         21   -1    0    0  502  503 -0.00000000000E+00 -0.00000000000E+00 -0.13314555520E+02  0.13314555520E+02  0.00000000000E+00 0.  1.
          4    1    1    2  501    0  0.71544364586E+00  0.22597357058E+02 -0.28777845608E+01  0.22843742023E+02  0.15500000000E+01 0. -1.
         -4    1    1    2    0  501 -0.71544364586E+00 -0.22597357058E+02  0.28247023844E+03  0.28337782290E+03  0.15500000000E+01 0. -1.
<mgrwt>
<rscale>  2 0.12489879E+03</rscale>
<asrwt>0</asrwt>
<pdfrwt beam="1">  1       21 0.45062612E-01 0.12489879E+03</pdfrwt>
<pdfrwt beam="2">  1       21 0.20483934E-02 0.12489879E+03</pdfrwt>
<totfact> 0.55082971E+06</totfact>
</mgrwt>
</event>
<event>
 5    0  0.1461235E+000  0.1250097E+03  0.7546771E-02  0.1235054E+00
         21   -1    0    0  503  502  0.00000000000E+00  0.00000000000E+00  0.32388056681E+02  0.32388056681E+02  0.00000000000E+00 0.  1.
         21   -1    0    0  502  503 -0.00000000000E+00 -0.00000000000E+00 -0.12062653462E+03  0.12062653462E+03  0.00000000000E+00 0.  1.
         25    2    1    2    0    0  0.00000000000E+00  0.00000000000E+00 -0.88238477937E+02  0.15301459130E+03  0.12500974427E+03 0.  0.
          4    1    3    3  501    0  0.10273323437E+02  0.20109844708E+02  0.27195204090E+02  0.35382603834E+02  0.15500000000E+01 0. -1.
         -4    1    3    3    0  501 -0.10273323437E+02 -0.20109844708E+02 -0.11543368203E+03  0.11763198747E+03  0.15500000000E+01 0. -1.
<mgrwt>
<rscale>  2 0.12500974E+03</rscale>
<asrwt>0</asrwt>
<pdfrwt beam="1">  1       21 0.49827780E-02 0.12500974E+03</pdfrwt>
<pdfrwt beam="2">  1       21 0.18557928E-01 0.12500974E+03</pdfrwt>
<totfact> 0.70365086E+06</totfact>
</mgrwt>
</event>
<event>
 5    0  0.1222151E+000  0.1250025E+03  0.7546771E-02  0.1235065E+00
         21   -1    0    0  503  502  0.00000000000E+00  0.00000000000E+00  0.21822459674E+04  0.21822459674E+04  0.00000000000E+00 0.  1.
         21   -1    0    0  502  503 -0.00000000000E+00 -0.00000000000E+00 -0.17900863449E+01  0.17900863449E+01  0.00000000000E+00 0.  1.
         25    2    1    2    0    0  0.00000000000E+00  0.00000000000E+00  0.21804558810E+04  0.21840360537E+04  0.12500253929E+03 0.  0.
          4    1    3    3  501    0 -0.10713293856E+02  0.40173879454E+02  0.19051191721E+04  0.19055734512E+04  0.15500000000E+01 0.  1.
         -4    1    3    3    0  501  0.10713293856E+02 -0.40173879454E+02  0.27533670892E+03  0.27846260257E+03  0.15500000000E+01 0.  1.
<mgrwt>
<rscale>  2 0.12500254E+03</rscale>
<asrwt>0</asrwt>
<pdfrwt beam="1">  1       21 0.33572802E+00 0.12500254E+03</pdfrwt>
<pdfrwt beam="2">  1       21 0.27539964E-03 0.12500254E+03</pdfrwt>
<totfact> 0.62885295E+05</totfact>
</mgrwt>
</event>
<event>
 5    0  0.1623901E+000  0.1250000E+03  0.7546771E-02  0.1235069E+00
         21   -1    0    0  503  502  0.00000000000E+00  0.00000000000E+00  0.81379398407E+02  0.81379398407E+02  0.00000000000E+00 0. -1.
         21   -1    0    0  502  503 -0.00000000000E+00 -0.00000000000E+00 -0.48000446379E+02  0.48000446379E+02  0.00000000000E+00 0. -1.
         25    2    1    2    0    0  0.00000000000E+00  0.00000000000E+00  0.33378952028E+02  0.12937984479E+03  0.12499995919E+03 0.  0.
          4    1    3    3  501    0 -0.12185999068E+02 -0.60927015872E+02  0.23495998353E+02  0.66445950026E+02  0.15500000000E+01 0. -1.
         -4    1    3    3    0  501  0.12185999068E+02  0.60927015872E+02  0.98829536755E+01  0.62933894760E+02  0.15500000000E+01 0. -1.
<mgrwt>
<rscale>  2 0.12499996E+03</rscale>
<asrwt>0</asrwt>
<pdfrwt beam="1">  1       21 0.12519907E-01 0.12499996E+03</pdfrwt>
<pdfrwt beam="2">  1       21 0.73846841E-02 0.12499996E+03</pdfrwt>
<totfact> 0.73447994E+06</totfact>
</mgrwt>
</event>
<event>
 5    0  0.1487387E+000  0.1250012E+03  0.7546771E-02  0.1235067E+00
         21   -1    0    0  503  502  0.00000000000E+00  0.00000000000E+00  0.18551696858E+02  0.18551696858E+02  0.00000000000E+00 0.  1.
         21   -1    0    0  502  503 -0.00000000000E+00 -0.00000000000E+00 -0.21056422760E+03  0.21056422760E+03  0.00000000000E+00 0.  1.
         25    2    1    2    0    0  0.00000000000E+00  0.00000000000E+00 -0.19201253074E+03  0.22911592445E+03  0.12500117951E+03 0.  0.
          4    1    3    3  501    0  0.24623824593E+02  0.38735811163E+02 -0.17370793617E+03  0.17967650206E+03  0.15500000000E+01 0.  1.
         -4    1    3    3    0  501 -0.24623824593E+02 -0.38735811163E+02 -0.18304594562E+02  0.49439422389E+02  0.15500000000E+01 0.  1.
<mgrwt>
<rscale>  2 0.12500118E+03</rscale>
<asrwt>0</asrwt>
<pdfrwt beam="1">  1       21 0.28541073E-02 0.12500118E+03</pdfrwt>
<pdfrwt beam="2">  1       21 0.32394496E-01 0.12500118E+03</pdfrwt>
<totfact> 0.61900227E+06</totfact>
</mgrwt>
</event>
<event>
 5    0  0.1512634E+000  0.1250068E+03  0.7546771E-02  0.1235059E+00
         21   -1    0    0  503  502  0.00000000000E+00  0.00000000000E+00  0.20473774418E+02  0.20473774418E+02  0.00000000000E+00 0. -1.
         21   -1    0    0  502  503 -0.00000000000E+00 -0.00000000000E+00 -0.19081371747E+03  0.19081371747E+03  0.00000000000E+00 0. -1.
         25    2    1    2    0    0  0.00000000000E+00  0.00000000000E+00 -0.17033994305E+03  0.21128749189E+03  0.12500683193E+03 0.  0.
          4    1    3    3  501    0 -0.24974453627E+01  0.61351285952E+02 -0.10473969840E+03  0.12142085670E+03  0.15500000000E+01 0.  1.
         -4    1    3    3    0  501  0.24974453627E+01 -0.61351285952E+02 -0.65600244649E+02  0.89866635184E+02  0.15500000000E+01 0.  1.
<mgrwt>
<rscale>  2 0.12500683E+03</rscale>
<asrwt>0</asrwt>
<pdfrwt beam="1">  1       21 0.31498116E-02 0.12500683E+03</pdfrwt>
<pdfrwt beam="2">  1       21 0.29355955E-01 0.12500683E+03</pdfrwt>
<totfact> 0.63713322E+06</totfact>
</mgrwt>
</event>
<event>
 5    0  0.1510772E+000  0.1249944E+03  0.7546771E-02  0.1235078E+00
         21   -1    0    0  503  502  0.00000000000E+00  0.00000000000E+00  0.14911958990E+03  0.14911958990E+03  0.00000000000E+00 0.  1.
         21   -1    0    0  502  503 -0.00000000000E+00 -0.00000000000E+00 -0.26193088313E+02  0.26193088313E+02  0.00000000000E+00 0.  1.
         25    2    1    2    0    0  0.00000000000E+00  0.00000000000E+00  0.12292650158E+03  0.17531267821E+03  0.12499444127E+03 0.  0.
          4    1    3    3  501    0  0.14673362492E+02  0.50717847645E+02  0.14610640188E+02  0.54804023057E+02  0.15500000000E+01 0. -1.
         -4    1    3    3    0  501 -0.14673362492E+02 -0.50717847645E+02  0.10831586140E+03  0.12050865515E+03  0.15500000000E+01 0. -1.
<mgrwt>
<rscale>  2 0.12499444E+03</rscale>
<asrwt>0</asrwt>
<pdfrwt beam="1">  1       21 0.22941475E-01 0.12499444E+03</pdfrwt>
<pdfrwt beam="2">  1       21 0.40297060E-02 0.12499444E+03</pdfrwt>
<totfact> 0.67702911E+06</totfact>
</mgrwt>
</event>
<event>
 5    0  0.1511426E+000  0.1250101E+03  0.7546771E-02  0.1235053E+00
         21   -1    0    0  503  502  0.00000000000E+00  0.00000000000E+00  0.46668870396E+02  0.46668870396E+02  0.00000000000E+00 0.  1.
         21   -1    0    0  502  503 -0.00000000000E+00 -0.00000000000E+00 -0.83714972943E+02  0.83714972943E+02  0.00000000000E+00 0.  1.
         25    2    1    2    0    0  0.00000000000E+00  0.00000000000E+00 -0.37046102547E+02  0.13038384334E+03  0.12501013115E+03 0.  0.
          4    1    3    3  501    0  0.33527181645E+02  0.38772354806E+02  0.18749857336E+02  0.54601529799E+02  0.15500000000E+01 0. -1.
         -4    1    3    3    0  501 -0.33527181645E+02 -0.38772354806E+02 -0.55795959883E+02  0.75782313540E+02  0.15500000000E+01 0. -1.
<mgrwt>
<rscale>  2 0.12501013E+03</rscale>
<asrwt>0</asrwt>
<pdfrwt beam="1">  1       21 0.71798263E-02 0.12501013E+03</pdfrwt>
<pdfrwt beam="2">  1       21 0.12879227E-01 0.12501013E+03</pdfrwt>
<totfact> 0.73294700E+06</totfact>
</mgrwt>
</event>
<event>
 5    0  0.1496103E+000  0.1249954E+03  0.7546771E-02  0.1235076E+00
         21   -1    0    0  503  502  0.00000000000E+00  0.00000000000E+00  0.16368334465E+03  0.16368334465E+03  0.00000000000E+00 0. -1.
         21   -1    0    0  502  503 -0.00000000000E+00 -0.00000000000E+00 -0.23862934913E+02  0.23862934913E+02  0.00000000000E+00 0. -1.
         25    2    1    2    0    0  0.00000000000E+00  0.00000000000E+00  0.13982040974E+03  0.18754627957E+03  0.12499543991E+03 0.  0.
          4    1    3    3  501    0  0.51387081177E+02  0.35376206717E+02  0.74988292565E+02  0.97558980291E+02  0.15500000000E+01 0. -1.
         -4    1    3    3    0  501 -0.51387081177E+02 -0.35376206717E+02  0.64832117175E+02  0.89987299276E+02  0.15500000000E+01 0. -1.
<mgrwt>
<rscale>  2 0.12499544E+03</rscale>
<asrwt>0</asrwt>
<pdfrwt beam="1">  1       21 0.25182052E-01 0.12499544E+03</pdfrwt>
<pdfrwt beam="2">  1       21 0.36712209E-02 0.12499544E+03</pdfrwt>
<totfact> 0.66303879E+06</totfact>
</mgrwt>
</event>
<event>
 5    0  0.1512603E+000  0.1250000E+03  0.7546771E-02  0.1235069E+00
         21   -1    0    0  503  502  0.00000000000E+00  0.00000000000E+00  0.15426774196E+02  0.15426774196E+02  0.00000000000E+00 0.  1.
         21   -1    0    0  502  503 -0.00000000000E+00 -0.00000000000E+00 -0.25321219235E+03  0.25321219235E+03  0.00000000000E+00 0.  1.
         25    2    1    2    0    0  0.00000000000E+00  0.00000000000E+00 -0.23778541815E+03  0.26863896655E+03  0.12499995704E+03 0.  0.
          4    1    3    3  501    0 -0.40833070729E+02  0.44761517421E+02 -0.86094146978E+02  0.10528788036E+03  0.15500000000E+01 0. -1.
         -4    1    3    3    0  501  0.40833070729E+02 -0.44761517421E+02 -0.15169127118E+03  0.16335108619E+03  0.15500000000E+01 0. -1.
<mgrwt>
<rscale>  2 0.12499996E+03</rscale>
<asrwt>0</asrwt>
<pdfrwt beam="1">  1       21 0.23733501E-02 0.12499996E+03</pdfrwt>
<pdfrwt beam="2">  1       21 0.38955719E-01 0.12499996E+03</pdfrwt>
<totfact> 0.58166463E+06</totfact>
</mgrwt>
</event>
<event>
 5    0  0.1493905E+000  0.1250026E+03  0.7546771E-02  0.1235065E+00
         21   -1    0    0  503  502  0.00000000000E+00  0.00000000000E+00  0.39531792949E+02  0.39531792949E+02  0.00000000000E+00 0. -1.
         21   -1    0    0  502  503 -0.00000000000E+00 -0.00000000000E+00 -0.98816925554E+02  0.98816925554E+02  0.00000000000E+00 0. -1.
         25    2    1    2    0    0  0.00000000000E+00  0.00000000000E+00 -0.59285132605E+02  0.13834871850E+03  0.12500256383E+03 0.  0.
          4    1    3    3  501    0 -0.37260396419E+02 -0.35208340486E+02  0.98930884970E+01  0.52232557673E+02  0.15500000000E+01 0.  1.
         -4    1    3    3    0  501  0.37260396419E+02  0.35208340486E+02 -0.69178221102E+02  0.86116160829E+02  0.15500000000E+01 0.  1.
<mgrwt>
<rscale>  2 0.12500256E+03</rscale>
<asrwt>0</asrwt>
<pdfrwt beam="1">  1       21 0.60818143E-02 0.12500256E+03</pdfrwt>
<pdfrwt beam="2">  1       21 0.15202604E-01 0.12500256E+03</pdfrwt>
<totfact> 0.72250899E+06</totfact>
</mgrwt>
</event>
<event>
 5    0  0.1420495E+000  0.1249981E+03  0.7546771E-02  0.1235072E+00
         21   -1    0    0  503  502  0.00000000000E+00  0.00000000000E+00  0.16931453337E+02  0.16931453337E+02  0.00000000000E+00 0. -1.
         21   -1    0    0  502  503 -0.00000000000E+00 -0.00000000000E+00 -0.23070276023E+03  0.23070276023E+03  0.00000000000E+00 0. -1.
         25    2    1    2    0    0  0.00000000000E+00  0.00000000000E+00 -0.21377130689E+03  0.24763421357E+03  0.12499812830E+03 0.  0.
          4    1    3    3  501    0  0.44921512649E+02 -0.15517381880E+01 -0.20909867925E+02  0.49598137735E+02  0.15500000000E+01 0. -1.
         -4    1    3    3    0  501 -0.44921512649E+02  0.15517381880E+01 -0.19286143897E+03  0.19803607583E+03  0.15500000000E+01 0. -1.
<mgrwt>
<rscale>  2 0.12499813E+03</rscale>
<asrwt>0</asrwt>
<pdfrwt beam="1">  1       21 0.26048390E-02 0.12499813E+03</pdfrwt>
<pdfrwt beam="2">  1       21 0.35492732E-01 0.12499813E+03</pdfrwt>
<totfact> 0.60104478E+06</totfact>
</mgrwt>
</event>
<event>
 5    0  0.1222151E+000  0.1249745E+03  0.7546771E-02  0.1235109E+00
         21   -1    0    0  503  502  0.00000000000E+00  0.00000000000E+00  0.23562793962E+03  0.23562793962E+03  0.00000000000E+00 0.  1.
         21   -1    0    0  502  503 -0.00000000000E+00 -0.00000000000E+00 -0.16571286248E+02  0.16571286248E+02  0.00000000000E+00 0.  1.
         25    2    1    2    0    0  0.00000000000E+00  0.00000000000E+00  0.21905665338E+03  0.25219922587E+03  0.12497452597E+03 0.  0.
          4    1    3    3  501    0 -0.23250973479E+02  0.11301677133E+01  0.22650946203E+03  0.22770775994E+03  0.15500000000E+01 0.  1.
         -4    1    3    3    0  501  0.23250973479E+02 -0.11301677133E+01 -0.74528086545E+01  0.24491465935E+02  0.15500000000E+01 0.  1.
<mgrwt>
<rscale>  2 0.12497453E+03</rscale>
<asrwt>0</asrwt>
<pdfrwt beam="1">  1       21 0.36250450E-01 0.12497453E+03</pdfrwt>
<pdfrwt beam="2">  1       21 0.25494288E-02 0.12497453E+03</pdfrwt>
<totfact> 0.59710080E+06</totfact>
</mgrwt>
</event>
<event>
 5    0  0.1286630E+000  0.1249903E+03  0.7546771E-02  0.1235084E+00
         21   -1    0    0  503  502  0.00000000000E+00  0.00000000000E+00  0.84593844819E+01  0.84593844819E+01  0.00000000000E+00 0.  1.
         21   -1    0    0  502  503 -0.00000000000E+00 -0.00000000000E+00 -0.46169338993E+03  0.46169338993E+03  0.00000000000E+00 0.  1.
         25    2    1    2    0    0  0.00000000000E+00  0.00000000000E+00 -0.45323400544E+03  0.47015277441E+03  0.12499026999E+03 0.  0.
          4    1    3    3  501    0 -0.19917115748E+02 -0.32216402659E+02 -0.39724159205E+02  0.54909010413E+02  0.15500000000E+01 0.  1.
         -4    1    3    3    0  501  0.19917115748E+02  0.32216402659E+02 -0.41350984624E+03  0.41524376399E+03  0.15500000000E+01 0.  1.
<mgrwt>
<rscale>  2 0.12499027E+03</rscale>
<asrwt>0</asrwt>
<pdfrwt beam="1">  1       21 0.13014439E-02 0.12499027E+03</pdfrwt>
<pdfrwt beam="2">  1       21 0.71029745E-01 0.12499027E+03</pdfrwt>
<totfact> 0.43721027E+06</totfact>
</mgrwt>
</event>
<event>
 5    0  0.1222151E+000  0.1250047E+03  0.7546771E-02  0.1235062E+00
         21   -1    0    0  503  502  0.00000000000E+00  0.00000000000E+00  0.12161149132E+04  0.12161149132E+04  0.00000000000E+00 0. -1.
         21   -1    0    0  502  503 -0.00000000000E+00 -0.00000000000E+00 -0.32123150863E+01  0.32123150863E+01  0.00000000000E+00 0. -1.
         25    2    1    2    0    0  0.00000000000E+00  0.00000000000E+00  0.12129025981E+04  0.12193272283E+04  0.12500470843E+03 0.  0.
          4    1    3    3  501    0 -0.11058908519E+02 -0.61204476654E+02  0.54804429885E+03  0.55156436018E+03  0.15500000000E+01 0. -1.
         -4    1    3    3    0  501  0.11058908519E+02  0.61204476654E+02  0.66485829929E+03  0.66776286813E+03  0.15500000000E+01 0. -1.
<mgrwt>
<rscale>  2 0.12500471E+03</rscale>
<asrwt>0</asrwt>
<pdfrwt beam="1">  1       21 0.18709423E+00 0.12500471E+03</pdfrwt>
<pdfrwt beam="2">  1       21 0.49420329E-03 0.12500471E+03</pdfrwt>
<totfact> 0.18760284E+06</totfact>
</mgrwt>
</event>
<event>
 5    0  0.1222151E+000  0.1250034E+03  0.7546771E-02  0.1235064E+00
         21   -1    0    0  503  502  0.00000000000E+00  0.00000000000E+00  0.10038683945E+04  0.10038683945E+04  0.00000000000E+00 0. -1.
         21   -1    0    0  502  503 -0.00000000000E+00 -0.00000000000E+00 -0.38914090563E+01  0.38914090563E+01  0.00000000000E+00 0. -1.
         25    2    1    2    0    0  0.00000000000E+00  0.00000000000E+00  0.99997698545E+03  0.10077598036E+04  0.12500340094E+03 0.  0.
          4    1    3    3  501    0 -0.14428226981E+02  0.54377263396E+02  0.28083051177E+03  0.28641445380E+03  0.15500000000E+01 0.  1.
         -4    1    3    3    0  501  0.14428226981E+02 -0.54377263396E+02  0.71914647368E+03  0.72134534976E+03  0.15500000000E+01 0.  1.
<mgrwt>
<rscale>  2 0.12500340E+03</rscale>
<asrwt>0</asrwt>
<pdfrwt beam="1">  1       21 0.15444108E+00 0.12500340E+03</pdfrwt>
<pdfrwt beam="2">  1       21 0.59867912E-03 0.12500340E+03</pdfrwt>
<totfact> 0.23423931E+06</totfact>
</mgrwt>
</event>
<event>
 5    0  0.1358647E+000  0.1250014E+03  0.7546771E-02  0.1235067E+00
         21   -1    0    0  503  502  0.00000000000E+00  0.00000000000E+00  0.47957807496E+03  0.47957807496E+03  0.00000000000E+00 0.  1.
         21   -1    0    0  502  503 -0.00000000000E+00 -0.00000000000E+00 -0.81453582758E+01  0.81453582758E+01  0.00000000000E+00 0.  1.
         25    2    1    2    0    0  0.00000000000E+00  0.00000000000E+00  0.47143271669E+03  0.48772343324E+03  0.12500136386E+03 0.  0.
          4    1    3    3  501    0  0.61830040457E+02  0.49385245831E+01  0.26506770309E+03  0.27223268108E+03  0.15500000000E+01 0. -1.
         -4    1    3    3    0  501 -0.61830040457E+02 -0.49385245831E+01  0.20636501360E+03  0.21549075216E+03  0.15500000000E+01 0. -1.
<mgrwt>
<rscale>  2 0.12500136E+03</rscale>
<asrwt>0</asrwt>
<pdfrwt beam="1">  1       21 0.73781220E-01 0.12500136E+03</pdfrwt>
<pdfrwt beam="2">  1       21 0.12531324E-02 0.12500136E+03</pdfrwt>
<totfact> 0.42716335E+06</totfact>
</mgrwt>
</event>
<event>
 5    0  0.1244744E+000  0.1250002E+03  0.7546771E-02  0.1235069E+00
         21   -1    0    0  503  502  0.00000000000E+00  0.00000000000E+00  0.57188860206E+03  0.57188860206E+03  0.00000000000E+00 0. -1.
         21   -1    0    0  502  503 -0.00000000000E+00 -0.00000000000E+00 -0.68304568292E+01  0.68304568292E+01  0.00000000000E+00 0. -1.
         25    2    1    2    0    0  0.00000000000E+00  0.00000000000E+00  0.56505814523E+03  0.57871905889E+03  0.12500016652E+03 0.  0.
          4    1    3    3  501    0 -0.24876020155E+02 -0.41769866331E+02  0.46423230032E+03  0.46677357388E+03  0.15500000000E+01 0.  1.
         -4    1    3    3    0  501  0.24876020155E+02  0.41769866331E+02  0.10082584491E+03  0.11194548501E+03  0.15500000000E+01 0.  1.
<mgrwt>
<rscale>  2 0.12500017E+03</rscale>
<asrwt>0</asrwt>
<pdfrwt beam="1">  1       21 0.87982824E-01 0.12500017E+03</pdfrwt>
<pdfrwt beam="2">  1       21 0.10508400E-02 0.12500017E+03</pdfrwt>
<totfact> 0.38072918E+06</totfact>
</mgrwt>
</event>
<event>
 5    0  0.1561518E+000  0.1249985E+03  0.7546771E-02  0.1235072E+00
         21   -1    0    0  503  502  0.00000000000E+00  0.00000000000E+00  0.21325811047E+02  0.21325811047E+02  0.00000000000E+00 0. -1.
         21   -1    0    0  502  503 -0.00000000000E+00 -0.00000000000E+00 -0.18316552697E+03  0.18316552697E+03  0.00000000000E+00 0. -1.
         25    2    1    2    0    0  0.00000000000E+00  0.00000000000E+00 -0.16183971592E+03  0.20449133802E+03  0.12499845469E+03 0.  0.
          4    1    3    3  501    0  0.25237380371E+02  0.37112243929E+02 -0.15203212332E+03  0.15852574882E+03  0.15500000000E+01 0.  1.
         -4    1    3    3    0  501 -0.25237380371E+02 -0.37112243929E+02 -0.98075925985E+01  0.45965589194E+02  0.15500000000E+01 0.  1.
<mgrwt>
<rscale>  2 0.12499845E+03</rscale>
<asrwt>0</asrwt>
<pdfrwt beam="1">  1       21 0.32808941E-02 0.12499845E+03</pdfrwt>
<pdfrwt beam="2">  1       21 0.28179311E-01 0.12499845E+03</pdfrwt>
<totfact> 0.64446332E+06</totfact>
</mgrwt>
</event>
<event>
 5    0  0.1601861E+000  0.1249976E+03  0.7546771E-02  0.1235073E+00
         21   -1    0    0  503  502  0.00000000000E+00  0.00000000000E+00  0.26065947121E+02  0.26065947121E+02  0.00000000000E+00 0.  1.
         21   -1    0    0  502  503 -0.00000000000E+00 -0.00000000000E+00 -0.14985445855E+03  0.14985445855E+03  0.00000000000E+00 0.  1.
         25    2    1    2    0    0  0.00000000000E+00  0.00000000000E+00 -0.12378851143E+03  0.17592040567E+03  0.12499757425E+03 0.  0.
          4    1    3    3  501    0 -0.61911990085E+02  0.77948377863E+01 -0.66309489105E+02  0.91067034968E+02  0.15500000000E+01 0. -1.
         -4    1    3    3    0  501  0.61911990085E+02 -0.77948377863E+01 -0.57479022322E+02  0.84853370702E+02  0.15500000000E+01 0. -1.
<mgrwt>
<rscale>  2 0.12499757E+03</rscale>
<asrwt>0</asrwt>
<pdfrwt beam="1">  1       21 0.40101457E-02 0.12499757E+03</pdfrwt>
<pdfrwt beam="2">  1       21 0.23054532E-01 0.12499757E+03</pdfrwt>
<totfact> 0.67626806E+06</totfact>
</mgrwt>
</event>
<event>
 5    0  0.1595147E+000  0.1250023E+03  0.7546771E-02  0.1235066E+00
         21   -1    0    0  503  502  0.00000000000E+00  0.00000000000E+00  0.27711239156E+02  0.27711239156E+02  0.00000000000E+00 0.  1.
         21   -1    0    0  502  503 -0.00000000000E+00 -0.00000000000E+00 -0.14096790462E+03  0.14096790462E+03  0.00000000000E+00 0.  1.
         25    2    1    2    0    0  0.00000000000E+00  0.00000000000E+00 -0.11325666547E+03  0.16867914378E+03  0.12500232507E+03 0.  0.
          4    1    3    3  501    0 -0.41134745964E+02  0.32593722953E+02 -0.10238052395E+03  0.11505908172E+03  0.15500000000E+01 0. -1.
         -4    1    3    3    0  501  0.41134745964E+02 -0.32593722953E+02 -0.10876141519E+02  0.53620062064E+02  0.15500000000E+01 0. -1.
<mgrwt>
<rscale>  2 0.12500233E+03</rscale>
<asrwt>0</asrwt>
<pdfrwt beam="1">  1       21 0.42632676E-02 0.12500233E+03</pdfrwt>
<pdfrwt beam="2">  1       21 0.21687370E-01 0.12500233E+03</pdfrwt>
<totfact> 0.68470197E+06</totfact>
</mgrwt>
</event>
<event>
 5    0  0.1431699E+000  0.1249869E+03  0.7546771E-02  0.1235090E+00
         21   -1    0    0  503  502  0.00000000000E+00  0.00000000000E+00  0.34271454063E+03  0.34271454063E+03  0.00000000000E+00 0. -1.
         21   -1    0    0  502  503 -0.00000000000E+00 -0.00000000000E+00 -0.11395576504E+02  0.11395576504E+02  0.00000000000E+00 0. -1.
         25    2    1    2    0    0  0.00000000000E+00  0.00000000000E+00  0.33131896413E+03  0.35411011714E+03  0.12498687558E+03 0.  0.
          4    1    3    3  501    0  0.21233699877E+02  0.58596955272E+02  0.17786324450E+03  0.18847336528E+03  0.15500000000E+01 0. -1.
         -4    1    3    3    0  501 -0.21233699877E+02 -0.58596955272E+02  0.15345571963E+03  0.16563675185E+03  0.15500000000E+01 0. -1.
<mgrwt>
<rscale>  2 0.12498688E+03</rscale>
<asrwt>0</asrwt>
<pdfrwt beam="1">  1       21 0.52725306E-01 0.12498688E+03</pdfrwt>
<pdfrwt beam="2">  1       21 0.17531659E-02 0.12498688E+03</pdfrwt>
<totfact> 0.51253163E+06</totfact>
</mgrwt>
</event>
<event>
 5    0  0.1402344E+000  0.1250154E+03  0.7546771E-02  0.1235045E+00
         21   -1    0    0  503  502  0.00000000000E+00  0.00000000000E+00  0.57798044000E+03  0.57798044000E+03  0.00000000000E+00 0. -1.
         21   -1    0    0  502  503 -0.00000000000E+00 -0.00000000000E+00 -0.67601135433E+01  0.67601135433E+01  0.00000000000E+00 0. -1.
         25    2    1    2    0    0  0.00000000000E+00  0.00000000000E+00  0.57122032645E+03  0.58474055354E+03  0.12501541345E+03 0.  0.
          4    1    3    3  501    0  0.20899690534E+02 -0.58604135507E+02  0.25851013504E+03  0.26589684876E+03  0.15500000000E+01 0.  1.
         -4    1    3    3    0  501 -0.20899690534E+02  0.58604135507E+02  0.31271019141E+03  0.31884370478E+03  0.15500000000E+01 0.  1.
<mgrwt>
<rscale>  2 0.12501541E+03</rscale>
<asrwt>0</asrwt>
<pdfrwt beam="1">  1       21 0.88920029E-01 0.12501541E+03</pdfrwt>
<pdfrwt beam="2">  1       21 0.10400179E-02 0.12501541E+03</pdfrwt>
<totfact> 0.37777480E+06</totfact>
</mgrwt>
</event>
<event>
 5    0  0.1569417E+000  0.1250153E+03  0.7546771E-02  0.1235045E+00
         21   -1    0    0  503  502  0.00000000000E+00  0.00000000000E+00  0.39348546810E+02  0.39348546810E+02  0.00000000000E+00 0. -1.
         21   -1    0    0  502  503 -0.00000000000E+00 -0.00000000000E+00 -0.99297271311E+02  0.99297271311E+02  0.00000000000E+00 0. -1.
         25    2    1    2    0    0  0.00000000000E+00  0.00000000000E+00 -0.59948724501E+02  0.13864581812E+03  0.12501525232E+03 0.  0.
          4    1    3    3  501    0  0.18480574901E+02  0.50804972970E+02 -0.64730132134E+02  0.84350870969E+02  0.15500000000E+01 0. -1.
         -4    1    3    3    0  501 -0.18480574901E+02 -0.50804972970E+02  0.47814076327E+01  0.54294947151E+02  0.15500000000E+01 0. -1.
<mgrwt>
<rscale>  2 0.12501525E+03</rscale>
<asrwt>0</asrwt>
<pdfrwt beam="1">  1       21 0.60536225E-02 0.12501525E+03</pdfrwt>
<pdfrwt beam="2">  1       21 0.15276503E-01 0.12501525E+03</pdfrwt>
<totfact> 0.72188532E+06</totfact>
</mgrwt>
</event>
<event>
 5    0  0.1505028E+000  0.1249888E+03  0.7546771E-02  0.1235087E+00
         21   -1    0    0  503  502  0.00000000000E+00  0.00000000000E+00  0.41141634432E+02  0.41141634432E+02  0.00000000000E+00 0. -1.
         21   -1    0    0  502  503 -0.00000000000E+00 -0.00000000000E+00 -0.94929374309E+02  0.94929374309E+02  0.00000000000E+00 0. -1.
         25    2    1    2    0    0  0.00000000000E+00  0.00000000000E+00 -0.53787739877E+02  0.13607100874E+03  0.12498879333E+03 0.  0.
          4    1    3    3  501    0 -0.35515183097E+02 -0.15044183279E+02  0.26611488758E+02  0.46885280364E+02  0.15500000000E+01 0. -1.
         -4    1    3    3    0  501  0.35515183097E+02  0.15044183279E+02 -0.80399228634E+02  0.89185728376E+02  0.15500000000E+01 0. -1.
<mgrwt>
<rscale>  2 0.12498879E+03</rscale>
<asrwt>0</asrwt>
<pdfrwt beam="1">  1       21 0.63294823E-02 0.12498879E+03</pdfrwt>
<pdfrwt beam="2">  1       21 0.14604519E-01 0.12498879E+03</pdfrwt>
<totfact> 0.72575713E+06</totfact>
</mgrwt>
</event>
<event>
 5    0  0.1513267E+000  0.1249970E+03  0.7546771E-02  0.1235074E+00
         21   -1    0    0  503  502  0.00000000000E+00  0.00000000000E+00  0.38898554641E+02  0.38898554641E+02  0.00000000000E+00 0.  1.
         21   -1    0    0  502  503 -0.00000000000E+00 -0.00000000000E+00 -0.10041669423E+03  0.10041669423E+03  0.00000000000E+00 0.  1.
         25    2    1    2    0    0  0.00000000000E+00  0.00000000000E+00 -0.61518139589E+02  0.13931524887E+03  0.12499702824E+03 0.  0.
          4    1    3    3  501    0 -0.39422813827E+01 -0.45766774260E+02 -0.77960199046E+02  0.90500465988E+02  0.15500000000E+01 0. -1.
         -4    1    3    3    0  501  0.39422813827E+01  0.45766774260E+02  0.16442059457E+02  0.48814782883E+02  0.15500000000E+01 0. -1.
<mgrwt>
<rscale>  2 0.12499703E+03</rscale>
<asrwt>0</asrwt>
<pdfrwt beam="1">  1       21 0.59843932E-02 0.12499703E+03</pdfrwt>
<pdfrwt beam="2">  1       21 0.15448722E-01 0.12499703E+03</pdfrwt>
<totfact> 0.72134289E+06</totfact>
</mgrwt>
</event>
<event>
 5    0  0.1226256E+000  0.1250015E+03  0.7546771E-02  0.1235067E+00
         21   -1    0    0  503  502  0.00000000000E+00  0.00000000000E+00  0.50190003710E+03  0.50190003710E+03  0.00000000000E+00 0. -1.
         21   -1    0    0  502  503 -0.00000000000E+00 -0.00000000000E+00 -0.77831069204E+01  0.77831069204E+01  0.00000000000E+00 0. -1.
         25    2    1    2    0    0  0.00000000000E+00  0.00000000000E+00  0.49411693018E+03  0.50968314402E+03  0.12500146642E+03 0.  0.
          4    1    3    3  501    0  0.28367555173E+02  0.24736093934E+01  0.47382674179E+03  0.47468412725E+03  0.15500000000E+01 0.  1.
         -4    1    3    3    0  501 -0.28367555173E+02 -0.24736093934E+01  0.20290188392E+02  0.34999016770E+02  0.15500000000E+01 0.  1.
<mgrwt>
<rscale>  2 0.12500147E+03</rscale>
<asrwt>0</asrwt>
<pdfrwt beam="1">  1       21 0.77215365E-01 0.12500147E+03</pdfrwt>
<pdfrwt beam="2">  1       21 0.11974015E-02 0.12500147E+03</pdfrwt>
<totfact> 0.41522247E+06</totfact>
</mgrwt>
</event>
<event>
 5    0  0.1401909E+000  0.1249986E+03  0.7546771E-02  0.1235072E+00
         21   -1    0    0  503  502  0.00000000000E+00  0.00000000000E+00  0.86069394261E+01  0.86069394261E+01  0.00000000000E+00 0.  1.
         21   -1    0    0  502  503 -0.00000000000E+00 -0.00000000000E+00 -0.45383847925E+03  0.45383847925E+03  0.00000000000E+00 0.  1.
         25    2    1    2    0    0  0.00000000000E+00  0.00000000000E+00 -0.44523153982E+03  0.46244541867E+03  0.12499856479E+03 0.  0.
          4    1    3    3  501    0  0.42050402324E+01  0.61068690414E+02 -0.26892598213E+03  0.27580908919E+03  0.15500000000E+01 0.  1.
         -4    1    3    3    0  501 -0.42050402324E+01 -0.61068690414E+02 -0.17630555769E+03  0.18663632948E+03  0.15500000000E+01 0.  1.
<mgrwt>
<rscale>  2 0.12499856E+03</rscale>
<asrwt>0</asrwt>
<pdfrwt beam="1">  1       21 0.13241443E-02 0.12499856E+03</pdfrwt>
<pdfrwt beam="2">  1       21 0.69821314E-01 0.12499856E+03</pdfrwt>
<totfact> 0.44158384E+06</totfact>
</mgrwt>
</event>
<event>
 5    0  0.1222151E+000  0.1249971E+03  0.7546771E-02  0.1235074E+00
         21   -1    0    0  503  502  0.00000000000E+00  0.00000000000E+00  0.73889240401E+03  0.73889240401E+03  0.00000000000E+00 0. -1.
         21   -1    0    0  502  503 -0.00000000000E+00 -0.00000000000E+00 -0.52863838150E+01  0.52863838150E+01  0.00000000000E+00 0. -1.
         25    2    1    2    0    0  0.00000000000E+00  0.00000000000E+00  0.73360602020E+03  0.74417878783E+03  0.12499710150E+03 0.  0.
          4    1    3    3  501    0  0.42465215075E+02  0.25647857898E+02  0.59292571536E+03  0.59499950718E+03  0.15500000000E+01 0.  1.
         -4    1    3    3    0  501 -0.42465215075E+02 -0.25647857898E+02  0.14068030484E+03  0.14917928065E+03  0.15500000000E+01 0.  1.
<mgrwt>
<rscale>  2 0.12499710E+03</rscale>
<asrwt>0</asrwt>
<pdfrwt beam="1">  1       21 0.11367567E+00 0.12499710E+03</pdfrwt>
<pdfrwt beam="2">  1       21 0.81329040E-03 0.12499710E+03</pdfrwt>
<totfact> 0.31276931E+06</totfact>
</mgrwt>
</event>
<event>
 5    0  0.1528940E+000  0.1249972E+03  0.7546771E-02  0.1235074E+00
         21   -1    0    0  503  502  0.00000000000E+00  0.00000000000E+00  0.10381595672E+03  0.10381595672E+03  0.00000000000E+00 0. -1.
         21   -1    0    0  502  503 -0.00000000000E+00 -0.00000000000E+00 -0.37625000839E+02  0.37625000839E+02  0.00000000000E+00 0. -1.
         25    2    1    2    0    0  0.00000000000E+00  0.00000000000E+00  0.66190955883E+02  0.14144095756E+03  0.12499720731E+03 0.  0.
          4    1    3    3  501    0 -0.35781110144E+02 -0.36194725042E+02  0.74102790959E+02  0.89910911973E+02  0.15500000000E+01 0.  1.
         -4    1    3    3    0  501  0.35781110144E+02  0.36194725042E+02 -0.79118350758E+01  0.51530045587E+02  0.15500000000E+01 0.  1.
<mgrwt>
<rscale>  2 0.12499721E+03</rscale>
<asrwt>0</asrwt>
<pdfrwt beam="1">  1       21 0.15971686E-01 0.12499721E+03</pdfrwt>
<pdfrwt beam="2">  1       21 0.57884617E-02 0.12499721E+03</pdfrwt>
<totfact> 0.71856860E+06</totfact>
</mgrwt>
</event>
<event>
 5    0  0.1222151E+000  0.1249958E+03  0.7546771E-02  0.1235076E+00
         21   -1    0    0  503  502  0.00000000000E+00  0.00000000000E+00  0.64787677189E+02  0.64787677189E+02  0.00000000000E+00 0.  1.
         21   -1    0    0  502  503 -0.00000000000E+00 -0.00000000000E+00 -0.60289012972E+02  0.60289012972E+02  0.00000000000E+00 0.  1.
         25    2    1    2    0    0  0.00000000000E+00  0.00000000000E+00  0.44986642171E+01  0.12507669016E+03  0.12499576170E+03 0.  0.
          4    1    3    3  501    0  0.16156675212E+02 -0.17595689854E+02  0.60018297558E+02  0.64616135733E+02  0.15500000000E+01 0.  1.
         -4    1    3    3    0  501 -0.16156675212E+02  0.17595689854E+02 -0.55519633341E+02  0.60460554427E+02  0.15500000000E+01 0.  1.
<mgrwt>
<rscale>  2 0.12499576E+03</rscale>
<asrwt>0</asrwt>
<pdfrwt beam="1">  1       21 0.99673350E-02 0.12499576E+03</pdfrwt>
<pdfrwt beam="2">  1       21 0.92752327E-02 0.12499576E+03</pdfrwt>
<totfact> 0.74041246E+06</totfact>
</mgrwt>
</event>
<event>
 5    0  0.1392264E+000  0.1249907E+03  0.7546771E-02  0.1235084E+00
         21   -1    0    0  503  502  0.00000000000E+00  0.00000000000E+00  0.17583430016E+02  0.17583430016E+02  0.00000000000E+00 0.  1.
         21   -1    0    0  502  503 -0.00000000000E+00 -0.00000000000E+00 -0.22212198016E+03  0.22212198016E+03  0.00000000000E+00 0.  1.
         25    2    1    2    0    0  0.00000000000E+00  0.00000000000E+00 -0.20453855014E+03  0.23970541018E+03  0.12499066034E+03 0.  0.
          4    1    3    3  501    0 -0.43170951058E+02  0.19817025178E+02 -0.18009498925E+03  0.18626071286E+03  0.15500000000E+01 0. -1.
         -4    1    3    3    0  501  0.43170951058E+02 -0.19817025178E+02 -0.24443560895E+02  0.53444697318E+02  0.15500000000E+01 0. -1.
<mgrwt>
<rscale>  2 0.12499066E+03</rscale>
<asrwt>0</asrwt>
<pdfrwt beam="1">  1       21 0.27051429E-02 0.12499066E+03</pdfrwt>
<pdfrwt beam="2">  1       21 0.34172615E-01 0.12499066E+03</pdfrwt>
<totfact> 0.60875521E+06</totfact>
</mgrwt>
</event>
<event>
 5    0  0.1222151E+000  0.1249989E+03  0.7546771E-02  0.1235071E+00
         21   -1    0    0  503  502  0.00000000000E+00  0.00000000000E+00  0.32045757585E+04  0.32045757585E+04  0.00000000000E+00 0.  1.
         21   -1    0    0  502  503 -0.00000000000E+00 -0.00000000000E+00 -0.12189377704E+01  0.12189377704E+01  0.00000000000E+00 0.  1.
         25    2    1    2    0    0  0.00000000000E+00  0.00000000000E+00  0.32033568207E+04  0.32057946963E+04  0.12499885488E+03 0.  0.
          4    1    3    3  501    0 -0.54546898486E+02  0.16211321888E+02  0.22633430208E+04  0.22640587897E+04  0.15500000000E+01 0.  1.
         -4    1    3    3    0  501  0.54546898486E+02 -0.16211321888E+02  0.94001379995E+03  0.94173590656E+03  0.15500000000E+01 0.  1.
<mgrwt>
<rscale>  2 0.12499885E+03</rscale>
<asrwt>0</asrwt>
<pdfrwt beam="1">  1       21 0.49300491E+00 0.12499885E+03</pdfrwt>
<pdfrwt beam="2">  1       21 0.18753145E-03 0.12499885E+03</pdfrwt>
<totfact> 0.11704135E+05</totfact>
</mgrwt>
</event>
<event>
 5    0  0.1421967E+000  0.1250001E+03  0.7546771E-02  0.1235069E+00
         21   -1    0    0  503  502  0.00000000000E+00  0.00000000000E+00  0.22179245971E+03  0.22179245971E+03  0.00000000000E+00 0. -1.
         21   -1    0    0  502  503 -0.00000000000E+00 -0.00000000000E+00 -0.17612205494E+02  0.17612205494E+02  0.00000000000E+00 0. -1.
         25    2    1    2    0    0  0.00000000000E+00  0.00000000000E+00  0.20418025421E+03  0.23940466520E+03  0.12500007004E+03 0.  0.
          4    1    3    3  501    0  0.29034909971E+02 -0.41658107381E+02  0.32363217312E+02  0.60234576801E+02  0.15500000000E+01 0. -1.
         -4    1    3    3    0  501 -0.29034909971E+02  0.41658107381E+02  0.17181703690E+03  0.17917008840E+03  0.15500000000E+01 0. -1.
<mgrwt>
<rscale>  2 0.12500007E+03</rscale>
<asrwt>0</asrwt>
<pdfrwt beam="1">  1       21 0.34121915E-01 0.12500007E+03</pdfrwt>
<pdfrwt beam="2">  1       21 0.27095702E-02 0.12500007E+03</pdfrwt>
<totfact> 0.60890213E+06</totfact>
</mgrwt>
</event>
<event>
 5    0  0.1513170E+000  0.1250004E+03  0.7546771E-02  0.1235069E+00
         21   -1    0    0  503  502  0.00000000000E+00  0.00000000000E+00  0.19841845577E+02  0.19841845577E+02  0.00000000000E+00 0. -1.
         21   -1    0    0  502  503 -0.00000000000E+00 -0.00000000000E+00 -0.19687039517E+03  0.19687039517E+03  0.00000000000E+00 0. -1.
         25    2    1    2    0    0  0.00000000000E+00  0.00000000000E+00 -0.17702854959E+03  0.21671224075E+03  0.12500035167E+03 0.  0.
          4    1    3    3  501    0  0.14901846138E+02 -0.60642303322E+02 -0.92115814686E+02  0.11129815715E+03  0.15500000000E+01 0.  1.
         -4    1    3    3    0  501 -0.14901846138E+02  0.60642303322E+02 -0.84912734906E+02  0.10541408359E+03  0.15500000000E+01 0.  1.
<mgrwt>
<rscale>  2 0.12500035E+03</rscale>
<asrwt>0</asrwt>
<pdfrwt beam="1">  1       21 0.30525915E-02 0.12500035E+03</pdfrwt>
<pdfrwt beam="2">  1       21 0.30287755E-01 0.12500035E+03</pdfrwt>
<totfact> 0.63159615E+06</totfact>
</mgrwt>
</event>
<event>
 5    0  0.1505117E+000  0.1249969E+03  0.7546771E-02  0.1235074E+00
         21   -1    0    0  503  502  0.00000000000E+00  0.00000000000E+00  0.32597426123E+02  0.32597426123E+02  0.00000000000E+00 0.  1.
         21   -1    0    0  502  503 -0.00000000000E+00 -0.00000000000E+00 -0.11982714044E+03  0.11982714044E+03  0.00000000000E+00 0.  1.
         25    2    1    2    0    0  0.00000000000E+00  0.00000000000E+00 -0.87229714313E+02  0.15242456656E+03  0.12499690169E+03 0.  0.
          4    1    3    3  501    0 -0.36953009419E+02 -0.13840102598E+02 -0.10268573846E+03  0.11001743829E+03  0.15500000000E+01 0. -1.
         -4    1    3    3    0  501  0.36953009419E+02  0.13840102598E+02  0.15456024151E+02  0.42407128264E+02  0.15500000000E+01 0. -1.
<mgrwt>
<rscale>  2 0.12499690E+03</rscale>
<asrwt>0</asrwt>
<pdfrwt beam="1">  1       21 0.50149886E-02 0.12499690E+03</pdfrwt>
<pdfrwt beam="2">  1       21 0.18434945E-01 0.12499690E+03</pdfrwt>
<totfact> 0.70461499E+06</totfact>
</mgrwt>
</event>
<event>
 5    0  0.1556265E+000  0.1250240E+03  0.7546771E-02  0.1235032E+00
         21   -1    0    0  503  502  0.00000000000E+00  0.00000000000E+00  0.70248968639E+02  0.70248968639E+02  0.00000000000E+00 0. -1.
         21   -1    0    0  502  503 -0.00000000000E+00 -0.00000000000E+00 -0.55627168525E+02  0.55627168525E+02  0.00000000000E+00 0. -1.
         25    2    1    2    0    0  0.00000000000E+00  0.00000000000E+00  0.14621800114E+02  0.12587613716E+03  0.12502401717E+03 0.  0.
          4    1    3    3  501    0  0.20862339250E+02  0.51376827202E+02  0.36326292057E+02  0.66308502976E+02  0.15500000000E+01 0. -1.
         -4    1    3    3    0  501 -0.20862339250E+02 -0.51376827202E+02 -0.21704491943E+02  0.59567634188E+02  0.15500000000E+01 0. -1.
<mgrwt>
<rscale>  2 0.12502402E+03</rscale>
<asrwt>0</asrwt>
<pdfrwt beam="1">  1       21 0.10807534E-01 0.12502402E+03</pdfrwt>
<pdfrwt beam="2">  1       21 0.85580259E-02 0.12502402E+03</pdfrwt>
<totfact> 0.73877868E+06</totfact>
</mgrwt>
</event>
<event>
 5    0  0.1598860E+000  0.1250177E+03  0.7546771E-02  0.1235042E+00
         21   -1    0    0  503  502  0.00000000000E+00  0.00000000000E+00  0.71499809593E+02  0.71499809593E+02  0.00000000000E+00 0. -1.
         21   -1    0    0  502  503 -0.00000000000E+00 -0.00000000000E+00 -0.54648446463E+02  0.54648446463E+02  0.00000000000E+00 0. -1.
         25    2    1    2    0    0  0.00000000000E+00  0.00000000000E+00  0.16851363130E+02  0.12614825606E+03  0.12501765502E+03 0.  0.
          4    1    3    3  501    0  0.62892260172E+01  0.46641456591E+02  0.49906713475E+02  0.68615321807E+02  0.15500000000E+01 0.  1.
         -4    1    3    3    0  501 -0.62892260172E+01 -0.46641456591E+02 -0.33055350346E+02  0.57532934249E+02  0.15500000000E+01 0.  1.
<mgrwt>
<rscale>  2 0.12501766E+03</rscale>
<asrwt>0</asrwt>
<pdfrwt beam="1">  1       21 0.10999971E-01 0.12501766E+03</pdfrwt>
<pdfrwt beam="2">  1       21 0.84074533E-02 0.12501766E+03</pdfrwt>
<totfact> 0.73852350E+06</totfact>
</mgrwt>
</event>
<event>
 5    0  0.1222151E+000  0.1249845E+03  0.7546771E-02  0.1235093E+00
         21   -1    0    0  503  502  0.00000000000E+00  0.00000000000E+00  0.80367943150E+03  0.80367943150E+03  0.00000000000E+00 0.  1.
         21   -1    0    0  502  503 -0.00000000000E+00 -0.00000000000E+00 -0.48592537126E+01  0.48592537126E+01  0.00000000000E+00 0.  1.
         25    2    1    2    0    0  0.00000000000E+00  0.00000000000E+00  0.79882017778E+03  0.80853868521E+03  0.12498451522E+03 0.  0.
          4    1    3    3  501    0 -0.42547494350E+02  0.36271015200E+02  0.21908497923E+03  0.22611171231E+03  0.15500000000E+01 0. -1.
         -4    1    3    3    0  501  0.42547494350E+02 -0.36271015200E+02  0.57973519856E+03  0.58242697290E+03  0.15500000000E+01 0. -1.
<mgrwt>
<rscale>  2 0.12498452E+03</rscale>
<asrwt>0</asrwt>
<pdfrwt beam="1">  1       21 0.12364288E+00 0.12498452E+03</pdfrwt>
<pdfrwt beam="2">  1       21 0.74757813E-03 0.12498452E+03</pdfrwt>
<totfact> 0.29093028E+06</totfact>
</mgrwt>
</event>
<event>
 5    0  0.1524395E+000  0.1250016E+03  0.7546771E-02  0.1235067E+00
         21   -1    0    0  503  502  0.00000000000E+00  0.00000000000E+00  0.68793281099E+02  0.68793281099E+02  0.00000000000E+00 0.  1.
         21   -1    0    0  502  503 -0.00000000000E+00 -0.00000000000E+00 -0.56783843393E+02  0.56783843393E+02  0.00000000000E+00 0.  1.
         25    2    1    2    0    0  0.00000000000E+00  0.00000000000E+00  0.12009437707E+02  0.12557712449E+03  0.12500155040E+03 0.  0.
          4    1    3    3  501    0 -0.37332364990E+02 -0.45777217933E+02 -0.14452869005E+02  0.60832122106E+02  0.15500000000E+01 0. -1.
         -4    1    3    3    0  501  0.37332364990E+02  0.45777217933E+02  0.26462306711E+02  0.64745002386E+02  0.15500000000E+01 0. -1.
<mgrwt>
<rscale>  2 0.12500155E+03</rscale>
<asrwt>0</asrwt>
<pdfrwt beam="1">  1       21 0.10583582E-01 0.12500155E+03</pdfrwt>
<pdfrwt beam="2">  1       21 0.87359759E-02 0.12500155E+03</pdfrwt>
<totfact> 0.73961706E+06</totfact>
</mgrwt>
</event>
<event>
 5    0  0.1340715E+000  0.1249918E+03  0.7546771E-02  0.1235082E+00
         21   -1    0    0  503  502  0.00000000000E+00  0.00000000000E+00  0.16052269977E+03  0.16052269977E+03  0.00000000000E+00 0.  1.
         21   -1    0    0  502  503 -0.00000000000E+00 -0.00000000000E+00 -0.24331366820E+02  0.24331366820E+02  0.00000000000E+00 0.  1.
         25    2    1    2    0    0  0.00000000000E+00  0.00000000000E+00  0.13619133295E+03  0.18485406659E+03  0.12499178679E+03 0.  0.
          4    1    3    3  501    0  0.32173001023E+02 -0.35269133382E+01  0.14712910930E+03  0.15065496479E+03  0.15500000000E+01 0.  1.
         -4    1    3    3    0  501 -0.32173001023E+02  0.35269133382E+01 -0.10937776349E+02  0.34199101801E+02  0.15500000000E+01 0.  1.
<mgrwt>
<rscale>  2 0.12499179E+03</rscale>
<asrwt>0</asrwt>
<pdfrwt beam="1">  1       21 0.24695799E-01 0.12499179E+03</pdfrwt>
<pdfrwt beam="2">  1       21 0.37432873E-02 0.12499179E+03</pdfrwt>
<totfact> 0.66612879E+06</totfact>
</mgrwt>
</event>
<event>
 5    0  0.1447893E+000  0.1250014E+03  0.7546771E-02  0.1235067E+00
         21   -1    0    0  503  502  0.00000000000E+00  0.00000000000E+00  0.16856093951E+02  0.16856093951E+02  0.00000000000E+00 0.  1.
         21   -1    0    0  502  503 -0.00000000000E+00 -0.00000000000E+00 -0.23174636949E+03  0.23174636949E+03  0.00000000000E+00 0.  1.
         25    2    1    2    0    0  0.00000000000E+00  0.00000000000E+00 -0.21489027554E+03  0.24860246344E+03  0.12500141722E+03 0.  0.
          4    1    3    3  501    0  0.38288596476E+02  0.19493819224E+02 -0.17224949476E+02  0.46315515677E+02  0.15500000000E+01 0. -1.
         -4    1    3    3    0  501 -0.38288596476E+02 -0.19493819224E+02 -0.19766532606E+03  0.20228694776E+03  0.15500000000E+01 0. -1.
<mgrwt>
<rscale>  2 0.12500142E+03</rscale>
<asrwt>0</asrwt>
<pdfrwt beam="1">  1       21 0.25932452E-02 0.12500142E+03</pdfrwt>
<pdfrwt beam="2">  1       21 0.35653288E-01 0.12500142E+03</pdfrwt>
<totfact> 0.60007871E+06</totfact>
</mgrwt>
</event>
<event>
 5    0  0.1375076E+000  0.1250056E+03  0.7546771E-02  0.1235061E+00
         21   -1    0    0  503  502  0.00000000000E+00  0.00000000000E+00  0.14200114651E+02  0.14200114651E+02  0.00000000000E+00 0.  1.
         21   -1    0    0  502  503 -0.00000000000E+00 -0.00000000000E+00 -0.27511042288E+03  0.27511042288E+03  0.00000000000E+00 0.  1.
         25    2    1    2    0    0  0.00000000000E+00  0.00000000000E+00 -0.26091030822E+03  0.28931053753E+03  0.12500559262E+03 0.  0.
          4    1    3    3  501    0  0.59169194768E+02  0.43741529792E+01 -0.85098592142E+02  0.10375114317E+03  0.15500000000E+01 0. -1.
         -4    1    3    3    0  501 -0.59169194768E+02 -0.43741529792E+01 -0.17581171608E+03  0.18555939436E+03  0.15500000000E+01 0. -1.
<mgrwt>
<rscale>  2 0.12500559E+03</rscale>
<asrwt>0</asrwt>
<pdfrwt beam="1">  1       21 0.21846333E-02 0.12500559E+03</pdfrwt>
<pdfrwt beam="2">  1       21 0.42324675E-01 0.12500559E+03</pdfrwt>
<totfact> 0.56348455E+06</totfact>
</mgrwt>
</event>
<event>
 5    0  0.1222151E+000  0.1249963E+03  0.7546771E-02  0.1235075E+00
         21   -1    0    0  503  502  0.00000000000E+00  0.00000000000E+00  0.38948056625E+01  0.38948056625E+01  0.00000000000E+00 0. -1.
         21   -1    0    0  502  503 -0.00000000000E+00 -0.00000000000E+00 -0.10028788832E+04  0.10028788832E+04  0.00000000000E+00 0. -1.
         25    2    1    2    0    0  0.00000000000E+00  0.00000000000E+00 -0.99898407754E+03  0.10067736889E+04  0.12499629359E+03 0.  0.
          4    1    3    3  501    0 -0.33980409030E+02 -0.17576494841E+02 -0.89735263019E+03  0.89816910812E+03  0.15500000000E+01 0. -1.
         -4    1    3    3    0  501  0.33980409030E+02  0.17576494841E+02 -0.10163144735E+03  0.10860458075E+03  0.15500000000E+01 0. -1.
<mgrwt>
<rscale>  2 0.12499629E+03</rscale>
<asrwt>0</asrwt>
<pdfrwt beam="1">  1       21 0.59920064E-03 0.12499629E+03</pdfrwt>
<pdfrwt beam="2">  1       21 0.15428912E+00 0.12499629E+03</pdfrwt>
<totfact> 0.23452406E+06</totfact>
</mgrwt>
</event>
<event>
 5    0  0.1509470E+000  0.1249959E+03  0.7546771E-02  0.1235076E+00
         21   -1    0    0  503  502  0.00000000000E+00  0.00000000000E+00  0.53931111367E+02  0.53931111367E+02  0.00000000000E+00 0.  1.
         21   -1    0    0  502  503 -0.00000000000E+00 -0.00000000000E+00 -0.72425598819E+02  0.72425598819E+02  0.00000000000E+00 0.  1.
         25    2    1    2    0    0  0.00000000000E+00  0.00000000000E+00 -0.18494487452E+02  0.12635671019E+03  0.12499588850E+03 0.  0.
          4    1    3    3  501    0  0.28250873172E+01  0.31649642680E+02  0.45133489324E+02  0.55218795339E+02  0.15500000000E+01 0. -1.
         -4    1    3    3    0  501 -0.28250873172E+01 -0.31649642680E+02 -0.63627976776E+02  0.71137914847E+02  0.15500000000E+01 0. -1.
<mgrwt>
<rscale>  2 0.12499589E+03</rscale>
<asrwt>0</asrwt>
<pdfrwt beam="1">  1       21 0.82970941E-02 0.12499589E+03</pdfrwt>
<pdfrwt beam="2">  1       21 0.11142400E-01 0.12499589E+03</pdfrwt>
<totfact> 0.73864750E+06</totfact>
</mgrwt>
</event>
<event>
 5    0  0.1452593E+000  0.1250032E+03  0.7546771E-02  0.1235064E+00
         21   -1    0    0  503  502  0.00000000000E+00  0.00000000000E+00  0.38090159192E+03  0.38090159192E+03  0.00000000000E+00 0. -1.
         21   -1    0    0  502  503 -0.00000000000E+00 -0.00000000000E+00 -0.10255795739E+02  0.10255795739E+02  0.00000000000E+00 0. -1.
         25    2    1    2    0    0  0.00000000000E+00  0.00000000000E+00  0.37064579618E+03  0.39115738766E+03  0.12500318273E+03 0.  0.
          4    1    3    3  501    0 -0.38677962184E+02  0.48381569168E+02  0.15965496013E+03  0.17125673648E+03  0.15500000000E+01 0.  1.
         -4    1    3    3    0  501  0.38677962184E+02 -0.48381569168E+02  0.21099083605E+03  0.21990065118E+03  0.15500000000E+01 0.  1.
<mgrwt>
<rscale>  2 0.12500318E+03</rscale>
<asrwt>0</asrwt>
<pdfrwt beam="1">  1       21 0.58600234E-01 0.12500318E+03</pdfrwt>
<pdfrwt beam="2">  1       21 0.15778150E-02 0.12500318E+03</pdfrwt>
<totfact> 0.48629590E+06</totfact>
</mgrwt>
</event>
<event>
 5    0  0.1282244E+000  0.1250039E+03  0.7546771E-02  0.1235063E+00
         21   -1    0    0  503  502  0.00000000000E+00  0.00000000000E+00  0.66249681925E+01  0.66249681925E+01  0.00000000000E+00 0. -1.
         21   -1    0    0  502  503 -0.00000000000E+00 -0.00000000000E+00 -0.58966214811E+03  0.58966214811E+03  0.00000000000E+00 0. -1.
         25    2    1    2    0    0  0.00000000000E+00  0.00000000000E+00 -0.58303717992E+03  0.59628711631E+03  0.12500388755E+03 0.  0.
          4    1    3    3  501    0  0.19920915442E+02  0.49936321179E+02 -0.44338707340E+03  0.44663741268E+03  0.15500000000E+01 0. -1.
         -4    1    3    3    0  501 -0.19920915442E+02 -0.49936321179E+02 -0.13965010652E+03  0.14964970363E+03  0.15500000000E+01 0. -1.
<mgrwt>
<rscale>  2 0.12500389E+03</rscale>
<asrwt>0</asrwt>
<pdfrwt beam="1">  1       21 0.10192253E-02 0.12500389E+03</pdfrwt>
<pdfrwt beam="2">  1       21 0.90717305E-01 0.12500389E+03</pdfrwt>
<totfact> 0.37257468E+06</totfact>
</mgrwt>
</event>
<event>
 5    0  0.1222151E+000  0.1249990E+03  0.7546771E-02  0.1235071E+00
         21   -1    0    0  503  502  0.00000000000E+00  0.00000000000E+00  0.71318465266E+03  0.71318465266E+03  0.00000000000E+00 0. -1.
         21   -1    0    0  502  503 -0.00000000000E+00 -0.00000000000E+00 -0.54771066134E+01  0.54771066134E+01  0.00000000000E+00 0. -1.
         25    2    1    2    0    0  0.00000000000E+00  0.00000000000E+00  0.70770754605E+03  0.71866175927E+03  0.12499901404E+03 0.  0.
          4    1    3    3  501    0  0.39013651944E+02 -0.95322153353E+01  0.62903386178E+03  0.63031653154E+03  0.15500000000E+01 0.  1.
         -4    1    3    3    0  501 -0.39013651944E+02  0.95322153353E+01  0.78673684269E+02  0.88345227735E+02  0.15500000000E+01 0.  1.
<mgrwt>
<rscale>  2 0.12499901E+03</rscale>
<asrwt>0</asrwt>
<pdfrwt beam="1">  1       21 0.10972064E+00 0.12499901E+03</pdfrwt>
<pdfrwt beam="2">  1       21 0.84263235E-03 0.12499901E+03</pdfrwt>
<totfact> 0.32203776E+06</totfact>
</mgrwt>
</event>
<event>
 5    0  0.1403269E+000  0.1250032E+03  0.7546771E-02  0.1235064E+00
         21   -1    0    0  503  502  0.00000000000E+00  0.00000000000E+00  0.46576870242E+02  0.46576870242E+02  0.00000000000E+00 0. -1.
         21   -1    0    0  502  503 -0.00000000000E+00 -0.00000000000E+00 -0.83871051487E+02  0.83871051487E+02  0.00000000000E+00 0. -1.
         25    2    1    2    0    0  0.00000000000E+00  0.00000000000E+00 -0.37294181245E+02  0.13044792173E+03  0.12500321727E+03 0.  0.
          4    1    3    3  501    0  0.17488978640E+02 -0.15763677640E+02 -0.79044502070E+02  0.82491173553E+02  0.15500000000E+01 0.  1.
         -4    1    3    3    0  501 -0.17488978640E+02  0.15763677640E+02  0.41750320826E+02  0.47956748176E+02  0.15500000000E+01 0.  1.
<mgrwt>
<rscale>  2 0.12500322E+03</rscale>
<asrwt>0</asrwt>
<pdfrwt beam="1">  1       21 0.71656724E-02 0.12500322E+03</pdfrwt>
<pdfrwt beam="2">  1       21 0.12903239E-01 0.12500322E+03</pdfrwt>
<totfact> 0.73299090E+06</totfact>
</mgrwt>
</event>
<event>
 5    0  0.1576885E+000  0.1249943E+03  0.7546771E-02  0.1235078E+00
         21   -1    0    0  503  502  0.00000000000E+00  0.00000000000E+00  0.47067942746E+02  0.47067942746E+02  0.00000000000E+00 0.  1.
         21   -1    0    0  502  503 -0.00000000000E+00 -0.00000000000E+00 -0.82984120021E+02  0.82984120021E+02  0.00000000000E+00 0.  1.
         25    2    1    2    0    0  0.00000000000E+00  0.00000000000E+00 -0.35916177275E+02  0.13005206277E+03  0.12499426883E+03 0.  0.
          4    1    3    3  501    0  0.42390851460E+02 -0.19831294704E+02  0.25107889673E+02  0.53132599795E+02  0.15500000000E+01 0. -1.
         -4    1    3    3    0  501 -0.42390851460E+02  0.19831294704E+02 -0.61024066948E+02  0.76919462973E+02  0.15500000000E+01 0. -1.
<mgrwt>
<rscale>  2 0.12499427E+03</rscale>
<asrwt>0</asrwt>
<pdfrwt beam="1">  1       21 0.72412220E-02 0.12499427E+03</pdfrwt>
<pdfrwt beam="2">  1       21 0.12766788E-01 0.12499427E+03</pdfrwt>
<totfact> 0.73368692E+06</totfact>
</mgrwt>
</event>
<event>
 4    0  0.1485459E+000  0.1242216E+03  0.7546771E-02  0.1236291E+00
         21   -1    0    0  503  502  0.00000000000E+00  0.00000000000E+00  0.64696854746E+03  0.64696854746E+03  0.00000000000E+00 0. -1.
         21   -1    0    0  502  503 -0.00000000000E+00 -0.00000000000E+00 -0.59628103711E+01  0.59628103711E+01  0.00000000000E+00 0. -1.
          4    1    1    2  501    0  0.15223754463E+02  0.46554410425E+02  0.52108477853E+03  0.52338401270E+03  0.15500000000E+01 0. -1.
         -4    1    1    2    0  501 -0.15223754463E+02 -0.46554410425E+02  0.11992095856E+03  0.12954734514E+03  0.15500000000E+01 0. -1.
<mgrwt>
<rscale>  2 0.12422159E+03</rscale>
<asrwt>0</asrwt>
<pdfrwt beam="1">  1       21 0.99533567E-01 0.12422159E+03</pdfrwt>
<pdfrwt beam="2">  1       21 0.91735595E-03 0.12422159E+03</pdfrwt>
<totfact> 0.35483451E+06</totfact>
</mgrwt>
</event>
<event>
 4    0  0.1599858E+000  0.1248759E+03  0.7546771E-02  0.1235263E+00
         21   -1    0    0  503  502  0.00000000000E+00  0.00000000000E+00  0.84189506906E+01  0.84189506906E+01  0.00000000000E+00 0.  1.
         21   -1    0    0  502  503 -0.00000000000E+00 -0.00000000000E+00 -0.46306238813E+03  0.46306238813E+03  0.00000000000E+00 0.  1.
          4    1    1    2  501    0  0.48786026209E+02 -0.10381679366E+02 -0.36900686183E+03  0.37236584457E+03  0.15500000000E+01 0.  1.
         -4    1    1    2    0  501 -0.48786026209E+02  0.10381679366E+02 -0.85636575606E+02  0.99115494254E+02  0.15500000000E+01 0.  1.
<mgrwt>
<rscale>  2 0.12487593E+03</rscale>
<asrwt>0</asrwt>
<pdfrwt beam="1">  1       21 0.12952222E-02 0.12487593E+03</pdfrwt>
<pdfrwt beam="2">  1       21 0.71240420E-01 0.12487593E+03</pdfrwt>
<totfact> 0.43769331E+06</totfact>
</mgrwt>
</event>
<event>
 5    0  0.1287577E+000  0.1249965E+03  0.7546771E-02  0.1235075E+00
         21   -1    0    0  503  502  0.00000000000E+00  0.00000000000E+00  0.71624887433E+01  0.71624887433E+01  0.00000000000E+00 0.  1.
         21   -1    0    0  502  503 -0.00000000000E+00 -0.00000000000E+00 -0.54534510527E+03  0.54534510527E+03  0.00000000000E+00 0.  1.
         25    2    1    2    0    0  0.00000000000E+00  0.00000000000E+00 -0.53818261653E+03  0.55250759402E+03  0.12499645079E+03 0.  0.
          4    1    3    3  501    0 -0.29432555375E+01  0.48391052317E+02 -0.44329762744E+03  0.44594343329E+03  0.15500000000E+01 0.  1.
         -4    1    3    3    0  501  0.29432555375E+01 -0.48391052317E+02 -0.94884989093E+02  0.10656416073E+03  0.15500000000E+01 0.  1.
<mgrwt>
<rscale>  2 0.12499645E+03</rscale>
<asrwt>0</asrwt>
<pdfrwt beam="1">  1       21 0.11019214E-02 0.12499645E+03</pdfrwt>
<pdfrwt beam="2">  1       21 0.83899240E-01 0.12499645E+03</pdfrwt>
<totfact> 0.39335927E+06</totfact>
</mgrwt>
</event>
<event>
 5    0  0.1552707E+000  0.1249945E+03  0.7546771E-02  0.1235078E+00
         21   -1    0    0  503  502  0.00000000000E+00  0.00000000000E+00  0.27151063125E+02  0.27151063125E+02  0.00000000000E+00 0.  1.
         21   -1    0    0  502  503 -0.00000000000E+00 -0.00000000000E+00 -0.14385837016E+03  0.14385837016E+03  0.00000000000E+00 0.  1.
         25    2    1    2    0    0  0.00000000000E+00  0.00000000000E+00 -0.11670730703E+03  0.17100943328E+03  0.12499452291E+03 0.  0.
          4    1    3    3  501    0  0.31868454175E+02 -0.52043293034E+02 -0.40028682730E+02  0.72998634661E+02  0.15500000000E+01 0. -1.
         -4    1    3    3    0  501 -0.31868454175E+02  0.52043293034E+02 -0.76678624304E+02  0.98010798622E+02  0.15500000000E+01 0. -1.
<mgrwt>
<rscale>  2 0.12499452E+03</rscale>
<asrwt>0</asrwt>
<pdfrwt beam="1">  1       21 0.41770867E-02 0.12499452E+03</pdfrwt>
<pdfrwt beam="2">  1       21 0.22132056E-01 0.12499452E+03</pdfrwt>
<totfact> 0.68207657E+06</totfact>
</mgrwt>
</event>
<event>
 5    0  0.1289602E+000  0.1249982E+03  0.7546771E-02  0.1235072E+00
         21   -1    0    0  503  502  0.00000000000E+00  0.00000000000E+00  0.63431155928E+03  0.63431155928E+03  0.00000000000E+00 0.  1.
         21   -1    0    0  502  503 -0.00000000000E+00 -0.00000000000E+00 -0.61580712785E+01  0.61580712785E+01  0.00000000000E+00 0.  1.
         25    2    1    2    0    0  0.00000000000E+00  0.00000000000E+00  0.62815348801E+03  0.64046963056E+03  0.12499817270E+03 0.  0.
          4    1    3    3  501    0  0.38358361780E+02 -0.49101549783E+02  0.29036984978E+03  0.29698380136E+03  0.15500000000E+01 0. -1.
         -4    1    3    3    0  501 -0.38358361780E+02  0.49101549783E+02  0.33778363823E+03  0.34348582920E+03  0.15500000000E+01 0. -1.
<mgrwt>
<rscale>  2 0.12499817E+03</rscale>
<asrwt>0</asrwt>
<pdfrwt beam="1">  1       21 0.97586342E-01 0.12499817E+03</pdfrwt>
<pdfrwt beam="2">  1       21 0.94739608E-03 0.12499817E+03</pdfrwt>
<totfact> 0.35325642E+06</totfact>
</mgrwt>
</event>
<event>
 5    0  0.1346057E+000  0.1249873E+03  0.7546771E-02  0.1235089E+00
         21   -1    0    0  503  502  0.00000000000E+00  0.00000000000E+00  0.58725622721E+03  0.58725622721E+03  0.00000000000E+00 0.  1.
         21   -1    0    0  502  503 -0.00000000000E+00 -0.00000000000E+00 -0.66503394755E+01  0.66503394755E+01  0.00000000000E+00 0.  1.
         25    2    1    2    0    0  0.00000000000E+00  0.00000000000E+00  0.58060588774E+03  0.59390656669E+03  0.12498725167E+03 0.  0.
          4    1    3    3  501    0 -0.39066466147E+02  0.47917557662E+02  0.33300772865E+03  0.33870168430E+03  0.15500000000E+01 0. -1.
         -4    1    3    3    0  501  0.39066466147E+02 -0.47917557662E+02  0.24759815909E+03  0.25520488239E+03  0.15500000000E+01 0. -1.
<mgrwt>
<rscale>  2 0.12498725E+03</rscale>
<asrwt>0</asrwt>
<pdfrwt beam="1">  1       21 0.90347071E-01 0.12498725E+03</pdfrwt>
<pdfrwt beam="2">  1       21 0.10231296E-02 0.12498725E+03</pdfrwt>
<totfact> 0.37381505E+06</totfact>
</mgrwt>
</event>
<event>
 5    0  0.1553567E+000  0.1250014E+03  0.7546771E-02  0.1235067E+00
         21   -1    0    0  503  502  0.00000000000E+00  0.00000000000E+00  0.68673520222E+02  0.68673520222E+02  0.00000000000E+00 0.  1.
         21   -1    0    0  502  503 -0.00000000000E+00 -0.00000000000E+00 -0.56882740927E+02  0.56882740927E+02  0.00000000000E+00 0.  1.
         25    2    1    2    0    0  0.00000000000E+00  0.00000000000E+00  0.11790779295E+02  0.12555626115E+03  0.12500140894E+03 0.  0.
          4    1    3    3  501    0  0.47583320858E+02 -0.32343173910E+02 -0.18578358920E+02  0.60479841622E+02  0.15500000000E+01 0. -1.
         -4    1    3    3    0  501 -0.47583320858E+02  0.32343173910E+02  0.30369138215E+02  0.65076419527E+02  0.15500000000E+01 0. -1.
<mgrwt>
<rscale>  2 0.12500141E+03</rscale>
<asrwt>0</asrwt>
<pdfrwt beam="1">  1       21 0.10565157E-01 0.12500141E+03</pdfrwt>
<pdfrwt beam="2">  1       21 0.87511909E-02 0.12500141E+03</pdfrwt>
<totfact> 0.73964882E+06</totfact>
</mgrwt>
</event>
<event>
 5    0  0.1402215E+000  0.1250019E+03  0.7546771E-02  0.1235066E+00
         21   -1    0    0  503  502  0.00000000000E+00  0.00000000000E+00  0.24444088630E+03  0.24444088630E+03  0.00000000000E+00 0.  1.
         21   -1    0    0  502  503 -0.00000000000E+00 -0.00000000000E+00 -0.15980836467E+02  0.15980836467E+02  0.00000000000E+00 0.  1.
         25    2    1    2    0    0  0.00000000000E+00  0.00000000000E+00  0.22846004983E+03  0.26042172276E+03  0.12500191726E+03 0.  0.
          4    1    3    3  501    0  0.32232424116E+02 -0.51560531162E+02  0.84288569016E+02  0.10394413358E+03  0.15500000000E+01 0. -1.
         -4    1    3    3    0  501 -0.32232424116E+02  0.51560531162E+02  0.14417148081E+03  0.15647758919E+03  0.15500000000E+01 0. -1.
<mgrwt>
<rscale>  2 0.12500192E+03</rscale>
<asrwt>0</asrwt>
<pdfrwt beam="1">  1       21 0.37606287E-01 0.12500192E+03</pdfrwt>
<pdfrwt beam="2">  1       21 0.24585904E-02 0.12500192E+03</pdfrwt>
<totfact> 0.58907796E+06</totfact>
</mgrwt>
</event>
<event>
 5    0  0.1222151E+000  0.1249863E+03  0.7546771E-02  0.1235091E+00
         21   -1    0    0  503  502  0.00000000000E+00  0.00000000000E+00  0.44088591673E+02  0.44088591673E+02  0.00000000000E+00 0. -1.
         21   -1    0    0  502  503 -0.00000000000E+00 -0.00000000000E+00 -0.88580564265E+02  0.88580564265E+02  0.00000000000E+00 0. -1.
         25    2    1    2    0    0  0.00000000000E+00  0.00000000000E+00 -0.44491972592E+02  0.13266915594E+03  0.12498627649E+03 0.  0.
          4    1    3    3  501    0 -0.20560839394E+02  0.98134406448E+01  0.39501437206E+02  0.45626941331E+02  0.15500000000E+01 0. -1.
         -4    1    3    3    0  501  0.20560839394E+02 -0.98134406448E+01 -0.83993409798E+02  0.87042214606E+02  0.15500000000E+01 0. -1.
<mgrwt>
<rscale>  2 0.12498628E+03</rscale>
<asrwt>0</asrwt>
<pdfrwt beam="1">  1       21 0.67828604E-02 0.12498628E+03</pdfrwt>
<pdfrwt beam="2">  1       21 0.13627779E-01 0.12498628E+03</pdfrwt>
<totfact> 0.73032174E+06</totfact>
</mgrwt>
</event>
<event>
 5    0  0.1494781E+000  0.1250019E+03  0.7546771E-02  0.1235066E+00
         21   -1    0    0  503  502  0.00000000000E+00  0.00000000000E+00  0.23438444095E+02  0.23438444095E+02  0.00000000000E+00 0.  1.
         21   -1    0    0  502  503 -0.00000000000E+00 -0.00000000000E+00 -0.16666513103E+03  0.16666513103E+03  0.00000000000E+00 0.  1.
         25    2    1    2    0    0  0.00000000000E+00  0.00000000000E+00 -0.14322668693E+03  0.19010357512E+03  0.12500194169E+03 0.  0.
          4    1    3    3  501    0  0.34180869118E+02 -0.16087260228E+02 -0.14730051008E+03  0.15207555532E+03  0.15500000000E+01 0.  1.
         -4    1    3    3    0  501 -0.34180869118E+02  0.16087260228E+02  0.40738231475E+01  0.38028019806E+02  0.15500000000E+01 0.  1.
<mgrwt>
<rscale>  2 0.12500194E+03</rscale>
<asrwt>0</asrwt>
<pdfrwt beam="1">  1       21 0.36059144E-02 0.12500194E+03</pdfrwt>
<pdfrwt beam="2">  1       21 0.25640790E-01 0.12500194E+03</pdfrwt>
<totfact> 0.66007706E+06</totfact>
</mgrwt>
</event>
<event>
 5    0  0.1440033E+000  0.1249987E+03  0.7546771E-02  0.1235071E+00
         21   -1    0    0  503  502  0.00000000000E+00  0.00000000000E+00  0.23714475737E+02  0.23714475737E+02  0.00000000000E+00 0.  1.
         21   -1    0    0  502  503 -0.00000000000E+00 -0.00000000000E+00 -0.16471676434E+03  0.16471676434E+03  0.00000000000E+00 0.  1.
         25    2    1    2    0    0  0.00000000000E+00  0.00000000000E+00 -0.14100228861E+03  0.18843124008E+03  0.12499874738E+03 0.  0.
          4    1    3    3  501    0  0.10387709161E+02 -0.41105252362E+02 -0.13968414812E+03  0.14598496501E+03  0.15500000000E+01 0. -1.
         -4    1    3    3    0  501 -0.10387709161E+02  0.41105252362E+02 -0.13181404921E+01  0.42446275074E+02  0.15500000000E+01 0. -1.
<mgrwt>
<rscale>  2 0.12499875E+03</rscale>
<asrwt>0</asrwt>
<pdfrwt beam="1">  1       21 0.36483809E-02 0.12499875E+03</pdfrwt>
<pdfrwt beam="2">  1       21 0.25341041E-01 0.12499875E+03</pdfrwt>
<totfact> 0.66199344E+06</totfact>
</mgrwt>
</event>
<event>
 5    0  0.1495947E+000  0.1249969E+03  0.7546771E-02  0.1235074E+00
         21   -1    0    0  503  502  0.00000000000E+00  0.00000000000E+00  0.25975573670E+03  0.25975573670E+03  0.00000000000E+00 0.  1.
         21   -1    0    0  502  503 -0.00000000000E+00 -0.00000000000E+00 -0.15037422383E+02  0.15037422383E+02  0.00000000000E+00 0.  1.
         25    2    1    2    0    0  0.00000000000E+00  0.00000000000E+00  0.24471831432E+03  0.27479315909E+03  0.12499690763E+03 0.  0.
          4    1    3    3  501    0 -0.94715354574E+01 -0.54940592738E+02  0.18436320693E+03  0.19261457184E+03  0.15500000000E+01 0. -1.
         -4    1    3    3    0  501  0.94715354574E+01  0.54940592738E+02  0.60355107391E+02  0.82178587251E+02  0.15500000000E+01 0. -1.
<mgrwt>
<rscale>  2 0.12499691E+03</rscale>
<asrwt>0</asrwt>
<pdfrwt beam="1">  1       21 0.39962418E-01 0.12499691E+03</pdfrwt>
<pdfrwt beam="2">  1       21 0.23134498E-02 0.12499691E+03</pdfrwt>
<totfact> 0.57622732E+06</totfact>
</mgrwt>
</event>
<event>
 5    0  0.1325657E+000  0.1249989E+03  0.7546771E-02  0.1235071E+00
         21   -1    0    0  503  502  0.00000000000E+00  0.00000000000E+00  0.38430465105E+03  0.38430465105E+03  0.00000000000E+00 0.  1.
         21   -1    0    0  502  503 -0.00000000000E+00 -0.00000000000E+00 -0.10164279306E+02  0.10164279306E+02  0.00000000000E+00 0.  1.
         25    2    1    2    0    0  0.00000000000E+00  0.00000000000E+00  0.37414037174E+03  0.39446893035E+03  0.12499887699E+03 0.  0.
          4    1    3    3  501    0  0.33914103090E+02  0.37143074470E+02  0.30404719756E+03  0.30818318451E+03  0.15500000000E+01 0.  1.
         -4    1    3    3    0  501 -0.33914103090E+02 -0.37143074470E+02  0.70093174184E+02  0.86285745848E+02  0.15500000000E+01 0.  1.
<mgrwt>
<rscale>  2 0.12499888E+03</rscale>
<asrwt>0</asrwt>
<pdfrwt beam="1">  1       21 0.59123781E-01 0.12499888E+03</pdfrwt>
<pdfrwt beam="2">  1       21 0.15637356E-02 0.12499888E+03</pdfrwt>
<totfact> 0.48411761E+06</totfact>
</mgrwt>
</event>
<event>
 5    0  0.1563091E+000  0.1250013E+03  0.7546771E-02  0.1235067E+00
         21   -1    0    0  503  502  0.00000000000E+00  0.00000000000E+00  0.48851391273E+02  0.48851391273E+02  0.00000000000E+00 0. -1.
         21   -1    0    0  502  503 -0.00000000000E+00 -0.00000000000E+00 -0.79963617299E+02  0.79963617299E+02  0.00000000000E+00 0. -1.
         25    2    1    2    0    0  0.00000000000E+00  0.00000000000E+00 -0.31112226026E+02  0.12881500857E+03  0.12500134329E+03 0.  0.
          4    1    3    3  501    0 -0.43316744775E+02  0.96030933293E+01  0.29778924272E+02  0.53457895677E+02  0.15500000000E+01 0.  1.
         -4    1    3    3    0  501  0.43316744775E+02 -0.96030933293E+01 -0.60891150298E+02  0.75357112895E+02  0.15500000000E+01 0.  1.
<mgrwt>
<rscale>  2 0.12500134E+03</rscale>
<asrwt>0</asrwt>
<pdfrwt beam="1">  1       21 0.75155988E-02 0.12500134E+03</pdfrwt>
<pdfrwt beam="2">  1       21 0.12302095E-01 0.12500134E+03</pdfrwt>
<totfact> 0.73521216E+06</totfact>
</mgrwt>
</event>
<event>
 5    0  0.1452821E+000  0.1249954E+03  0.7546771E-02  0.1235077E+00
         21   -1    0    0  503  502  0.00000000000E+00  0.00000000000E+00  0.25049173486E+03  0.25049173486E+03  0.00000000000E+00 0.  1.
         21   -1    0    0  502  503 -0.00000000000E+00 -0.00000000000E+00 -0.15593174186E+02  0.15593174186E+02  0.00000000000E+00 0.  1.
         25    2    1    2    0    0  0.00000000000E+00  0.00000000000E+00  0.23489856068E+03  0.26608490905E+03  0.12499537998E+03 0.  0.
          4    1    3    3  501    0  0.25802021803E+02 -0.55347522959E+02  0.14556711309E+03  0.15786475078E+03  0.15500000000E+01 0.  1.
         -4    1    3    3    0  501 -0.25802021803E+02  0.55347522959E+02  0.89331447588E+02  0.10822015827E+03  0.15500000000E+01 0.  1.
<mgrwt>
<rscale>  2 0.12499538E+03</rscale>
<asrwt>0</asrwt>
<pdfrwt beam="1">  1       21 0.38537187E-01 0.12499538E+03</pdfrwt>
<pdfrwt beam="2">  1       21 0.23989501E-02 0.12499538E+03</pdfrwt>
<totfact> 0.58402803E+06</totfact>
</mgrwt>
</event>
<event>
 5    0  0.1222151E+000  0.1249990E+03  0.7546771E-02  0.1235071E+00
         21   -1    0    0  503  502  0.00000000000E+00  0.00000000000E+00  0.59331281760E+01  0.59331281760E+01  0.00000000000E+00 0. -1.
         21   -1    0    0  502  503 -0.00000000000E+00 -0.00000000000E+00 -0.65836856745E+03  0.65836856745E+03  0.00000000000E+00 0. -1.
         25    2    1    2    0    0  0.00000000000E+00  0.00000000000E+00 -0.65243543927E+03  0.66430169562E+03  0.12499896156E+03 0.  0.
          4    1    3    3  501    0  0.42732705735E+02 -0.25916154221E+02 -0.12693962789E+03  0.13643241117E+03  0.15500000000E+01 0. -1.
         -4    1    3    3    0  501 -0.42732705735E+02  0.25916154221E+02 -0.52549581138E+03  0.52786928445E+03  0.15500000000E+01 0. -1.
<mgrwt>
<rscale>  2 0.12499896E+03</rscale>
<asrwt>0</asrwt>
<pdfrwt beam="1">  1       21 0.91278943E-03 0.12499896E+03</pdfrwt>
<pdfrwt beam="2">  1       21 0.10128742E+00 0.12499896E+03</pdfrwt>
<totfact> 0.34333207E+06</totfact>
</mgrwt>
</event>
<event>
 5    0  0.1283459E+000  0.1249996E+03  0.7546771E-02  0.1235070E+00
         21   -1    0    0  503  502  0.00000000000E+00  0.00000000000E+00  0.60610164099E+03  0.60610164099E+03  0.00000000000E+00 0. -1.
         21   -1    0    0  502  503 -0.00000000000E+00 -0.00000000000E+00 -0.64448393567E+01  0.64448393567E+01  0.00000000000E+00 0. -1.
         25    2    1    2    0    0  0.00000000000E+00  0.00000000000E+00  0.59965680164E+03  0.61254648035E+03  0.12499964336E+03 0.  0.
          4    1    3    3  501    0  0.45746961588E+02  0.42385014468E+02  0.31852147097E+03  0.32457295622E+03  0.15500000000E+01 0. -1.
         -4    1    3    3    0  501 -0.45746961588E+02 -0.42385014468E+02  0.28113533067E+03  0.28797352413E+03  0.15500000000E+01 0. -1.
<mgrwt>
<rscale>  2 0.12499964E+03</rscale>
<asrwt>0</asrwt>
<pdfrwt beam="1">  1       21 0.93246361E-01 0.12499964E+03</pdfrwt>
<pdfrwt beam="2">  1       21 0.99151423E-03 0.12499964E+03</pdfrwt>
<totfact> 0.36531646E+06</totfact>
</mgrwt>
</event>
<event>
 5    0  0.1486696E+000  0.1249962E+03  0.7546771E-02  0.1235075E+00
         21   -1    0    0  503  502  0.00000000000E+00  0.00000000000E+00  0.24793618449E+02  0.24793618449E+02  0.00000000000E+00 0. -1.
         21   -1    0    0  502  503 -0.00000000000E+00 -0.00000000000E+00 -0.15754114698E+03  0.15754114698E+03  0.00000000000E+00 0. -1.
         25    2    1    2    0    0  0.00000000000E+00  0.00000000000E+00 -0.13274752853E+03  0.18233476543E+03  0.12499624135E+03 0.  0.
          4    1    3    3  501    0  0.41395868953E+01  0.29032868739E+02  0.14101812980E+02  0.32577711340E+02  0.15500000000E+01 0.  1.
         -4    1    3    3    0  501 -0.41395868953E+01 -0.29032868739E+02 -0.14684934151E+03  0.14975705409E+03  0.15500000000E+01 0.  1.
<mgrwt>
<rscale>  2 0.12499624E+03</rscale>
<asrwt>0</asrwt>
<pdfrwt beam="1">  1       21 0.38144029E-02 0.12499624E+03</pdfrwt>
<pdfrwt beam="2">  1       21 0.24237099E-01 0.12499624E+03</pdfrwt>
<totfact> 0.66891079E+06</totfact>
</mgrwt>
</event>
<event>
 5    0  0.1324311E+000  0.1250051E+03  0.7546771E-02  0.1235061E+00
         21   -1    0    0  503  502  0.00000000000E+00  0.00000000000E+00  0.10615201832E+02  0.10615201832E+02  0.00000000000E+00 0.  1.
         21   -1    0    0  502  503 -0.00000000000E+00 -0.00000000000E+00 -0.36801639697E+03  0.36801639697E+03  0.00000000000E+00 0.  1.
         25    2    1    2    0    0  0.00000000000E+00  0.00000000000E+00 -0.35740119514E+03  0.37863159881E+03  0.12500509320E+03 0.  0.
          4    1    3    3  501    0  0.15489215643E+02  0.35413924186E+02 -0.32739925219E+03  0.32967671235E+03  0.15500000000E+01 0.  1.
         -4    1    3    3    0  501 -0.15489215643E+02 -0.35413924186E+02 -0.30001942950E+02  0.48954886460E+02  0.15500000000E+01 0.  1.
<mgrwt>
<rscale>  2 0.12500509E+03</rscale>
<asrwt>0</asrwt>
<pdfrwt beam="1">  1       21 0.16331082E-02 0.12500509E+03</pdfrwt>
<pdfrwt beam="2">  1       21 0.56617900E-01 0.12500509E+03</pdfrwt>
<totfact> 0.49484658E+06</totfact>
</mgrwt>
</event>
<event>
 5    0  0.1535033E+000  0.1250004E+03  0.7546771E-02  0.1235069E+00
         21   -1    0    0  503  502  0.00000000000E+00  0.00000000000E+00  0.15008691724E+02  0.15008691724E+02  0.00000000000E+00 0. -1.
         21   -1    0    0  502  503 -0.00000000000E+00 -0.00000000000E+00 -0.26026759674E+03  0.26026759674E+03  0.00000000000E+00 0. -1.
         25    2    1    2    0    0  0.00000000000E+00  0.00000000000E+00 -0.24525890502E+03  0.27527628846E+03  0.12500041800E+03 0.  0.
          4    1    3    3  501    0 -0.33917891488E+02 -0.87978611360E+00 -0.23817012894E+03  0.24057973773E+03  0.15500000000E+01 0. -1.
         -4    1    3    3    0  501  0.33917891488E+02  0.87978611360E+00 -0.70887760763E+01  0.34696550734E+02  0.15500000000E+01 0. -1.
<mgrwt>
<rscale>  2 0.12500042E+03</rscale>
<asrwt>0</asrwt>
<pdfrwt beam="1">  1       21 0.23090294E-02 0.12500042E+03</pdfrwt>
<pdfrwt beam="2">  1       21 0.40041170E-01 0.12500042E+03</pdfrwt>
<totfact> 0.57574894E+06</totfact>
</mgrwt>
</event>
<event>
 5    0  0.1410267E+000  0.1250027E+03  0.7546771E-02  0.1235065E+00
         21   -1    0    0  503  502  0.00000000000E+00  0.00000000000E+00  0.19010370602E+02  0.19010370602E+02  0.00000000000E+00 0.  1.
         21   -1    0    0  502  503 -0.00000000000E+00 -0.00000000000E+00 -0.20548897296E+03  0.20548897296E+03  0.00000000000E+00 0.  1.
         25    2    1    2    0    0  0.00000000000E+00  0.00000000000E+00 -0.18647860236E+03  0.22449934356E+03  0.12500274446E+03 0.  0.
          4    1    3    3  501    0 -0.73279043303E+01 -0.39485382992E+02 -0.17920583828E+03  0.18365709523E+03  0.15500000000E+01 0. -1.
         -4    1    3    3    0  501  0.73279043303E+01  0.39485382992E+02 -0.72727640746E+01  0.40842248337E+02  0.15500000000E+01 0. -1.
<mgrwt>
<rscale>  2 0.12500274E+03</rscale>
<asrwt>0</asrwt>
<pdfrwt beam="1">  1       21 0.29246724E-02 0.12500274E+03</pdfrwt>
<pdfrwt beam="2">  1       21 0.31613688E-01 0.12500274E+03</pdfrwt>
<totfact> 0.62361256E+06</totfact>
</mgrwt>
</event>
<event>
 5    0  0.1222151E+000  0.1250002E+03  0.7546771E-02  0.1235069E+00
         21   -1    0    0  503  502  0.00000000000E+00  0.00000000000E+00  0.40715767524E+01  0.40715767524E+01  0.00000000000E+00 0. -1.
         21   -1    0    0  502  503 -0.00000000000E+00 -0.00000000000E+00 -0.95939769335E+03  0.95939769335E+03  0.00000000000E+00 0. -1.
         25    2    1    2    0    0  0.00000000000E+00  0.00000000000E+00 -0.95532611660E+03  0.96346927010E+03  0.12500018151E+03 0.  0.
          4    1    3    3  501    0 -0.10954201309E+02 -0.43076425279E+02 -0.81612741231E+03  0.81733831952E+03  0.15500000000E+01 0.  1.
         -4    1    3    3    0  501  0.10954201309E+02  0.43076425279E+02 -0.13919870429E+03  0.14613095058E+03  0.15500000000E+01 0.  1.
<mgrwt>
<rscale>  2 0.12500018E+03</rscale>
<asrwt>0</asrwt>
<pdfrwt beam="1">  1       21 0.62639578E-03 0.12500018E+03</pdfrwt>
<pdfrwt beam="2">  1       21 0.14759980E+00 0.12500018E+03</pdfrwt>
<totfact> 0.24554081E+06</totfact>
</mgrwt>
</event>
<event>
 5    0  0.1322002E+000  0.1250164E+03  0.7546771E-02  0.1235044E+00
         21   -1    0    0  503  502  0.00000000000E+00  0.00000000000E+00  0.10548392598E+02  0.10548392598E+02  0.00000000000E+00 0.  1.
         21   -1    0    0  502  503 -0.00000000000E+00 -0.00000000000E+00 -0.37041441696E+03  0.37041441696E+03  0.00000000000E+00 0.  1.
         25    2    1    2    0    0  0.00000000000E+00  0.00000000000E+00 -0.35986602436E+03  0.38096280955E+03  0.12501642603E+03 0.  0.
          4    1    3    3  501    0  0.40715843033E+02 -0.14838865829E+02 -0.31712600123E+03  0.32007698288E+03  0.15500000000E+01 0.  1.
         -4    1    3    3    0  501 -0.40715843033E+02  0.14838865829E+02 -0.42740023131E+02  0.60885826678E+02  0.15500000000E+01 0.  1.
<mgrwt>
<rscale>  2 0.12501643E+03</rscale>
<asrwt>0</asrwt>
<pdfrwt beam="1">  1       21 0.16228296E-02 0.12501643E+03</pdfrwt>
<pdfrwt beam="2">  1       21 0.56986833E-01 0.12501643E+03</pdfrwt>
<totfact> 0.49309666E+06</totfact>
</mgrwt>
</event>
<event>
 5    0  0.1222151E+000  0.1250071E+03  0.7546771E-02  0.1235058E+00
         21   -1    0    0  503  502  0.00000000000E+00  0.00000000000E+00  0.22718646210E+01  0.22718646210E+01  0.00000000000E+00 0. -1.
         21   -1    0    0  502  503 -0.00000000000E+00 -0.00000000000E+00 -0.17195980705E+04  0.17195980705E+04  0.00000000000E+00 0. -1.
         25    2    1    2    0    0  0.00000000000E+00  0.00000000000E+00 -0.17173262059E+04  0.17218699352E+04  0.12500710410E+03 0.  0.
          4    1    3    3  501    0 -0.13628313521E+02  0.60811627463E+02 -0.79628789621E+03  0.79872435866E+03  0.15500000000E+01 0.  1.
         -4    1    3    3    0  501  0.13628313521E+02 -0.60811627463E+02 -0.92103830971E+03  0.92314557650E+03  0.15500000000E+01 0.  1.
<mgrwt>
<rscale>  2 0.12500710E+03</rscale>
<asrwt>0</asrwt>
<pdfrwt beam="1">  1       21 0.34951601E-03 0.12500710E+03</pdfrwt>
<pdfrwt beam="2">  1       21 0.26455478E+00 0.12500710E+03</pdfrwt>
<totfact> 0.10996984E+06</totfact>
</mgrwt>
</event>
<event>
 5    0  0.1592195E+000  0.1249999E+03  0.7546771E-02  0.1235069E+00
         21   -1    0    0  503  502  0.00000000000E+00  0.00000000000E+00  0.11609141280E+03  0.11609141280E+03  0.00000000000E+00 0.  1.
         21   -1    0    0  502  503 -0.00000000000E+00 -0.00000000000E+00 -0.33647981275E+02  0.33647981275E+02  0.00000000000E+00 0.  1.
         25    2    1    2    0    0  0.00000000000E+00  0.00000000000E+00  0.82443431528E+02  0.14973939408E+03  0.12499986695E+03 0.  0.
          4    1    3    3  501    0  0.48637960262E+02 -0.24725028792E+02  0.47518793849E+01  0.54790155000E+02  0.15500000000E+01 0. -1.
         -4    1    3    3    0  501 -0.48637960262E+02  0.24725028792E+02  0.77691552143E+02  0.94949239079E+02  0.15500000000E+01 0. -1.
<mgrwt>
<rscale>  2 0.12499987E+03</rscale>
<asrwt>0</asrwt>
<pdfrwt beam="1">  1       21 0.17860217E-01 0.12499987E+03</pdfrwt>
<pdfrwt beam="2">  1       21 0.51766126E-02 0.12499987E+03</pdfrwt>
<totfact> 0.70792193E+06</totfact>
</mgrwt>
</event>
<event>
 5    0  0.1391064E+000  0.1249695E+03  0.7546771E-02  0.1235117E+00
         21   -1    0    0  503  502  0.00000000000E+00  0.00000000000E+00  0.93266936795E+01  0.93266936795E+01  0.00000000000E+00 0.  1.
         21   -1    0    0  502  503 -0.00000000000E+00 -0.00000000000E+00 -0.41862036910E+03  0.41862036910E+03  0.00000000000E+00 0.  1.
         25    2    1    2    0    0  0.00000000000E+00  0.00000000000E+00 -0.40929367542E+03  0.42794706278E+03  0.12496949949E+03 0.  0.
          4    1    3    3  501    0  0.71169819894E+01  0.54538900246E+02 -0.30604635518E+03  0.31095323940E+03  0.15500000000E+01 0.  1.
         -4    1    3    3    0  501 -0.71169819894E+01 -0.54538900246E+02 -0.10324732024E+03  0.11699382338E+03  0.15500000000E+01 0.  1.
<mgrwt>
<rscale>  2 0.12496950E+03</rscale>
<asrwt>0</asrwt>
<pdfrwt beam="1">  1       21 0.14348763E-02 0.12496950E+03</pdfrwt>
<pdfrwt beam="2">  1       21 0.64403119E-01 0.12496950E+03</pdfrwt>
<totfact> 0.46276496E+06</totfact>
</mgrwt>
</event>
<event>
 5    0  0.1515463E+000  0.1250020E+03  0.7546771E-02  0.1235066E+00
         21   -1    0    0  503  502  0.00000000000E+00  0.00000000000E+00  0.91100503056E+02  0.91100503056E+02  0.00000000000E+00 0.  1.
         21   -1    0    0  502  503 -0.00000000000E+00 -0.00000000000E+00 -0.42879858459E+02  0.42879858459E+02  0.00000000000E+00 0.  1.
         25    2    1    2    0    0  0.00000000000E+00  0.00000000000E+00  0.48220644597E+02  0.13398036152E+03  0.12500202681E+03 0.  0.
          4    1    3    3  501    0  0.55091509592E+02 -0.19717018807E+02  0.62440405634E+00  0.58537403770E+02  0.15500000000E+01 0. -1.
         -4    1    3    3    0  501 -0.55091509592E+02  0.19717018807E+02  0.47596240541E+02  0.75442957745E+02  0.15500000000E+01 0. -1.
<mgrwt>
<rscale>  2 0.12500203E+03</rscale>
<asrwt>0</asrwt>
<pdfrwt beam="1">  1       21 0.14015462E-01 0.12500203E+03</pdfrwt>
<pdfrwt beam="2">  1       21 0.65969013E-02 0.12500203E+03</pdfrwt>
<totfact> 0.72827999E+06</totfact>
</mgrwt>
</event>
<event>
 5    0  0.1519604E+000  0.1250005E+03  0.7546771E-02  0.1235069E+00
         21   -1    0    0  503  502  0.00000000000E+00  0.00000000000E+00  0.75394927381E+02  0.75394927381E+02  0.00000000000E+00 0.  1.
         21   -1    0    0  502  503 -0.00000000000E+00 -0.00000000000E+00 -0.51810899619E+02  0.51810899619E+02  0.00000000000E+00 0.  1.
         25    2    1    2    0    0  0.00000000000E+00  0.00000000000E+00  0.23584027762E+02  0.12720582700E+03  0.12500046423E+03 0.  0.
          4    1    3    3  501    0  0.46841760218E+02  0.22586883524E+02  0.47037713330E+02  0.70137484863E+02  0.15500000000E+01 0. -1.
         -4    1    3    3    0  501 -0.46841760218E+02 -0.22586883524E+02 -0.23453685568E+02  0.57068342138E+02  0.15500000000E+01 0. -1.
<mgrwt>
<rscale>  2 0.12500046E+03</rscale>
<asrwt>0</asrwt>
<pdfrwt beam="1">  1       21 0.11599220E-01 0.12500046E+03</pdfrwt>
<pdfrwt beam="2">  1       21 0.79709076E-02 0.12500046E+03</pdfrwt>
<totfact> 0.73740269E+06</totfact>
</mgrwt>
</event>
<event>
 5    0  0.1417628E+000  0.1249994E+03  0.7546771E-02  0.1235070E+00
         21   -1    0    0  503  502  0.00000000000E+00  0.00000000000E+00  0.12288412278E+02  0.12288412278E+02  0.00000000000E+00 0.  1.
         21   -1    0    0  502  503 -0.00000000000E+00 -0.00000000000E+00 -0.31787769260E+03  0.31787769260E+03  0.00000000000E+00 0.  1.
         25    2    1    2    0    0  0.00000000000E+00  0.00000000000E+00 -0.30558928032E+03  0.33016610488E+03  0.12499939425E+03 0.  0.
          4    1    3    3  501    0 -0.17331120627E+02  0.46369832491E+02 -0.25348764612E+03  0.25828069680E+03  0.15500000000E+01 0.  1.
         -4    1    3    3    0  501  0.17331120627E+02 -0.46369832491E+02 -0.52101634208E+02  0.71885408078E+02  0.15500000000E+01 0.  1.
<mgrwt>
<rscale>  2 0.12499939E+03</rscale>
<asrwt>0</asrwt>
<pdfrwt beam="1">  1       21 0.18905254E-02 0.12499939E+03</pdfrwt>
<pdfrwt beam="2">  1       21 0.48904250E-01 0.12499939E+03</pdfrwt>
<totfact> 0.53038247E+06</totfact>
</mgrwt>
</event>
<event>
 5    0  0.1584889E+000  0.1249977E+03  0.7546771E-02  0.1235073E+00
         21   -1    0    0  503  502  0.00000000000E+00  0.00000000000E+00  0.53821023636E+02  0.53821023636E+02  0.00000000000E+00 0. -1.
         21   -1    0    0  502  503 -0.00000000000E+00 -0.00000000000E+00 -0.72575826372E+02  0.72575826372E+02  0.00000000000E+00 0. -1.
         25    2    1    2    0    0  0.00000000000E+00  0.00000000000E+00 -0.18754802735E+02  0.12639685001E+03  0.12499768424E+03 0.  0.
          4    1    3    3  501    0 -0.60396546600E+02 -0.12332664181E+02 -0.19682913160E+02  0.64727559953E+02  0.15500000000E+01 0. -1.
         -4    1    3    3    0  501  0.60396546600E+02  0.12332664181E+02  0.92811042445E+00  0.61669290055E+02  0.15500000000E+01 0. -1.
<mgrwt>
<rscale>  2 0.12499768E+03</rscale>
<asrwt>0</asrwt>
<pdfrwt beam="1">  1       21 0.82801575E-02 0.12499768E+03</pdfrwt>
<pdfrwt beam="2">  1       21 0.11165512E-01 0.12499768E+03</pdfrwt>
<totfact> 0.73855863E+06</totfact>
</mgrwt>
</event>
<event>
 5    0  0.1405224E+000  0.1249991E+03  0.7546771E-02  0.1235071E+00
         21   -1    0    0  503  502  0.00000000000E+00  0.00000000000E+00  0.32679221881E+03  0.32679221881E+03  0.00000000000E+00 0. -1.
         21   -1    0    0  502  503 -0.00000000000E+00 -0.00000000000E+00 -0.11953150778E+02  0.11953150778E+02  0.00000000000E+00 0. -1.
         25    2    1    2    0    0  0.00000000000E+00  0.00000000000E+00  0.31483906803E+03  0.33874536959E+03  0.12499914663E+03 0.  0.
          4    1    3    3  501    0 -0.45364583500E+02  0.26182412539E+02  0.65107763613E+02  0.83575639664E+02  0.15500000000E+01 0. -1.
         -4    1    3    3    0  501  0.45364583500E+02 -0.26182412539E+02  0.24973130442E+03  0.25516972992E+03  0.15500000000E+01 0. -1.
<mgrwt>
<rscale>  2 0.12499915E+03</rscale>
<asrwt>0</asrwt>
<pdfrwt beam="1">  1       21 0.50275719E-01 0.12499915E+03</pdfrwt>
<pdfrwt beam="2">  1       21 0.18389465E-02 0.12499915E+03</pdfrwt>
<totfact> 0.52381636E+06</totfact>
</mgrwt>
</event>
<event>
 5    0  0.1222151E+000  0.1249995E+03  0.7546771E-02  0.1235070E+00
         21   -1    0    0  503  502  0.00000000000E+00  0.00000000000E+00  0.14721137053E+04  0.14721137053E+04  0.00000000000E+00 0.  1.
         21   -1    0    0  502  503 -0.00000000000E+00 -0.00000000000E+00 -0.26534757864E+01  0.26534757864E+01  0.00000000000E+00 0.  1.
         25    2    1    2    0    0  0.00000000000E+00  0.00000000000E+00  0.14694602295E+04  0.14747671811E+04  0.12499948915E+03 0.  0.
          4    1    3    3  501    0  0.40519976719E+02  0.47526217529E+02  0.71360607048E+03  0.71633556117E+03  0.15500000000E+01 0.  1.
         -4    1    3    3    0  501 -0.40519976719E+02 -0.47526217529E+02  0.75585415900E+03  0.75843161988E+03  0.15500000000E+01 0.  1.
<mgrwt>
<rscale>  2 0.12499949E+03</rscale>
<asrwt>0</asrwt>
<pdfrwt beam="1">  1       21 0.22647838E+00 0.12499949E+03</pdfrwt>
<pdfrwt beam="2">  1       21 0.40822822E-03 0.12499949E+03</pdfrwt>
<totfact> 0.14371534E+06</totfact>
</mgrwt>
</event>
<event>
 5    0  0.1387870E+000  0.1250027E+03  0.7546771E-02  0.1235065E+00
         21   -1    0    0  503  502  0.00000000000E+00  0.00000000000E+00  0.47698858591E+03  0.47698858591E+03  0.00000000000E+00 0.  1.
         21   -1    0    0  502  503 -0.00000000000E+00 -0.00000000000E+00 -0.81897585920E+01  0.81897585920E+01  0.00000000000E+00 0.  1.
         25    2    1    2    0    0  0.00000000000E+00  0.00000000000E+00  0.46879882732E+03  0.48517834451E+03  0.12500274189E+03 0.  0.
          4    1    3    3  501    0  0.59056503106E+02  0.19127964098E+02  0.26197314311E+03  0.26923201849E+03  0.15500000000E+01 0.  1.
         -4    1    3    3    0  501 -0.59056503106E+02 -0.19127964098E+02  0.20682568421E+03  0.21594632601E+03  0.15500000000E+01 0.  1.
<mgrwt>
<rscale>  2 0.12500274E+03</rscale>
<asrwt>0</asrwt>
<pdfrwt beam="1">  1       21 0.73382837E-01 0.12500274E+03</pdfrwt>
<pdfrwt beam="2">  1       21 0.12599632E-02 0.12500274E+03</pdfrwt>
<totfact> 0.42856540E+06</totfact>
</mgrwt>
</event>
<event>
 5    0  0.1583008E+000  0.1249989E+03  0.7546771E-02  0.1235071E+00
         21   -1    0    0  503  502  0.00000000000E+00  0.00000000000E+00  0.20948691850E+02  0.20948691850E+02  0.00000000000E+00 0.  1.
         21   -1    0    0  502  503 -0.00000000000E+00 -0.00000000000E+00 -0.18646423447E+03  0.18646423447E+03  0.00000000000E+00 0.  1.
         25    2    1    2    0    0  0.00000000000E+00  0.00000000000E+00 -0.16551554261E+03  0.20741292632E+03  0.12499890862E+03 0.  0.
          4    1    3    3  501    0  0.53849891408E+02 -0.30418741064E+02 -0.68040390775E+02  0.91961991548E+02  0.15500000000E+01 0.  1.
         -4    1    3    3    0  501 -0.53849891408E+02  0.30418741064E+02 -0.97475151840E+02  0.11545093477E+03  0.15500000000E+01 0.  1.
<mgrwt>
<rscale>  2 0.12499891E+03</rscale>
<asrwt>0</asrwt>
<pdfrwt beam="1">  1       21 0.32228757E-02 0.12499891E+03</pdfrwt>
<pdfrwt beam="2">  1       21 0.28686805E-01 0.12499891E+03</pdfrwt>
<totfact> 0.64134528E+06</totfact>
</mgrwt>
</event>
<event>
 5    0  0.1222151E+000  0.1249946E+03  0.7546771E-02  0.1235078E+00
         21   -1    0    0  503  502  0.00000000000E+00  0.00000000000E+00  0.11181161830E+04  0.11181161830E+04  0.00000000000E+00 0.  1.
         21   -1    0    0  502  503 -0.00000000000E+00 -0.00000000000E+00 -0.34932979337E+01  0.34932979337E+01  0.00000000000E+00 0.  1.
         25    2    1    2    0    0  0.00000000000E+00  0.00000000000E+00  0.11146228851E+04  0.11216094810E+04  0.12499460711E+03 0.  0.
          4    1    3    3  501    0 -0.97759420080E+01 -0.58023371111E+02  0.36882382664E+03  0.37349122912E+03  0.15500000000E+01 0.  1.
         -4    1    3    3    0  501  0.97759420080E+01  0.58023371111E+02  0.74579905845E+03  0.74811825183E+03  0.15500000000E+01 0.  1.
<mgrwt>
<rscale>  2 0.12499461E+03</rscale>
<asrwt>0</asrwt>
<pdfrwt beam="1">  1       21 0.17201759E+00 0.12499461E+03</pdfrwt>
<pdfrwt beam="2">  1       21 0.53743134E-03 0.12499461E+03</pdfrwt>
<totfact> 0.20779934E+06</totfact>
</mgrwt>
</event>
<event>
 5    0  0.1519496E+000  0.1249974E+03  0.7546771E-02  0.1235073E+00
         21   -1    0    0  503  502  0.00000000000E+00  0.00000000000E+00  0.17446497920E+02  0.17446497920E+02  0.00000000000E+00 0.  1.
         21   -1    0    0  502  503 -0.00000000000E+00 -0.00000000000E+00 -0.22388958205E+03  0.22388958205E+03  0.00000000000E+00 0.  1.
         25    2    1    2    0    0  0.00000000000E+00  0.00000000000E+00 -0.20644308413E+03  0.24133607997E+03  0.12499742601E+03 0.  0.
          4    1    3    3  501    0 -0.42222485115E+02  0.21102491616E+02 -0.24188142013E+02  0.53061493720E+02  0.15500000000E+01 0. -1.
         -4    1    3    3    0  501  0.42222485115E+02 -0.21102491616E+02 -0.18225494211E+03  0.18827458625E+03  0.15500000000E+01 0. -1.
<mgrwt>
<rscale>  2 0.12499743E+03</rscale>
<asrwt>0</asrwt>
<pdfrwt beam="1">  1       21 0.26840765E-02 0.12499743E+03</pdfrwt>
<pdfrwt beam="2">  1       21 0.34444552E-01 0.12499743E+03</pdfrwt>
<totfact> 0.60707553E+06</totfact>
</mgrwt>
</event>
<event>
 5    0  0.1510418E+000  0.1250009E+03  0.7546771E-02  0.1235068E+00
         21   -1    0    0  503  502  0.00000000000E+00  0.00000000000E+00  0.25660793052E+02  0.25660793052E+02  0.00000000000E+00 0.  1.
         21   -1    0    0  502  503 -0.00000000000E+00 -0.00000000000E+00 -0.15222854505E+03  0.15222854505E+03  0.00000000000E+00 0.  1.
         25    2    1    2    0    0  0.00000000000E+00  0.00000000000E+00 -0.12656775199E+03  0.17788933810E+03  0.12500088305E+03 0.  0.
          4    1    3    3  501    0  0.10349082074E+02 -0.48716799537E+02 -0.11697610073E+03  0.12714653239E+03  0.15500000000E+01 0. -1.
         -4    1    3    3    0  501 -0.10349082074E+02  0.48716799537E+02 -0.95916512616E+01  0.50742805705E+02  0.15500000000E+01 0. -1.
<mgrwt>
<rscale>  2 0.12500088E+03</rscale>
<asrwt>0</asrwt>
<pdfrwt beam="1">  1       21 0.39478144E-02 0.12500088E+03</pdfrwt>
<pdfrwt beam="2">  1       21 0.23419776E-01 0.12500088E+03</pdfrwt>
<totfact> 0.67392984E+06</totfact>
</mgrwt>
</event>
<event>
 5    0  0.1308592E+000  0.1249994E+03  0.7546771E-02  0.1235070E+00
         21   -1    0    0  503  502  0.00000000000E+00  0.00000000000E+00  0.66257467857E+03  0.66257467857E+03  0.00000000000E+00 0.  1.
         21   -1    0    0  502  503 -0.00000000000E+00 -0.00000000000E+00 -0.58955077822E+01  0.58955077822E+01  0.00000000000E+00 0.  1.
         25    2    1    2    0    0  0.00000000000E+00  0.00000000000E+00  0.65667917079E+03  0.66847018636E+03  0.12499942678E+03 0.  0.
          4    1    3    3  501    0  0.17505823921E+01  0.52751165751E+02  0.14952337112E+03  0.15857298331E+03  0.15500000000E+01 0.  1.
         -4    1    3    3    0  501 -0.17505823921E+01 -0.52751165751E+02  0.50715579968E+03  0.50989720304E+03  0.15500000000E+01 0.  1.
<mgrwt>
<rscale>  2 0.12499943E+03</rscale>
<asrwt>0</asrwt>
<pdfrwt beam="1">  1       21 0.10193451E+00 0.12499943E+03</pdfrwt>
<pdfrwt beam="2">  1       21 0.90700172E-03 0.12499943E+03</pdfrwt>
<totfact> 0.34161992E+06</totfact>
</mgrwt>
</event>
<event>
 5    0  0.1426213E+000  0.1249954E+03  0.7546771E-02  0.1235076E+00
         21   -1    0    0  503  502  0.00000000000E+00  0.00000000000E+00  0.12990374286E+02  0.12990374286E+02  0.00000000000E+00 0. -1.
         21   -1    0    0  502  503 -0.00000000000E+00 -0.00000000000E+00 -0.30068124630E+03  0.30068124630E+03  0.00000000000E+00 0. -1.
         25    2    1    2    0    0  0.00000000000E+00  0.00000000000E+00 -0.28769087201E+03  0.31367162058E+03  0.12499539080E+03 0.  0.
          4    1    3    3  501    0 -0.58748694924E+02 -0.90320798674E+01 -0.95537618452E+02  0.11252922581E+03  0.15500000000E+01 0.  1.
         -4    1    3    3    0  501  0.58748694924E+02  0.90320798674E+01 -0.19215325356E+03  0.20114239477E+03  0.15500000000E+01 0.  1.
<mgrwt>
<rscale>  2 0.12499539E+03</rscale>
<asrwt>0</asrwt>
<pdfrwt beam="1">  1       21 0.19985194E-02 0.12499539E+03</pdfrwt>
<pdfrwt beam="2">  1       21 0.46258646E-01 0.12499539E+03</pdfrwt>
<totfact> 0.54344965E+06</totfact>
</mgrwt>
</event>
<event>
 5    0  0.1537660E+000  0.1250006E+03  0.7546771E-02  0.1235068E+00
         21   -1    0    0  503  502  0.00000000000E+00  0.00000000000E+00  0.76492376011E+02  0.76492376011E+02  0.00000000000E+00 0. -1.
         21   -1    0    0  502  503 -0.00000000000E+00 -0.00000000000E+00 -0.51067664935E+02  0.51067664935E+02  0.00000000000E+00 0. -1.
         25    2    1    2    0    0  0.00000000000E+00  0.00000000000E+00  0.25424711077E+02  0.12756004095E+03  0.12500059245E+03 0.  0.
          4    1    3    3  501    0 -0.42584359961E+01  0.46072447117E+02  0.55561146456E+02  0.72320454617E+02  0.15500000000E+01 0. -1.
         -4    1    3    3    0  501  0.42584359961E+01 -0.46072447117E+02 -0.30136435380E+02  0.55239586329E+02  0.15500000000E+01 0. -1.
<mgrwt>
<rscale>  2 0.12500059E+03</rscale>
<asrwt>0</asrwt>
<pdfrwt beam="1">  1       21 0.11768058E-01 0.12500059E+03</pdfrwt>
<pdfrwt beam="2">  1       21 0.78565638E-02 0.12500059E+03</pdfrwt>
<totfact> 0.73691966E+06</totfact>
</mgrwt>
</event>
<event>
 5    0  0.1537471E+000  0.1249959E+03  0.7546771E-02  0.1235076E+00
         21   -1    0    0  503  502  0.00000000000E+00  0.00000000000E+00  0.92358748774E+02  0.92358748774E+02  0.00000000000E+00 0.  1.
         21   -1    0    0  502  503 -0.00000000000E+00 -0.00000000000E+00 -0.42291564045E+02  0.42291564045E+02  0.00000000000E+00 0.  1.
         25    2    1    2    0    0  0.00000000000E+00  0.00000000000E+00  0.50067184729E+02  0.13465031282E+03  0.12499593496E+03 0.  0.
          4    1    3    3  501    0  0.14241725491E+02  0.53060098617E+02 -0.70202006601E+01  0.55406556720E+02  0.15500000000E+01 0. -1.
         -4    1    3    3    0  501 -0.14241725491E+02 -0.53060098617E+02  0.57087385389E+02  0.79243756099E+02  0.15500000000E+01 0. -1.
<mgrwt>
<rscale>  2 0.12499593E+03</rscale>
<asrwt>0</asrwt>
<pdfrwt beam="1">  1       21 0.14209038E-01 0.12499593E+03</pdfrwt>
<pdfrwt beam="2">  1       21 0.65063945E-02 0.12499593E+03</pdfrwt>
<totfact> 0.72750349E+06</totfact>
</mgrwt>
</event>
<event>
 5    0  0.1550924E+000  0.1250036E+03  0.7546771E-02  0.1235064E+00
         21   -1    0    0  503  502  0.00000000000E+00  0.00000000000E+00  0.73631754598E+02  0.73631754598E+02  0.00000000000E+00 0.  1.
         21   -1    0    0  502  503 -0.00000000000E+00 -0.00000000000E+00 -0.53054181827E+02  0.53054181827E+02  0.00000000000E+00 0.  1.
         25    2    1    2    0    0  0.00000000000E+00  0.00000000000E+00  0.20577572770E+02  0.12668593643E+03  0.12500355990E+03 0.  0.
          4    1    3    3  501    0  0.17064946946E+02 -0.60014958867E+02  0.13659552621E+02  0.63890481137E+02  0.15500000000E+01 0.  1.
         -4    1    3    3    0  501 -0.17064946946E+02  0.60014958867E+02  0.69180201498E+01  0.62795455289E+02  0.15500000000E+01 0.  1.
<mgrwt>
<rscale>  2 0.12500356E+03</rscale>
<asrwt>0</asrwt>
<pdfrwt beam="1">  1       21 0.11327962E-01 0.12500356E+03</pdfrwt>
<pdfrwt beam="2">  1       21 0.81621818E-02 0.12500356E+03</pdfrwt>
<totfact> 0.73805249E+06</totfact>
</mgrwt>
</event>
<event>
 5    0  0.1222151E+000  0.1250013E+03  0.7546771E-02  0.1235067E+00
         21   -1    0    0  503  502  0.00000000000E+00  0.00000000000E+00  0.30837024913E+01  0.30837024913E+01  0.00000000000E+00 0.  1.
         21   -1    0    0  502  503 -0.00000000000E+00 -0.00000000000E+00 -0.12667663078E+04  0.12667663078E+04  0.00000000000E+00 0.  1.
         25    2    1    2    0    0  0.00000000000E+00  0.00000000000E+00 -0.12636826053E+04  0.12698500103E+04  0.12500128670E+03 0.  0.
          4    1    3    3  501    0  0.53901544046E+02 -0.30694525633E+02 -0.70813139117E+03  0.71084456811E+03  0.15500000000E+01 0.  1.
         -4    1    3    3    0  501 -0.53901544046E+02  0.30694525633E+02 -0.55555121410E+03  0.55900544214E+03  0.15500000000E+01 0.  1.
<mgrwt>
<rscale>  2 0.12500129E+03</rscale>
<asrwt>0</asrwt>
<pdfrwt beam="1">  1       21 0.47441541E-03 0.12500129E+03</pdfrwt>
<pdfrwt beam="2">  1       21 0.19488727E+00 0.12500129E+03</pdfrwt>
<totfact> 0.17801943E+06</totfact>
</mgrwt>
</event>
<event>
 5    0  0.1341585E+000  0.1250033E+03  0.7546771E-02  0.1235064E+00
         21   -1    0    0  503  502  0.00000000000E+00  0.00000000000E+00  0.13399914978E+02  0.13399914978E+02  0.00000000000E+00 0.  1.
         21   -1    0    0  502  503 -0.00000000000E+00 -0.00000000000E+00 -0.29152866416E+03  0.29152866416E+03  0.00000000000E+00 0.  1.
         25    2    1    2    0    0  0.00000000000E+00  0.00000000000E+00 -0.27812874918E+03  0.30492857913E+03  0.12500334897E+03 0.  0.
          4    1    3    3  501    0 -0.27032266095E+02 -0.92621223807E+01 -0.35198969949E+01  0.28832663701E+02  0.15500000000E+01 0. -1.
         -4    1    3    3    0  501  0.27032266095E+02  0.92621223807E+01 -0.27460885218E+03  0.27609591543E+03  0.15500000000E+01 0. -1.
<mgrwt>
<rscale>  2 0.12500335E+03</rscale>
<asrwt>0</asrwt>
<pdfrwt beam="1">  1       21 0.20615253E-02 0.12500335E+03</pdfrwt>
<pdfrwt beam="2">  1       21 0.44850565E-01 0.12500335E+03</pdfrwt>
<totfact> 0.55044429E+06</totfact>
</mgrwt>
</event>
<event>
 5    0  0.1486775E+000  0.1250047E+03  0.7546771E-02  0.1235062E+00
         21   -1    0    0  503  502  0.00000000000E+00  0.00000000000E+00  0.17944536946E+02  0.17944536946E+02  0.00000000000E+00 0.  1.
         21   -1    0    0  502  503 -0.00000000000E+00 -0.00000000000E+00 -0.21770114263E+03  0.21770114263E+03  0.00000000000E+00 0.  1.
         25    2    1    2    0    0  0.00000000000E+00  0.00000000000E+00 -0.19975660568E+03  0.23564567957E+03  0.12500473906E+03 0.  0.
          4    1    3    3  501    0  0.31024357919E+02  0.47393518417E+02 -0.14959217755E+03  0.15996524140E+03  0.15500000000E+01 0.  1.
         -4    1    3    3    0  501 -0.31024357919E+02 -0.47393518417E+02 -0.50164428131E+02  0.75680438172E+02  0.15500000000E+01 0.  1.
<mgrwt>
<rscale>  2 0.12500474E+03</rscale>
<asrwt>0</asrwt>
<pdfrwt beam="1">  1       21 0.27606979E-02 0.12500474E+03</pdfrwt>
<pdfrwt beam="2">  1       21 0.33492484E-01 0.12500474E+03</pdfrwt>
<totfact> 0.61249258E+06</totfact>
</mgrwt>
</event>
<event>
 5    0  0.1334842E+000  0.1250007E+03  0.7546771E-02  0.1235068E+00
         21   -1    0    0  503  502  0.00000000000E+00  0.00000000000E+00  0.41095023985E+03  0.41095023985E+03  0.00000000000E+00 0. -1.
         21   -1    0    0  502  503 -0.00000000000E+00 -0.00000000000E+00 -0.95055107132E+01  0.95055107132E+01  0.00000000000E+00 0. -1.
         25    2    1    2    0    0  0.00000000000E+00  0.00000000000E+00  0.40144472913E+03  0.42045575056E+03  0.12500067052E+03 0.  0.
          4    1    3    3  501    0  0.41809995407E+02 -0.43089730246E+02  0.14255115993E+03  0.15468689753E+03  0.15500000000E+01 0. -1.
         -4    1    3    3    0  501 -0.41809995407E+02  0.43089730246E+02  0.25889356920E+03  0.26576885304E+03  0.15500000000E+01 0. -1.
<mgrwt>
<rscale>  2 0.12500067E+03</rscale>
<asrwt>0</asrwt>
<pdfrwt beam="1">  1       21 0.63223100E-01 0.12500067E+03</pdfrwt>
<pdfrwt beam="2">  1       21 0.14623866E-02 0.12500067E+03</pdfrwt>
<totfact> 0.46712717E+06</totfact>
</mgrwt>
</event>
<event>
 5    0  0.1496114E+000  0.1249951E+03  0.7546771E-02  0.1235077E+00
         21   -1    0    0  503  502  0.00000000000E+00  0.00000000000E+00  0.15998771846E+03  0.15998771846E+03  0.00000000000E+00 0. -1.
         21   -1    0    0  502  503 -0.00000000000E+00 -0.00000000000E+00 -0.24414016109E+02  0.24414016109E+02  0.00000000000E+00 0. -1.
         25    2    1    2    0    0  0.00000000000E+00  0.00000000000E+00  0.13557370235E+03  0.18440173457E+03  0.12499508367E+03 0.  0.
          4    1    3    3  501    0  0.60364801913E+02  0.24596454927E+01  0.91279418764E+02  0.10947280007E+03  0.15500000000E+01 0. -1.
         -4    1    3    3    0  501 -0.60364801913E+02 -0.24596454927E+01  0.44294283584E+02  0.74928934493E+02  0.15500000000E+01 0. -1.
<mgrwt>
<rscale>  2 0.12499508E+03</rscale>
<asrwt>0</asrwt>
<pdfrwt beam="1">  1       21 0.24613495E-01 0.12499508E+03</pdfrwt>
<pdfrwt beam="2">  1       21 0.37560026E-02 0.12499508E+03</pdfrwt>
<totfact> 0.66658445E+06</totfact>
</mgrwt>
</event>
<event>
 5    0  0.1565107E+000  0.1250238E+03  0.7546771E-02  0.1235032E+00
         21   -1    0    0  503  502  0.00000000000E+00  0.00000000000E+00  0.27230843784E+02  0.27230843784E+02  0.00000000000E+00 0.  1.
         21   -1    0    0  502  503 -0.00000000000E+00 -0.00000000000E+00 -0.14350417522E+03  0.14350417522E+03  0.00000000000E+00 0.  1.
         25    2    1    2    0    0  0.00000000000E+00  0.00000000000E+00 -0.11627333143E+03  0.17073501900E+03  0.12502383417E+03 0.  0.
          4    1    3    3  501    0 -0.14764813372E+02  0.57716694048E+02 -0.83907498854E+02  0.10291786701E+03  0.15500000000E+01 0. -1.
         -4    1    3    3    0  501  0.14764813372E+02 -0.57716694048E+02 -0.32365832580E+02  0.67817151993E+02  0.15500000000E+01 0. -1.
<mgrwt>
<rscale>  2 0.12502383E+03</rscale>
<asrwt>0</asrwt>
<pdfrwt beam="1">  1       21 0.41893606E-02 0.12502383E+03</pdfrwt>
<pdfrwt beam="2">  1       21 0.22077565E-01 0.12502383E+03</pdfrwt>
<totfact> 0.68189344E+06</totfact>
</mgrwt>
</event>
<event>
 5    0  0.1385205E+000  0.1249981E+03  0.7546771E-02  0.1235072E+00
         21   -1    0    0  503  502  0.00000000000E+00  0.00000000000E+00  0.45229190422E+03  0.45229190422E+03  0.00000000000E+00 0.  1.
         21   -1    0    0  502  503 -0.00000000000E+00 -0.00000000000E+00 -0.86363068788E+01  0.86363068788E+01  0.00000000000E+00 0.  1.
         25    2    1    2    0    0  0.00000000000E+00  0.00000000000E+00  0.44365559734E+03  0.46092821110E+03  0.12499810692E+03 0.  0.
          4    1    3    3  501    0  0.60000144994E+02 -0.20778973628E+01  0.28563232553E+03  0.29187765064E+03  0.15500000000E+01 0. -1.
         -4    1    3    3    0  501 -0.60000144994E+02  0.20778973628E+01  0.15802327181E+03  0.16905056046E+03  0.15500000000E+01 0. -1.
<mgrwt>
<rscale>  2 0.12499811E+03</rscale>
<asrwt>0</asrwt>
<pdfrwt beam="1">  1       21 0.69583351E-01 0.12499811E+03</pdfrwt>
<pdfrwt beam="2">  1       21 0.13286630E-02 0.12499811E+03</pdfrwt>
<totfact> 0.44247584E+06</totfact>
</mgrwt>
</event>
<event>
 5    0  0.1501482E+000  0.1250039E+03  0.7546771E-02  0.1235063E+00
         21   -1    0    0  503  502  0.00000000000E+00  0.00000000000E+00  0.20629714684E+02  0.20629714684E+02  0.00000000000E+00 0.  1.
         21   -1    0    0  502  503 -0.00000000000E+00 -0.00000000000E+00 -0.18936234719E+03  0.18936234719E+03  0.00000000000E+00 0.  1.
         25    2    1    2    0    0  0.00000000000E+00  0.00000000000E+00 -0.16873263251E+03  0.20999206187E+03  0.12500385905E+03 0.  0.
          4    1    3    3  501    0  0.83036429722E+00  0.39292716857E+02 -0.27667680843E+01  0.39429235455E+02  0.15500000000E+01 0.  1.
         -4    1    3    3    0  501 -0.83036429722E+00 -0.39292716857E+02 -0.16596586442E+03  0.17056282642E+03  0.15500000000E+01 0.  1.
<mgrwt>
<rscale>  2 0.12500386E+03</rscale>
<asrwt>0</asrwt>
<pdfrwt beam="1">  1       21 0.31738023E-02 0.12500386E+03</pdfrwt>
<pdfrwt beam="2">  1       21 0.29132669E-01 0.12500386E+03</pdfrwt>
<totfact> 0.63854137E+06</totfact>
</mgrwt>
</event>
<event>
 5    0  0.1602264E+000  0.1249984E+03  0.7546771E-02  0.1235072E+00
         21   -1    0    0  503  502  0.00000000000E+00  0.00000000000E+00  0.69869363242E+02  0.69869363242E+02  0.00000000000E+00 0.  1.
         21   -1    0    0  502  503 -0.00000000000E+00 -0.00000000000E+00 -0.55906459037E+02  0.55906459037E+02  0.00000000000E+00 0.  1.
         25    2    1    2    0    0  0.00000000000E+00  0.00000000000E+00  0.13962904205E+02  0.12577582228E+03  0.12499837909E+03 0.  0.
          4    1    3    3  501    0  0.21753292617E+01 -0.56173566569E+02  0.34419062366E+02  0.65933875911E+02  0.15500000000E+01 0. -1.
         -4    1    3    3    0  501 -0.21753292617E+01  0.56173566569E+02 -0.20456158160E+02  0.59841946368E+02  0.15500000000E+01 0. -1.
<mgrwt>
<rscale>  2 0.12499838E+03</rscale>
<asrwt>0</asrwt>
<pdfrwt beam="1">  1       21 0.10749133E-01 0.12499838E+03</pdfrwt>
<pdfrwt beam="2">  1       21 0.86009938E-02 0.12499838E+03</pdfrwt>
<totfact> 0.73940078E+06</totfact>
</mgrwt>
</event>
<event>
 4    0  0.1222151E+000  0.1252831E+03  0.7546771E-02  0.1234627E+00
         21   -1    0    0  503  502  0.00000000000E+00  0.00000000000E+00  0.11188682638E+04  0.11188682638E+04  0.00000000000E+00 0.  1.
         21   -1    0    0  502  503 -0.00000000000E+00 -0.00000000000E+00 -0.35070846354E+01  0.35070846354E+01  0.00000000000E+00 0.  1.
          4    1    1    2  501    0 -0.19579631285E+02 -0.46121265979E+02  0.22115843902E+03  0.22676858422E+03  0.15500000000E+01 0.  1.
         -4    1    1    2    0  501  0.19579631285E+02  0.46121265979E+02  0.89420274018E+03  0.89560676426E+03  0.15500000000E+01 0.  1.
<mgrwt>
<rscale>  2 0.12528313E+03</rscale>
<asrwt>0</asrwt>
<pdfrwt beam="1">  1       21 0.17213329E+00 0.12528313E+03</pdfrwt>
<pdfrwt beam="2">  1       21 0.53955238E-03 0.12528313E+03</pdfrwt>
<totfact> 0.20615678E+06</totfact>
</mgrwt>
</event>
<event>
 5    0  0.1509251E+000  0.1250017E+03  0.7546771E-02  0.1235067E+00
         21   -1    0    0  503  502  0.00000000000E+00  0.00000000000E+00  0.66440373393E+02  0.66440373393E+02  0.00000000000E+00 0.  1.
         21   -1    0    0  502  503 -0.00000000000E+00 -0.00000000000E+00 -0.58794908920E+02  0.58794908920E+02  0.00000000000E+00 0.  1.
         25    2    1    2    0    0  0.00000000000E+00  0.00000000000E+00  0.76454644731E+01  0.12523528231E+03  0.12500169122E+03 0.  0.
          4    1    3    3  501    0 -0.58836603638E+02  0.19466882076E+02 -0.41449763624E+01  0.62131222058E+02  0.15500000000E+01 0.  1.
         -4    1    3    3    0  501  0.58836603638E+02 -0.19466882076E+02  0.11790440835E+02  0.63104060254E+02  0.15500000000E+01 0.  1.
<mgrwt>
<rscale>  2 0.12500169E+03</rscale>
<asrwt>0</asrwt>
<pdfrwt beam="1">  1       21 0.10221596E-01 0.12500169E+03</pdfrwt>
<pdfrwt beam="2">  1       21 0.90453706E-02 0.12500169E+03</pdfrwt>
<totfact> 0.74008608E+06</totfact>
</mgrwt>
</event>
<event>
 5    0  0.1441599E+000  0.1249940E+03  0.7546771E-02  0.1235079E+00
         21   -1    0    0  503  502  0.00000000000E+00  0.00000000000E+00  0.14040996892E+02  0.14040996892E+02  0.00000000000E+00 0.  1.
         21   -1    0    0  502  503 -0.00000000000E+00 -0.00000000000E+00 -0.27817645399E+03  0.27817645399E+03  0.00000000000E+00 0.  1.
         25    2    1    2    0    0  0.00000000000E+00  0.00000000000E+00 -0.26413545710E+03  0.29221745088E+03  0.12499399547E+03 0.  0.
          4    1    3    3  501    0  0.40135429501E+02 -0.25391430897E+02 -0.37164336809E+02  0.60325516116E+02  0.15500000000E+01 0. -1.
         -4    1    3    3    0  501 -0.40135429501E+02  0.25391430897E+02 -0.22697112029E+03  0.23189193477E+03  0.15500000000E+01 0. -1.
<mgrwt>
<rscale>  2 0.12499400E+03</rscale>
<asrwt>0</asrwt>
<pdfrwt beam="1">  1       21 0.21601534E-02 0.12499400E+03</pdfrwt>
<pdfrwt beam="2">  1       21 0.42796376E-01 0.12499400E+03</pdfrwt>
<totfact> 0.56117670E+06</totfact>
</mgrwt>
</event>
<event>
 5    0  0.1497125E+000  0.1249996E+03  0.7546771E-02  0.1235070E+00
         21   -1    0    0  503  502  0.00000000000E+00  0.00000000000E+00  0.11262186809E+02  0.11262186809E+02  0.00000000000E+00 0. -1.
         21   -1    0    0  502  503 -0.00000000000E+00 -0.00000000000E+00 -0.34684422223E+03  0.34684422223E+03  0.00000000000E+00 0. -1.
         25    2    1    2    0    0  0.00000000000E+00  0.00000000000E+00 -0.33558203542E+03  0.35810640904E+03  0.12499959079E+03 0.  0.
          4    1    3    3  501    0  0.30082593107E+02  0.54584783307E+02 -0.15518532233E+03  0.16724038909E+03  0.15500000000E+01 0.  1.
         -4    1    3    3    0  501 -0.30082593107E+02 -0.54584783307E+02 -0.18039671309E+03  0.19086601995E+03  0.15500000000E+01 0.  1.
<mgrwt>
<rscale>  2 0.12499959E+03</rscale>
<asrwt>0</asrwt>
<pdfrwt beam="1">  1       21 0.17326444E-02 0.12499959E+03</pdfrwt>
<pdfrwt beam="2">  1       21 0.53360641E-01 0.12499959E+03</pdfrwt>
<totfact> 0.50945793E+06</totfact>
</mgrwt>
</event>
<event>
 5    0  0.1222151E+000  0.1250016E+03  0.7546771E-02  0.1235067E+00
         21   -1    0    0  503  502  0.00000000000E+00  0.00000000000E+00  0.10114364545E+04  0.10114364545E+04  0.00000000000E+00 0. -1.
         21   -1    0    0  502  503 -0.00000000000E+00 -0.00000000000E+00 -0.38621795095E+01  0.38621795095E+01  0.00000000000E+00 0. -1.
         25    2    1    2    0    0  0.00000000000E+00  0.00000000000E+00  0.10075742749E+04  0.10152986340E+04  0.12500158638E+03 0.  0.
          4    1    3    3  501    0 -0.61181265093E+02  0.12371856552E+02  0.48119518245E+03  0.48522924082E+03  0.15500000000E+01 0. -1.
         -4    1    3    3    0  501  0.61181265093E+02 -0.12371856552E+02  0.52637909249E+03  0.53006939314E+03  0.15500000000E+01 0. -1.
<mgrwt>
<rscale>  2 0.12500159E+03</rscale>
<asrwt>0</asrwt>
<pdfrwt beam="1">  1       21 0.15560540E+00 0.12500159E+03</pdfrwt>
<pdfrwt beam="2">  1       21 0.59418227E-03 0.12500159E+03</pdfrwt>
<totfact> 0.23238621E+06</totfact>
</mgrwt>
</event>
<event>
 5    0  0.1351895E+000  0.1249971E+03  0.7546771E-02  0.1235074E+00
         21   -1    0    0  503  502  0.00000000000E+00  0.00000000000E+00  0.80747587747E+01  0.80747587747E+01  0.00000000000E+00 0.  1.
         21   -1    0    0  502  503 -0.00000000000E+00 -0.00000000000E+00 -0.48373827456E+03  0.48373827456E+03  0.00000000000E+00 0.  1.
         25    2    1    2    0    0  0.00000000000E+00  0.00000000000E+00 -0.47566351578E+03  0.49181303333E+03  0.12499711800E+03 0.  0.
          4    1    3    3  501    0  0.53135880869E+02  0.78362769397E+01 -0.36342106552E+03  0.36737188574E+03  0.15500000000E+01 0.  1.
         -4    1    3    3    0  501 -0.53135880869E+02 -0.78362769397E+01 -0.11224245027E+03  0.12444114759E+03  0.15500000000E+01 0.  1.
<mgrwt>
<rscale>  2 0.12499712E+03</rscale>
<asrwt>0</asrwt>
<pdfrwt beam="1">  1       21 0.12422707E-02 0.12499712E+03</pdfrwt>
<pdfrwt beam="2">  1       21 0.74421264E-01 0.12499712E+03</pdfrwt>
<totfact> 0.42494630E+06</totfact>
</mgrwt>
</event>
<event>
 5    0  0.1551761E+000  0.1250097E+03  0.7546771E-02  0.1235054E+00
         21   -1    0    0  503  502  0.00000000000E+00  0.00000000000E+00  0.77626427028E+02  0.77626427028E+02  0.00000000000E+00 0. -1.
         21   -1    0    0  502  503 -0.00000000000E+00 -0.00000000000E+00 -0.50328961180E+02  0.50328961180E+02  0.00000000000E+00 0. -1.
         25    2    1    2    0    0  0.00000000000E+00  0.00000000000E+00  0.27297465848E+02  0.12795538821E+03  0.12500971854E+03 0.  0.
          4    1    3    3  501    0 -0.41908079813E+02  0.31919672102E+02 -0.20748215087E+02  0.56639593483E+02  0.15500000000E+01 0. -1.
         -4    1    3    3    0  501  0.41908079813E+02 -0.31919672102E+02  0.48045680935E+02  0.71315794724E+02  0.15500000000E+01 0. -1.
<mgrwt>
<rscale>  2 0.12500972E+03</rscale>
<asrwt>0</asrwt>
<pdfrwt beam="1">  1       21 0.11942527E-01 0.12500972E+03</pdfrwt>
<pdfrwt beam="2">  1       21 0.77429171E-02 0.12500972E+03</pdfrwt>
<totfact> 0.73621318E+06</totfact>
</mgrwt>
</event>
<event>
 5    0  0.1526805E+000  0.1249986E+03  0.7546771E-02  0.1235071E+00
         21   -1    0    0  503  502  0.00000000000E+00  0.00000000000E+00  0.37830901052E+02  0.37830901052E+02  0.00000000000E+00 0.  1.
         21   -1    0    0  502  503 -0.00000000000E+00 -0.00000000000E+00 -0.10325324740E+03  0.10325324740E+03  0.00000000000E+00 0.  1.
         25    2    1    2    0    0  0.00000000000E+00  0.00000000000E+00 -0.65422346347E+02  0.14108414845E+03  0.12499861416E+03 0.  0.
          4    1    3    3  501    0 -0.43757489698E+02 -0.24623967508E+02 -0.74681031953E+02  0.90003981657E+02  0.15500000000E+01 0. -1.
         -4    1    3    3    0  501  0.43757489698E+02  0.24623967508E+02  0.92586856056E+01  0.51080166794E+02  0.15500000000E+01 0. -1.
<mgrwt>
<rscale>  2 0.12499861E+03</rscale>
<asrwt>0</asrwt>
<pdfrwt beam="1">  1       21 0.58201388E-02 0.12499861E+03</pdfrwt>
<pdfrwt beam="2">  1       21 0.15885115E-01 0.12499861E+03</pdfrwt>
<totfact> 0.71900628E+06</totfact>
</mgrwt>
</event>
<event>
 5    0  0.1343404E+000  0.1250077E+03  0.7546771E-02  0.1235057E+00
         21   -1    0    0  503  502  0.00000000000E+00  0.00000000000E+00  0.11476690004E+02  0.11476690004E+02  0.00000000000E+00 0.  1.
         21   -1    0    0  502  503 -0.00000000000E+00 -0.00000000000E+00 -0.34040575501E+03  0.34040575501E+03  0.00000000000E+00 0.  1.
         25    2    1    2    0    0  0.00000000000E+00  0.00000000000E+00 -0.32892906500E+03  0.35188244501E+03  0.12500770097E+03 0.  0.
          4    1    3    3  501    0  0.68294950706E+01  0.47847755168E+02 -0.27593825832E+03  0.28014348927E+03  0.15500000000E+01 0.  1.
         -4    1    3    3    0  501 -0.68294950706E+01 -0.47847755168E+02 -0.52990806690E+02  0.71738955744E+02  0.15500000000E+01 0.  1.
<mgrwt>
<rscale>  2 0.12500770E+03</rscale>
<asrwt>0</asrwt>
<pdfrwt beam="1">  1       21 0.17656449E-02 0.12500770E+03</pdfrwt>
<pdfrwt beam="2">  1       21 0.52370108E-01 0.12500770E+03</pdfrwt>
<totfact> 0.51389798E+06</totfact>
</mgrwt>
</event>
<event>
 5    0  0.1513697E+000  0.1249957E+03  0.7546771E-02  0.1235076E+00
         21   -1    0    0  503  502  0.00000000000E+00  0.00000000000E+00  0.64215660997E+02  0.64215660997E+02  0.00000000000E+00 0.  1.
         21   -1    0    0  502  503 -0.00000000000E+00 -0.00000000000E+00 -0.60826024150E+02  0.60826024150E+02  0.00000000000E+00 0.  1.
         25    2    1    2    0    0  0.00000000000E+00  0.00000000000E+00  0.33896368470E+01  0.12504168515E+03  0.12499573347E+03 0.  0.
          4    1    3    3  501    0  0.30010597900E+02 -0.14632162125E+02 -0.51134108994E+02  0.61088753117E+02  0.15500000000E+01 0. -1.
         -4    1    3    3    0  501 -0.30010597900E+02  0.14632162125E+02  0.54523745841E+02  0.63952932030E+02  0.15500000000E+01 0. -1.
<mgrwt>
<rscale>  2 0.12499573E+03</rscale>
<asrwt>0</asrwt>
<pdfrwt beam="1">  1       21 0.98793324E-02 0.12499573E+03</pdfrwt>
<pdfrwt beam="2">  1       21 0.93578499E-02 0.12499573E+03</pdfrwt>
<totfact> 0.74046028E+06</totfact>
</mgrwt>
</event>
<event>
 5    0  0.1298772E+000  0.1250019E+03  0.7546771E-02  0.1235066E+00
         21   -1    0    0  503  502  0.00000000000E+00  0.00000000000E+00  0.47448646424E+03  0.47448646424E+03  0.00000000000E+00 0. -1.
         21   -1    0    0  502  503 -0.00000000000E+00 -0.00000000000E+00 -0.82328332647E+01  0.82328332647E+01  0.00000000000E+00 0. -1.
         25    2    1    2    0    0  0.00000000000E+00  0.00000000000E+00  0.46625363097E+03  0.48271929750E+03  0.12500188713E+03 0.  0.
          4    1    3    3  501    0  0.37393636865E+02 -0.29015404245E+02  0.39064367482E+03  0.39350357170E+03  0.15500000000E+01 0.  1.
         -4    1    3    3    0  501 -0.37393636865E+02  0.29015404245E+02  0.75609956149E+02  0.89215725802E+02  0.15500000000E+01 0.  1.
<mgrwt>
<rscale>  2 0.12500189E+03</rscale>
<asrwt>0</asrwt>
<pdfrwt beam="1">  1       21 0.72997896E-01 0.12500189E+03</pdfrwt>
<pdfrwt beam="2">  1       21 0.12665901E-02 0.12500189E+03</pdfrwt>
<totfact> 0.42995005E+06</totfact>
</mgrwt>
</event>
<event>
 5    0  0.1731802E+000  0.1249976E+03  0.7546771E-02  0.1235073E+00
         21   -1    0    0  503  502  0.00000000000E+00  0.00000000000E+00  0.41094996929E+02  0.41094996929E+02  0.00000000000E+00 0. -1.
         21   -1    0    0  502  503 -0.00000000000E+00 -0.00000000000E+00 -0.95050462178E+02  0.95050462178E+02  0.00000000000E+00 0. -1.
         25    2    1    2    0    0  0.00000000000E+00  0.00000000000E+00 -0.53955465248E+02  0.13614545911E+03  0.12499757520E+03 0.  0.
          4    1    3    3  501    0  0.56815088798E+02 -0.24018536849E+02 -0.16148610367E+02  0.63781067287E+02  0.15500000000E+01 0.  1.
         -4    1    3    3    0  501 -0.56815088798E+02  0.24018536849E+02 -0.37806854881E+02  0.72364391820E+02  0.15500000000E+01 0.  1.
<mgrwt>
<rscale>  2 0.12499758E+03</rscale>
<asrwt>0</asrwt>
<pdfrwt beam="1">  1       21 0.63223073E-02 0.12499758E+03</pdfrwt>
<pdfrwt beam="2">  1       21 0.14623148E-01 0.12499758E+03</pdfrwt>
<totfact> 0.72549645E+06</totfact>
</mgrwt>
</event>
<event>
 5    0  0.1543180E+000  0.1250022E+03  0.7546771E-02  0.1235066E+00
         21   -1    0    0  503  502  0.00000000000E+00  0.00000000000E+00  0.10628920758E+03  0.10628920758E+03  0.00000000000E+00 0.  1.
         21   -1    0    0  502  503 -0.00000000000E+00 -0.00000000000E+00 -0.36752418212E+02  0.36752418212E+02  0.00000000000E+00 0.  1.
         25    2    1    2    0    0  0.00000000000E+00  0.00000000000E+00  0.69536789364E+02  0.14304162579E+03  0.12500216651E+03 0.  0.
          4    1    3    3  501    0 -0.57279368720E+02 -0.24896265069E+02  0.36825872634E+02  0.72521014131E+02  0.15500000000E+01 0. -1.
         -4    1    3    3    0  501  0.57279368720E+02  0.24896265069E+02  0.32710916730E+02  0.70520611658E+02  0.15500000000E+01 0. -1.
<mgrwt>
<rscale>  2 0.12500217E+03</rscale>
<asrwt>0</asrwt>
<pdfrwt beam="1">  1       21 0.16352186E-01 0.12500217E+03</pdfrwt>
<pdfrwt beam="2">  1       21 0.56542182E-02 0.12500217E+03</pdfrwt>
<totfact> 0.71640722E+06</totfact>
</mgrwt>
</event>
<event>
 5    0  0.1600217E+000  0.1249974E+03  0.7546771E-02  0.1235073E+00
         21   -1    0    0  503  502  0.00000000000E+00  0.00000000000E+00  0.15218873013E+03  0.15218873013E+03  0.00000000000E+00 0. -1.
         21   -1    0    0  502  503 -0.00000000000E+00 -0.00000000000E+00 -0.25666088573E+02  0.25666088573E+02  0.00000000000E+00 0. -1.
         25    2    1    2    0    0  0.00000000000E+00  0.00000000000E+00  0.12652264155E+03  0.17785481870E+03  0.12499743081E+03 0.  0.
          4    1    3    3  501    0  0.50315822620E+02 -0.29360395676E+02  0.95393320354E+02  0.11178552191E+03  0.15500000000E+01 0. -1.
         -4    1    3    3    0  501 -0.50315822620E+02  0.29360395676E+02  0.31129321199E+02  0.66069296791E+02  0.15500000000E+01 0. -1.
<mgrwt>
<rscale>  2 0.12499743E+03</rscale>
<asrwt>0</asrwt>
<pdfrwt beam="1">  1       21 0.23413650E-01 0.12499743E+03</pdfrwt>
<pdfrwt beam="2">  1       21 0.39486291E-02 0.12499743E+03</pdfrwt>
<totfact> 0.67402874E+06</totfact>
</mgrwt>
</event>
<event>
 5    0  0.1222151E+000  0.1250153E+03  0.7546771E-02  0.1235045E+00
         21   -1    0    0  503  502  0.00000000000E+00  0.00000000000E+00  0.90038829650E+03  0.90038829650E+03  0.00000000000E+00 0. -1.
         21   -1    0    0  502  503 -0.00000000000E+00 -0.00000000000E+00 -0.43394682567E+01  0.43394682567E+01  0.00000000000E+00 0. -1.
         25    2    1    2    0    0  0.00000000000E+00  0.00000000000E+00  0.89604882825E+03  0.90472776476E+03  0.12501530196E+03 0.  0.
          4    1    3    3  501    0 -0.15828729107E+02  0.58461991776E+02  0.33674236268E+03  0.34214934527E+03  0.15500000000E+01 0. -1.
         -4    1    3    3    0  501  0.15828729107E+02 -0.58461991776E+02  0.55930646557E+03  0.56257841949E+03  0.15500000000E+01 0. -1.
<mgrwt>
<rscale>  2 0.12501530E+03</rscale>
<asrwt>0</asrwt>
<pdfrwt beam="1">  1       21 0.13852113E+00 0.12501530E+03</pdfrwt>
<pdfrwt beam="2">  1       21 0.66761121E-03 0.12501530E+03</pdfrwt>
<totfact> 0.26153751E+06</totfact>
</mgrwt>
</event>
<event>
 5    0  0.1512278E+000  0.1250011E+03  0.7546771E-02  0.1235068E+00
         21   -1    0    0  503  502  0.00000000000E+00  0.00000000000E+00  0.25414618495E+03  0.25414618495E+03  0.00000000000E+00 0.  1.
         21   -1    0    0  502  503 -0.00000000000E+00 -0.00000000000E+00 -0.15370361123E+02  0.15370361123E+02  0.00000000000E+00 0.  1.
         25    2    1    2    0    0  0.00000000000E+00  0.00000000000E+00  0.23877582383E+03  0.26951654607E+03  0.12500109825E+03 0.  0.
          4    1    3    3  501    0  0.15219903904E+02 -0.60483136966E+02  0.12747285097E+03  0.14192105400E+03  0.15500000000E+01 0.  1.
         -4    1    3    3    0  501 -0.15219903904E+02  0.60483136966E+02  0.11130297285E+03  0.12759549207E+03  0.15500000000E+01 0.  1.
<mgrwt>
<rscale>  2 0.12500110E+03</rscale>
<asrwt>0</asrwt>
<pdfrwt beam="1">  1       21 0.39099410E-01 0.12500110E+03</pdfrwt>
<pdfrwt beam="2">  1       21 0.23646711E-02 0.12500110E+03</pdfrwt>
<totfact> 0.58086252E+06</totfact>
</mgrwt>
</event>
<event>
 5    0  0.1340601E+000  0.1250002E+03  0.7546771E-02  0.1235069E+00
         21   -1    0    0  503  502  0.00000000000E+00  0.00000000000E+00  0.12265245491E+02  0.12265245491E+02  0.00000000000E+00 0. -1.
         21   -1    0    0  502  503 -0.00000000000E+00 -0.00000000000E+00 -0.31848199296E+03  0.31848199296E+03  0.00000000000E+00 0. -1.
         25    2    1    2    0    0  0.00000000000E+00  0.00000000000E+00 -0.30621674747E+03  0.33074723845E+03  0.12500015725E+03 0.  0.
          4    1    3    3  501    0 -0.20410718965E+02  0.26234370320E+02 -0.13121121401E+02  0.35768784737E+02  0.15500000000E+01 0.  1.
         -4    1    3    3    0  501  0.20410718965E+02 -0.26234370320E+02 -0.29309562607E+03  0.29497845371E+03  0.15500000000E+01 0.  1.
<mgrwt>
<rscale>  2 0.12500016E+03</rscale>
<asrwt>0</asrwt>
<pdfrwt beam="1">  1       21 0.18869610E-02 0.12500016E+03</pdfrwt>
<pdfrwt beam="2">  1       21 0.48997224E-01 0.12500016E+03</pdfrwt>
<totfact> 0.52992312E+06</totfact>
</mgrwt>
</event>
<event>
 5    0  0.1409069E+000  0.1249991E+03  0.7546771E-02  0.1235071E+00
         21   -1    0    0  503  502  0.00000000000E+00  0.00000000000E+00  0.22113831372E+02  0.22113831372E+02  0.00000000000E+00 0. -1.
         21   -1    0    0  502  503 -0.00000000000E+00 -0.00000000000E+00 -0.17664037852E+03  0.17664037852E+03  0.00000000000E+00 0. -1.
         25    2    1    2    0    0  0.00000000000E+00  0.00000000000E+00 -0.15452654715E+03  0.19875420990E+03  0.12499912870E+03 0.  0.
          4    1    3    3  501    0  0.35066126345E+02 -0.31320989823E+01  0.48106074560E+01  0.35566665643E+02  0.15500000000E+01 0. -1.
         -4    1    3    3    0  501 -0.35066126345E+02  0.31320989823E+01 -0.15933715461E+03  0.16318754425E+03  0.15500000000E+01 0. -1.
<mgrwt>
<rscale>  2 0.12499913E+03</rscale>
<asrwt>0</asrwt>
<pdfrwt beam="1">  1       21 0.34021280E-02 0.12499913E+03</pdfrwt>
<pdfrwt beam="2">  1       21 0.27175442E-01 0.12499913E+03</pdfrwt>
<totfact> 0.65063895E+06</totfact>
</mgrwt>
</event>
<event>
 5    0  0.1330973E+000  0.1250031E+03  0.7546771E-02  0.1235064E+00
         21   -1    0    0  503  502  0.00000000000E+00  0.00000000000E+00  0.15120372405E+03  0.15120372405E+03  0.00000000000E+00 0.  1.
         21   -1    0    0  502  503 -0.00000000000E+00 -0.00000000000E+00 -0.25835636408E+02  0.25835636408E+02  0.00000000000E+00 0.  1.
         25    2    1    2    0    0  0.00000000000E+00  0.00000000000E+00  0.12536808765E+03  0.17703936046E+03  0.12500311097E+03 0.  0.
          4    1    3    3  501    0 -0.22858384531E+02  0.90842243001E+01 -0.18662860093E+02  0.30914943334E+02  0.15500000000E+01 0.  1.
         -4    1    3    3    0  501  0.22858384531E+02 -0.90842243001E+01  0.14403094774E+03  0.14612441713E+03  0.15500000000E+01 0.  1.
<mgrwt>
<rscale>  2 0.12500311E+03</rscale>
<asrwt>0</asrwt>
<pdfrwt beam="1">  1       21 0.23262111E-01 0.12500311E+03</pdfrwt>
<pdfrwt beam="2">  1       21 0.39747134E-02 0.12500311E+03</pdfrwt>
<totfact> 0.67487479E+06</totfact>
</mgrwt>
</event>
<event>
 5    0  0.1443918E+000  0.1250060E+03  0.7546771E-02  0.1235060E+00
         21   -1    0    0  503  502  0.00000000000E+00  0.00000000000E+00  0.20501544797E+03  0.20501544797E+03  0.00000000000E+00 0.  1.
         21   -1    0    0  502  503 -0.00000000000E+00 -0.00000000000E+00 -0.19055277108E+02  0.19055277108E+02  0.00000000000E+00 0.  1.
         25    2    1    2    0    0  0.00000000000E+00  0.00000000000E+00  0.18596017086E+03  0.22407072508E+03  0.12500601862E+03 0.  0.
          4    1    3    3  501    0  0.47766266432E+02 -0.32099051298E+02  0.49357660945E+02  0.75832357849E+02  0.15500000000E+01 0.  1.
         -4    1    3    3    0  501 -0.47766266432E+02  0.32099051298E+02  0.13660250992E+03  0.14823836723E+03  0.15500000000E+01 0.  1.
<mgrwt>
<rscale>  2 0.12500602E+03</rscale>
<asrwt>0</asrwt>
<pdfrwt beam="1">  1       21 0.31540837E-01 0.12500602E+03</pdfrwt>
<pdfrwt beam="2">  1       21 0.29315812E-02 0.12500602E+03</pdfrwt>
<totfact> 0.62399372E+06</totfact>
</mgrwt>
</event>
<event>
 5    0  0.1599676E+000  0.1250009E+03  0.7546771E-02  0.1235068E+00
         21   -1    0    0  503  502  0.00000000000E+00  0.00000000000E+00  0.44517085587E+02  0.44517085587E+02  0.00000000000E+00 0. -1.
         21   -1    0    0  502  503 -0.00000000000E+00 -0.00000000000E+00 -0.87748532194E+02  0.87748532194E+02  0.00000000000E+00 0. -1.
         25    2    1    2    0    0  0.00000000000E+00  0.00000000000E+00 -0.43231446608E+02  0.13226561778E+03  0.12500094268E+03 0.  0.
          4    1    3    3  501    0  0.27145527351E+02 -0.56208658282E+02 -0.18696107122E+02  0.65178522862E+02  0.15500000000E+01 0.  1.
         -4    1    3    3    0  501 -0.27145527351E+02  0.56208658282E+02 -0.24535339485E+02  0.67087094919E+02  0.15500000000E+01 0.  1.
<mgrwt>
<rscale>  2 0.12500094E+03</rscale>
<asrwt>0</asrwt>
<pdfrwt beam="1">  1       21 0.68487825E-02 0.12500094E+03</pdfrwt>
<pdfrwt beam="2">  1       21 0.13499774E-01 0.12500094E+03</pdfrwt>
<totfact> 0.73058866E+06</totfact>
</mgrwt>
</event>
<event>
 5    0  0.1222151E+000  0.1249762E+03  0.7546771E-02  0.1235106E+00
         21   -1    0    0  503  502  0.00000000000E+00  0.00000000000E+00  0.50512262620E+01  0.50512262620E+01  0.00000000000E+00 0. -1.
         21   -1    0    0  502  503 -0.00000000000E+00 -0.00000000000E+00 -0.77303305787E+03  0.77303305787E+03  0.00000000000E+00 0. -1.
         25    2    1    2    0    0  0.00000000000E+00  0.00000000000E+00 -0.76798183161E+03  0.77808428414E+03  0.12497623587E+03 0.  0.
          4    1    3    3  501    0  0.50453924852E+02  0.11976798437E+02 -0.16712719327E+03  0.17499412408E+03  0.15500000000E+01 0.  1.
         -4    1    3    3    0  501 -0.50453924852E+02 -0.11976798437E+02 -0.60085463835E+03  0.60309016005E+03  0.15500000000E+01 0.  1.
<mgrwt>
<rscale>  2 0.12497624E+03</rscale>
<asrwt>0</asrwt>
<pdfrwt beam="1">  1       21 0.77711185E-03 0.12497624E+03</pdfrwt>
<pdfrwt beam="2">  1       21 0.11892815E+00 0.12497624E+03</pdfrwt>
<totfact> 0.30119616E+06</totfact>
</mgrwt>
</event>
<event>
 5    0  0.1313124E+000  0.1249427E+03  0.7546771E-02  0.1235159E+00
         21   -1    0    0  503  502  0.00000000000E+00  0.00000000000E+00  0.15382586370E+03  0.15382586370E+03  0.00000000000E+00 0. -1.
         21   -1    0    0  502  503 -0.00000000000E+00 -0.00000000000E+00 -0.25370678706E+02  0.25370678706E+02  0.00000000000E+00 0. -1.
         25    2    1    2    0    0  0.00000000000E+00  0.00000000000E+00  0.12845518499E+03  0.17919654240E+03  0.12494265188E+03 0.  0.
          4    1    3    3  501    0  0.56167159849E+02 -0.21968606124E+02  0.87482237234E+02  0.10626812237E+03  0.15500000000E+01 0. -1.
         -4    1    3    3    0  501 -0.56167159849E+02  0.21968606124E+02  0.40972947756E+02  0.72928420032E+02  0.15500000000E+01 0. -1.
<mgrwt>
<rscale>  2 0.12494265E+03</rscale>
<asrwt>0</asrwt>
<pdfrwt beam="1">  1       21 0.23665517E-01 0.12494265E+03</pdfrwt>
<pdfrwt beam="2">  1       21 0.39031814E-02 0.12494265E+03</pdfrwt>
<totfact> 0.67341735E+06</totfact>
</mgrwt>
</event>
<event>
 5    0  0.1576330E+000  0.1250014E+03  0.7546771E-02  0.1235067E+00
         21   -1    0    0  503  502  0.00000000000E+00  0.00000000000E+00  0.70790309906E+02  0.70790309906E+02  0.00000000000E+00 0. -1.
         21   -1    0    0  502  503 -0.00000000000E+00 -0.00000000000E+00 -0.55181831071E+02  0.55181831071E+02  0.00000000000E+00 0. -1.
         25    2    1    2    0    0  0.00000000000E+00  0.00000000000E+00  0.15608478835E+02  0.12597214098E+03  0.12500142276E+03 0.  0.
          4    1    3    3  501    0 -0.20962862155E+02 -0.55970690851E+02 -0.10551945735E+02  0.60711661836E+02  0.15500000000E+01 0.  1.
         -4    1    3    3    0  501  0.20962862155E+02  0.55970690851E+02  0.26160424570E+02  0.65260479141E+02  0.15500000000E+01 0.  1.
<mgrwt>
<rscale>  2 0.12500142E+03</rscale>
<asrwt>0</asrwt>
<pdfrwt beam="1">  1       21 0.10890817E-01 0.12500142E+03</pdfrwt>
<pdfrwt beam="2">  1       21 0.84895124E-02 0.12500142E+03</pdfrwt>
<totfact> 0.73907198E+06</totfact>
</mgrwt>
</event>
<event>
 5    0  0.1596785E+000  0.1249995E+03  0.7546771E-02  0.1235070E+00
         21   -1    0    0  503  502  0.00000000000E+00  0.00000000000E+00  0.59465660273E+02  0.59465660273E+02  0.00000000000E+00 0. -1.
         21   -1    0    0  502  503 -0.00000000000E+00 -0.00000000000E+00 -0.65688633135E+02  0.65688633135E+02  0.00000000000E+00 0. -1.
         25    2    1    2    0    0  0.00000000000E+00  0.00000000000E+00 -0.62229728619E+01  0.12515429341E+03  0.12499948707E+03 0.  0.
          4    1    3    3  501    0 -0.35909214073E+02 -0.42458905464E+02 -0.31635101256E+02  0.63995409523E+02  0.15500000000E+01 0. -1.
         -4    1    3    3    0  501  0.35909214073E+02  0.42458905464E+02  0.25412128394E+02  0.61158883885E+02  0.15500000000E+01 0. -1.
<mgrwt>
<rscale>  2 0.12499949E+03</rscale>
<asrwt>0</asrwt>
<pdfrwt beam="1">  1       21 0.91485632E-02 0.12499949E+03</pdfrwt>
<pdfrwt beam="2">  1       21 0.10105944E-01 0.12499949E+03</pdfrwt>
<totfact> 0.74023714E+06</totfact>
</mgrwt>
</event>
<event>
 5    0  0.1222151E+000  0.1249836E+03  0.7546771E-02  0.1235095E+00
         21   -1    0    0  503  502  0.00000000000E+00  0.00000000000E+00  0.36444154709E+01  0.36444154709E+01  0.00000000000E+00 0. -1.
         21   -1    0    0  502  503 -0.00000000000E+00 -0.00000000000E+00 -0.10715641547E+04  0.10715641547E+04  0.00000000000E+00 0. -1.
         25    2    1    2    0    0  0.00000000000E+00  0.00000000000E+00 -0.10679197393E+04  0.10752085702E+04  0.12498359866E+03 0.  0.
          4    1    3    3  501    0 -0.38523491489E+02 -0.26889949352E+02 -0.17970698372E+03  0.18575287688E+03  0.15500000000E+01 0. -1.
         -4    1    3    3    0  501  0.38523491489E+02  0.26889949352E+02 -0.88821275555E+03  0.88945569333E+03  0.15500000000E+01 0. -1.
<mgrwt>
<rscale>  2 0.12498360E+03</rscale>
<asrwt>0</asrwt>
<pdfrwt beam="1">  1       21 0.56067919E-03 0.12498360E+03</pdfrwt>
<pdfrwt beam="2">  1       21 0.16485606E+00 0.12498360E+03</pdfrwt>
<totfact> 0.21820213E+06</totfact>
</mgrwt>
</event>
<event>
 5    0  0.1376898E+000  0.1249946E+03  0.7546771E-02  0.1235078E+00
         21   -1    0    0  503  502  0.00000000000E+00  0.00000000000E+00  0.10867608423E+02  0.10867608423E+02  0.00000000000E+00 0. -1.
         21   -1    0    0  502  503 -0.00000000000E+00 -0.00000000000E+00 -0.35940879441E+03  0.35940879441E+03  0.00000000000E+00 0. -1.
         25    2    1    2    0    0  0.00000000000E+00  0.00000000000E+00 -0.34854118599E+03  0.37027640283E+03  0.12499462455E+03 0.  0.
          4    1    3    3  501    0 -0.35317211267E+02  0.26833308846E+02 -0.43921646032E+02  0.62440734825E+02  0.15500000000E+01 0. -1.
         -4    1    3    3    0  501  0.35317211267E+02 -0.26833308846E+02 -0.30461953996E+03  0.30783566801E+03  0.15500000000E+01 0. -1.
<mgrwt>
<rscale>  2 0.12499462E+03</rscale>
<asrwt>0</asrwt>
<pdfrwt beam="1">  1       21 0.16719398E-02 0.12499462E+03</pdfrwt>
<pdfrwt beam="2">  1       21 0.55293659E-01 0.12499462E+03</pdfrwt>
<totfact> 0.50081682E+06</totfact>
</mgrwt>
</event>
<event>
 5    0  0.1222151E+000  0.1249983E+03  0.7546771E-02  0.1235072E+00
         21   -1    0    0  503  502  0.00000000000E+00  0.00000000000E+00  0.95697208193E+03  0.95697208193E+03  0.00000000000E+00 0. -1.
         21   -1    0    0  502  503 -0.00000000000E+00 -0.00000000000E+00 -0.40817748021E+01  0.40817748021E+01  0.00000000000E+00 0. -1.
         25    2    1    2    0    0  0.00000000000E+00  0.00000000000E+00  0.95289030713E+03  0.96105385673E+03  0.12499831247E+03 0.  0.
          4    1    3    3  501    0  0.29573865160E+02  0.50004846904E+02  0.65322190716E+03  0.65580207434E+03  0.15500000000E+01 0. -1.
         -4    1    3    3    0  501 -0.29573865160E+02 -0.50004846904E+02  0.29966839997E+03  0.30525178239E+03  0.15500000000E+01 0. -1.
<mgrwt>
<rscale>  2 0.12499831E+03</rscale>
<asrwt>0</asrwt>
<pdfrwt beam="1">  1       21 0.14722630E+00 0.12499831E+03</pdfrwt>
<pdfrwt beam="2">  1       21 0.62796612E-03 0.12499831E+03</pdfrwt>
<totfact> 0.24618827E+06</totfact>
</mgrwt>
</event>
<event>
 5    0  0.1222151E+000  0.1249975E+03  0.7546771E-02  0.1235073E+00
         21   -1    0    0  503  502  0.00000000000E+00  0.00000000000E+00  0.22042040747E+01  0.22042040747E+01  0.00000000000E+00 0.  1.
         21   -1    0    0  502  503 -0.00000000000E+00 -0.00000000000E+00 -0.17721110290E+04  0.17721110290E+04  0.00000000000E+00 0.  1.
         25    2    1    2    0    0  0.00000000000E+00  0.00000000000E+00 -0.17699068250E+04  0.17743152331E+04  0.12499750959E+03 0.  0.
          4    1    3    3  501    0 -0.55513487353E+02  0.18087598792E+02 -0.56920806785E+03  0.57219676293E+03  0.15500000000E+01 0.  1.
         -4    1    3    3    0  501  0.55513487353E+02 -0.18087598792E+02 -0.12006987571E+04  0.12021184702E+04  0.15500000000E+01 0.  1.
<mgrwt>
<rscale>  2 0.12499751E+03</rscale>
<asrwt>0</asrwt>
<pdfrwt beam="1">  1       21 0.33910716E-03 0.12499751E+03</pdfrwt>
<pdfrwt beam="2">  1       21 0.27263340E+00 0.12499751E+03</pdfrwt>
<totfact> 0.10369258E+06</totfact>
</mgrwt>
</event>
<event>
 5    0  0.1222151E+000  0.1249978E+03  0.7546771E-02  0.1235073E+00
         21   -1    0    0  503  502  0.00000000000E+00  0.00000000000E+00  0.27719840236E+01  0.27719840236E+01  0.00000000000E+00 0.  1.
         21   -1    0    0  502  503 -0.00000000000E+00 -0.00000000000E+00 -0.14091400836E+04  0.14091400836E+04  0.00000000000E+00 0.  1.
         25    2    1    2    0    0  0.00000000000E+00  0.00000000000E+00 -0.14063680996E+04  0.14119120676E+04  0.12499782076E+03 0.  0.
          4    1    3    3  501    0 -0.40782994243E+02 -0.45627462762E+02 -0.84543253679E+03  0.84764597253E+03  0.15500000000E+01 0. -1.
         -4    1    3    3    0  501  0.40782994243E+02  0.45627462762E+02 -0.56093556279E+03  0.56426609510E+03  0.15500000000E+01 0. -1.
<mgrwt>
<rscale>  2 0.12499782E+03</rscale>
<asrwt>0</asrwt>
<pdfrwt beam="1">  1       21 0.42645796E-03 0.12499782E+03</pdfrwt>
<pdfrwt beam="2">  1       21 0.21679135E+00 0.12499782E+03</pdfrwt>
<totfact> 0.15352810E+06</totfact>
</mgrwt>
</event>
<event>
 5    0  0.1222151E+000  0.1250039E+03  0.7546771E-02  0.1235063E+00
         21   -1    0    0  503  502  0.00000000000E+00  0.00000000000E+00  0.39297385349E+01  0.39297385349E+01  0.00000000000E+00 0. -1.
         21   -1    0    0  502  503 -0.00000000000E+00 -0.00000000000E+00 -0.99408561225E+03  0.99408561225E+03  0.00000000000E+00 0. -1.
         25    2    1    2    0    0  0.00000000000E+00  0.00000000000E+00 -0.99015587372E+03  0.99801535079E+03  0.12500394454E+03 0.  0.
          4    1    3    3  501    0  0.22374839397E+00  0.26687778136E+02 -0.94613530275E+03  0.94651291654E+03  0.15500000000E+01 0. -1.
         -4    1    3    3    0  501 -0.22374839397E+00 -0.26687778136E+02 -0.44020570966E+02  0.51502434246E+02  0.15500000000E+01 0. -1.
<mgrwt>
<rscale>  2 0.12500394E+03</rscale>
<asrwt>0</asrwt>
<pdfrwt beam="1">  1       21 0.60457489E-03 0.12500394E+03</pdfrwt>
<pdfrwt beam="2">  1       21 0.15293632E+00 0.12500394E+03</pdfrwt>
<totfact> 0.23666005E+06</totfact>
</mgrwt>
</event>
<event>
 5    0  0.1550641E+000  0.1249986E+03  0.7546771E-02  0.1235071E+00
         21   -1    0    0  503  502  0.00000000000E+00  0.00000000000E+00  0.28573808933E+02  0.28573808933E+02  0.00000000000E+00 0.  1.
         21   -1    0    0  502  503 -0.00000000000E+00 -0.00000000000E+00 -0.13670426001E+03  0.13670426001E+03  0.00000000000E+00 0.  1.
         25    2    1    2    0    0  0.00000000000E+00  0.00000000000E+00 -0.10813045108E+03  0.16527806895E+03  0.12499858249E+03 0.  0.
          4    1    3    3  501    0  0.58268492488E+02 -0.22210636976E+02 -0.48905221629E+02  0.79263187006E+02  0.15500000000E+01 0. -1.
         -4    1    3    3    0  501 -0.58268492488E+02  0.22210636976E+02 -0.59225229453E+02  0.86014881942E+02  0.15500000000E+01 0. -1.
<mgrwt>
<rscale>  2 0.12499858E+03</rscale>
<asrwt>0</asrwt>
<pdfrwt beam="1">  1       21 0.43959707E-02 0.12499858E+03</pdfrwt>
<pdfrwt beam="2">  1       21 0.21031424E-01 0.12499858E+03</pdfrwt>
<totfact> 0.68882737E+06</totfact>
</mgrwt>
</event>
<event>
 5    0  0.1552338E+000  0.1249994E+03  0.7546771E-02  0.1235070E+00
         21   -1    0    0  503  502  0.00000000000E+00  0.00000000000E+00  0.62192906981E+02  0.62192906981E+02  0.00000000000E+00 0.  1.
         21   -1    0    0  502  503 -0.00000000000E+00 -0.00000000000E+00 -0.62808020467E+02  0.62808020467E+02  0.00000000000E+00 0.  1.
         25    2    1    2    0    0  0.00000000000E+00  0.00000000000E+00 -0.61511348567E+00  0.12500092745E+03  0.12499941399E+03 0.  0.
          4    1    3    3  501    0 -0.44990281235E+02  0.36747464092E+01  0.42892291618E+02  0.62287882827E+02  0.15500000000E+01 0.  1.
         -4    1    3    3    0  501  0.44990281235E+02 -0.36747464092E+01 -0.43507405104E+02  0.62713044621E+02  0.15500000000E+01 0.  1.
<mgrwt>
<rscale>  2 0.12499941E+03</rscale>
<asrwt>0</asrwt>
<pdfrwt beam="1">  1       21 0.95681395E-02 0.12499941E+03</pdfrwt>
<pdfrwt beam="2">  1       21 0.96627724E-02 0.12499941E+03</pdfrwt>
<totfact> 0.74044566E+06</totfact>
</mgrwt>
</event>
<event>
 5    0  0.1454711E+000  0.1249982E+03  0.7546771E-02  0.1235072E+00
         21   -1    0    0  503  502  0.00000000000E+00  0.00000000000E+00  0.11127637257E+02  0.11127637257E+02  0.00000000000E+00 0.  1.
         21   -1    0    0  502  503 -0.00000000000E+00 -0.00000000000E+00 -0.35103045223E+03  0.35103045223E+03  0.00000000000E+00 0.  1.
         25    2    1    2    0    0  0.00000000000E+00  0.00000000000E+00 -0.33990281498E+03  0.36215808949E+03  0.12499823261E+03 0.  0.
          4    1    3    3  501    0  0.33671768411E+02  0.46466593840E+02 -0.24155676309E+03  0.24828412077E+03  0.15500000000E+01 0. -1.
         -4    1    3    3    0  501 -0.33671768411E+02 -0.46466593840E+02 -0.98346051885E+02  0.11387396872E+03  0.15500000000E+01 0. -1.
<mgrwt>
<rscale>  2 0.12499823E+03</rscale>
<asrwt>0</asrwt>
<pdfrwt beam="1">  1       21 0.17119444E-02 0.12499823E+03</pdfrwt>
<pdfrwt beam="2">  1       21 0.54004679E-01 0.12499823E+03</pdfrwt>
<totfact> 0.50655111E+06</totfact>
</mgrwt>
</event>
<event>
 5    0  0.1222151E+000  0.1250109E+03  0.7546771E-02  0.1235052E+00
         21   -1    0    0  503  502  0.00000000000E+00  0.00000000000E+00  0.11031696063E+04  0.11031696063E+04  0.00000000000E+00 0. -1.
         21   -1    0    0  502  503 -0.00000000000E+00 -0.00000000000E+00 -0.35415492924E+01  0.35415492924E+01  0.00000000000E+00 0. -1.
         25    2    1    2    0    0  0.00000000000E+00  0.00000000000E+00  0.10996280570E+04  0.11067111556E+04  0.12501087214E+03 0.  0.
          4    1    3    3  501    0  0.13869182820E-01  0.53050313871E+02  0.84212008075E+03  0.84379083243E+03  0.15500000000E+01 0. -1.
         -4    1    3    3    0  501 -0.13869182820E-01 -0.53050313871E+02  0.25750797624E+03  0.26292032314E+03  0.15500000000E+01 0. -1.
<mgrwt>
<rscale>  2 0.12501087E+03</rscale>
<asrwt>0</asrwt>
<pdfrwt beam="1">  1       21 0.16971813E+00 0.12501087E+03</pdfrwt>
<pdfrwt beam="2">  1       21 0.54485462E-03 0.12501087E+03</pdfrwt>
<totfact> 0.21097128E+06</totfact>
</mgrwt>
</event>
<event>
 5    0  0.1527668E+000  0.1249980E+03  0.7546771E-02  0.1235072E+00
         21   -1    0    0  503  502  0.00000000000E+00  0.00000000000E+00  0.15285986112E+03  0.15285986112E+03  0.00000000000E+00 0.  1.
         21   -1    0    0  502  503 -0.00000000000E+00 -0.00000000000E+00 -0.25553651913E+02  0.25553651913E+02  0.00000000000E+00 0.  1.
         25    2    1    2    0    0  0.00000000000E+00  0.00000000000E+00  0.12730620921E+03  0.17841351303E+03  0.12499804291E+03 0.  0.
          4    1    3    3  501    0  0.32570958482E+02  0.42201639319E+02  0.17141411733E+02  0.56018534378E+02  0.15500000000E+01 0.  1.
         -4    1    3    3    0  501 -0.32570958482E+02 -0.42201639319E+02  0.11016479747E+03  0.12239497866E+03  0.15500000000E+01 0.  1.
<mgrwt>
<rscale>  2 0.12499804E+03</rscale>
<asrwt>0</asrwt>
<pdfrwt beam="1">  1       21 0.23516901E-01 0.12499804E+03</pdfrwt>
<pdfrwt beam="2">  1       21 0.39313312E-02 0.12499804E+03</pdfrwt>
<totfact> 0.67337344E+06</totfact>
</mgrwt>
</event>
<event>
 5    0  0.1619222E+000  0.1250070E+03  0.7546771E-02  0.1235058E+00
         21   -1    0    0  503  502  0.00000000000E+00  0.00000000000E+00  0.47815246087E+02  0.47815246087E+02  0.00000000000E+00 0.  1.
         21   -1    0    0  502  503 -0.00000000000E+00 -0.00000000000E+00 -0.81703846354E+02  0.81703846354E+02  0.00000000000E+00 0.  1.
         25    2    1    2    0    0  0.00000000000E+00  0.00000000000E+00 -0.33888600267E+02  0.12951909244E+03  0.12500703212E+03 0.  0.
          4    1    3    3  501    0  0.35186208653E+02  0.50501280418E+02 -0.57929961659E+01  0.61841813587E+02  0.15500000000E+01 0.  1.
         -4    1    3    3    0  501 -0.35186208653E+02 -0.50501280418E+02 -0.28095604101E+02  0.67677278853E+02  0.15500000000E+01 0.  1.
<mgrwt>
<rscale>  2 0.12500703E+03</rscale>
<asrwt>0</asrwt>
<pdfrwt beam="1">  1       21 0.73561918E-02 0.12500703E+03</pdfrwt>
<pdfrwt beam="2">  1       21 0.12569822E-01 0.12500703E+03</pdfrwt>
<totfact> 0.73416077E+06</totfact>
</mgrwt>
</event>
<event>
 5    0  0.1363730E+000  0.1249983E+03  0.7546771E-02  0.1235072E+00
         21   -1    0    0  503  502  0.00000000000E+00  0.00000000000E+00  0.10412414583E+02  0.10412414583E+02  0.00000000000E+00 0. -1.
         21   -1    0    0  502  503 -0.00000000000E+00 -0.00000000000E+00 -0.37514276778E+03  0.37514276778E+03  0.00000000000E+00 0. -1.
         25    2    1    2    0    0  0.00000000000E+00  0.00000000000E+00 -0.36473035320E+03  0.38555518236E+03  0.12499827240E+03 0.  0.
          4    1    3    3  501    0  0.13179242451E+02 -0.48123958636E+02 -0.66373329832E+02  0.83050763027E+02  0.15500000000E+01 0. -1.
         -4    1    3    3    0  501 -0.13179242451E+02  0.48123958636E+02 -0.29835702336E+03  0.30250441934E+03  0.15500000000E+01 0. -1.
<mgrwt>
<rscale>  2 0.12499827E+03</rscale>
<asrwt>0</asrwt>
<pdfrwt beam="1">  1       21 0.16019102E-02 0.12499827E+03</pdfrwt>
<pdfrwt beam="2">  1       21 0.57714263E-01 0.12499827E+03</pdfrwt>
<totfact> 0.49016574E+06</totfact>
</mgrwt>
</event>
<event>
 5    0  0.1509793E+000  0.1250002E+03  0.7546771E-02  0.1235069E+00
         21   -1    0    0  503  502  0.00000000000E+00  0.00000000000E+00  0.25323015862E+02  0.25323015862E+02  0.00000000000E+00 0. -1.
         21   -1    0    0  502  503 -0.00000000000E+00 -0.00000000000E+00 -0.15425734405E+03  0.15425734405E+03  0.00000000000E+00 0. -1.
         25    2    1    2    0    0  0.00000000000E+00  0.00000000000E+00 -0.12893432819E+03  0.17958035991E+03  0.12500017872E+03 0.  0.
          4    1    3    3  501    0  0.50151939093E+02  0.25886500142E+02 -0.25957396834E+02  0.62141104229E+02  0.15500000000E+01 0. -1.
         -4    1    3    3    0  501 -0.50151939093E+02 -0.25886500142E+02 -0.10297693136E+03  0.11743925569E+03  0.15500000000E+01 0. -1.
<mgrwt>
<rscale>  2 0.12500018E+03</rscale>
<asrwt>0</asrwt>
<pdfrwt beam="1">  1       21 0.38958486E-02 0.12500018E+03</pdfrwt>
<pdfrwt beam="2">  1       21 0.23731899E-01 0.12500018E+03</pdfrwt>
<totfact> 0.67199404E+06</totfact>
</mgrwt>
</event>
<event>
 5    0  0.1458312E+000  0.1249959E+03  0.7546771E-02  0.1235076E+00
         21   -1    0    0  503  502  0.00000000000E+00  0.00000000000E+00  0.15421248639E+02  0.15421248639E+02  0.00000000000E+00 0.  1.
         21   -1    0    0  502  503 -0.00000000000E+00 -0.00000000000E+00 -0.25328664266E+03  0.25328664266E+03  0.00000000000E+00 0.  1.
         25    2    1    2    0    0  0.00000000000E+00  0.00000000000E+00 -0.23786539402E+03  0.26870789130E+03  0.12499594063E+03 0.  0.
          4    1    3    3  501    0 -0.41087688062E+02  0.25968599026E+02 -0.34542944567E+02  0.59650513536E+02  0.15500000000E+01 0. -1.
         -4    1    3    3    0  501  0.41087688062E+02 -0.25968599026E+02 -0.20332244946E+03  0.20905737777E+03  0.15500000000E+01 0. -1.
<mgrwt>
<rscale>  2 0.12499594E+03</rscale>
<asrwt>0</asrwt>
<pdfrwt beam="1">  1       21 0.23725000E-02 0.12499594E+03</pdfrwt>
<pdfrwt beam="2">  1       21 0.38967173E-01 0.12499594E+03</pdfrwt>
<totfact> 0.58166169E+06</totfact>
</mgrwt>
</event>
<event>
 4    0  0.1965362E+000  0.1248419E+03  0.7546771E-02  0.1235317E+00
         21   -1    0    0  503  502  0.00000000000E+00  0.00000000000E+00  0.67361464713E+02  0.67361464713E+02  0.00000000000E+00 0. -1.
         21   -1    0    0  502  503 -0.00000000000E+00 -0.00000000000E+00 -0.57842783130E+02  0.57842783130E+02  0.00000000000E+00 0. -1.
          4    1    1    2  501    0  0.61729139210E+02 -0.86512731513E+01  0.18112611509E+01  0.62377995492E+02  0.15500000000E+01 0.  1.
         -4    1    1    2    0  501 -0.61729139210E+02  0.86512731513E+01  0.77074204327E+01  0.62826252351E+02  0.15500000000E+01 0.  1.
<mgrwt>
<rscale>  2 0.12484189E+03</rscale>
<asrwt>0</asrwt>
<pdfrwt beam="1">  1       21 0.10363302E-01 0.12484189E+03</pdfrwt>
<pdfrwt beam="2">  1       21 0.88988897E-02 0.12484189E+03</pdfrwt>
<totfact> 0.74315925E+06</totfact>
</mgrwt>
</event>
<event>
 5    0  0.1400139E+000  0.1249976E+03  0.7546771E-02  0.1235073E+00
         21   -1    0    0  503  502  0.00000000000E+00  0.00000000000E+00  0.55946592899E+03  0.55946592899E+03  0.00000000000E+00 0. -1.
         21   -1    0    0  502  503 -0.00000000000E+00 -0.00000000000E+00 -0.69818338113E+01  0.69818338113E+01  0.00000000000E+00 0. -1.
         25    2    1    2    0    0  0.00000000000E+00  0.00000000000E+00  0.55248409518E+03  0.56644776280E+03  0.12499757021E+03 0.  0.
          4    1    3    3  501    0 -0.54964826997E+02  0.26399861754E+02  0.33798108250E+03  0.34344096951E+03  0.15500000000E+01 0.  1.
         -4    1    3    3    0  501  0.54964826997E+02 -0.26399861754E+02  0.21450301268E+03  0.22300679329E+03  0.15500000000E+01 0.  1.
<mgrwt>
<rscale>  2 0.12499757E+03</rscale>
<asrwt>0</asrwt>
<pdfrwt beam="1">  1       21 0.86071646E-01 0.12499757E+03</pdfrwt>
<pdfrwt beam="2">  1       21 0.10741287E-02 0.12499757E+03</pdfrwt>
<totfact> 0.38657670E+06</totfact>
</mgrwt>
</event>
<event>
 5    0  0.1494517E+000  0.1250044E+03  0.7546771E-02  0.1235062E+00
         21   -1    0    0  503  502  0.00000000000E+00  0.00000000000E+00  0.44901569829E+02  0.44901569829E+02  0.00000000000E+00 0. -1.
         21   -1    0    0  502  503 -0.00000000000E+00 -0.00000000000E+00 -0.87001950897E+02  0.87001950897E+02  0.00000000000E+00 0. -1.
         25    2    1    2    0    0  0.00000000000E+00  0.00000000000E+00 -0.42100381068E+02  0.13190352073E+03  0.12500438670E+03 0.  0.
          4    1    3    3  501    0  0.83584707269E+01 -0.47101298749E+02 -0.63464743725E+02  0.79489449443E+02  0.15500000000E+01 0. -1.
         -4    1    3    3    0  501 -0.83584707269E+01  0.47101298749E+02  0.21364362657E+02  0.52414071283E+02  0.15500000000E+01 0. -1.
<mgrwt>
<rscale>  2 0.12500439E+03</rscale>
<asrwt>0</asrwt>
<pdfrwt beam="1">  1       21 0.69079340E-02 0.12500439E+03</pdfrwt>
<pdfrwt beam="2">  1       21 0.13384915E-01 0.12500439E+03</pdfrwt>
<totfact> 0.73100992E+06</totfact>
</mgrwt>
</event>
<event>
 5    0  0.1389479E+000  0.1249966E+03  0.7546771E-02  0.1235075E+00
         21   -1    0    0  503  502  0.00000000000E+00  0.00000000000E+00  0.44764462307E+03  0.44764462307E+03  0.00000000000E+00 0.  1.
         21   -1    0    0  502  503 -0.00000000000E+00 -0.00000000000E+00 -0.87257520509E+01  0.87257520509E+01  0.00000000000E+00 0.  1.
         25    2    1    2    0    0  0.00000000000E+00  0.00000000000E+00  0.43891887102E+03  0.45637037512E+03  0.12499657576E+03 0.  0.
          4    1    3    3  501    0  0.57222893630E+02  0.25033400650E+02  0.22523548680E+03  0.23374036390E+03  0.15500000000E+01 0.  1.
         -4    1    3    3    0  501 -0.57222893630E+02 -0.25033400650E+02  0.21368338422E+03  0.22263001122E+03  0.15500000000E+01 0.  1.
<mgrwt>
<rscale>  2 0.12499658E+03</rscale>
<asrwt>0</asrwt>
<pdfrwt beam="1">  1       21 0.68868386E-01 0.12499658E+03</pdfrwt>
<pdfrwt beam="2">  1       21 0.13424237E-02 0.12499658E+03</pdfrwt>
<totfact> 0.44517325E+06</totfact>
</mgrwt>
</event>
<event>
 5    0  0.1222151E+000  0.1249987E+03  0.7546771E-02  0.1235071E+00
         21   -1    0    0  503  502  0.00000000000E+00  0.00000000000E+00  0.18228784609E+04  0.18228784609E+04  0.00000000000E+00 0. -1.
         21   -1    0    0  502  503 -0.00000000000E+00 -0.00000000000E+00 -0.21428582209E+01  0.21428582209E+01  0.00000000000E+00 0. -1.
         25    2    1    2    0    0  0.00000000000E+00  0.00000000000E+00  0.18207356027E+04  0.18250213192E+04  0.12499872152E+03 0.  0.
          4    1    3    3  501    0  0.51861293629E+02 -0.33206273612E+02  0.75618592676E+03  0.75869085187E+03  0.15500000000E+01 0. -1.
         -4    1    3    3    0  501 -0.51861293629E+02  0.33206273612E+02  0.10645496760E+04  0.10663304673E+04  0.15500000000E+01 0. -1.
<mgrwt>
<rscale>  2 0.12499872E+03</rscale>
<asrwt>0</asrwt>
<pdfrwt beam="1">  1       21 0.28044160E+00 0.12499872E+03</pdfrwt>
<pdfrwt beam="2">  1       21 0.32967195E-03 0.12499872E+03</pdfrwt>
<totfact> 0.97853885E+05</totfact>
</mgrwt>
</event>
<event>
 5    0  0.1442435E+000  0.1250064E+03  0.7546771E-02  0.1235059E+00
         21   -1    0    0  503  502  0.00000000000E+00  0.00000000000E+00  0.37689511829E+02  0.37689511829E+02  0.00000000000E+00 0. -1.
         21   -1    0    0  502  503 -0.00000000000E+00 -0.00000000000E+00 -0.10365342615E+03  0.10365342615E+03  0.00000000000E+00 0. -1.
         25    2    1    2    0    0  0.00000000000E+00  0.00000000000E+00 -0.65963914321E+02  0.14134293798E+03  0.12500635234E+03 0.  0.
          4    1    3    3  501    0  0.31064670253E+02 -0.45355870123E+02  0.59914877420E+00  0.54999365195E+02  0.15500000000E+01 0. -1.
         -4    1    3    3    0  501 -0.31064670253E+02  0.45355870123E+02 -0.66563063095E+02  0.86343572785E+02  0.15500000000E+01 0. -1.
<mgrwt>
<rscale>  2 0.12500635E+03</rscale>
<asrwt>0</asrwt>
<pdfrwt beam="1">  1       21 0.57983864E-02 0.12500635E+03</pdfrwt>
<pdfrwt beam="2">  1       21 0.15946681E-01 0.12500635E+03</pdfrwt>
<totfact> 0.71852844E+06</totfact>
</mgrwt>
</event>
<event>
 5    0  0.1425814E+000  0.1249977E+03  0.7546771E-02  0.1235073E+00
         21   -1    0    0  503  502  0.00000000000E+00  0.00000000000E+00  0.31634964857E+03  0.31634964857E+03  0.00000000000E+00 0.  1.
         21   -1    0    0  502  503 -0.00000000000E+00 -0.00000000000E+00 -0.12347438120E+02  0.12347438120E+02  0.00000000000E+00 0.  1.
         25    2    1    2    0    0  0.00000000000E+00  0.00000000000E+00  0.30400221045E+03  0.32869708669E+03  0.12499772334E+03 0.  0.
          4    1    3    3  501    0 -0.26763301331E+02  0.48140131436E+02  0.22956204435E+03  0.23608236118E+03  0.15500000000E+01 0. -1.
         -4    1    3    3    0  501  0.26763301331E+02 -0.48140131436E+02  0.74440166102E+02  0.92614725515E+02  0.15500000000E+01 0. -1.
<mgrwt>
<rscale>  2 0.12499772E+03</rscale>
<asrwt>0</asrwt>
<pdfrwt beam="1">  1       21 0.48669171E-01 0.12499772E+03</pdfrwt>
<pdfrwt beam="2">  1       21 0.18996061E-02 0.12499772E+03</pdfrwt>
<totfact> 0.53154297E+06</totfact>
</mgrwt>
</event>
<event>
 5    0  0.1222151E+000  0.1250001E+03  0.7546771E-02  0.1235069E+00
         21   -1    0    0  503  502  0.00000000000E+00  0.00000000000E+00  0.13165307437E+04  0.13165307437E+04  0.00000000000E+00 0.  1.
         21   -1    0    0  502  503 -0.00000000000E+00 -0.00000000000E+00 -0.29670846512E+01  0.29670846512E+01  0.00000000000E+00 0.  1.
         25    2    1    2    0    0  0.00000000000E+00  0.00000000000E+00  0.13135636590E+04  0.13194978283E+04  0.12500013060E+03 0.  0.
          4    1    3    3  501    0 -0.30327212568E+02  0.24350741621E+00  0.80145849711E+02  0.85706235735E+02  0.15500000000E+01 0.  1.
         -4    1    3    3    0  501  0.30327212568E+02 -0.24350741621E+00  0.12334178093E+04  0.12337915926E+04  0.15500000000E+01 0.  1.
<mgrwt>
<rscale>  2 0.12500013E+03</rscale>
<asrwt>0</asrwt>
<pdfrwt beam="1">  1       21 0.20254272E+00 0.12500013E+03</pdfrwt>
<pdfrwt beam="2">  1       21 0.45647561E-03 0.12500013E+03</pdfrwt>
<totfact> 0.16905848E+06</totfact>
</mgrwt>
</event>
<event>
 5    0  0.1222151E+000  0.1249988E+03  0.7546771E-02  0.1235071E+00
         21   -1    0    0  503  502  0.00000000000E+00  0.00000000000E+00  0.13535981486E+04  0.13535981486E+04  0.00000000000E+00 0.  1.
         21   -1    0    0  502  503 -0.00000000000E+00 -0.00000000000E+00 -0.28857704654E+01  0.28857704654E+01  0.00000000000E+00 0.  1.
         25    2    1    2    0    0  0.00000000000E+00  0.00000000000E+00  0.13507123781E+04  0.13564839190E+04  0.12499877694E+03 0.  0.
          4    1    3    3  501    0 -0.12916964104E+02  0.23406731918E+02  0.62527040438E+02  0.68020264235E+02  0.15500000000E+01 0.  1.
         -4    1    3    3    0  501  0.12916964104E+02 -0.23406731918E+02  0.12881853377E+04  0.12884636548E+04  0.15500000000E+01 0.  1.
<mgrwt>
<rscale>  2 0.12499878E+03</rscale>
<asrwt>0</asrwt>
<pdfrwt beam="1">  1       21 0.20824536E+00 0.12499878E+03</pdfrwt>
<pdfrwt beam="2">  1       21 0.44396577E-03 0.12499878E+03</pdfrwt>
<totfact> 0.16268216E+06</totfact>
</mgrwt>
</event>
<event>
 5    0  0.1222151E+000  0.1250028E+03  0.7546771E-02  0.1235065E+00
         21   -1    0    0  503  502  0.00000000000E+00  0.00000000000E+00  0.94105885183E+03  0.94105885183E+03  0.00000000000E+00 0.  1.
         21   -1    0    0  502  503 -0.00000000000E+00 -0.00000000000E+00 -0.41510960230E+01  0.41510960230E+01  0.00000000000E+00 0.  1.
         25    2    1    2    0    0  0.00000000000E+00  0.00000000000E+00  0.93690775581E+03  0.94520994786E+03  0.12500281048E+03 0.  0.
          4    1    3    3  501    0 -0.44207561686E+02  0.44129007177E+02  0.48003403443E+03  0.48408341688E+03  0.15500000000E+01 0.  1.
         -4    1    3    3    0  501  0.44207561686E+02 -0.44129007177E+02  0.45687372138E+03  0.46112653097E+03  0.15500000000E+01 0.  1.
<mgrwt>
<rscale>  2 0.12500281E+03</rscale>
<asrwt>0</asrwt>
<pdfrwt beam="1">  1       21 0.14477812E+00 0.12500281E+03</pdfrwt>
<pdfrwt beam="2">  1       21 0.63863091E-03 0.12500281E+03</pdfrwt>
<totfact> 0.25038381E+06</totfact>
</mgrwt>
</event>
<event>
 5    0  0.1393505E+000  0.1249927E+03  0.7546771E-02  0.1235081E+00
         21   -1    0    0  503  502  0.00000000000E+00  0.00000000000E+00  0.94325702701E+01  0.94325702701E+01  0.00000000000E+00 0. -1.
         21   -1    0    0  502  503 -0.00000000000E+00 -0.00000000000E+00 -0.41407498612E+03  0.41407498612E+03  0.00000000000E+00 0. -1.
         25    2    1    2    0    0  0.00000000000E+00  0.00000000000E+00 -0.40464241585E+03  0.42350755639E+03  0.12499266224E+03 0.  0.
          4    1    3    3  501    0  0.37178734354E+02 -0.48583273914E+02 -0.15935624750E+03  0.17070269157E+03  0.15500000000E+01 0.  1.
         -4    1    3    3    0  501 -0.37178734354E+02  0.48583273914E+02 -0.24528616836E+03  0.25280486483E+03  0.15500000000E+01 0.  1.
<mgrwt>
<rscale>  2 0.12499266E+03</rscale>
<asrwt>0</asrwt>
<pdfrwt beam="1">  1       21 0.14511645E-02 0.12499266E+03</pdfrwt>
<pdfrwt beam="2">  1       21 0.63703851E-01 0.12499266E+03</pdfrwt>
<totfact> 0.46528751E+06</totfact>
</mgrwt>
</event>
<event>
 5    0  0.1380255E+000  0.1250046E+03  0.7546771E-02  0.1235062E+00
         21   -1    0    0  503  502  0.00000000000E+00  0.00000000000E+00  0.21102485057E+03  0.21102485057E+03  0.00000000000E+00 0. -1.
         21   -1    0    0  502  503 -0.00000000000E+00 -0.00000000000E+00 -0.18512213974E+02  0.18512213974E+02  0.00000000000E+00 0. -1.
         25    2    1    2    0    0  0.00000000000E+00  0.00000000000E+00  0.19251263660E+03  0.22953706454E+03  0.12500459492E+03 0.  0.
          4    1    3    3  501    0 -0.54025757709E+02 -0.46399018983E+01  0.39249657562E+02  0.66957070608E+02  0.15500000000E+01 0.  1.
         -4    1    3    3    0  501  0.54025757709E+02  0.46399018983E+01  0.15326297903E+03  0.16257999393E+03  0.15500000000E+01 0.  1.
<mgrwt>
<rscale>  2 0.12500459E+03</rscale>
<asrwt>0</asrwt>
<pdfrwt beam="1">  1       21 0.32465360E-01 0.12500459E+03</pdfrwt>
<pdfrwt beam="2">  1       21 0.28480331E-02 0.12500459E+03</pdfrwt>
<totfact> 0.61852905E+06</totfact>
</mgrwt>
</event>
<event>
 5    0  0.1520513E+000  0.1250014E+03  0.7546771E-02  0.1235067E+00
         21   -1    0    0  503  502  0.00000000000E+00  0.00000000000E+00  0.77275444250E+02  0.77275444250E+02  0.00000000000E+00 0.  1.
         21   -1    0    0  502  503 -0.00000000000E+00 -0.00000000000E+00 -0.50550854682E+02  0.50550854682E+02  0.00000000000E+00 0.  1.
         25    2    1    2    0    0  0.00000000000E+00  0.00000000000E+00  0.26724589568E+02  0.12782629893E+03  0.12500143604E+03 0.  0.
          4    1    3    3  501    0  0.58005764520E+02  0.92967585426E+01 -0.83986143409E+01  0.59363605515E+02  0.15500000000E+01 0.  1.
         -4    1    3    3    0  501 -0.58005764520E+02 -0.92967585426E+01  0.35123203909E+02  0.68462693416E+02  0.15500000000E+01 0.  1.
<mgrwt>
<rscale>  2 0.12500144E+03</rscale>
<asrwt>0</asrwt>
<pdfrwt beam="1">  1       21 0.11888530E-01 0.12500144E+03</pdfrwt>
<pdfrwt beam="2">  1       21 0.77770546E-02 0.12500144E+03</pdfrwt>
<totfact> 0.73654337E+06</totfact>
</mgrwt>
</event>
<event>
 5    0  0.1528946E+000  0.1250005E+03  0.7546771E-02  0.1235069E+00
         21   -1    0    0  503  502  0.00000000000E+00  0.00000000000E+00  0.10990476330E+03  0.10990476330E+03  0.00000000000E+00 0. -1.
         21   -1    0    0  502  503 -0.00000000000E+00 -0.00000000000E+00 -0.35542413365E+02  0.35542413365E+02  0.00000000000E+00 0. -1.
         25    2    1    2    0    0  0.00000000000E+00  0.00000000000E+00  0.74362349933E+02  0.14544717666E+03  0.12500048845E+03 0.  0.
          4    1    3    3  501    0 -0.55536607343E+02 -0.26458588670E+02  0.24461116967E+02  0.66220241715E+02  0.15500000000E+01 0.  1.
         -4    1    3    3    0  501  0.55536607343E+02  0.26458588670E+02  0.49901232966E+02  0.79226934947E+02  0.15500000000E+01 0.  1.
<mgrwt>
<rscale>  2 0.12500049E+03</rscale>
<asrwt>0</asrwt>
<pdfrwt beam="1">  1       21 0.16908425E-01 0.12500049E+03</pdfrwt>
<pdfrwt beam="2">  1       21 0.54680636E-02 0.12500049E+03</pdfrwt>
<totfact> 0.71335033E+06</totfact>
</mgrwt>
</event>
<event>
 5    0  0.1611100E+000  0.1250087E+03  0.7546771E-02  0.1235056E+00
         21   -1    0    0  503  502  0.00000000000E+00  0.00000000000E+00  0.85161655757E+02  0.85161655757E+02  0.00000000000E+00 0. -1.
         21   -1    0    0  502  503 -0.00000000000E+00 -0.00000000000E+00 -0.45875011493E+02  0.45875011493E+02  0.00000000000E+00 0. -1.
         25    2    1    2    0    0  0.00000000000E+00  0.00000000000E+00  0.39286644263E+02  0.13103666725E+03  0.12500867069E+03 0.  0.
          4    1    3    3  501    0 -0.53745443010E+02  0.30381787047E+02  0.29739151139E+02  0.68545205806E+02  0.15500000000E+01 0.  1.
         -4    1    3    3    0  501  0.53745443010E+02 -0.30381787047E+02  0.95474931246E+01  0.62491461444E+02  0.15500000000E+01 0.  1.
<mgrwt>
<rscale>  2 0.12500867E+03</rscale>
<asrwt>0</asrwt>
<pdfrwt beam="1">  1       21 0.13101793E-01 0.12500867E+03</pdfrwt>
<pdfrwt beam="2">  1       21 0.70576941E-02 0.12500867E+03</pdfrwt>
<totfact> 0.73209535E+06</totfact>
</mgrwt>
</event>
<event>
 5    0  0.1419941E+000  0.1249963E+03  0.7546771E-02  0.1235075E+00
         21   -1    0    0  503  502  0.00000000000E+00  0.00000000000E+00  0.32558464338E+03  0.32558464338E+03  0.00000000000E+00 0.  1.
         21   -1    0    0  502  503 -0.00000000000E+00 -0.00000000000E+00 -0.11996931999E+02  0.11996931999E+02  0.00000000000E+00 0.  1.
         25    2    1    2    0    0  0.00000000000E+00  0.00000000000E+00  0.31358771138E+03  0.33758157538E+03  0.12499626917E+03 0.  0.
          4    1    3    3  501    0 -0.47118447979E+02 -0.25304677816E+02  0.69566466532E+02  0.87763150724E+02  0.15500000000E+01 0. -1.
         -4    1    3    3    0  501  0.47118447979E+02  0.25304677816E+02  0.24402124485E+03  0.24981842465E+03  0.15500000000E+01 0. -1.
<mgrwt>
<rscale>  2 0.12499627E+03</rscale>
<asrwt>0</asrwt>
<pdfrwt beam="1">  1       21 0.50089938E-01 0.12499627E+03</pdfrwt>
<pdfrwt beam="2">  1       21 0.18456821E-02 0.12499627E+03</pdfrwt>
<totfact> 0.52473762E+06</totfact>
</mgrwt>
</event>
<event>
 5    0  0.1222151E+000  0.1249425E+03  0.7546771E-02  0.1235159E+00
         21   -1    0    0  503  502  0.00000000000E+00  0.00000000000E+00  0.10897083001E+02  0.10897083001E+02  0.00000000000E+00 0. -1.
         21   -1    0    0  502  503 -0.00000000000E+00 -0.00000000000E+00 -0.35813788732E+03  0.35813788732E+03  0.00000000000E+00 0. -1.
         25    2    1    2    0    0  0.00000000000E+00  0.00000000000E+00 -0.34724080432E+03  0.36903497032E+03  0.12494251932E+03 0.  0.
          4    1    3    3  501    0  0.27653386517E+02 -0.29287583388E+02 -0.32654692833E+02  0.51876813612E+02  0.15500000000E+01 0.  1.
         -4    1    3    3    0  501 -0.27653386517E+02  0.29287583388E+02 -0.31458611148E+03  0.31715815670E+03  0.15500000000E+01 0.  1.
<mgrwt>
<rscale>  2 0.12494252E+03</rscale>
<asrwt>0</asrwt>
<pdfrwt beam="1">  1       21 0.16764747E-02 0.12494252E+03</pdfrwt>
<pdfrwt beam="2">  1       21 0.55098124E-01 0.12494252E+03</pdfrwt>
<totfact> 0.50234879E+06</totfact>
</mgrwt>
</event>
<event>
 5    0  0.1259607E+000  0.1249828E+03  0.7546771E-02  0.1235096E+00
         21   -1    0    0  503  502  0.00000000000E+00  0.00000000000E+00  0.46156357778E+03  0.46156357778E+03  0.00000000000E+00 0. -1.
         21   -1    0    0  502  503 -0.00000000000E+00 -0.00000000000E+00 -0.84607526852E+01  0.84607526852E+01  0.00000000000E+00 0. -1.
         25    2    1    2    0    0  0.00000000000E+00  0.00000000000E+00  0.45310282510E+03  0.47002433047E+03  0.12498280330E+03 0.  0.
          4    1    3    3  501    0 -0.10808773681E+02  0.24303153194E+02  0.43913312119E+03  0.43994064767E+03  0.15500000000E+01 0.  1.
         -4    1    3    3    0  501  0.10808773681E+02 -0.24303153194E+02  0.13969703909E+02  0.30083682803E+02  0.15500000000E+01 0.  1.
<mgrwt>
<rscale>  2 0.12498280E+03</rscale>
<asrwt>0</asrwt>
<pdfrwt beam="1">  1       21 0.71009762E-01 0.12498280E+03</pdfrwt>
<pdfrwt beam="2">  1       21 0.13016546E-02 0.12498280E+03</pdfrwt>
<totfact> 0.43736556E+06</totfact>
</mgrwt>
</event>
<event>
 5    0  0.1359181E+000  0.1250076E+03  0.7546771E-02  0.1235057E+00
         21   -1    0    0  503  502  0.00000000000E+00  0.00000000000E+00  0.27894837154E+03  0.27894837154E+03  0.00000000000E+00 0.  1.
         21   -1    0    0  502  503 -0.00000000000E+00 -0.00000000000E+00 -0.14005190158E+02  0.14005190158E+02  0.00000000000E+00 0.  1.
         25    2    1    2    0    0  0.00000000000E+00  0.00000000000E+00  0.26494318138E+03  0.29295356170E+03  0.12500759957E+03 0.  0.
          4    1    3    3  501    0 -0.48832370535E+02  0.19224582443E+01  0.41225193762E+02  0.63954791521E+02  0.15500000000E+01 0.  1.
         -4    1    3    3    0  501  0.48832370535E+02 -0.19224582443E+01  0.22371798762E+03  0.22899877017E+03  0.15500000000E+01 0.  1.
<mgrwt>
<rscale>  2 0.12500760E+03</rscale>
<asrwt>0</asrwt>
<pdfrwt beam="1">  1       21 0.42915130E-01 0.12500760E+03</pdfrwt>
<pdfrwt beam="2">  1       21 0.21546449E-02 0.12500760E+03</pdfrwt>
<totfact> 0.56036188E+06</totfact>
</mgrwt>
</event>
<event>
 5    0  0.1267194E+000  0.1250001E+03  0.7546771E-02  0.1235069E+00
         21   -1    0    0  503  502  0.00000000000E+00  0.00000000000E+00  0.61003260197E+01  0.61003260197E+01  0.00000000000E+00 0. -1.
         21   -1    0    0  502  503 -0.00000000000E+00 -0.00000000000E+00 -0.64033553698E+03  0.64033553698E+03  0.00000000000E+00 0. -1.
         25    2    1    2    0    0  0.00000000000E+00  0.00000000000E+00 -0.63423521096E+03  0.64643586300E+03  0.12500008860E+03 0.  0.
          4    1    3    3  501    0 -0.43317330744E+01 -0.55433584263E+02 -0.16973424706E+03  0.17861624590E+03  0.15500000000E+01 0.  1.
         -4    1    3    3    0  501  0.43317330744E+01  0.55433584263E+02 -0.46450096390E+03  0.46781961710E+03  0.15500000000E+01 0.  1.
<mgrwt>
<rscale>  2 0.12500009E+03</rscale>
<asrwt>0</asrwt>
<pdfrwt beam="1">  1       21 0.93851240E-03 0.12500009E+03</pdfrwt>
<pdfrwt beam="2">  1       21 0.98513086E-01 0.12500009E+03</pdfrwt>
<totfact> 0.35073140E+06</totfact>
</mgrwt>
</event>
<event>
 4    0  0.1401548E+000  0.1252545E+03  0.7546771E-02  0.1234672E+00
         21   -1    0    0  503  502  0.00000000000E+00  0.00000000000E+00  0.33994685777E+03  0.33994685777E+03  0.00000000000E+00 0.  1.
         21   -1    0    0  502  503 -0.00000000000E+00 -0.00000000000E+00 -0.11537607110E+02  0.11537607110E+02  0.00000000000E+00 0.  1.
          4    1    1    2  501    0  0.47884073136E+02 -0.34089890103E+02  0.22470106167E+03  0.23226703314E+03  0.15500000000E+01 0. -1.
         -4    1    1    2    0  501 -0.47884073136E+02  0.34089890103E+02  0.10370818898E+03  0.11921743173E+03  0.15500000000E+01 0. -1.
<mgrwt>
<rscale>  2 0.12525451E+03</rscale>
<asrwt>0</asrwt>
<pdfrwt beam="1">  1       21 0.52299509E-01 0.12525451E+03</pdfrwt>
<pdfrwt beam="2">  1       21 0.17750167E-02 0.12525451E+03</pdfrwt>
<totfact> 0.51102456E+06</totfact>
</mgrwt>
</event>
<event>
 4    0  0.1829103E+000  0.1248954E+03  0.7546771E-02  0.1235233E+00
         21   -1    0    0  503  502  0.00000000000E+00  0.00000000000E+00  0.11996092704E+02  0.11996092704E+02  0.00000000000E+00 0. -1.
         21   -1    0    0  502  503 -0.00000000000E+00 -0.00000000000E+00 -0.32508224364E+03  0.32508224364E+03  0.00000000000E+00 0. -1.
          4    1    1    2  501    0  0.71235598679E+01 -0.58022199609E+02 -0.97413878118E+02  0.11361860280E+03  0.15500000000E+01 0.  1.
         -4    1    1    2    0  501 -0.71235598679E+01  0.58022199609E+02 -0.21567227282E+03  0.22345973354E+03  0.15500000000E+01 0.  1.
<mgrwt>
<rscale>  2 0.12489542E+03</rscale>
<asrwt>0</asrwt>
<pdfrwt beam="1">  1       21 0.18455530E-02 0.12489542E+03</pdfrwt>
<pdfrwt beam="2">  1       21 0.50012646E-01 0.12489542E+03</pdfrwt>
<totfact> 0.52645002E+06</totfact>
</mgrwt>
</event>
<event>
 5    0  0.1477611E+000  0.1249857E+03  0.7546771E-02  0.1235092E+00
         21   -1    0    0  503  502  0.00000000000E+00  0.00000000000E+00  0.19976415786E+02  0.19976415786E+02  0.00000000000E+00 0.  1.
         21   -1    0    0  502  503 -0.00000000000E+00 -0.00000000000E+00 -0.19549850059E+03  0.19549850059E+03  0.00000000000E+00 0.  1.
         25    2    1    2    0    0  0.00000000000E+00  0.00000000000E+00 -0.17552208480E+03  0.21547491637E+03  0.12498574852E+03 0.  0.
          4    1    3    3  501    0 -0.40993491568E+02  0.45590950370E+02 -0.10844581251E+03  0.12458690885E+03  0.15500000000E+01 0.  1.
         -4    1    3    3    0  501  0.40993491568E+02 -0.45590950370E+02 -0.67076272294E+02  0.90888007523E+02  0.15500000000E+01 0.  1.
<mgrwt>
<rscale>  2 0.12498575E+03</rscale>
<asrwt>0</asrwt>
<pdfrwt beam="1">  1       21 0.30732946E-02 0.12498575E+03</pdfrwt>
<pdfrwt beam="2">  1       21 0.30076693E-01 0.12498575E+03</pdfrwt>
<totfact> 0.63310884E+06</totfact>
</mgrwt>
</event>
<event>
 5    0  0.1346789E+000  0.1250027E+03  0.7546771E-02  0.1235065E+00
         21   -1    0    0  503  502  0.00000000000E+00  0.00000000000E+00  0.13036031566E+02  0.13036031566E+02  0.00000000000E+00 0. -1.
         21   -1    0    0  502  503 -0.00000000000E+00 -0.00000000000E+00 -0.29966333254E+03  0.29966333254E+03  0.00000000000E+00 0. -1.
         25    2    1    2    0    0  0.00000000000E+00  0.00000000000E+00 -0.28662730098E+03  0.31269936411E+03  0.12500273057E+03 0.  0.
          4    1    3    3  501    0 -0.26053268097E+02  0.33697428921E+02 -0.25766793699E+03  0.26116940431E+03  0.15500000000E+01 0.  1.
         -4    1    3    3    0  501  0.26053268097E+02 -0.33697428921E+02 -0.28959363985E+02  0.51529959799E+02  0.15500000000E+01 0.  1.
<mgrwt>
<rscale>  2 0.12500273E+03</rscale>
<asrwt>0</asrwt>
<pdfrwt beam="1">  1       21 0.20055433E-02 0.12500273E+03</pdfrwt>
<pdfrwt beam="2">  1       21 0.46102052E-01 0.12500273E+03</pdfrwt>
<totfact> 0.54413269E+06</totfact>
</mgrwt>
</event>
<event>
 5    0  0.1490979E+000  0.1249561E+03  0.7546771E-02  0.1235138E+00
         21   -1    0    0  503  502  0.00000000000E+00  0.00000000000E+00  0.67386022186E+02  0.67386022186E+02  0.00000000000E+00 0.  1.
         21   -1    0    0  502  503 -0.00000000000E+00 -0.00000000000E+00 -0.57927555720E+02  0.57927555720E+02  0.00000000000E+00 0.  1.
         25    2    1    2    0    0  0.00000000000E+00  0.00000000000E+00  0.94584664660E+01  0.12531357791E+03  0.12495611318E+03 0.  0.
          4    1    3    3  501    0 -0.21464301570E+02  0.21677195875E+02  0.59387332211E+02  0.66782293986E+02  0.15500000000E+01 0. -1.
         -4    1    3    3    0  501  0.21464301570E+02 -0.21677195875E+02 -0.49928865745E+02  0.58531283921E+02  0.15500000000E+01 0. -1.
<mgrwt>
<rscale>  2 0.12495611E+03</rscale>
<asrwt>0</asrwt>
<pdfrwt beam="1">  1       21 0.10367080E-01 0.12495611E+03</pdfrwt>
<pdfrwt beam="2">  1       21 0.89119317E-02 0.12495611E+03</pdfrwt>
<totfact> 0.74084324E+06</totfact>
</mgrwt>
</event>
<event>
 5    0  0.1513232E+000  0.1250378E+03  0.7546771E-02  0.1235010E+00
         21   -1    0    0  503  502  0.00000000000E+00  0.00000000000E+00  0.52143427064E+02  0.52143427064E+02  0.00000000000E+00 0. -1.
         21   -1    0    0  502  503 -0.00000000000E+00 -0.00000000000E+00 -0.74958820464E+02  0.74958820464E+02  0.00000000000E+00 0. -1.
         25    2    1    2    0    0  0.00000000000E+00  0.00000000000E+00 -0.22815393400E+02  0.12710224753E+03  0.12503775090E+03 0.  0.
          4    1    3    3  501    0 -0.42047263189E+02 -0.42871817693E+02 -0.29021288982E+02  0.66712838406E+02  0.15500000000E+01 0. -1.
         -4    1    3    3    0  501  0.42047263189E+02  0.42871817693E+02  0.62058955821E+01  0.60389409121E+02  0.15500000000E+01 0. -1.
<mgrwt>
<rscale>  2 0.12503775E+03</rscale>
<asrwt>0</asrwt>
<pdfrwt beam="1">  1       21 0.80220657E-02 0.12503775E+03</pdfrwt>
<pdfrwt beam="2">  1       21 0.11532126E-01 0.12503775E+03</pdfrwt>
<totfact> 0.73684194E+06</totfact>
</mgrwt>
</event>
<event>
 5    0  0.1565728E+000  0.1249965E+03  0.7546771E-02  0.1235075E+00
         21   -1    0    0  503  502  0.00000000000E+00  0.00000000000E+00  0.18617484904E+03  0.18617484904E+03  0.00000000000E+00 0. -1.
         21   -1    0    0  502  503 -0.00000000000E+00 -0.00000000000E+00 -0.20980461966E+02  0.20980461966E+02  0.00000000000E+00 0. -1.
         25    2    1    2    0    0  0.00000000000E+00  0.00000000000E+00  0.16519438708E+03  0.20715531101E+03  0.12499654938E+03 0.  0.
          4    1    3    3  501    0 -0.58126538201E+02 -0.22144688117E+02  0.92338635146E+02  0.11134589214E+03  0.15500000000E+01 0.  1.
         -4    1    3    3    0  501  0.58126538201E+02  0.22144688117E+02  0.72855751930E+02  0.95809418871E+02  0.15500000000E+01 0.  1.
<mgrwt>
<rscale>  2 0.12499655E+03</rscale>
<asrwt>0</asrwt>
<pdfrwt beam="1">  1       21 0.28642283E-01 0.12499655E+03</pdfrwt>
<pdfrwt beam="2">  1       21 0.32277635E-02 0.12499655E+03</pdfrwt>
<totfact> 0.64165680E+06</totfact>
</mgrwt>
</event>
<event>
 5    0  0.1232819E+000  0.1249913E+03  0.7546771E-02  0.1235083E+00
         21   -1    0    0  503  502  0.00000000000E+00  0.00000000000E+00  0.76911523274E+01  0.76911523274E+01  0.00000000000E+00 0.  1.
         21   -1    0    0  502  503 -0.00000000000E+00 -0.00000000000E+00 -0.50781812992E+03  0.50781812992E+03  0.00000000000E+00 0.  1.
         25    2    1    2    0    0  0.00000000000E+00  0.00000000000E+00 -0.50012697759E+03  0.51550928225E+03  0.12499130517E+03 0.  0.
          4    1    3    3  501    0  0.33927484100E+02  0.20695194801E+02 -0.51239385472E+02  0.64863259159E+02  0.15500000000E+01 0.  1.
         -4    1    3    3    0  501 -0.33927484100E+02 -0.20695194801E+02 -0.44888759212E+03  0.45064602309E+03  0.15500000000E+01 0.  1.
<mgrwt>
<rscale>  2 0.12499131E+03</rscale>
<asrwt>0</asrwt>
<pdfrwt beam="1">  1       21 0.11832535E-02 0.12499131E+03</pdfrwt>
<pdfrwt beam="2">  1       21 0.78125912E-01 0.12499131E+03</pdfrwt>
<totfact> 0.41224172E+06</totfact>
</mgrwt>
</event>
<event>
 5    0  0.1222151E+000  0.1249956E+03  0.7546771E-02  0.1235076E+00
         21   -1    0    0  503  502  0.00000000000E+00  0.00000000000E+00  0.77739563391E+03  0.77739563391E+03  0.00000000000E+00 0.  1.
         21   -1    0    0  502  503 -0.00000000000E+00 -0.00000000000E+00 -0.50244369053E+01  0.50244369053E+01  0.00000000000E+00 0.  1.
         25    2    1    2    0    0  0.00000000000E+00  0.00000000000E+00  0.77237119700E+03  0.78242007082E+03  0.12499560493E+03 0.  0.
          4    1    3    3  501    0  0.43953290967E+02  0.17717047764E+02  0.64105026857E+03  0.64280139615E+03  0.15500000000E+01 0. -1.
         -4    1    3    3    0  501 -0.43953290967E+02 -0.17717047764E+02  0.13132092844E+03  0.13961867466E+03  0.15500000000E+01 0. -1.
<mgrwt>
<rscale>  2 0.12499560E+03</rscale>
<asrwt>0</asrwt>
<pdfrwt beam="1">  1       21 0.11959923E+00 0.12499560E+03</pdfrwt>
<pdfrwt beam="2">  1       21 0.77299091E-03 0.12499560E+03</pdfrwt>
<totfact> 0.29956892E+06</totfact>
</mgrwt>
</event>
<event>
 5    0  0.1370034E+000  0.1249973E+03  0.7546771E-02  0.1235073E+00
         21   -1    0    0  503  502  0.00000000000E+00  0.00000000000E+00  0.48650952692E+03  0.48650952692E+03  0.00000000000E+00 0.  1.
         21   -1    0    0  502  503 -0.00000000000E+00 -0.00000000000E+00 -0.80287891747E+01  0.80287891747E+01  0.00000000000E+00 0.  1.
         25    2    1    2    0    0  0.00000000000E+00  0.00000000000E+00  0.47848073775E+03  0.49453831610E+03  0.12499731874E+03 0.  0.
          4    1    3    3  501    0  0.18521373941E+02  0.46444954783E+02  0.91020576532E+02  0.10386203816E+03  0.15500000000E+01 0.  1.
         -4    1    3    3    0  501 -0.18521373941E+02 -0.46444954783E+02  0.38746016121E+03  0.39067627794E+03  0.15500000000E+01 0.  1.
<mgrwt>
<rscale>  2 0.12499732E+03</rscale>
<asrwt>0</asrwt>
<pdfrwt beam="1">  1       21 0.74847597E-01 0.12499732E+03</pdfrwt>
<pdfrwt beam="2">  1       21 0.12351987E-02 0.12499732E+03</pdfrwt>
<totfact> 0.42344662E+06</totfact>
</mgrwt>
</event>
<event>
 5    0  0.1356276E+000  0.1249973E+03  0.7546771E-02  0.1235074E+00
         21   -1    0    0  503  502  0.00000000000E+00  0.00000000000E+00  0.84056784595E+01  0.84056784595E+01  0.00000000000E+00 0.  1.
         21   -1    0    0  502  503 -0.00000000000E+00 -0.00000000000E+00 -0.46469544867E+03  0.46469544867E+03  0.00000000000E+00 0.  1.
         25    2    1    2    0    0  0.00000000000E+00  0.00000000000E+00 -0.45628977021E+03  0.47310112713E+03  0.12499728834E+03 0.  0.
          4    1    3    3  501    0 -0.35073430797E+02 -0.85978730009E+01 -0.42112271203E+03  0.42267104237E+03  0.15500000000E+01 0.  1.
         -4    1    3    3    0  501  0.35073430797E+02  0.85978730009E+01 -0.35167058177E+02  0.50430084759E+02  0.15500000000E+01 0.  1.
<mgrwt>
<rscale>  2 0.12499729E+03</rscale>
<asrwt>0</asrwt>
<pdfrwt beam="1">  1       21 0.12931809E-02 0.12499729E+03</pdfrwt>
<pdfrwt beam="2">  1       21 0.71491631E-01 0.12499729E+03</pdfrwt>
<totfact> 0.43544392E+06</totfact>
</mgrwt>
</event>
<event>
 5    0  0.1506730E+000  0.1249980E+03  0.7546771E-02  0.1235072E+00
         21   -1    0    0  503  502  0.00000000000E+00  0.00000000000E+00  0.26866197620E+02  0.26866197620E+02  0.00000000000E+00 0.  1.
         21   -1    0    0  502  503 -0.00000000000E+00 -0.00000000000E+00 -0.14539172014E+03  0.14539172014E+03  0.00000000000E+00 0.  1.
         25    2    1    2    0    0  0.00000000000E+00  0.00000000000E+00 -0.11852552252E+03  0.17225791776E+03  0.12499796295E+03 0.  0.
          4    1    3    3  501    0 -0.38961316823E+02  0.33405216559E+02 -0.10155171522E+02  0.52339494749E+02  0.15500000000E+01 0.  1.
         -4    1    3    3    0  501  0.38961316823E+02 -0.33405216559E+02 -0.10837035100E+03  0.11991842301E+03  0.15500000000E+01 0.  1.
<mgrwt>
<rscale>  2 0.12499796E+03</rscale>
<asrwt>0</asrwt>
<pdfrwt beam="1">  1       21 0.41332611E-02 0.12499796E+03</pdfrwt>
<pdfrwt beam="2">  1       21 0.22367957E-01 0.12499796E+03</pdfrwt>
<totfact> 0.68054493E+06</totfact>
</mgrwt>
</event>
<event>
 5    0  0.1408398E+000  0.1250039E+03  0.7546771E-02  0.1235063E+00
         21   -1    0    0  503  502  0.00000000000E+00  0.00000000000E+00  0.28308336006E+03  0.28308336006E+03  0.00000000000E+00 0. -1.
         21   -1    0    0  502  503 -0.00000000000E+00 -0.00000000000E+00 -0.13799808197E+02  0.13799808197E+02  0.00000000000E+00 0. -1.
         25    2    1    2    0    0  0.00000000000E+00  0.00000000000E+00  0.26928355186E+03  0.29688316826E+03  0.12500393710E+03 0.  0.
          4    1    3    3  501    0 -0.30646075452E+02 -0.36258912161E+02  0.23112027981E+03  0.23595100528E+03  0.15500000000E+01 0. -1.
         -4    1    3    3    0  501  0.30646075452E+02  0.36258912161E+02  0.38163272053E+02  0.60932162981E+02  0.15500000000E+01 0. -1.
<mgrwt>
<rscale>  2 0.12500394E+03</rscale>
<asrwt>0</asrwt>
<pdfrwt beam="1">  1       21 0.43551282E-01 0.12500394E+03</pdfrwt>
<pdfrwt beam="2">  1       21 0.21230476E-02 0.12500394E+03</pdfrwt>
<totfact> 0.55710683E+06</totfact>
</mgrwt>
</event>
<event>
 5    0  0.1505039E+000  0.1249968E+03  0.7546771E-02  0.1235074E+00
         21   -1    0    0  503  502  0.00000000000E+00  0.00000000000E+00  0.49411163302E+02  0.49411163302E+02  0.00000000000E+00 0.  1.
         21   -1    0    0  502  503 -0.00000000000E+00 -0.00000000000E+00 -0.79051925002E+02  0.79051925002E+02  0.00000000000E+00 0.  1.
         25    2    1    2    0    0  0.00000000000E+00  0.00000000000E+00 -0.29640761700E+02  0.12846308830E+03  0.12499676117E+03 0.  0.
          4    1    3    3  501    0  0.52727257011E+02  0.12442256538E+02 -0.46806967888E+02  0.71611927237E+02  0.15500000000E+01 0. -1.
         -4    1    3    3    0  501 -0.52727257011E+02 -0.12442256538E+02  0.17166206188E+02  0.56851161066E+02  0.15500000000E+01 0. -1.
<mgrwt>
<rscale>  2 0.12499676E+03</rscale>
<asrwt>0</asrwt>
<pdfrwt beam="1">  1       21 0.76017175E-02 0.12499676E+03</pdfrwt>
<pdfrwt beam="2">  1       21 0.12161834E-01 0.12499676E+03</pdfrwt>
<totfact> 0.73577177E+06</totfact>
</mgrwt>
</event>
<event>
 5    0  0.1487057E+000  0.1250001E+03  0.7546771E-02  0.1235069E+00
         21   -1    0    0  503  502  0.00000000000E+00  0.00000000000E+00  0.92268014517E+02  0.92268014517E+02  0.00000000000E+00 0. -1.
         21   -1    0    0  502  503 -0.00000000000E+00 -0.00000000000E+00 -0.42335962847E+02  0.42335962847E+02  0.00000000000E+00 0. -1.
         25    2    1    2    0    0  0.00000000000E+00  0.00000000000E+00  0.49932051669E+02  0.13460397736E+03  0.12500008375E+03 0.  0.
          4    1    3    3  501    0  0.72873950925E+00  0.42404969924E+02 -0.24440930578E+02  0.48974218963E+02  0.15500000000E+01 0.  1.
         -4    1    3    3    0  501 -0.72873950925E+00 -0.42404969924E+02  0.74372982247E+02  0.85629758401E+02  0.15500000000E+01 0.  1.
<mgrwt>
<rscale>  2 0.12500008E+03</rscale>
<asrwt>0</asrwt>
<pdfrwt beam="1">  1       21 0.14195079E-01 0.12500008E+03</pdfrwt>
<pdfrwt beam="2">  1       21 0.65132251E-02 0.12500008E+03</pdfrwt>
<totfact> 0.72748795E+06</totfact>
</mgrwt>
</event>
<event>
 5    0  0.1525668E+000  0.1250546E+03  0.7546771E-02  0.1234984E+00
         21   -1    0    0  503  502  0.00000000000E+00  0.00000000000E+00  0.41362883598E+02  0.41362883598E+02  0.00000000000E+00 0. -1.
         21   -1    0    0  502  503 -0.00000000000E+00 -0.00000000000E+00 -0.94521053501E+02  0.94521053501E+02  0.00000000000E+00 0. -1.
         25    2    1    2    0    0  0.00000000000E+00  0.00000000000E+00 -0.53158169902E+02  0.13588393710E+03  0.12505460141E+03 0.  0.
          4    1    3    3  501    0  0.13279595770E+02  0.35205051602E+02  0.27658509229E+02  0.46724072541E+02  0.15500000000E+01 0.  1.
         -4    1    3    3    0  501 -0.13279595770E+02 -0.35205051602E+02 -0.80816679132E+02  0.89159864558E+02  0.15500000000E+01 0.  1.
<mgrwt>
<rscale>  2 0.12505460E+03</rscale>
<asrwt>0</asrwt>
<pdfrwt beam="1">  1       21 0.63635206E-02 0.12505460E+03</pdfrwt>
<pdfrwt beam="2">  1       21 0.14541700E-01 0.12505460E+03</pdfrwt>
<totfact> 0.72478664E+06</totfact>
</mgrwt>
</event>
<event>
 5    0  0.1222151E+000  0.1250264E+03  0.7546771E-02  0.1235028E+00
         21   -1    0    0  503  502  0.00000000000E+00  0.00000000000E+00  0.25700019701E+01  0.25700019701E+01  0.00000000000E+00 0.  1.
         21   -1    0    0  502  503 -0.00000000000E+00 -0.00000000000E+00 -0.15205820032E+04  0.15205820032E+04  0.00000000000E+00 0.  1.
         25    2    1    2    0    0  0.00000000000E+00  0.00000000000E+00 -0.15180120012E+04  0.15231520051E+04  0.12502637712E+03 0.  0.
          4    1    3    3  501    0  0.31600206448E+02  0.48629553132E+02 -0.10426523516E+04  0.10442651652E+04  0.15500000000E+01 0. -1.
         -4    1    3    3    0  501 -0.31600206448E+02 -0.48629553132E+02 -0.47535964962E+03  0.47888683995E+03  0.15500000000E+01 0. -1.
<mgrwt>
<rscale>  2 0.12502638E+03</rscale>
<asrwt>0</asrwt>
<pdfrwt beam="1">  1       21 0.39538389E-03 0.12502638E+03</pdfrwt>
<pdfrwt beam="2">  1       21 0.23393630E+00 0.12502638E+03</pdfrwt>
<totfact> 0.13643961E+06</totfact>
</mgrwt>
</event>
<event>
 5    0  0.1373168E+000  0.1249923E+03  0.7546771E-02  0.1235081E+00
         21   -1    0    0  503  502  0.00000000000E+00  0.00000000000E+00  0.16572349275E+02  0.16572349275E+02  0.00000000000E+00 0. -1.
         21   -1    0    0  502  503 -0.00000000000E+00 -0.00000000000E+00 -0.23567995528E+03  0.23567995528E+03  0.00000000000E+00 0. -1.
         25    2    1    2    0    0  0.00000000000E+00  0.00000000000E+00 -0.21910760601E+03  0.25225230456E+03  0.12499232834E+03 0.  0.
          4    1    3    3  501    0  0.57348599015E+02 -0.13912675503E+02 -0.15095985136E+03  0.16209165176E+03  0.15500000000E+01 0. -1.
         -4    1    3    3    0  501 -0.57348599015E+02  0.13912675503E+02 -0.68147754645E+02  0.90160652791E+02  0.15500000000E+01 0. -1.
<mgrwt>
<rscale>  2 0.12499233E+03</rscale>
<asrwt>0</asrwt>
<pdfrwt beam="1">  1       21 0.25495923E-02 0.12499233E+03</pdfrwt>
<pdfrwt beam="2">  1       21 0.36258453E-01 0.12499233E+03</pdfrwt>
<totfact> 0.59678323E+06</totfact>
</mgrwt>
</event>
<event>
 5    0  0.1486832E+000  0.1249753E+03  0.7546771E-02  0.1235108E+00
         21   -1    0    0  503  502  0.00000000000E+00  0.00000000000E+00  0.14383366770E+02  0.14383366770E+02  0.00000000000E+00 0.  1.
         21   -1    0    0  502  503 -0.00000000000E+00 -0.00000000000E+00 -0.27147378950E+03  0.27147378950E+03  0.00000000000E+00 0.  1.
         25    2    1    2    0    0  0.00000000000E+00  0.00000000000E+00 -0.25709042273E+03  0.28585715627E+03  0.12497531089E+03 0.  0.
          4    1    3    3  501    0 -0.58273745039E+02  0.25987835016E+01 -0.77413670471E+02  0.96942570176E+02  0.15500000000E+01 0. -1.
         -4    1    3    3    0  501  0.58273745039E+02 -0.25987835016E+01 -0.17967675225E+03  0.18891458609E+03  0.15500000000E+01 0. -1.
<mgrwt>
<rscale>  2 0.12497531E+03</rscale>
<asrwt>0</asrwt>
<pdfrwt beam="1">  1       21 0.22128255E-02 0.12497531E+03</pdfrwt>
<pdfrwt beam="2">  1       21 0.41765202E-01 0.12497531E+03</pdfrwt>
<totfact> 0.56687553E+06</totfact>
</mgrwt>
</event>
<event>
 5    0  0.1413602E+000  0.1249838E+03  0.7546771E-02  0.1235095E+00
         21   -1    0    0  503  502  0.00000000000E+00  0.00000000000E+00  0.32278721103E+03  0.32278721103E+03  0.00000000000E+00 0.  1.
         21   -1    0    0  502  503 -0.00000000000E+00 -0.00000000000E+00 -0.12098498811E+02  0.12098498811E+02  0.00000000000E+00 0.  1.
         25    2    1    2    0    0  0.00000000000E+00  0.00000000000E+00  0.31068871222E+03  0.33488570984E+03  0.12498384998E+03 0.  0.
          4    1    3    3  501    0 -0.36098568728E+02  0.39920372615E+02  0.24033327281E+03  0.24629094042E+03  0.15500000000E+01 0. -1.
         -4    1    3    3    0  501  0.36098568728E+02 -0.39920372615E+02  0.70355439402E+02  0.88594769413E+02  0.15500000000E+01 0. -1.
<mgrwt>
<rscale>  2 0.12498385E+03</rscale>
<asrwt>0</asrwt>
<pdfrwt beam="1">  1       21 0.49659564E-01 0.12498385E+03</pdfrwt>
<pdfrwt beam="2">  1       21 0.18613078E-02 0.12498385E+03</pdfrwt>
<totfact> 0.52695748E+06</totfact>
</mgrwt>
</event>
<event>
 5    0  0.1373867E+000  0.1249973E+03  0.7546771E-02  0.1235074E+00
         21   -1    0    0  503  502  0.00000000000E+00  0.00000000000E+00  0.49729300528E+03  0.49729300528E+03  0.00000000000E+00 0. -1.
         21   -1    0    0  502  503 -0.00000000000E+00 -0.00000000000E+00 -0.78546874147E+01  0.78546874147E+01  0.00000000000E+00 0. -1.
         25    2    1    2    0    0  0.00000000000E+00  0.00000000000E+00  0.48943831787E+03  0.50514769270E+03  0.12499729773E+03 0.  0.
          4    1    3    3  501    0 -0.10636583320E+02 -0.53334957583E+02  0.36901193063E+03  0.37300128961E+03  0.15500000000E+01 0. -1.
         -4    1    3    3    0  501  0.10636583320E+02  0.53334957583E+02  0.12042638724E+03  0.13214640308E+03  0.15500000000E+01 0. -1.
<mgrwt>
<rscale>  2 0.12499730E+03</rscale>
<asrwt>0</asrwt>
<pdfrwt beam="1">  1       21 0.76506592E-01 0.12499730E+03</pdfrwt>
<pdfrwt beam="2">  1       21 0.12084138E-02 0.12499730E+03</pdfrwt>
<totfact> 0.41769087E+06</totfact>
</mgrwt>
</event>
<event>
 5    0  0.1509458E+000  0.1249978E+03  0.7546771E-02  0.1235073E+00
         21   -1    0    0  503  502  0.00000000000E+00  0.00000000000E+00  0.22967391607E+03  0.22967391607E+03  0.00000000000E+00 0. -1.
         21   -1    0    0  502  503 -0.00000000000E+00 -0.00000000000E+00 -0.17007217769E+02  0.17007217769E+02  0.00000000000E+00 0. -1.
         25    2    1    2    0    0  0.00000000000E+00  0.00000000000E+00  0.21266669830E+03  0.24668113384E+03  0.12499782888E+03 0.  0.
          4    1    3    3  501    0  0.51699144623E+02 -0.27063039754E+02  0.62271068151E+02  0.85353957753E+02  0.15500000000E+01 0. -1.
         -4    1    3    3    0  501 -0.51699144623E+02  0.27063039754E+02  0.15039563015E+03  0.16132717609E+03  0.15500000000E+01 0. -1.
<mgrwt>
<rscale>  2 0.12499783E+03</rscale>
<asrwt>0</asrwt>
<pdfrwt beam="1">  1       21 0.35334446E-01 0.12499783E+03</pdfrwt>
<pdfrwt beam="2">  1       21 0.26164952E-02 0.12499783E+03</pdfrwt>
<totfact> 0.60195366E+06</totfact>
</mgrwt>
</event>
<event>
 5    0  0.1457852E+000  0.1249976E+03  0.7546771E-02  0.1235073E+00
         21   -1    0    0  503  502  0.00000000000E+00  0.00000000000E+00  0.11596155134E+02  0.11596155134E+02  0.00000000000E+00 0. -1.
         21   -1    0    0  502  503 -0.00000000000E+00 -0.00000000000E+00 -0.33684467547E+03  0.33684467547E+03  0.00000000000E+00 0. -1.
         25    2    1    2    0    0  0.00000000000E+00  0.00000000000E+00 -0.32524852034E+03  0.34844083060E+03  0.12499764979E+03 0.  0.
          4    1    3    3  501    0 -0.12943701927E+02 -0.61116389102E+02 -0.16533864720E+03  0.17675413205E+03  0.15500000000E+01 0. -1.
         -4    1    3    3    0  501  0.12943701927E+02  0.61116389102E+02 -0.15990987313E+03  0.17168669856E+03  0.15500000000E+01 0. -1.
<mgrwt>
<rscale>  2 0.12499765E+03</rscale>
<asrwt>0</asrwt>
<pdfrwt beam="1">  1       21 0.17840237E-02 0.12499765E+03</pdfrwt>
<pdfrwt beam="2">  1       21 0.51822261E-01 0.12499765E+03</pdfrwt>
<totfact> 0.51656827E+06</totfact>
</mgrwt>
</event>
<event>
 5    0  0.1546077E+000  0.1250039E+03  0.7546771E-02  0.1235063E+00
         21   -1    0    0  503  502  0.00000000000E+00  0.00000000000E+00  0.59808711019E+02  0.59808711019E+02  0.00000000000E+00 0. -1.
         21   -1    0    0  502  503 -0.00000000000E+00 -0.00000000000E+00 -0.65316456911E+02  0.65316456911E+02  0.00000000000E+00 0. -1.
         25    2    1    2    0    0  0.00000000000E+00  0.00000000000E+00 -0.55077458913E+01  0.12512516793E+03  0.12500388948E+03 0.  0.
          4    1    3    3  501    0  0.37048211373E+02 -0.33339736435E+02  0.34965343222E+02  0.60902263653E+02  0.15500000000E+01 0.  1.
         -4    1    3    3    0  501 -0.37048211373E+02  0.33339736435E+02 -0.40473089113E+02  0.64222904277E+02  0.15500000000E+01 0.  1.
<mgrwt>
<rscale>  2 0.12500389E+03</rscale>
<asrwt>0</asrwt>
<pdfrwt beam="1">  1       21 0.92013402E-02 0.12500389E+03</pdfrwt>
<pdfrwt beam="2">  1       21 0.10048686E-01 0.12500389E+03</pdfrwt>
<totfact> 0.74019316E+06</totfact>
</mgrwt>
</event>
<event>
 5    0  0.1222151E+000  0.1249983E+03  0.7546771E-02  0.1235072E+00
         21   -1    0    0  503  502  0.00000000000E+00  0.00000000000E+00  0.88230349855E+03  0.88230349855E+03  0.00000000000E+00 0. -1.
         21   -1    0    0  502  503 -0.00000000000E+00 -0.00000000000E+00 -0.44272113306E+01  0.44272113306E+01  0.00000000000E+00 0. -1.
         25    2    1    2    0    0  0.00000000000E+00  0.00000000000E+00  0.87787628722E+03  0.88673070988E+03  0.12499830472E+03 0.  0.
          4    1    3    3  501    0 -0.55085132873E+02  0.38966553957E+01  0.23160735967E+03  0.23810486626E+03  0.15500000000E+01 0. -1.
         -4    1    3    3    0  501  0.55085132873E+02 -0.38966553957E+01  0.64626892755E+03  0.64862584362E+03  0.15500000000E+01 0. -1.
<mgrwt>
<rscale>  2 0.12499830E+03</rscale>
<asrwt>0</asrwt>
<pdfrwt beam="1">  1       21 0.13573886E+00 0.12499830E+03</pdfrwt>
<pdfrwt beam="2">  1       21 0.68111014E-03 0.12499830E+03</pdfrwt>
<totfact> 0.26682532E+06</totfact>
</mgrwt>
</event>
<event>
 5    0  0.1222151E+000  0.1250026E+03  0.7546771E-02  0.1235065E+00
         21   -1    0    0  503  502  0.00000000000E+00  0.00000000000E+00  0.38065843194E+01  0.38065843194E+01  0.00000000000E+00 0. -1.
         21   -1    0    0  502  503 -0.00000000000E+00 -0.00000000000E+00 -0.10262254276E+04  0.10262254276E+04  0.00000000000E+00 0. -1.
         25    2    1    2    0    0  0.00000000000E+00  0.00000000000E+00 -0.10224188433E+04  0.10300320119E+04  0.12500261791E+03 0.  0.
          4    1    3    3  501    0  0.13338813396E+02  0.57859099750E+02 -0.35091665578E+03  0.35590799538E+03  0.15500000000E+01 0.  1.
         -4    1    3    3    0  501 -0.13338813396E+02 -0.57859099750E+02 -0.67150218751E+03  0.67412401656E+03  0.15500000000E+01 0.  1.
<mgrwt>
<rscale>  2 0.12500262E+03</rscale>
<asrwt>0</asrwt>
<pdfrwt beam="1">  1       21 0.58562790E-03 0.12500262E+03</pdfrwt>
<pdfrwt beam="2">  1       21 0.15788096E+00 0.12500262E+03</pdfrwt>
<totfact> 0.22876606E+06</totfact>
</mgrwt>
</event>
<event>
 5    0  0.1222151E+000  0.1250305E+03  0.7546771E-02  0.1235022E+00
         21   -1    0    0  503  502  0.00000000000E+00  0.00000000000E+00  0.26579576289E+04  0.26579576289E+04  0.00000000000E+00 0. -1.
         21   -1    0    0  502  503 -0.00000000000E+00 -0.00000000000E+00 -0.14703603788E+01  0.14703603788E+01  0.00000000000E+00 0. -1.
         25    2    1    2    0    0  0.00000000000E+00  0.00000000000E+00  0.26564872685E+04  0.26594279893E+04  0.12503048566E+03 0.  0.
          4    1    3    3  501    0 -0.57364527173E+02 -0.22737364459E+02  0.15388902562E+04  0.15401276895E+04  0.15500000000E+01 0.  1.
         -4    1    3    3    0  501  0.57364527173E+02  0.22737364459E+02  0.11175970123E+04  0.11193002998E+04  0.15500000000E+01 0.  1.
<mgrwt>
<rscale>  2 0.12503049E+03</rscale>
<asrwt>0</asrwt>
<pdfrwt beam="1">  1       21 0.40891271E+00 0.12503049E+03</pdfrwt>
<pdfrwt beam="2">  1       21 0.22621142E-03 0.12503049E+03</pdfrwt>
<totfact> 0.31316017E+05</totfact>
</mgrwt>
</event>
<event>
 5    0  0.1329696E+000  0.1250010E+03  0.7546771E-02  0.1235068E+00
         21   -1    0    0  503  502  0.00000000000E+00  0.00000000000E+00  0.76754580117E+01  0.76754580117E+01  0.00000000000E+00 0.  1.
         21   -1    0    0  502  503 -0.00000000000E+00 -0.00000000000E+00 -0.50893531865E+03  0.50893531865E+03  0.00000000000E+00 0.  1.
         25    2    1    2    0    0  0.00000000000E+00  0.00000000000E+00 -0.50125986064E+03  0.51661077666E+03  0.12500098670E+03 0.  0.
          4    1    3    3  501    0  0.57212153857E+02  0.24547555648E+02 -0.27253644490E+03  0.27956095817E+03  0.15500000000E+01 0. -1.
         -4    1    3    3    0  501 -0.57212153857E+02 -0.24547555648E+02 -0.22872341574E+03  0.23704981849E+03  0.15500000000E+01 0. -1.
<mgrwt>
<rscale>  2 0.12500099E+03</rscale>
<asrwt>0</asrwt>
<pdfrwt beam="1">  1       21 0.11808394E-02 0.12500099E+03</pdfrwt>
<pdfrwt beam="2">  1       21 0.78297761E-01 0.12500099E+03</pdfrwt>
<totfact> 0.41156307E+06</totfact>
</mgrwt>
</event>
<event>
 5    0  0.1222151E+000  0.1249892E+03  0.7546771E-02  0.1235086E+00
         21   -1    0    0  503  502  0.00000000000E+00  0.00000000000E+00  0.11985475494E+04  0.11985475494E+04  0.00000000000E+00 0.  1.
         21   -1    0    0  502  503 -0.00000000000E+00 -0.00000000000E+00 -0.32585888368E+01  0.32585888368E+01  0.00000000000E+00 0.  1.
         25    2    1    2    0    0  0.00000000000E+00  0.00000000000E+00  0.11952889605E+04  0.12018061382E+04  0.12498917817E+03 0.  0.
          4    1    3    3  501    0 -0.27727534183E+02  0.18571400988E+02  0.89810303867E+02  0.95822785741E+02  0.15500000000E+01 0.  1.
         -4    1    3    3    0  501  0.27727534183E+02 -0.18571400988E+02  0.11054786567E+04  0.11059833525E+04  0.15500000000E+01 0.  1.
<mgrwt>
<rscale>  2 0.12498918E+03</rscale>
<asrwt>0</asrwt>
<pdfrwt beam="1">  1       21 0.18439158E+00 0.12498918E+03</pdfrwt>
<pdfrwt beam="2">  1       21 0.50132231E-03 0.12498918E+03</pdfrwt>
<totfact> 0.19112578E+06</totfact>
</mgrwt>
</event>
<event>
 5    0  0.1222151E+000  0.1249975E+03  0.7546771E-02  0.1235073E+00
         21   -1    0    0  503  502  0.00000000000E+00  0.00000000000E+00  0.13313592786E+01  0.13313592786E+01  0.00000000000E+00 0.  1.
         21   -1    0    0  502  503 -0.00000000000E+00 -0.00000000000E+00 -0.29339152838E+04  0.29339152838E+04  0.00000000000E+00 0.  1.
         25    2    1    2    0    0  0.00000000000E+00  0.00000000000E+00 -0.29325839245E+04  0.29352466431E+04  0.12499752535E+03 0.  0.
          4    1    3    3  501    0  0.29841209294E+02  0.46320269364E+02 -0.21579794058E+04  0.21586832985E+04  0.15500000000E+01 0. -1.
         -4    1    3    3    0  501 -0.29841209294E+02 -0.46320269364E+02 -0.77460451877E+03  0.77656334456E+03  0.15500000000E+01 0. -1.
<mgrwt>
<rscale>  2 0.12499753E+03</rscale>
<asrwt>0</asrwt>
<pdfrwt beam="1">  1       21 0.20482478E-03 0.12499753E+03</pdfrwt>
<pdfrwt beam="2">  1       21 0.45137097E+00 0.12499753E+03</pdfrwt>
<totfact> 0.19547722E+05</totfact>
</mgrwt>
</event>
<event>
 5    0  0.1569492E+000  0.1249988E+03  0.7546771E-02  0.1235071E+00
         21   -1    0    0  503  502  0.00000000000E+00  0.00000000000E+00  0.77773394763E+02  0.77773394763E+02  0.00000000000E+00 0.  1.
         21   -1    0    0  502  503 -0.00000000000E+00 -0.00000000000E+00 -0.50225065871E+02  0.50225065871E+02  0.00000000000E+00 0.  1.
         25    2    1    2    0    0  0.00000000000E+00  0.00000000000E+00  0.27548328892E+02  0.12799846063E+03  0.12499878199E+03 0.  0.
          4    1    3    3  501    0 -0.54949058828E+02  0.23714334705E+02 -0.46008919443E+01  0.60044478874E+02  0.15500000000E+01 0.  1.
         -4    1    3    3    0  501  0.54949058828E+02 -0.23714334705E+02  0.32149220837E+02  0.67953981760E+02  0.15500000000E+01 0.  1.
<mgrwt>
<rscale>  2 0.12499878E+03</rscale>
<asrwt>0</asrwt>
<pdfrwt beam="1">  1       21 0.11965138E-01 0.12499878E+03</pdfrwt>
<pdfrwt beam="2">  1       21 0.77269332E-02 0.12499878E+03</pdfrwt>
<totfact> 0.73636057E+06</totfact>
</mgrwt>
</event>
<event>
 5    0  0.1545834E+000  0.1250044E+03  0.7546771E-02  0.1235062E+00
         21   -1    0    0  503  502  0.00000000000E+00  0.00000000000E+00  0.16518040604E+03  0.16518040604E+03  0.00000000000E+00 0. -1.
         21   -1    0    0  502  503 -0.00000000000E+00 -0.00000000000E+00 -0.23650034615E+02  0.23650034615E+02  0.00000000000E+00 0. -1.
         25    2    1    2    0    0  0.00000000000E+00  0.00000000000E+00  0.14153037142E+03  0.18883044065E+03  0.12500435705E+03 0.  0.
          4    1    3    3  501    0  0.23195647632E+02 -0.57959281113E+02  0.66825037599E+02  0.91462038499E+02  0.15500000000E+01 0. -1.
         -4    1    3    3    0  501 -0.23195647632E+02  0.57959281113E+02  0.74705333822E+02  0.97368402152E+02  0.15500000000E+01 0. -1.
<mgrwt>
<rscale>  2 0.12500436E+03</rscale>
<asrwt>0</asrwt>
<pdfrwt beam="1">  1       21 0.25412369E-01 0.12500436E+03</pdfrwt>
<pdfrwt beam="2">  1       21 0.36384670E-02 0.12500436E+03</pdfrwt>
<totfact> 0.66145382E+06</totfact>
</mgrwt>
</event>
<event>
 5    0  0.1552890E+000  0.1249994E+03  0.7546771E-02  0.1235070E+00
         21   -1    0    0  503  502  0.00000000000E+00  0.00000000000E+00  0.21355476806E+02  0.21355476806E+02  0.00000000000E+00 0.  1.
         21   -1    0    0  502  503 -0.00000000000E+00 -0.00000000000E+00 -0.18291379988E+03  0.18291379988E+03  0.00000000000E+00 0.  1.
         25    2    1    2    0    0  0.00000000000E+00  0.00000000000E+00 -0.16155832308E+03  0.20426927669E+03  0.12499938257E+03 0.  0.
          4    1    3    3  501    0 -0.57183612008E+02  0.13019216538E+02 -0.45565204060E+02  0.74283617322E+02  0.15500000000E+01 0. -1.
         -4    1    3    3    0  501  0.57183612008E+02 -0.13019216538E+02 -0.11599311902E+03  0.12998565937E+03  0.15500000000E+01 0. -1.
<mgrwt>
<rscale>  2 0.12499938E+03</rscale>
<asrwt>0</asrwt>
<pdfrwt beam="1">  1       21 0.32854580E-02 0.12499938E+03</pdfrwt>
<pdfrwt beam="2">  1       21 0.28140584E-01 0.12499938E+03</pdfrwt>
<totfact> 0.64468570E+06</totfact>
</mgrwt>
</event>
<event>
 5    0  0.1377976E+000  0.1249977E+03  0.7546771E-02  0.1235073E+00
         21   -1    0    0  503  502  0.00000000000E+00  0.00000000000E+00  0.89348909783E+01  0.89348909783E+01  0.00000000000E+00 0. -1.
         21   -1    0    0  502  503 -0.00000000000E+00 -0.00000000000E+00 -0.43717467439E+03  0.43717467439E+03  0.00000000000E+00 0. -1.
         25    2    1    2    0    0  0.00000000000E+00  0.00000000000E+00 -0.42823978341E+03  0.44610956536E+03  0.12499772884E+03 0.  0.
          4    1    3    3  501    0  0.16886947821E+02  0.56310696404E+02 -0.28962995523E+03  0.29554014448E+03  0.15500000000E+01 0.  1.
         -4    1    3    3    0  501 -0.16886947821E+02 -0.56310696404E+02 -0.13860982818E+03  0.15056942088E+03  0.15500000000E+01 0.  1.
<mgrwt>
<rscale>  2 0.12499773E+03</rscale>
<asrwt>0</asrwt>
<pdfrwt beam="1">  1       21 0.13745985E-02 0.12499773E+03</pdfrwt>
<pdfrwt beam="2">  1       21 0.67257650E-01 0.12499773E+03</pdfrwt>
<totfact> 0.45128535E+06</totfact>
</mgrwt>
</event>
<event>
 5    0  0.1470627E+000  0.1250136E+03  0.7546771E-02  0.1235048E+00
         21   -1    0    0  503  502  0.00000000000E+00  0.00000000000E+00  0.19168577100E+02  0.19168577100E+02  0.00000000000E+00 0. -1.
         21   -1    0    0  502  503 -0.00000000000E+00 -0.00000000000E+00 -0.20382853841E+03  0.20382853841E+03  0.00000000000E+00 0. -1.
         25    2    1    2    0    0  0.00000000000E+00  0.00000000000E+00 -0.18465996131E+03  0.22299711551E+03  0.12501364812E+03 0.  0.
          4    1    3    3  501    0  0.25513033658E+02  0.13540541885E+02  0.65121460660E+01  0.29649143451E+02  0.15500000000E+01 0.  1.
         -4    1    3    3    0  501 -0.25513033658E+02 -0.13540541885E+02 -0.19117210738E+03  0.19334797206E+03  0.15500000000E+01 0.  1.
<mgrwt>
<rscale>  2 0.12501365E+03</rscale>
<asrwt>0</asrwt>
<pdfrwt beam="1">  1       21 0.29490117E-02 0.12501365E+03</pdfrwt>
<pdfrwt beam="2">  1       21 0.31358239E-01 0.12501365E+03</pdfrwt>
<totfact> 0.62495941E+06</totfact>
</mgrwt>
</event>
<event>
 5    0  0.1624017E+000  0.1250031E+03  0.7546771E-02  0.1235064E+00
         21   -1    0    0  503  502  0.00000000000E+00  0.00000000000E+00  0.29739846363E+02  0.29739846363E+02  0.00000000000E+00 0.  1.
         21   -1    0    0  502  503 -0.00000000000E+00 -0.00000000000E+00 -0.13135390358E+03  0.13135390358E+03  0.00000000000E+00 0.  1.
         25    2    1    2    0    0  0.00000000000E+00  0.00000000000E+00 -0.10161405721E+03  0.16109374994E+03  0.12500311855E+03 0.  0.
          4    1    3    3  501    0 -0.15230487448E+02 -0.60414629190E+02 -0.44742211848E+02  0.76721334641E+02  0.15500000000E+01 0.  1.
         -4    1    3    3    0  501  0.15230487448E+02  0.60414629190E+02 -0.56871845364E+02  0.84372415298E+02  0.15500000000E+01 0.  1.
<mgrwt>
<rscale>  2 0.12500312E+03</rscale>
<asrwt>0</asrwt>
<pdfrwt beam="1">  1       21 0.45753609E-02 0.12500312E+03</pdfrwt>
<pdfrwt beam="2">  1       21 0.20208293E-01 0.12500312E+03</pdfrwt>
<totfact> 0.69380597E+06</totfact>
</mgrwt>
</event>
<event>
 5    0  0.1591953E+000  0.1250030E+03  0.7546771E-02  0.1235065E+00
         21   -1    0    0  503  502  0.00000000000E+00  0.00000000000E+00  0.41367552410E+02  0.41367552410E+02  0.00000000000E+00 0.  1.
         21   -1    0    0  502  503 -0.00000000000E+00 -0.00000000000E+00 -0.94432335849E+02  0.94432335849E+02  0.00000000000E+00 0.  1.
         25    2    1    2    0    0  0.00000000000E+00  0.00000000000E+00 -0.53064783439E+02  0.13579988826E+03  0.12500295360E+03 0.  0.
          4    1    3    3  501    0  0.23262397511E+02 -0.57558053574E+02 -0.34211402446E+02  0.70900572822E+02  0.15500000000E+01 0. -1.
         -4    1    3    3    0  501 -0.23262397511E+02  0.57558053574E+02 -0.18853380993E+02  0.64899315436E+02  0.15500000000E+01 0. -1.
<mgrwt>
<rscale>  2 0.12500295E+03</rscale>
<asrwt>0</asrwt>
<pdfrwt beam="1">  1       21 0.63642389E-02 0.12500295E+03</pdfrwt>
<pdfrwt beam="2">  1       21 0.14528051E-01 0.12500295E+03</pdfrwt>
<totfact> 0.72585267E+06</totfact>
</mgrwt>
</event>
<event>
 5    0  0.1239928E+000  0.1250029E+03  0.7546771E-02  0.1235065E+00
         21   -1    0    0  503  502  0.00000000000E+00  0.00000000000E+00  0.66915900748E+03  0.66915900748E+03  0.00000000000E+00 0.  1.
         21   -1    0    0  502  503 -0.00000000000E+00 -0.00000000000E+00 -0.58378199169E+01  0.58378199169E+01  0.00000000000E+00 0.  1.
         25    2    1    2    0    0  0.00000000000E+00  0.00000000000E+00  0.66332118756E+03  0.67499682740E+03  0.12500287647E+03 0.  0.
          4    1    3    3  501    0  0.48047614443E+02 -0.36063524341E+02  0.23893457474E+03  0.24637630679E+03  0.15500000000E+01 0. -1.
         -4    1    3    3    0  501 -0.48047614443E+02  0.36063524341E+02  0.42438661282E+03  0.42862052060E+03  0.15500000000E+01 0. -1.
<mgrwt>
<rscale>  2 0.12500288E+03</rscale>
<asrwt>0</asrwt>
<pdfrwt beam="1">  1       21 0.10294748E+00 0.12500288E+03</pdfrwt>
<pdfrwt beam="2">  1       21 0.89812667E-03 0.12500288E+03</pdfrwt>
<totfact> 0.33894163E+06</totfact>
</mgrwt>
</event>
<event>
 5    0  0.1222151E+000  0.1249339E+03  0.7546771E-02  0.1235173E+00
         21   -1    0    0  503  502  0.00000000000E+00  0.00000000000E+00  0.24669341044E+02  0.24669341044E+02  0.00000000000E+00 0. -1.
         21   -1    0    0  502  503 -0.00000000000E+00 -0.00000000000E+00 -0.15817677520E+03  0.15817677520E+03  0.00000000000E+00 0. -1.
         25    2    1    2    0    0  0.00000000000E+00  0.00000000000E+00 -0.13350743416E+03  0.18284611625E+03  0.12493385150E+03 0.  0.
          4    1    3    3  501    0  0.97134727895E+01  0.18891990658E+02 -0.15269818379E+03  0.15417651150E+03  0.15500000000E+01 0. -1.
         -4    1    3    3    0  501 -0.97134727895E+01 -0.18891990658E+02  0.19190749635E+02  0.28669604745E+02  0.15500000000E+01 0. -1.
<mgrwt>
<rscale>  2 0.12493385E+03</rscale>
<asrwt>0</asrwt>
<pdfrwt beam="1">  1       21 0.37952834E-02 0.12493385E+03</pdfrwt>
<pdfrwt beam="2">  1       21 0.24334888E-01 0.12493385E+03</pdfrwt>
<totfact> 0.66938742E+06</totfact>
</mgrwt>
</event>
<event>
 5    0  0.1333652E+000  0.1250011E+03  0.7546771E-02  0.1235068E+00
         21   -1    0    0  503  502  0.00000000000E+00  0.00000000000E+00  0.18756326922E+02  0.18756326922E+02  0.00000000000E+00 0.  1.
         21   -1    0    0  502  503 -0.00000000000E+00 -0.00000000000E+00 -0.20826681262E+03  0.20826681262E+03  0.00000000000E+00 0.  1.
         25    2    1    2    0    0  0.00000000000E+00  0.00000000000E+00 -0.18951048570E+03  0.22702313954E+03  0.12500112679E+03 0.  0.
          4    1    3    3  501    0  0.23010181646E+02  0.10301943287E+02 -0.19858418884E+03  0.20018411789E+03  0.15500000000E+01 0. -1.
         -4    1    3    3    0  501 -0.23010181646E+02 -0.10301943287E+02  0.90737031436E+01  0.26839021659E+02  0.15500000000E+01 0. -1.
<mgrwt>
<rscale>  2 0.12500113E+03</rscale>
<asrwt>0</asrwt>
<pdfrwt beam="1">  1       21 0.28855889E-02 0.12500113E+03</pdfrwt>
<pdfrwt beam="2">  1       21 0.32041046E-01 0.12500113E+03</pdfrwt>
<totfact> 0.62109716E+06</totfact>
</mgrwt>
</event>
<event>
 5    0  0.1355906E+000  0.1250035E+03  0.7546771E-02  0.1235064E+00
         21   -1    0    0  503  502  0.00000000000E+00  0.00000000000E+00  0.99788963648E+01  0.99788963648E+01  0.00000000000E+00 0.  1.
         21   -1    0    0  502  503 -0.00000000000E+00 -0.00000000000E+00 -0.39147318251E+03  0.39147318251E+03  0.00000000000E+00 0.  1.
         25    2    1    2    0    0  0.00000000000E+00  0.00000000000E+00 -0.38149428615E+03  0.40145207888E+03  0.12500352504E+03 0.  0.
          4    1    3    3  501    0 -0.34809399734E+02  0.28797322818E+02 -0.52126438722E+02  0.68996726192E+02  0.15500000000E+01 0. -1.
         -4    1    3    3    0  501  0.34809399734E+02 -0.28797322818E+02 -0.32936784743E+03  0.33245535268E+03  0.15500000000E+01 0. -1.
<mgrwt>
<rscale>  2 0.12500353E+03</rscale>
<asrwt>0</asrwt>
<pdfrwt beam="1">  1       21 0.15352148E-02 0.12500353E+03</pdfrwt>
<pdfrwt beam="2">  1       21 0.60226643E-01 0.12500353E+03</pdfrwt>
<totfact> 0.47940961E+06</totfact>
</mgrwt>
</event>
<event>
 5    0  0.1368538E+000  0.1249957E+03  0.7546771E-02  0.1235076E+00
         21   -1    0    0  503  502  0.00000000000E+00  0.00000000000E+00  0.87022097600E+01  0.87022097600E+01  0.00000000000E+00 0. -1.
         21   -1    0    0  502  503 -0.00000000000E+00 -0.00000000000E+00 -0.44884958090E+03  0.44884958090E+03  0.00000000000E+00 0. -1.
         25    2    1    2    0    0  0.00000000000E+00  0.00000000000E+00 -0.44014737114E+03  0.45755179066E+03  0.12499573119E+03 0.  0.
          4    1    3    3  501    0  0.24327278878E+02  0.42398049591E+02 -0.36251380817E+03  0.36579786046E+03  0.15500000000E+01 0.  1.
         -4    1    3    3    0  501 -0.24327278878E+02 -0.42398049591E+02 -0.77633562966E+02  0.91753930192E+02  0.15500000000E+01 0.  1.
<mgrwt>
<rscale>  2 0.12499573E+03</rscale>
<asrwt>0</asrwt>
<pdfrwt beam="1">  1       21 0.13388019E-02 0.12499573E+03</pdfrwt>
<pdfrwt beam="2">  1       21 0.69053760E-01 0.12499573E+03</pdfrwt>
<totfact> 0.44448547E+06</totfact>
</mgrwt>
</event>
<event>
 5    0  0.1502347E+000  0.1250032E+03  0.7546771E-02  0.1235064E+00
         21   -1    0    0  503  502  0.00000000000E+00  0.00000000000E+00  0.16910397997E+02  0.16910397997E+02  0.00000000000E+00 0.  1.
         21   -1    0    0  502  503 -0.00000000000E+00 -0.00000000000E+00 -0.23100860552E+03  0.23100860552E+03  0.00000000000E+00 0.  1.
         25    2    1    2    0    0  0.00000000000E+00  0.00000000000E+00 -0.21409820752E+03  0.24791900351E+03  0.12500315932E+03 0.  0.
          4    1    3    3  501    0  0.49683682108E+02 -0.25001287969E+02 -0.50585495104E+02  0.75198586974E+02  0.15500000000E+01 0.  1.
         -4    1    3    3    0  501 -0.49683682108E+02  0.25001287969E+02 -0.16351271241E+03  0.17272041654E+03  0.15500000000E+01 0.  1.
<mgrwt>
<rscale>  2 0.12500316E+03</rscale>
<asrwt>0</asrwt>
<pdfrwt beam="1">  1       21 0.26015999E-02 0.12500316E+03</pdfrwt>
<pdfrwt beam="2">  1       21 0.35539782E-01 0.12500316E+03</pdfrwt>
<totfact> 0.60069884E+06</totfact>
</mgrwt>
</event>
<event>
 5    0  0.1222151E+000  0.1249952E+03  0.7546771E-02  0.1235077E+00
         21   -1    0    0  503  502  0.00000000000E+00  0.00000000000E+00  0.20486540977E+04  0.20486540977E+04  0.00000000000E+00 0.  1.
         21   -1    0    0  502  503 -0.00000000000E+00 -0.00000000000E+00 -0.19065928731E+01  0.19065928731E+01  0.00000000000E+00 0.  1.
         25    2    1    2    0    0  0.00000000000E+00  0.00000000000E+00  0.20467475048E+04  0.20505606905E+04  0.12499518874E+03 0.  0.
          4    1    3    3  501    0  0.47877925176E+02 -0.39940665444E+02  0.95776491916E+03  0.95979351703E+03  0.15500000000E+01 0. -1.
         -4    1    3    3    0  501 -0.47877925176E+02  0.39940665444E+02  0.10889825856E+04  0.10907671735E+04  0.15500000000E+01 0. -1.
<mgrwt>
<rscale>  2 0.12499519E+03</rscale>
<asrwt>0</asrwt>
<pdfrwt beam="1">  1       21 0.31517579E+00 0.12499519E+03</pdfrwt>
<pdfrwt beam="2">  1       21 0.29332362E-03 0.12499519E+03</pdfrwt>
<totfact> 0.74664253E+05</totfact>
</mgrwt>
</event>
<event>
 5    0  0.1562559E+000  0.1249973E+03  0.7546771E-02  0.1235074E+00
         21   -1    0    0  503  502  0.00000000000E+00  0.00000000000E+00  0.11794459572E+03  0.11794459572E+03  0.00000000000E+00 0. -1.
         21   -1    0    0  502  503 -0.00000000000E+00 -0.00000000000E+00 -0.33117928320E+02  0.33117928320E+02  0.00000000000E+00 0. -1.
         25    2    1    2    0    0  0.00000000000E+00  0.00000000000E+00  0.84826667400E+02  0.15106252404E+03  0.12499729064E+03 0.  0.
          4    1    3    3  501    0 -0.17133551682E+02 -0.32657763222E+02  0.10336417410E+03  0.10975720058E+03  0.15500000000E+01 0. -1.
         -4    1    3    3    0  501  0.17133551682E+02  0.32657763222E+02 -0.18537506695E+02  0.41305323463E+02  0.15500000000E+01 0. -1.
<mgrwt>
<rscale>  2 0.12499729E+03</rscale>
<asrwt>0</asrwt>
<pdfrwt beam="1">  1       21 0.18145322E-01 0.12499729E+03</pdfrwt>
<pdfrwt beam="2">  1       21 0.50950660E-02 0.12499729E+03</pdfrwt>
<totfact> 0.70630854E+06</totfact>
</mgrwt>
</event>
<event>
 5    0  0.1222151E+000  0.1249938E+03  0.7546771E-02  0.1235079E+00
         21   -1    0    0  503  502  0.00000000000E+00  0.00000000000E+00  0.41934399808E+01  0.41934399808E+01  0.00000000000E+00 0.  1.
         21   -1    0    0  502  503 -0.00000000000E+00 -0.00000000000E+00 -0.93142274964E+03  0.93142274964E+03  0.00000000000E+00 0.  1.
         25    2    1    2    0    0  0.00000000000E+00  0.00000000000E+00 -0.92722930966E+03  0.93561618962E+03  0.12499384621E+03 0.  0.
          4    1    3    3  501    0 -0.31074557684E+02  0.32948159936E+02 -0.14146378348E+03  0.14854498953E+03  0.15500000000E+01 0. -1.
         -4    1    3    3    0  501  0.31074557684E+02 -0.32948159936E+02 -0.78576552618E+03  0.78707120009E+03  0.15500000000E+01 0. -1.
<mgrwt>
<rscale>  2 0.12499385E+03</rscale>
<asrwt>0</asrwt>
<pdfrwt beam="1">  1       21 0.64514395E-03 0.12499385E+03</pdfrwt>
<pdfrwt beam="2">  1       21 0.14329596E+00 0.12499385E+03</pdfrwt>
<totfact> 0.25304337E+06</totfact>
</mgrwt>
</event>
<event>
 5    0  0.1474849E+000  0.1249993E+03  0.7546771E-02  0.1235070E+00
         21   -1    0    0  503  502  0.00000000000E+00  0.00000000000E+00  0.14323322944E+02  0.14323322944E+02  0.00000000000E+00 0. -1.
         21   -1    0    0  502  503 -0.00000000000E+00 -0.00000000000E+00 -0.27271645915E+03  0.27271645915E+03  0.00000000000E+00 0. -1.
         25    2    1    2    0    0  0.00000000000E+00  0.00000000000E+00 -0.25839313621E+03  0.28703978210E+03  0.12499929467E+03 0.  0.
          4    1    3    3  501    0  0.10181678141E+02 -0.53930269224E+02 -0.19776668342E+03  0.20524669079E+03  0.15500000000E+01 0. -1.
         -4    1    3    3    0  501 -0.10181678141E+02  0.53930269224E+02 -0.60626452788E+02  0.81793091309E+02  0.15500000000E+01 0. -1.
<mgrwt>
<rscale>  2 0.12499929E+03</rscale>
<asrwt>0</asrwt>
<pdfrwt beam="1">  1       21 0.22035882E-02 0.12499929E+03</pdfrwt>
<pdfrwt beam="2">  1       21 0.41956378E-01 0.12499929E+03</pdfrwt>
<totfact> 0.56551718E+06</totfact>
</mgrwt>
</event>
<event>
 5    0  0.1437478E+000  0.1250019E+03  0.7546771E-02  0.1235066E+00
         21   -1    0    0  503  502  0.00000000000E+00  0.00000000000E+00  0.20606086587E+03  0.20606086587E+03  0.00000000000E+00 0. -1.
         21   -1    0    0  502  503 -0.00000000000E+00 -0.00000000000E+00 -0.18957366937E+02  0.18957366937E+02  0.00000000000E+00 0. -1.
         25    2    1    2    0    0  0.00000000000E+00  0.00000000000E+00  0.18710349893E+03  0.22501823280E+03  0.12500194311E+03 0.  0.
          4    1    3    3  501    0 -0.29232209373E+02  0.51991364821E+02  0.12705256056E+03  0.14036516564E+03  0.15500000000E+01 0. -1.
         -4    1    3    3    0  501  0.29232209373E+02 -0.51991364821E+02  0.60050938365E+02  0.84653067158E+02  0.15500000000E+01 0. -1.
<mgrwt>
<rscale>  2 0.12500194E+03</rscale>
<asrwt>0</asrwt>
<pdfrwt beam="1">  1       21 0.31701670E-01 0.12500194E+03</pdfrwt>
<pdfrwt beam="2">  1       21 0.29165181E-02 0.12500194E+03</pdfrwt>
<totfact> 0.62310199E+06</totfact>
</mgrwt>
</event>
<event>
 5    0  0.1555158E+000  0.1250021E+03  0.7546771E-02  0.1235066E+00
         21   -1    0    0  503  502  0.00000000000E+00  0.00000000000E+00  0.31503539890E+02  0.31503539890E+02  0.00000000000E+00 0.  1.
         21   -1    0    0  502  503 -0.00000000000E+00 -0.00000000000E+00 -0.12399823763E+03  0.12399823763E+03  0.00000000000E+00 0.  1.
         25    2    1    2    0    0  0.00000000000E+00  0.00000000000E+00 -0.92494697737E+02  0.15550177752E+03  0.12500213479E+03 0.  0.
          4    1    3    3  501    0  0.43962119958E+02 -0.35247397094E+02 -0.12661060577E+02  0.57773280572E+02  0.15500000000E+01 0.  1.
         -4    1    3    3    0  501 -0.43962119958E+02  0.35247397094E+02 -0.79833637159E+02  0.97728496945E+02  0.15500000000E+01 0.  1.
<mgrwt>
<rscale>  2 0.12500213E+03</rscale>
<asrwt>0</asrwt>
<pdfrwt beam="1">  1       21 0.48466983E-02 0.12500213E+03</pdfrwt>
<pdfrwt beam="2">  1       21 0.19076652E-01 0.12500213E+03</pdfrwt>
<totfact> 0.70069543E+06</totfact>
</mgrwt>
</event>
<event>
 5    0  0.1237573E+000  0.1249988E+03  0.7546771E-02  0.1235071E+00
         21   -1    0    0  503  502  0.00000000000E+00  0.00000000000E+00  0.55505754984E+03  0.55505754984E+03  0.00000000000E+00 0. -1.
         21   -1    0    0  502  503 -0.00000000000E+00 -0.00000000000E+00 -0.70374227959E+01  0.70374227959E+01  0.00000000000E+00 0. -1.
         25    2    1    2    0    0  0.00000000000E+00  0.00000000000E+00  0.54802012705E+03  0.56209497264E+03  0.12499879446E+03 0.  0.
          4    1    3    3  501    0 -0.32459704983E+02 -0.44712950067E+02  0.40518203516E+03  0.40893491471E+03  0.15500000000E+01 0. -1.
         -4    1    3    3    0  501  0.32459704983E+02  0.44712950067E+02  0.14283809189E+03  0.15316005793E+03  0.15500000000E+01 0. -1.
<mgrwt>
<rscale>  2 0.12499879E+03</rscale>
<asrwt>0</asrwt>
<pdfrwt beam="1">  1       21 0.85393435E-01 0.12499879E+03</pdfrwt>
<pdfrwt beam="2">  1       21 0.10826809E-02 0.12499879E+03</pdfrwt>
<totfact> 0.38866113E+06</totfact>
</mgrwt>
</event>
<event>
 5    0  0.1441662E+000  0.1249909E+03  0.7546771E-02  0.1235084E+00
         21   -1    0    0  503  502  0.00000000000E+00  0.00000000000E+00  0.14028577066E+03  0.14028577066E+03  0.00000000000E+00 0.  1.
         21   -1    0    0  502  503 -0.00000000000E+00 -0.00000000000E+00 -0.27840886087E+02  0.27840886087E+02  0.00000000000E+00 0.  1.
         25    2    1    2    0    0  0.00000000000E+00  0.00000000000E+00  0.11244488458E+03  0.16812665675E+03  0.12499088224E+03 0.  0.
          4    1    3    3  501    0  0.66690114694E+00  0.36107955632E+02 -0.12352496824E+02  0.38199684486E+02  0.15500000000E+01 0.  1.
         -4    1    3    3    0  501 -0.66690114694E+00 -0.36107955632E+02  0.12479738140E+03  0.12992697226E+03  0.15500000000E+01 0.  1.
<mgrwt>
<rscale>  2 0.12499088E+03</rscale>
<asrwt>0</asrwt>
<pdfrwt beam="1">  1       21 0.21582426E-01 0.12499088E+03</pdfrwt>
<pdfrwt beam="2">  1       21 0.42832133E-02 0.12499088E+03</pdfrwt>
<totfact> 0.68555766E+06</totfact>
</mgrwt>
</event>
<event>
 5    0  0.1463684E+000  0.1250010E+03  0.7546771E-02  0.1235068E+00
         21   -1    0    0  503  502  0.00000000000E+00  0.00000000000E+00  0.14877621942E+02  0.14877621942E+02  0.00000000000E+00 0. -1.
         21   -1    0    0  502  503 -0.00000000000E+00 -0.00000000000E+00 -0.26256300460E+03  0.26256300460E+03  0.00000000000E+00 0. -1.
         25    2    1    2    0    0  0.00000000000E+00  0.00000000000E+00 -0.24768538266E+03  0.27744062654E+03  0.12500100989E+03 0.  0.
          4    1    3    3  501    0 -0.41836151001E+02  0.46179800357E+02 -0.13403144412E+03  0.14781633200E+03  0.15500000000E+01 0. -1.
         -4    1    3    3    0  501  0.41836151001E+02 -0.46179800357E+02 -0.11365393854E+03  0.12962429454E+03  0.15500000000E+01 0. -1.
<mgrwt>
<rscale>  2 0.12500101E+03</rscale>
<asrwt>0</asrwt>
<pdfrwt beam="1">  1       21 0.22888650E-02 0.12500101E+03</pdfrwt>
<pdfrwt beam="2">  1       21 0.40394307E-01 0.12500101E+03</pdfrwt>
<totfact> 0.57383191E+06</totfact>
</mgrwt>
</event>
<event>
 5    0  0.1402946E+000  0.1250011E+03  0.7546771E-02  0.1235068E+00
         21   -1    0    0  503  502  0.00000000000E+00  0.00000000000E+00  0.15467924673E+02  0.15467924673E+02  0.00000000000E+00 0.  1.
         21   -1    0    0  502  503 -0.00000000000E+00 -0.00000000000E+00 -0.25254329011E+03  0.25254329011E+03  0.00000000000E+00 0.  1.
         25    2    1    2    0    0  0.00000000000E+00  0.00000000000E+00 -0.23707536544E+03  0.26801121478E+03  0.12500112940E+03 0.  0.
          4    1    3    3  501    0  0.75013916306E-01  0.27412517930E+02  0.18450667443E+01  0.27518330938E+02  0.15500000000E+01 0. -1.
         -4    1    3    3    0  501 -0.75013916306E-01 -0.27412517930E+02 -0.23892043218E+03  0.24049288385E+03  0.15500000000E+01 0. -1.
<mgrwt>
<rscale>  2 0.12500113E+03</rscale>
<asrwt>0</asrwt>
<pdfrwt beam="1">  1       21 0.23796807E-02 0.12500113E+03</pdfrwt>
<pdfrwt beam="2">  1       21 0.38852814E-01 0.12500113E+03</pdfrwt>
<totfact> 0.58221036E+06</totfact>
</mgrwt>
</event>
<event>
 5    0  0.1296407E+000  0.1250050E+03  0.7546771E-02  0.1235061E+00
         21   -1    0    0  503  502  0.00000000000E+00  0.00000000000E+00  0.43090388577E+03  0.43090388577E+03  0.00000000000E+00 0.  1.
         21   -1    0    0  502  503 -0.00000000000E+00 -0.00000000000E+00 -0.90659757928E+01  0.90659757928E+01  0.00000000000E+00 0.  1.
         25    2    1    2    0    0  0.00000000000E+00  0.00000000000E+00  0.42183790998E+03  0.43996986156E+03  0.12500502706E+03 0.  0.
          4    1    3    3  501    0  0.62220535796E+02  0.28493720029E+01  0.19344530368E+03  0.20323140016E+03  0.15500000000E+01 0. -1.
         -4    1    3    3    0  501 -0.62220535796E+02 -0.28493720029E+01  0.22839260630E+03  0.23673846140E+03  0.15500000000E+01 0. -1.
<mgrwt>
<rscale>  2 0.12500503E+03</rscale>
<asrwt>0</asrwt>
<pdfrwt beam="1">  1       21 0.66292890E-01 0.12500503E+03</pdfrwt>
<pdfrwt beam="2">  1       21 0.13947658E-02 0.12500503E+03</pdfrwt>
<totfact> 0.45492762E+06</totfact>
</mgrwt>
</event>
<event>
 5    0  0.1609704E+000  0.1250142E+03  0.7546771E-02  0.1235047E+00
         21   -1    0    0  503  502  0.00000000000E+00  0.00000000000E+00  0.50723524108E+02  0.50723524108E+02  0.00000000000E+00 0.  1.
         21   -1    0    0  502  503 -0.00000000000E+00 -0.00000000000E+00 -0.77028109569E+02  0.77028109569E+02  0.00000000000E+00 0.  1.
         25    2    1    2    0    0  0.00000000000E+00  0.00000000000E+00 -0.26304585461E+02  0.12775163368E+03  0.12501419396E+03 0.  0.
          4    1    3    3  501    0 -0.45949765494E+02  0.31081458442E+02 -0.42544877153E+02  0.69927870551E+02  0.15500000000E+01 0. -1.
         -4    1    3    3    0  501  0.45949765494E+02 -0.31081458442E+02  0.16240291692E+02  0.57823763126E+02  0.15500000000E+01 0. -1.
<mgrwt>
<rscale>  2 0.12501419E+03</rscale>
<asrwt>0</asrwt>
<pdfrwt beam="1">  1       21 0.78036192E-02 0.12501419E+03</pdfrwt>
<pdfrwt beam="2">  1       21 0.11850478E-01 0.12501419E+03</pdfrwt>
<totfact> 0.73640450E+06</totfact>
</mgrwt>
</event>
<event>
 5    0  0.1494625E+000  0.1249996E+03  0.7546771E-02  0.1235070E+00
         21   -1    0    0  503  502  0.00000000000E+00  0.00000000000E+00  0.19918789589E+03  0.19918789589E+03  0.00000000000E+00 0. -1.
         21   -1    0    0  502  503 -0.00000000000E+00 -0.00000000000E+00 -0.19610744629E+02  0.19610744629E+02  0.00000000000E+00 0. -1.
         25    2    1    2    0    0  0.00000000000E+00  0.00000000000E+00  0.17957715126E+03  0.21879864052E+03  0.12499956735E+03 0.  0.
          4    1    3    3  501    0  0.32155140110E+02 -0.38377322805E+02  0.24363858450E+02  0.55702531718E+02  0.15500000000E+01 0. -1.
         -4    1    3    3    0  501 -0.32155140110E+02  0.38377322805E+02  0.15521329281E+03  0.16309610881E+03  0.15500000000E+01 0. -1.
<mgrwt>
<rscale>  2 0.12499957E+03</rscale>
<asrwt>0</asrwt>
<pdfrwt beam="1">  1       21 0.30644290E-01 0.12499957E+03</pdfrwt>
<pdfrwt beam="2">  1       21 0.30170378E-02 0.12499957E+03</pdfrwt>
<totfact> 0.62946231E+06</totfact>
</mgrwt>
</event>
<event>
 5    0  0.1509138E+000  0.1249926E+03  0.7546771E-02  0.1235081E+00
         21   -1    0    0  503  502  0.00000000000E+00  0.00000000000E+00  0.16262185995E+02  0.16262185995E+02  0.00000000000E+00 0. -1.
         21   -1    0    0  502  503 -0.00000000000E+00 -0.00000000000E+00 -0.24017603025E+03  0.24017603025E+03  0.00000000000E+00 0. -1.
         25    2    1    2    0    0  0.00000000000E+00  0.00000000000E+00 -0.22391384426E+03  0.25643821625E+03  0.12499259619E+03 0.  0.
          4    1    3    3  501    0 -0.42917863077E+01  0.62225398266E+02 -0.11934424939E+03  0.13466949165E+03  0.15500000000E+01 0.  1.
         -4    1    3    3    0  501  0.42917863077E+01 -0.62225398266E+02 -0.10456959487E+03  0.12176872460E+03  0.15500000000E+01 0.  1.
<mgrwt>
<rscale>  2 0.12499260E+03</rscale>
<asrwt>0</asrwt>
<pdfrwt beam="1">  1       21 0.25018749E-02 0.12499260E+03</pdfrwt>
<pdfrwt beam="2">  1       21 0.36950157E-01 0.12499260E+03</pdfrwt>
<totfact> 0.59288341E+06</totfact>
</mgrwt>
</event>
<event>
 5    0  0.1309328E+000  0.1250005E+03  0.7546771E-02  0.1235069E+00
         21   -1    0    0  503  502  0.00000000000E+00  0.00000000000E+00  0.37582100674E+03  0.37582100674E+03  0.00000000000E+00 0.  1.
         21   -1    0    0  502  503 -0.00000000000E+00 -0.00000000000E+00 -0.10393986271E+02  0.10393986271E+02  0.00000000000E+00 0.  1.
         25    2    1    2    0    0  0.00000000000E+00  0.00000000000E+00  0.36542702047E+03  0.38621499301E+03  0.12500045415E+03 0.  0.
          4    1    3    3  501    0 -0.43841762320E+02 -0.16209856283E+02  0.31081599046E+03  0.31431487714E+03  0.15500000000E+01 0. -1.
         -4    1    3    3    0  501  0.43841762320E+02  0.16209856283E+02  0.54611030012E+02  0.71900115876E+02  0.15500000000E+01 0. -1.
<mgrwt>
<rscale>  2 0.12500045E+03</rscale>
<asrwt>0</asrwt>
<pdfrwt beam="1">  1       21 0.57818606E-01 0.12500045E+03</pdfrwt>
<pdfrwt beam="2">  1       21 0.15990751E-02 0.12500045E+03</pdfrwt>
<totfact> 0.48968788E+06</totfact>
</mgrwt>
</event>
<event>
 5    0  0.1371711E+000  0.1250081E+03  0.7546771E-02  0.1235057E+00
         21   -1    0    0  503  502  0.00000000000E+00  0.00000000000E+00  0.36126268007E+03  0.36126268007E+03  0.00000000000E+00 0. -1.
         21   -1    0    0  502  503 -0.00000000000E+00 -0.00000000000E+00 -0.10814171805E+02  0.10814171805E+02  0.00000000000E+00 0. -1.
         25    2    1    2    0    0  0.00000000000E+00  0.00000000000E+00  0.35044850827E+03  0.37207685187E+03  0.12500810676E+03 0.  0.
          4    1    3    3  501    0  0.56394614895E+01  0.54198689394E+02  0.26623916029E+03  0.27176275394E+03  0.15500000000E+01 0. -1.
         -4    1    3    3    0  501 -0.56394614895E+01 -0.54198689394E+02  0.84209347980E+02  0.10031409794E+03  0.15500000000E+01 0. -1.
<mgrwt>
<rscale>  2 0.12500811E+03</rscale>
<asrwt>0</asrwt>
<pdfrwt beam="1">  1       21 0.55578865E-01 0.12500811E+03</pdfrwt>
<pdfrwt beam="2">  1       21 0.16637190E-02 0.12500811E+03</pdfrwt>
<totfact> 0.49938061E+06</totfact>
</mgrwt>
</event>
<event>
 5    0  0.1542717E+000  0.1249981E+03  0.7546771E-02  0.1235072E+00
         21   -1    0    0  503  502  0.00000000000E+00  0.00000000000E+00  0.15384697062E+03  0.15384697062E+03  0.00000000000E+00 0.  1.
         21   -1    0    0  502  503 -0.00000000000E+00 -0.00000000000E+00 -0.25389729966E+02  0.25389729966E+02  0.00000000000E+00 0.  1.
         25    2    1    2    0    0  0.00000000000E+00  0.00000000000E+00  0.12845724066E+03  0.17923670059E+03  0.12499812863E+03 0.  0.
          4    1    3    3  501    0  0.46507937316E+02 -0.23406696857E+02  0.11375308369E+03  0.12511206273E+03  0.15500000000E+01 0.  1.
         -4    1    3    3    0  501 -0.46507937316E+02  0.23406696857E+02  0.14704156963E+02  0.54124637857E+02  0.15500000000E+01 0.  1.
<mgrwt>
<rscale>  2 0.12499813E+03</rscale>
<asrwt>0</asrwt>
<pdfrwt beam="1">  1       21 0.23668764E-01 0.12499813E+03</pdfrwt>
<pdfrwt beam="2">  1       21 0.39061124E-02 0.12499813E+03</pdfrwt>
<totfact> 0.67242400E+06</totfact>
</mgrwt>
</event>
<event>
 5    0  0.1525044E+000  0.1249955E+03  0.7546771E-02  0.1235076E+00
         21   -1    0    0  503  502  0.00000000000E+00  0.00000000000E+00  0.26386897086E+02  0.26386897086E+02  0.00000000000E+00 0.  1.
         21   -1    0    0  502  503 -0.00000000000E+00 -0.00000000000E+00 -0.14802687582E+03  0.14802687582E+03  0.00000000000E+00 0.  1.
         25    2    1    2    0    0  0.00000000000E+00  0.00000000000E+00 -0.12163997873E+03  0.17441377290E+03  0.12499551893E+03 0.  0.
          4    1    3    3  501    0  0.50313304117E+02 -0.35503873072E+02 -0.75561615886E+02  0.97488019108E+02  0.15500000000E+01 0.  1.
         -4    1    3    3    0  501 -0.50313304117E+02  0.35503873072E+02 -0.46078362843E+02  0.76925753793E+02  0.15500000000E+01 0.  1.
<mgrwt>
<rscale>  2 0.12499552E+03</rscale>
<asrwt>0</asrwt>
<pdfrwt beam="1">  1       21 0.40595225E-02 0.12499552E+03</pdfrwt>
<pdfrwt beam="2">  1       21 0.22773366E-01 0.12499552E+03</pdfrwt>
<totfact> 0.67805931E+06</totfact>
</mgrwt>
</event>
<event>
 5    0  0.1222151E+000  0.1249971E+03  0.7546771E-02  0.1235074E+00
         21   -1    0    0  503  502  0.00000000000E+00  0.00000000000E+00  0.16887075128E+04  0.16887075128E+04  0.00000000000E+00 0. -1.
         21   -1    0    0  502  503 -0.00000000000E+00 -0.00000000000E+00 -0.23130519568E+01  0.23130519568E+01  0.00000000000E+00 0. -1.
         25    2    1    2    0    0  0.00000000000E+00  0.00000000000E+00  0.16863944609E+04  0.16910205648E+04  0.12499709144E+03 0.  0.
          4    1    3    3  501    0 -0.50946138059E+01 -0.51362966957E+02  0.36689556308E+03  0.37051162758E+03  0.15500000000E+01 0.  1.
         -4    1    3    3    0  501  0.50946138059E+01  0.51362966957E+02  0.13194988978E+04  0.13205089372E+04  0.15500000000E+01 0.  1.
<mgrwt>
<rscale>  2 0.12499709E+03</rscale>
<asrwt>0</asrwt>
<pdfrwt beam="1">  1       21 0.25980017E+00 0.12499709E+03</pdfrwt>
<pdfrwt beam="2">  1       21 0.35585550E-03 0.12499709E+03</pdfrwt>
<totfact> 0.11383240E+06</totfact>
</mgrwt>
</event>
<event>
 5    0  0.1336744E+000  0.1250018E+03  0.7546771E-02  0.1235066E+00
         21   -1    0    0  503  502  0.00000000000E+00  0.00000000000E+00  0.53554256464E+03  0.53554256464E+03  0.00000000000E+00 0.  1.
         21   -1    0    0  502  503 -0.00000000000E+00 -0.00000000000E+00 -0.72942174333E+01  0.72942174333E+01  0.00000000000E+00 0.  1.
         25    2    1    2    0    0  0.00000000000E+00  0.00000000000E+00  0.52824834721E+03  0.54283678207E+03  0.12500182257E+03 0.  0.
          4    1    3    3  501    0  0.72130856662E+01  0.60582254794E+02  0.32266490210E+03  0.32838587020E+03  0.15500000000E+01 0. -1.
         -4    1    3    3    0  501 -0.72130856662E+01 -0.60582254794E+02  0.20558344511E+03  0.21445091187E+03  0.15500000000E+01 0. -1.
<mgrwt>
<rscale>  2 0.12500182E+03</rscale>
<asrwt>0</asrwt>
<pdfrwt beam="1">  1       21 0.82391133E-01 0.12500182E+03</pdfrwt>
<pdfrwt beam="2">  1       21 0.11221877E-02 0.12500182E+03</pdfrwt>
<totfact> 0.39810515E+06</totfact>
</mgrwt>
</event>
<event>
 5    0  0.1255224E+000  0.1250026E+03  0.7546771E-02  0.1235065E+00
         21   -1    0    0  503  502  0.00000000000E+00  0.00000000000E+00  0.92062051962E+03  0.92062051962E+03  0.00000000000E+00 0.  1.
         21   -1    0    0  502  503 -0.00000000000E+00 -0.00000000000E+00 -0.42432402302E+01  0.42432402302E+01  0.00000000000E+00 0.  1.
         25    2    1    2    0    0  0.00000000000E+00  0.00000000000E+00  0.91637727939E+03  0.92486375985E+03  0.12500262438E+03 0.  0.
          4    1    3    3  501    0 -0.45453969307E+02  0.41056019050E+02  0.54951202410E+03  0.55291728781E+03  0.15500000000E+01 0. -1.
         -4    1    3    3    0  501  0.45453969307E+02 -0.41056019050E+02  0.36686525528E+03  0.37194647203E+03  0.15500000000E+01 0. -1.
<mgrwt>
<rscale>  2 0.12500262E+03</rscale>
<asrwt>0</asrwt>
<pdfrwt beam="1">  1       21 0.14163377E+00 0.12500262E+03</pdfrwt>
<pdfrwt beam="2">  1       21 0.65280692E-03 0.12500262E+03</pdfrwt>
<totfact> 0.25595043E+06</totfact>
</mgrwt>
</event>
<event>
 5    0  0.1438615E+000  0.1249899E+03  0.7546771E-02  0.1235085E+00
         21   -1    0    0  503  502  0.00000000000E+00  0.00000000000E+00  0.19710801821E+02  0.19710801821E+02  0.00000000000E+00 0.  1.
         21   -1    0    0  502  503 -0.00000000000E+00 -0.00000000000E+00 -0.19814624070E+03  0.19814624070E+03  0.00000000000E+00 0.  1.
         25    2    1    2    0    0  0.00000000000E+00  0.00000000000E+00 -0.17843543888E+03  0.21785704252E+03  0.12498994011E+03 0.  0.
          4    1    3    3  501    0  0.38030771644E+02 -0.31388670299E+02 -0.22353166744E+02  0.54163223487E+02  0.15500000000E+01 0.  1.
         -4    1    3    3    0  501 -0.38030771644E+02  0.31388670299E+02 -0.15608227213E+03  0.16369381903E+03  0.15500000000E+01 0.  1.
<mgrwt>
<rscale>  2 0.12498994E+03</rscale>
<asrwt>0</asrwt>
<pdfrwt beam="1">  1       21 0.30324311E-02 0.12498994E+03</pdfrwt>
<pdfrwt beam="2">  1       21 0.30484037E-01 0.12498994E+03</pdfrwt>
<totfact> 0.63058282E+06</totfact>
</mgrwt>
</event>
<event>
 5    0  0.1222151E+000  0.1249978E+03  0.7546771E-02  0.1235073E+00
         21   -1    0    0  503  502  0.00000000000E+00  0.00000000000E+00  0.46903954169E+01  0.46903954169E+01  0.00000000000E+00 0. -1.
         21   -1    0    0  502  503 -0.00000000000E+00 -0.00000000000E+00 -0.83278985467E+03  0.83278985467E+03  0.00000000000E+00 0. -1.
         25    2    1    2    0    0  0.00000000000E+00  0.00000000000E+00 -0.82809945925E+03  0.83748025008E+03  0.12499781946E+03 0.  0.
          4    1    3    3  501    0  0.46493405299E+02  0.54939106019E+01 -0.69126059314E+03  0.69284589189E+03  0.15500000000E+01 0.  1.
         -4    1    3    3    0  501 -0.46493405299E+02 -0.54939106019E+01 -0.13683886611E+03  0.14463435819E+03  0.15500000000E+01 0.  1.
<mgrwt>
<rscale>  2 0.12499782E+03</rscale>
<asrwt>0</asrwt>
<pdfrwt beam="1">  1       21 0.72160004E-03 0.12499782E+03</pdfrwt>
<pdfrwt beam="2">  1       21 0.12812138E+00 0.12499782E+03</pdfrwt>
<totfact> 0.28159620E+06</totfact>
</mgrwt>
</event>
<event>
 5    0  0.1489177E+000  0.1249995E+03  0.7546771E-02  0.1235070E+00
         21   -1    0    0  503  502  0.00000000000E+00  0.00000000000E+00  0.14137822854E+03  0.14137822854E+03  0.00000000000E+00 0. -1.
         21   -1    0    0  502  503 -0.00000000000E+00 -0.00000000000E+00 -0.27629543777E+02  0.27629543777E+02  0.00000000000E+00 0. -1.
         25    2    1    2    0    0  0.00000000000E+00  0.00000000000E+00  0.11374868476E+03  0.16900777232E+03  0.12499945527E+03 0.  0.
          4    1    3    3  501    0  0.41538974597E+02  0.40189594719E+01  0.11974441741E+03  0.12681784750E+03  0.15500000000E+01 0. -1.
         -4    1    3    3    0  501 -0.41538974597E+02 -0.40189594719E+01 -0.59957326419E+01  0.42189924813E+02  0.15500000000E+01 0. -1.
<mgrwt>
<rscale>  2 0.12499946E+03</rscale>
<asrwt>0</asrwt>
<pdfrwt beam="1">  1       21 0.21750496E-01 0.12499946E+03</pdfrwt>
<pdfrwt beam="2">  1       21 0.42506991E-02 0.12499946E+03</pdfrwt>
<totfact> 0.68436197E+06</totfact>
</mgrwt>
</event>
<event>
 5    0  0.1513852E+000  0.1250078E+03  0.7546771E-02  0.1235057E+00
         21   -1    0    0  503  502  0.00000000000E+00  0.00000000000E+00  0.52120336050E+02  0.52120336050E+02  0.00000000000E+00 0. -1.
         21   -1    0    0  502  503 -0.00000000000E+00 -0.00000000000E+00 -0.74956085164E+02  0.74956085164E+02  0.00000000000E+00 0. -1.
         25    2    1    2    0    0  0.00000000000E+00  0.00000000000E+00 -0.22835749114E+02  0.12707642121E+03  0.12500778132E+03 0.  0.
          4    1    3    3  501    0 -0.60765944457E+02 -0.13883669904E+02 -0.15857938765E+02  0.64336094206E+02  0.15500000000E+01 0. -1.
         -4    1    3    3    0  501  0.60765944457E+02  0.13883669904E+02 -0.69778103487E+01  0.62740327008E+02  0.15500000000E+01 0. -1.
<mgrwt>
<rscale>  2 0.12500778E+03</rscale>
<asrwt>0</asrwt>
<pdfrwt beam="1">  1       21 0.80185133E-02 0.12500778E+03</pdfrwt>
<pdfrwt beam="2">  1       21 0.11531705E-01 0.12500778E+03</pdfrwt>
<totfact> 0.73744088E+06</totfact>
</mgrwt>
</event>
<event>
 5    0  0.1222151E+000  0.1250112E+03  0.7546771E-02  0.1235052E+00
         21   -1    0    0  503  502  0.00000000000E+00  0.00000000000E+00  0.24661629354E+01  0.24661629354E+01  0.00000000000E+00 0. -1.
         21   -1    0    0  502  503 -0.00000000000E+00 -0.00000000000E+00 -0.15842231444E+04  0.15842231444E+04  0.00000000000E+00 0. -1.
         25    2    1    2    0    0  0.00000000000E+00  0.00000000000E+00 -0.15817569815E+04  0.15866893073E+04  0.12501123790E+03 0.  0.
          4    1    3    3  501    0 -0.14512388696E+02  0.28344435483E+02 -0.14732672107E+04  0.14736121243E+04  0.15500000000E+01 0.  1.
         -4    1    3    3    0  501  0.14512388696E+02 -0.28344435483E+02 -0.10848977080E+03  0.11307718301E+03  0.15500000000E+01 0.  1.
<mgrwt>
<rscale>  2 0.12501124E+03</rscale>
<asrwt>0</asrwt>
<pdfrwt beam="1">  1       21 0.37940791E-03 0.12501124E+03</pdfrwt>
<pdfrwt beam="2">  1       21 0.24372778E+00 0.12501124E+03</pdfrwt>
<totfact> 0.12751743E+06</totfact>
</mgrwt>
</event>
<event>
 5    0  0.1633404E+000  0.1249998E+03  0.7546771E-02  0.1235070E+00
         21   -1    0    0  503  502  0.00000000000E+00  0.00000000000E+00  0.35969094788E+02  0.35969094788E+02  0.00000000000E+00 0. -1.
         21   -1    0    0  502  503 -0.00000000000E+00 -0.00000000000E+00 -0.10859975946E+03  0.10859975946E+03  0.00000000000E+00 0. -1.
         25    2    1    2    0    0  0.00000000000E+00  0.00000000000E+00 -0.72630664675E+02  0.14456885425E+03  0.12499976067E+03 0.  0.
          4    1    3    3  501    0  0.59099621738E+02  0.18108239070E+02 -0.46862115196E+02  0.77583077745E+02  0.15500000000E+01 0.  1.
         -4    1    3    3    0  501 -0.59099621738E+02 -0.18108239070E+02 -0.25768549479E+02  0.66985776505E+02  0.15500000000E+01 0.  1.
<mgrwt>
<rscale>  2 0.12499976E+03</rscale>
<asrwt>0</asrwt>
<pdfrwt beam="1">  1       21 0.55337070E-02 0.12499976E+03</pdfrwt>
<pdfrwt beam="2">  1       21 0.16707655E-01 0.12499976E+03</pdfrwt>
<totfact> 0.71448756E+06</totfact>
</mgrwt>
</event>
<event>
 5    0  0.1318889E+000  0.1250016E+03  0.7546771E-02  0.1235067E+00
         21   -1    0    0  503  502  0.00000000000E+00  0.00000000000E+00  0.54172824269E+03  0.54172824269E+03  0.00000000000E+00 0. -1.
         21   -1    0    0  502  503 -0.00000000000E+00 -0.00000000000E+00 -0.72109088291E+01  0.72109088291E+01  0.00000000000E+00 0. -1.
         25    2    1    2    0    0  0.00000000000E+00  0.00000000000E+00  0.53451733386E+03  0.54893915152E+03  0.12500164748E+03 0.  0.
          4    1    3    3  501    0  0.63034849693E+01  0.55421450988E+02  0.14361916903E+03  0.15407835463E+03  0.15500000000E+01 0.  1.
         -4    1    3    3    0  501 -0.63034849693E+01 -0.55421450988E+02  0.39089816483E+03  0.39486079689E+03  0.15500000000E+01 0.  1.
<mgrwt>
<rscale>  2 0.12500165E+03</rscale>
<asrwt>0</asrwt>
<pdfrwt beam="1">  1       21 0.83342775E-01 0.12500165E+03</pdfrwt>
<pdfrwt beam="2">  1       21 0.11093710E-02 0.12500165E+03</pdfrwt>
<totfact> 0.39506936E+06</totfact>
</mgrwt>
</event>
<event>
 5    0  0.1520364E+000  0.1249966E+03  0.7546771E-02  0.1235075E+00
         21   -1    0    0  503  502  0.00000000000E+00  0.00000000000E+00  0.38382023264E+02  0.38382023264E+02  0.00000000000E+00 0. -1.
         21   -1    0    0  502  503 -0.00000000000E+00 -0.00000000000E+00 -0.10176735423E+03  0.10176735423E+03  0.00000000000E+00 0. -1.
         25    2    1    2    0    0  0.00000000000E+00  0.00000000000E+00 -0.63385330966E+02  0.14014937749E+03  0.12499659127E+03 0.  0.
          4    1    3    3  501    0  0.28496067812E+02 -0.48440087013E+02 -0.10857419699E+01  0.56232101563E+02  0.15500000000E+01 0. -1.
         -4    1    3    3    0  501 -0.28496067812E+02  0.48440087013E+02 -0.62299588996E+02  0.83917275931E+02  0.15500000000E+01 0. -1.
<mgrwt>
<rscale>  2 0.12499659E+03</rscale>
<asrwt>0</asrwt>
<pdfrwt beam="1">  1       21 0.59049266E-02 0.12499659E+03</pdfrwt>
<pdfrwt beam="2">  1       21 0.15656516E-01 0.12499659E+03</pdfrwt>
<totfact> 0.72026068E+06</totfact>
</mgrwt>
</event>
<event>
 5    0  0.1625560E+000  0.1249998E+03  0.7546771E-02  0.1235070E+00
         21   -1    0    0  503  502  0.00000000000E+00  0.00000000000E+00  0.72765568865E+02  0.72765568865E+02  0.00000000000E+00 0.  1.
         21   -1    0    0  502  503 -0.00000000000E+00 -0.00000000000E+00 -0.53682468056E+02  0.53682468056E+02  0.00000000000E+00 0.  1.
         25    2    1    2    0    0  0.00000000000E+00  0.00000000000E+00  0.19083100809E+02  0.12644803692E+03  0.12499976522E+03 0.  0.
          4    1    3    3  501    0  0.53779747316E+02 -0.24342146790E+02  0.30248981603E+02  0.66349112426E+02  0.15500000000E+01 0.  1.
         -4    1    3    3    0  501 -0.53779747316E+02  0.24342146790E+02 -0.11165880794E+02  0.60098924496E+02  0.15500000000E+01 0.  1.
<mgrwt>
<rscale>  2 0.12499977E+03</rscale>
<asrwt>0</asrwt>
<pdfrwt beam="1">  1       21 0.11194703E-01 0.12499977E+03</pdfrwt>
<pdfrwt beam="2">  1       21 0.82588413E-02 0.12499977E+03</pdfrwt>
<totfact> 0.73844929E+06</totfact>
</mgrwt>
</event>
<event>
 5    0  0.1490856E+000  0.1249997E+03  0.7546771E-02  0.1235070E+00
         21   -1    0    0  503  502  0.00000000000E+00  0.00000000000E+00  0.13045498283E+02  0.13045498283E+02  0.00000000000E+00 0. -1.
         21   -1    0    0  502  503 -0.00000000000E+00 -0.00000000000E+00 -0.29943159088E+03  0.29943159088E+03  0.00000000000E+00 0. -1.
         25    2    1    2    0    0  0.00000000000E+00  0.00000000000E+00 -0.28638609260E+03  0.31247708917E+03  0.12499974887E+03 0.  0.
          4    1    3    3  501    0 -0.26609342422E+02 -0.55155703058E+02 -0.17417703541E+03  0.18463545393E+03  0.15500000000E+01 0. -1.
         -4    1    3    3    0  501  0.26609342422E+02  0.55155703058E+02 -0.11220905719E+03  0.12784163524E+03  0.15500000000E+01 0. -1.
<mgrwt>
<rscale>  2 0.12499975E+03</rscale>
<asrwt>0</asrwt>
<pdfrwt beam="1">  1       21 0.20069999E-02 0.12499975E+03</pdfrwt>
<pdfrwt beam="2">  1       21 0.46066394E-01 0.12499975E+03</pdfrwt>
<totfact> 0.54435276E+06</totfact>
</mgrwt>
</event>
<event>
 5    0  0.1508573E+000  0.1250163E+03  0.7546771E-02  0.1235044E+00
         21   -1    0    0  503  502  0.00000000000E+00  0.00000000000E+00  0.13393166512E+03  0.13393166512E+03  0.00000000000E+00 0.  1.
         21   -1    0    0  502  503 -0.00000000000E+00 -0.00000000000E+00 -0.29173599823E+02  0.29173599823E+02  0.00000000000E+00 0.  1.
         25    2    1    2    0    0  0.00000000000E+00  0.00000000000E+00  0.10475806530E+03  0.16310526495E+03  0.12501629977E+03 0.  0.
          4    1    3    3  501    0 -0.13030031494E+01  0.45570290702E+02  0.10813780581E+03  0.11736497245E+03  0.15500000000E+01 0.  1.
         -4    1    3    3    0  501  0.13030031494E+01 -0.45570290702E+02 -0.33797405113E+01  0.45740292498E+02  0.15500000000E+01 0.  1.
<mgrwt>
<rscale>  2 0.12501630E+03</rscale>
<asrwt>0</asrwt>
<pdfrwt beam="1">  1       21 0.20604871E-01 0.12501630E+03</pdfrwt>
<pdfrwt beam="2">  1       21 0.44882462E-02 0.12501630E+03</pdfrwt>
<totfact> 0.69113406E+06</totfact>
</mgrwt>
</event>
<event>
 5    0  0.1234563E+000  0.1250012E+03  0.7546771E-02  0.1235067E+00
         21   -1    0    0  503  502  0.00000000000E+00  0.00000000000E+00  0.49032820990E+03  0.49032820990E+03  0.00000000000E+00 0. -1.
         21   -1    0    0  502  503 -0.00000000000E+00 -0.00000000000E+00 -0.79667591013E+01  0.79667591013E+01  0.00000000000E+00 0. -1.
         25    2    1    2    0    0  0.00000000000E+00  0.00000000000E+00  0.48236145080E+03  0.49829496900E+03  0.12500122766E+03 0.  0.
          4    1    3    3  501    0 -0.16754656870E+02 -0.21227908167E+02  0.46571292237E+03  0.46650002269E+03  0.15500000000E+01 0. -1.
         -4    1    3    3    0  501  0.16754656870E+02  0.21227908167E+02  0.16648528435E+02  0.31794946313E+02  0.15500000000E+01 0. -1.
<mgrwt>
<rscale>  2 0.12500123E+03</rscale>
<asrwt>0</asrwt>
<pdfrwt beam="1">  1       21 0.75435086E-01 0.12500123E+03</pdfrwt>
<pdfrwt beam="2">  1       21 0.12256556E-02 0.12500123E+03</pdfrwt>
<totfact> 0.42135409E+06</totfact>
</mgrwt>
</event>
<event>
 5    0  0.1457356E+000  0.1249984E+03  0.7546771E-02  0.1235072E+00
         21   -1    0    0  503  502  0.00000000000E+00  0.00000000000E+00  0.91663722163E+01  0.91663722163E+01  0.00000000000E+00 0. -1.
         21   -1    0    0  502  503 -0.00000000000E+00 -0.00000000000E+00 -0.42613886301E+03  0.42613886301E+03  0.00000000000E+00 0. -1.
         25    2    1    2    0    0  0.00000000000E+00  0.00000000000E+00 -0.41697249079E+03  0.43530523522E+03  0.12499835894E+03 0.  0.
          4    1    3    3  501    0 -0.67192950317E+01  0.54384071120E+02 -0.31301708987E+03  0.31778117812E+03  0.15500000000E+01 0.  1.
         -4    1    3    3    0  501  0.67192950317E+01 -0.54384071120E+02 -0.10395540092E+03  0.11752405710E+03  0.15500000000E+01 0.  1.
<mgrwt>
<rscale>  2 0.12499836E+03</rscale>
<asrwt>0</asrwt>
<pdfrwt beam="1">  1       21 0.14102114E-02 0.12499836E+03</pdfrwt>
<pdfrwt beam="2">  1       21 0.65559814E-01 0.12499836E+03</pdfrwt>
<totfact> 0.45786363E+06</totfact>
</mgrwt>
</event>
<event>
 5    0  0.1475320E+000  0.1250015E+03  0.7546771E-02  0.1235067E+00
         21   -1    0    0  503  502  0.00000000000E+00  0.00000000000E+00  0.37034371490E+02  0.37034371490E+02  0.00000000000E+00 0.  1.
         21   -1    0    0  502  503 -0.00000000000E+00 -0.00000000000E+00 -0.10547880842E+03  0.10547880842E+03  0.00000000000E+00 0.  1.
         25    2    1    2    0    0  0.00000000000E+00  0.00000000000E+00 -0.68444436928E+02  0.14251317991E+03  0.12500146200E+03 0.  0.
          4    1    3    3  501    0 -0.16045520642E+02 -0.48561115063E+02  0.66989612997E+01  0.51603480612E+02  0.15500000000E+01 0.  1.
         -4    1    3    3    0  501  0.16045520642E+02  0.48561115063E+02 -0.75143398227E+02  0.90909699295E+02  0.15500000000E+01 0.  1.
<mgrwt>
<rscale>  2 0.12500146E+03</rscale>
<asrwt>0</asrwt>
<pdfrwt beam="1">  1       21 0.56975958E-02 0.12500146E+03</pdfrwt>
<pdfrwt beam="2">  1       21 0.16227509E-01 0.12500146E+03</pdfrwt>
<totfact> 0.71710222E+06</totfact>
</mgrwt>
</event>
<event>
 5    0  0.1495856E+000  0.1249862E+03  0.7546771E-02  0.1235091E+00
         21   -1    0    0  503  502  0.00000000000E+00  0.00000000000E+00  0.14377518913E+03  0.14377518913E+03  0.00000000000E+00 0.  1.
         21   -1    0    0  502  503 -0.00000000000E+00 -0.00000000000E+00 -0.27163167027E+02  0.27163167027E+02  0.00000000000E+00 0.  1.
         25    2    1    2    0    0  0.00000000000E+00  0.00000000000E+00  0.11661202210E+03  0.17093835616E+03  0.12498623087E+03 0.  0.
          4    1    3    3  501    0  0.53623986795E+02  0.61701786028E+01  0.15287064222E+02  0.56122187202E+02  0.15500000000E+01 0.  1.
         -4    1    3    3    0  501 -0.53623986795E+02 -0.61701786028E+01  0.10132495788E+03  0.11481616896E+03  0.15500000000E+01 0.  1.
<mgrwt>
<rscale>  2 0.12498623E+03</rscale>
<asrwt>0</asrwt>
<pdfrwt beam="1">  1       21 0.22119259E-01 0.12498623E+03</pdfrwt>
<pdfrwt beam="2">  1       21 0.41789488E-02 0.12498623E+03</pdfrwt>
<totfact> 0.68230418E+06</totfact>
</mgrwt>
</event>
<event>
 5    0  0.1527951E+000  0.1250226E+03  0.7546771E-02  0.1235034E+00
         21   -1    0    0  503  502  0.00000000000E+00  0.00000000000E+00  0.24428066218E+03  0.24428066218E+03  0.00000000000E+00 0.  1.
         21   -1    0    0  502  503 -0.00000000000E+00 -0.00000000000E+00 -0.15996604125E+02  0.15996604125E+02  0.00000000000E+00 0.  1.
         25    2    1    2    0    0  0.00000000000E+00  0.00000000000E+00  0.22828405806E+03  0.26027726631E+03  0.12502257474E+03 0.  0.
          4    1    3    3  501    0  0.47326368757E+02 -0.24547568145E+02  0.46269815497E+02  0.70609252989E+02  0.15500000000E+01 0. -1.
         -4    1    3    3    0  501 -0.47326368757E+02  0.24547568145E+02  0.18201424256E+03  0.18966801332E+03  0.15500000000E+01 0. -1.
<mgrwt>
<rscale>  2 0.12502257E+03</rscale>
<asrwt>0</asrwt>
<pdfrwt beam="1">  1       21 0.37581638E-01 0.12502257E+03</pdfrwt>
<pdfrwt beam="2">  1       21 0.24610162E-02 0.12502257E+03</pdfrwt>
<totfact> 0.58890373E+06</totfact>
</mgrwt>
</event>
<event>
 5    0  0.1222151E+000  0.1249287E+03  0.7546771E-02  0.1235181E+00
         21   -1    0    0  503  502  0.00000000000E+00  0.00000000000E+00  0.42765349676E+01  0.42765349676E+01  0.00000000000E+00 0.  1.
         21   -1    0    0  502  503 -0.00000000000E+00 -0.00000000000E+00 -0.91237323179E+03  0.91237323179E+03  0.00000000000E+00 0.  1.
         25    2    1    2    0    0  0.00000000000E+00  0.00000000000E+00 -0.90809669682E+03  0.91664976675E+03  0.12492871614E+03 0.  0.
          4    1    3    3  501    0 -0.57597550091E+02 -0.23247669999E+02 -0.40680244648E+03  0.41151982322E+03  0.15500000000E+01 0.  1.
         -4    1    3    3    0  501  0.57597550091E+02  0.23247669999E+02 -0.50129425034E+03  0.50512994354E+03  0.15500000000E+01 0.  1.
<mgrwt>
<rscale>  2 0.12492872E+03</rscale>
<asrwt>0</asrwt>
<pdfrwt beam="1">  1       21 0.65792847E-03 0.12492872E+03</pdfrwt>
<pdfrwt beam="2">  1       21 0.14036511E+00 0.12492872E+03</pdfrwt>
<totfact> 0.25871636E+06</totfact>
</mgrwt>
</event>
<event>
 5    0  0.1235006E+000  0.1249347E+03  0.7546771E-02  0.1235171E+00
         21   -1    0    0  503  502  0.00000000000E+00  0.00000000000E+00  0.25776509852E+02  0.25776509852E+02  0.00000000000E+00 0.  1.
         21   -1    0    0  502  503 -0.00000000000E+00 -0.00000000000E+00 -0.15138461945E+03  0.15138461945E+03  0.00000000000E+00 0.  1.
         25    2    1    2    0    0  0.00000000000E+00  0.00000000000E+00 -0.12560810960E+03  0.17716112930E+03  0.12493465708E+03 0.  0.
          4    1    3    3  501    0 -0.17869366971E+02  0.90237212039E+01  0.21076037179E+02  0.29109168032E+02  0.15500000000E+01 0. -1.
         -4    1    3    3    0  501  0.17869366971E+02 -0.90237212039E+01 -0.14668414678E+03  0.14805196127E+03  0.15500000000E+01 0. -1.
<mgrwt>
<rscale>  2 0.12493466E+03</rscale>
<asrwt>0</asrwt>
<pdfrwt beam="1">  1       21 0.39656168E-02 0.12493466E+03</pdfrwt>
<pdfrwt beam="2">  1       21 0.23289942E-01 0.12493466E+03</pdfrwt>
<totfact> 0.67590686E+06</totfact>
</mgrwt>
</event>
<event>
 5    0  0.1540196E+000  0.1249902E+03  0.7546771E-02  0.1235085E+00
         21   -1    0    0  503  502  0.00000000000E+00  0.00000000000E+00  0.20984871510E+03  0.20984871510E+03  0.00000000000E+00 0.  1.
         21   -1    0    0  502  503 -0.00000000000E+00 -0.00000000000E+00 -0.18611694723E+02  0.18611694723E+02  0.00000000000E+00 0.  1.
         25    2    1    2    0    0  0.00000000000E+00  0.00000000000E+00  0.19123702038E+03  0.22846040982E+03  0.12499024319E+03 0.  0.
          4    1    3    3  501    0 -0.45792627942E+02  0.40762660875E+02  0.73632990848E+02  0.95826818463E+02  0.15500000000E+01 0.  1.
         -4    1    3    3    0  501  0.45792627942E+02 -0.40762660875E+02  0.11760402953E+03  0.13263359136E+03  0.15500000000E+01 0.  1.
<mgrwt>
<rscale>  2 0.12499024E+03</rscale>
<asrwt>0</asrwt>
<pdfrwt beam="1">  1       21 0.32284416E-01 0.12499024E+03</pdfrwt>
<pdfrwt beam="2">  1       21 0.28633378E-02 0.12499024E+03</pdfrwt>
<totfact> 0.61982798E+06</totfact>
</mgrwt>
</event>
<event>
 5    0  0.1436250E+000  0.1249963E+03  0.7546771E-02  0.1235075E+00
         21   -1    0    0  503  502  0.00000000000E+00  0.00000000000E+00  0.24748448611E+03  0.24748448611E+03  0.00000000000E+00 0. -1.
         21   -1    0    0  502  503 -0.00000000000E+00 -0.00000000000E+00 -0.15782891022E+02  0.15782891022E+02  0.00000000000E+00 0. -1.
         25    2    1    2    0    0  0.00000000000E+00  0.00000000000E+00  0.23170159509E+03  0.26326737714E+03  0.12499633073E+03 0.  0.
          4    1    3    3  501    0  0.21289191058E+02 -0.28970357983E+02  0.82260597333E+01  0.36913166436E+02  0.15500000000E+01 0.  1.
         -4    1    3    3    0  501 -0.21289191058E+02  0.28970357983E+02  0.22347553536E+03  0.22635421070E+03  0.15500000000E+01 0.  1.
<mgrwt>
<rscale>  2 0.12499633E+03</rscale>
<asrwt>0</asrwt>
<pdfrwt beam="1">  1       21 0.38074534E-01 0.12499633E+03</pdfrwt>
<pdfrwt beam="2">  1       21 0.24281373E-02 0.12499633E+03</pdfrwt>
<totfact> 0.58656509E+06</totfact>
</mgrwt>
</event>
<event>
 5    0  0.1494810E+000  0.1250195E+03  0.7546771E-02  0.1235039E+00
         21   -1    0    0  503  502  0.00000000000E+00  0.00000000000E+00  0.10415998049E+03  0.10415998049E+03  0.00000000000E+00 0. -1.
         21   -1    0    0  502  503 -0.00000000000E+00 -0.00000000000E+00 -0.37514115171E+02  0.37514115171E+02  0.00000000000E+00 0. -1.
         25    2    1    2    0    0  0.00000000000E+00  0.00000000000E+00  0.66645865316E+02  0.14167409566E+03  0.12501951054E+03 0.  0.
          4    1    3    3  501    0  0.39681615903E+02  0.25641371851E+01 -0.21305379357E+02  0.45138975728E+02  0.15500000000E+01 0.  1.
         -4    1    3    3    0  501 -0.39681615903E+02 -0.25641371851E+01  0.87951244673E+02  0.96535119930E+02  0.15500000000E+01 0.  1.
<mgrwt>
<rscale>  2 0.12501951E+03</rscale>
<asrwt>0</asrwt>
<pdfrwt beam="1">  1       21 0.16024612E-01 0.12501951E+03</pdfrwt>
<pdfrwt beam="2">  1       21 0.57714024E-02 0.12501951E+03</pdfrwt>
<totfact> 0.71785821E+06</totfact>
</mgrwt>
</event>
<event>
 5    0  0.1361281E+000  0.1250009E+03  0.7546771E-02  0.1235068E+00
         21   -1    0    0  503  502  0.00000000000E+00  0.00000000000E+00  0.12832657108E+02  0.12832657108E+02  0.00000000000E+00 0. -1.
         21   -1    0    0  502  503 -0.00000000000E+00 -0.00000000000E+00 -0.30440334843E+03  0.30440334843E+03  0.00000000000E+00 0. -1.
         25    2    1    2    0    0  0.00000000000E+00  0.00000000000E+00 -0.29157069132E+03  0.31723600554E+03  0.12500086068E+03 0.  0.
          4    1    3    3  501    0 -0.29509803515E+02  0.81664329915E+00 -0.60317035631E+01  0.30170836211E+02  0.15500000000E+01 0.  1.
         -4    1    3    3    0  501  0.29509803515E+02 -0.81664329915E+00 -0.28553898776E+03  0.28706516933E+03  0.15500000000E+01 0.  1.
<mgrwt>
<rscale>  2 0.12500086E+03</rscale>
<asrwt>0</asrwt>
<pdfrwt beam="1">  1       21 0.19742550E-02 0.12500086E+03</pdfrwt>
<pdfrwt beam="2">  1       21 0.46831282E-01 0.12500086E+03</pdfrwt>
<totfact> 0.54051938E+06</totfact>
</mgrwt>
</event>
<event>
 5    0  0.1353607E+000  0.1250093E+03  0.7546771E-02  0.1235055E+00
         21   -1    0    0  503  502  0.00000000000E+00  0.00000000000E+00  0.33375864862E+03  0.33375864862E+03  0.00000000000E+00 0.  1.
         21   -1    0    0  502  503 -0.00000000000E+00 -0.00000000000E+00 -0.11705550105E+02  0.11705550105E+02  0.00000000000E+00 0.  1.
         25    2    1    2    0    0  0.00000000000E+00  0.00000000000E+00  0.32205309851E+03  0.34546419872E+03  0.12500925701E+03 0.  0.
          4    1    3    3  501    0 -0.13405843547E+01 -0.54437622392E+02  0.24571690297E+03  0.25168323505E+03  0.15500000000E+01 0.  1.
         -4    1    3    3    0  501  0.13405843547E+01  0.54437622392E+02  0.76336195540E+02  0.93780963675E+02  0.15500000000E+01 0.  1.
<mgrwt>
<rscale>  2 0.12500926E+03</rscale>
<asrwt>0</asrwt>
<pdfrwt beam="1">  1       21 0.51347477E-01 0.12500926E+03</pdfrwt>
<pdfrwt beam="2">  1       21 0.18008541E-02 0.12500926E+03</pdfrwt>
<totfact> 0.51863140E+06</totfact>
</mgrwt>
</event>
<event>
 5    0  0.1580880E+000  0.1250162E+03  0.7546771E-02  0.1235044E+00
         21   -1    0    0  503  502  0.00000000000E+00  0.00000000000E+00  0.10054035079E+03  0.10054035079E+03  0.00000000000E+00 0. -1.
         21   -1    0    0  502  503 -0.00000000000E+00 -0.00000000000E+00 -0.38862608215E+02  0.38862608215E+02  0.00000000000E+00 0. -1.
         25    2    1    2    0    0  0.00000000000E+00  0.00000000000E+00  0.61677742578E+02  0.13940295901E+03  0.12501616316E+03 0.  0.
          4    1    3    3  501    0  0.59915984689E+02 -0.71739227402E+01  0.12739260011E+02  0.61693448877E+02  0.15500000000E+01 0.  1.
         -4    1    3    3    0  501 -0.59915984689E+02  0.71739227402E+01  0.48938482567E+02  0.77709510130E+02  0.15500000000E+01 0.  1.
<mgrwt>
<rscale>  2 0.12501616E+03</rscale>
<asrwt>0</asrwt>
<pdfrwt beam="1">  1       21 0.15467746E-01 0.12501616E+03</pdfrwt>
<pdfrwt beam="2">  1       21 0.59788629E-02 0.12501616E+03</pdfrwt>
<totfact> 0.72087656E+06</totfact>
</mgrwt>
</event>
<event>
 5    0  0.1343052E+000  0.1249511E+03  0.7546771E-02  0.1235146E+00
         21   -1    0    0  503  502  0.00000000000E+00  0.00000000000E+00  0.12327246739E+02  0.12327246739E+02  0.00000000000E+00 0.  1.
         21   -1    0    0  502  503 -0.00000000000E+00 -0.00000000000E+00 -0.31663146487E+03  0.31663146487E+03  0.00000000000E+00 0.  1.
         25    2    1    2    0    0  0.00000000000E+00  0.00000000000E+00 -0.30430421813E+03  0.32895871160E+03  0.12495109752E+03 0.  0.
          4    1    3    3  501    0 -0.24875527939E+02  0.40445451819E+02 -0.25896853170E+03  0.26329019992E+03  0.15500000000E+01 0.  1.
         -4    1    3    3    0  501  0.24875527939E+02 -0.40445451819E+02 -0.45335686424E+02  0.65668511683E+02  0.15500000000E+01 0.  1.
<mgrwt>
<rscale>  2 0.12495110E+03</rscale>
<asrwt>0</asrwt>
<pdfrwt beam="1">  1       21 0.18964998E-02 0.12495110E+03</pdfrwt>
<pdfrwt beam="2">  1       21 0.48712525E-01 0.12495110E+03</pdfrwt>
<totfact> 0.53196171E+06</totfact>
</mgrwt>
</event>
<event>
 5    0  0.1416376E+000  0.1249994E+03  0.7546771E-02  0.1235070E+00
         21   -1    0    0  503  502  0.00000000000E+00  0.00000000000E+00  0.10492748677E+02  0.10492748677E+02  0.00000000000E+00 0.  1.
         21   -1    0    0  502  503 -0.00000000000E+00 -0.00000000000E+00 -0.37227732282E+03  0.37227732282E+03  0.00000000000E+00 0.  1.
         25    2    1    2    0    0  0.00000000000E+00  0.00000000000E+00 -0.36178457414E+03  0.38277007149E+03  0.12499939818E+03 0.  0.
          4    1    3    3  501    0 -0.40193238777E+02  0.33796766745E+02 -0.77225463451E+02  0.93401780449E+02  0.15500000000E+01 0. -1.
         -4    1    3    3    0  501  0.40193238777E+02 -0.33796766745E+02 -0.28455911069E+03  0.28936829104E+03  0.15500000000E+01 0. -1.
<mgrwt>
<rscale>  2 0.12499940E+03</rscale>
<asrwt>0</asrwt>
<pdfrwt beam="1">  1       21 0.16142692E-02 0.12499940E+03</pdfrwt>
<pdfrwt beam="2">  1       21 0.57273428E-01 0.12499940E+03</pdfrwt>
<totfact> 0.49206333E+06</totfact>
</mgrwt>
</event>
<event>
 5    0  0.1514890E+000  0.1250008E+03  0.7546771E-02  0.1235068E+00
         21   -1    0    0  503  502  0.00000000000E+00  0.00000000000E+00  0.13651154190E+03  0.13651154190E+03  0.00000000000E+00 0. -1.
         21   -1    0    0  502  503 -0.00000000000E+00 -0.00000000000E+00 -0.28615176826E+02  0.28615176826E+02  0.00000000000E+00 0. -1.
         25    2    1    2    0    0  0.00000000000E+00  0.00000000000E+00  0.10789636508E+03  0.16512671873E+03  0.12500083056E+03 0.  0.
          4    1    3    3  501    0 -0.46974273544E+02 -0.19150486803E+02  0.57618051825E+01  0.51077631295E+02  0.15500000000E+01 0.  1.
         -4    1    3    3    0  501  0.46974273544E+02  0.19150486803E+02  0.10213455989E+03  0.11404908743E+03  0.15500000000E+01 0.  1.
<mgrwt>
<rscale>  2 0.12500083E+03</rscale>
<asrwt>0</asrwt>
<pdfrwt beam="1">  1       21 0.21001775E-01 0.12500083E+03</pdfrwt>
<pdfrwt beam="2">  1       21 0.44023350E-02 0.12500083E+03</pdfrwt>
<totfact> 0.68896975E+06</totfact>
</mgrwt>
</event>
<event>
 5    0  0.1457231E+000  0.1250084E+03  0.7546771E-02  0.1235056E+00
         21   -1    0    0  503  502  0.00000000000E+00  0.00000000000E+00  0.86290833732E+02  0.86290833732E+02  0.00000000000E+00 0.  1.
         21   -1    0    0  502  503 -0.00000000000E+00 -0.00000000000E+00 -0.45274540960E+02  0.45274540960E+02  0.00000000000E+00 0.  1.
         25    2    1    2    0    0  0.00000000000E+00  0.00000000000E+00  0.41016292773E+02  0.13156537469E+03  0.12500844589E+03 0.  0.
          4    1    3    3  501    0 -0.21490383765E+02  0.41944497269E+02 -0.22670581823E+02  0.52321460470E+02  0.15500000000E+01 0.  1.
         -4    1    3    3    0  501  0.21490383765E+02 -0.41944497269E+02  0.63686874596E+02  0.79243914222E+02  0.15500000000E+01 0.  1.
<mgrwt>
<rscale>  2 0.12500845E+03</rscale>
<asrwt>0</asrwt>
<pdfrwt beam="1">  1       21 0.13275513E-01 0.12500845E+03</pdfrwt>
<pdfrwt beam="2">  1       21 0.69653140E-02 0.12500845E+03</pdfrwt>
<totfact> 0.73138824E+06</totfact>
</mgrwt>
</event>
<event>
 5    0  0.1582322E+000  0.1250384E+03  0.7546771E-02  0.1235009E+00
         21   -1    0    0  503  502  0.00000000000E+00  0.00000000000E+00  0.39301451473E+02  0.39301451473E+02  0.00000000000E+00 0.  1.
         21   -1    0    0  502  503 -0.00000000000E+00 -0.00000000000E+00 -0.99453032053E+02  0.99453032053E+02  0.00000000000E+00 0.  1.
         25    2    1    2    0    0  0.00000000000E+00  0.00000000000E+00 -0.60151580580E+02  0.13875448353E+03  0.12503837032E+03 0.  0.
          4    1    3    3  501    0  0.22452325738E+02 -0.58322360545E+02 -0.30964477076E+02  0.69762497169E+02  0.15500000000E+01 0.  1.
         -4    1    3    3    0  501 -0.22452325738E+02  0.58322360545E+02 -0.29187103503E+02  0.68991986357E+02  0.15500000000E+01 0.  1.
<mgrwt>
<rscale>  2 0.12503837E+03</rscale>
<asrwt>0</asrwt>
<pdfrwt beam="1">  1       21 0.60463772E-02 0.12503837E+03</pdfrwt>
<pdfrwt beam="2">  1       21 0.15300466E-01 0.12503837E+03</pdfrwt>
<totfact> 0.72131783E+06</totfact>
</mgrwt>
</event>
<event>
 5    0  0.1453512E+000  0.1249888E+03  0.7546771E-02  0.1235087E+00
         21   -1    0    0  503  502  0.00000000000E+00  0.00000000000E+00  0.15052945842E+02  0.15052945842E+02  0.00000000000E+00 0.  1.
         21   -1    0    0  502  503 -0.00000000000E+00 -0.00000000000E+00 -0.25945401184E+03  0.25945401184E+03  0.00000000000E+00 0.  1.
         25    2    1    2    0    0  0.00000000000E+00  0.00000000000E+00 -0.24440106600E+03  0.27450695769E+03  0.12498875451E+03 0.  0.
          4    1    3    3  501    0 -0.55054337823E+02  0.16897515149E+02 -0.17539515390E+03  0.18461410738E+03  0.15500000000E+01 0. -1.
         -4    1    3    3    0  501  0.55054337823E+02 -0.16897515149E+02 -0.69005912101E+02  0.89892850307E+02  0.15500000000E+01 0. -1.
<mgrwt>
<rscale>  2 0.12498875E+03</rscale>
<asrwt>0</asrwt>
<pdfrwt beam="1">  1       21 0.23158379E-02 0.12498875E+03</pdfrwt>
<pdfrwt beam="2">  1       21 0.39916001E-01 0.12498875E+03</pdfrwt>
<totfact> 0.57659910E+06</totfact>
</mgrwt>
</event>
<event>
 5    0  0.1340895E+000  0.1250366E+03  0.7546771E-02  0.1235012E+00
         21   -1    0    0  503  502  0.00000000000E+00  0.00000000000E+00  0.38383852531E+03  0.38383852531E+03  0.00000000000E+00 0. -1.
         21   -1    0    0  502  503 -0.00000000000E+00 -0.00000000000E+00 -0.10182773036E+02  0.10182773036E+02  0.00000000000E+00 0. -1.
         25    2    1    2    0    0  0.00000000000E+00  0.00000000000E+00  0.37365575227E+03  0.39402129834E+03  0.12503664400E+03 0.  0.
          4    1    3    3  501    0 -0.28355379914E+02 -0.24515673081E+02  0.29231129549E+02  0.47559512523E+02  0.15500000000E+01 0. -1.
         -4    1    3    3    0  501  0.28355379914E+02  0.24515673081E+02  0.34442462272E+03  0.34646178582E+03  0.15500000000E+01 0. -1.
<mgrwt>
<rscale>  2 0.12503664E+03</rscale>
<asrwt>0</asrwt>
<pdfrwt beam="1">  1       21 0.59052070E-01 0.12503664E+03</pdfrwt>
<pdfrwt beam="2">  1       21 0.15665808E-02 0.12503664E+03</pdfrwt>
<totfact> 0.48396110E+06</totfact>
</mgrwt>
</event>
<event>
 5    0  0.1474823E+000  0.1249997E+03  0.7546771E-02  0.1235070E+00
         21   -1    0    0  503  502  0.00000000000E+00  0.00000000000E+00  0.14976805527E+02  0.14976805527E+02  0.00000000000E+00 0. -1.
         21   -1    0    0  502  503 -0.00000000000E+00 -0.00000000000E+00 -0.26081885667E+03  0.26081885667E+03  0.00000000000E+00 0. -1.
         25    2    1    2    0    0  0.00000000000E+00  0.00000000000E+00 -0.24584205114E+03  0.27579566219E+03  0.12499973270E+03 0.  0.
          4    1    3    3  501    0  0.39819994844E+02  0.20818518950E+02 -0.21870869557E+03  0.22328219530E+03  0.15500000000E+01 0. -1.
         -4    1    3    3    0  501 -0.39819994844E+02 -0.20818518950E+02 -0.27133355573E+02  0.52513466895E+02  0.15500000000E+01 0. -1.
<mgrwt>
<rscale>  2 0.12499973E+03</rscale>
<asrwt>0</asrwt>
<pdfrwt beam="1">  1       21 0.23041242E-02 0.12499973E+03</pdfrwt>
<pdfrwt beam="2">  1       21 0.40125974E-01 0.12499973E+03</pdfrwt>
<totfact> 0.57529995E+06</totfact>
</mgrwt>
</event>
<event>
 5    0  0.1542846E+000  0.1250032E+03  0.7546771E-02  0.1235064E+00
         21   -1    0    0  503  502  0.00000000000E+00  0.00000000000E+00  0.28770596357E+02  0.28770596357E+02  0.00000000000E+00 0.  1.
         21   -1    0    0  502  503 -0.00000000000E+00 -0.00000000000E+00 -0.13577915272E+03  0.13577915272E+03  0.00000000000E+00 0.  1.
         25    2    1    2    0    0  0.00000000000E+00  0.00000000000E+00 -0.10700855636E+03  0.16454974907E+03  0.12500315510E+03 0.  0.
          4    1    3    3  501    0 -0.50739956607E+02  0.25828809698E+02 -0.19625486115E+02  0.60243114231E+02  0.15500000000E+01 0.  1.
         -4    1    3    3    0  501  0.50739956607E+02 -0.25828809698E+02 -0.87383070245E+02  0.10430663484E+03  0.15500000000E+01 0.  1.
<mgrwt>
<rscale>  2 0.12500316E+03</rscale>
<asrwt>0</asrwt>
<pdfrwt beam="1">  1       21 0.44262457E-02 0.12500316E+03</pdfrwt>
<pdfrwt beam="2">  1       21 0.20889100E-01 0.12500316E+03</pdfrwt>
<totfact> 0.68962266E+06</totfact>
</mgrwt>
</event>
<event>
 5    0  0.1222151E+000  0.1249912E+03  0.7546771E-02  0.1235083E+00
         21   -1    0    0  503  502  0.00000000000E+00  0.00000000000E+00  0.27117790990E+01  0.27117790990E+01  0.00000000000E+00 0.  1.
         21   -1    0    0  502  503 -0.00000000000E+00 -0.00000000000E+00 -0.14402726047E+04  0.14402726047E+04  0.00000000000E+00 0.  1.
         25    2    1    2    0    0  0.00000000000E+00  0.00000000000E+00 -0.14375608256E+04  0.14429843838E+04  0.12499121803E+03 0.  0.
          4    1    3    3  501    0 -0.62035632665E+02  0.10544349164E+01 -0.80343303400E+03  0.80582664027E+03  0.15500000000E+01 0.  1.
         -4    1    3    3    0  501  0.62035632665E+02 -0.10544349164E+01 -0.63412779165E+03  0.63715774357E+03  0.15500000000E+01 0.  1.
<mgrwt>
<rscale>  2 0.12499122E+03</rscale>
<asrwt>0</asrwt>
<pdfrwt beam="1">  1       21 0.41719717E-03 0.12499122E+03</pdfrwt>
<pdfrwt beam="2">  1       21 0.22158020E+00 0.12499122E+03</pdfrwt>
<totfact> 0.14863032E+06</totfact>
</mgrwt>
</event>
<event>
 5    0  0.1512306E+000  0.1250028E+03  0.7546771E-02  0.1235065E+00
         21   -1    0    0  503  502  0.00000000000E+00  0.00000000000E+00  0.23228363077E+03  0.23228363077E+03  0.00000000000E+00 0.  1.
         21   -1    0    0  502  503 -0.00000000000E+00 -0.00000000000E+00 -0.16817475672E+02  0.16817475672E+02  0.00000000000E+00 0.  1.
         25    2    1    2    0    0  0.00000000000E+00  0.00000000000E+00  0.21546615509E+03  0.24910110644E+03  0.12500278892E+03 0.  0.
          4    1    3    3  501    0 -0.61952874482E+02  0.74486239409E+01  0.10131243080E+03  0.11899685622E+03  0.15500000000E+01 0.  1.
         -4    1    3    3    0  501  0.61952874482E+02 -0.74486239409E+01  0.11415372429E+03  0.13010425022E+03  0.15500000000E+01 0.  1.
<mgrwt>
<rscale>  2 0.12500279E+03</rscale>
<asrwt>0</asrwt>
<pdfrwt beam="1">  1       21 0.35735941E-01 0.12500279E+03</pdfrwt>
<pdfrwt beam="2">  1       21 0.25873041E-02 0.12500279E+03</pdfrwt>
<totfact> 0.59958707E+06</totfact>
</mgrwt>
</event>
<event>
 5    0  0.1222151E+000  0.1249982E+03  0.7546771E-02  0.1235072E+00
         21   -1    0    0  503  502  0.00000000000E+00  0.00000000000E+00  0.48441672033E+01  0.48441672033E+01  0.00000000000E+00 0.  1.
         21   -1    0    0  502  503 -0.00000000000E+00 -0.00000000000E+00 -0.80635942792E+03  0.80635942792E+03  0.00000000000E+00 0.  1.
         25    2    1    2    0    0  0.00000000000E+00  0.00000000000E+00 -0.80151526071E+03  0.81120359512E+03  0.12499823830E+03 0.  0.
          4    1    3    3  501    0 -0.30349588806E+01  0.47331357693E+02 -0.66471211186E+03  0.66640382844E+03  0.15500000000E+01 0. -1.
         -4    1    3    3    0  501  0.30349588806E+01 -0.47331357693E+02 -0.13680314885E+03  0.14479976668E+03  0.15500000000E+01 0. -1.
<mgrwt>
<rscale>  2 0.12499824E+03</rscale>
<asrwt>0</asrwt>
<pdfrwt beam="1">  1       21 0.74525647E-03 0.12499824E+03</pdfrwt>
<pdfrwt beam="2">  1       21 0.12405530E+00 0.12499824E+03</pdfrwt>
<totfact> 0.28996223E+06</totfact>
</mgrwt>
</event>
<event>
 5    0  0.1367686E+000  0.1250024E+03  0.7546771E-02  0.1235066E+00
         21   -1    0    0  503  502  0.00000000000E+00  0.00000000000E+00  0.72343246240E+01  0.72343246240E+01  0.00000000000E+00 0. -1.
         21   -1    0    0  502  503 -0.00000000000E+00 -0.00000000000E+00 -0.53998116292E+03  0.53998116292E+03  0.00000000000E+00 0. -1.
         25    2    1    2    0    0  0.00000000000E+00  0.00000000000E+00 -0.53274683829E+03  0.54721548754E+03  0.12500238435E+03 0.  0.
          4    1    3    3  501    0  0.52754106139E+02  0.29211805889E+02 -0.33799450662E+03  0.34333513412E+03  0.15500000000E+01 0.  1.
         -4    1    3    3    0  501 -0.52754106139E+02 -0.29211805889E+02 -0.19475233168E+03  0.20388035342E+03  0.15500000000E+01 0.  1.
<mgrwt>
<rscale>  2 0.12500238E+03</rscale>
<asrwt>0</asrwt>
<pdfrwt beam="1">  1       21 0.11129729E-02 0.12500238E+03</pdfrwt>
<pdfrwt beam="2">  1       21 0.83074034E-01 0.12500238E+03</pdfrwt>
<totfact> 0.39591661E+06</totfact>
</mgrwt>
</event>
<event>
 5    0  0.1515924E+000  0.1250012E+03  0.7546771E-02  0.1235067E+00
         21   -1    0    0  503  502  0.00000000000E+00  0.00000000000E+00  0.13783690904E+03  0.13783690904E+03  0.00000000000E+00 0. -1.
         21   -1    0    0  502  503 -0.00000000000E+00 -0.00000000000E+00 -0.28340174416E+02  0.28340174416E+02  0.00000000000E+00 0. -1.
         25    2    1    2    0    0  0.00000000000E+00  0.00000000000E+00  0.10949673462E+03  0.16617708345E+03  0.12500115268E+03 0.  0.
          4    1    3    3  501    0 -0.64707661978E+01 -0.50865280920E+02  0.72833810255E+01  0.51813104109E+02  0.15500000000E+01 0. -1.
         -4    1    3    3    0  501  0.64707661978E+01  0.50865280920E+02  0.10221335359E+03  0.11436397934E+03  0.15500000000E+01 0. -1.
<mgrwt>
<rscale>  2 0.12500115E+03</rscale>
<asrwt>0</asrwt>
<pdfrwt beam="1">  1       21 0.21205678E-01 0.12500115E+03</pdfrwt>
<pdfrwt beam="2">  1       21 0.43600269E-02 0.12500115E+03</pdfrwt>
<totfact> 0.68770476E+06</totfact>
</mgrwt>
</event>
<event>
 5    0  0.1556290E+000  0.1249978E+03  0.7546771E-02  0.1235073E+00
         21   -1    0    0  503  502  0.00000000000E+00  0.00000000000E+00  0.43329075078E+02  0.43329075078E+02  0.00000000000E+00 0. -1.
         21   -1    0    0  502  503 -0.00000000000E+00 -0.00000000000E+00 -0.90149852777E+02  0.90149852777E+02  0.00000000000E+00 0. -1.
         25    2    1    2    0    0  0.00000000000E+00  0.00000000000E+00 -0.46820777699E+02  0.13347892786E+03  0.12499775581E+03 0.  0.
          4    1    3    3  501    0 -0.53128795935E+02 -0.87783120935E+01  0.10425136220E+02  0.54870881950E+02  0.15500000000E+01 0. -1.
         -4    1    3    3    0  501  0.53128795935E+02  0.87783120935E+01 -0.57245913919E+02  0.78608045906E+02  0.15500000000E+01 0. -1.
<mgrwt>
<rscale>  2 0.12499776E+03</rscale>
<asrwt>0</asrwt>
<pdfrwt beam="1">  1       21 0.66660116E-02 0.12499776E+03</pdfrwt>
<pdfrwt beam="2">  1       21 0.13869208E-01 0.12499776E+03</pdfrwt>
<totfact> 0.72902685E+06</totfact>
</mgrwt>
</event>
<event>
 5    0  0.1551525E+000  0.1250179E+03  0.7546771E-02  0.1235041E+00
         21   -1    0    0  503  502  0.00000000000E+00  0.00000000000E+00  0.55193779214E+02  0.55193779214E+02  0.00000000000E+00 0.  1.
         21   -1    0    0  502  503 -0.00000000000E+00 -0.00000000000E+00 -0.70793614231E+02  0.70793614231E+02  0.00000000000E+00 0.  1.
         25    2    1    2    0    0  0.00000000000E+00  0.00000000000E+00 -0.15599835017E+02  0.12598739345E+03  0.12501787254E+03 0.  0.
          4    1    3    3  501    0  0.56829918919E+02 -0.11385595791E+02  0.15741316967E+02  0.60078806877E+02  0.15500000000E+01 0. -1.
         -4    1    3    3    0  501 -0.56829918919E+02  0.11385595791E+02 -0.31341151984E+02  0.65908586569E+02  0.15500000000E+01 0. -1.
<mgrwt>
<rscale>  2 0.12501787E+03</rscale>
<asrwt>0</asrwt>
<pdfrwt beam="1">  1       21 0.84913507E-02 0.12501787E+03</pdfrwt>
<pdfrwt beam="2">  1       21 0.10891325E-01 0.12501787E+03</pdfrwt>
<totfact> 0.73874088E+06</totfact>
</mgrwt>
</event>
<event>
 5    0  0.1269800E+000  0.1250004E+03  0.7546771E-02  0.1235069E+00
         21   -1    0    0  503  502  0.00000000000E+00  0.00000000000E+00  0.65750681405E+01  0.65750681405E+01  0.00000000000E+00 0. -1.
         21   -1    0    0  502  503 -0.00000000000E+00 -0.00000000000E+00 -0.59410420523E+03  0.59410420523E+03  0.00000000000E+00 0. -1.
         25    2    1    2    0    0  0.00000000000E+00  0.00000000000E+00 -0.58752913709E+03  0.60067927337E+03  0.12500041011E+03 0.  0.
          4    1    3    3  501    0  0.21185580875E+02  0.52994875289E+02 -0.41595715485E+03  0.41985716954E+03  0.15500000000E+01 0.  1.
         -4    1    3    3    0  501 -0.21185580875E+02 -0.52994875289E+02 -0.17157198224E+03  0.18082210383E+03  0.15500000000E+01 0.  1.
<mgrwt>
<rscale>  2 0.12500041E+03</rscale>
<asrwt>0</asrwt>
<pdfrwt beam="1">  1       21 0.10115491E-02 0.12500041E+03</pdfrwt>
<pdfrwt beam="2">  1       21 0.91400633E-01 0.12500041E+03</pdfrwt>
<totfact> 0.37061556E+06</totfact>
</mgrwt>
</event>
<event>
 5    0  0.1328059E+000  0.1249990E+03  0.7546771E-02  0.1235071E+00
         21   -1    0    0  503  502  0.00000000000E+00  0.00000000000E+00  0.47995628335E+03  0.47995628335E+03  0.00000000000E+00 0. -1.
         21   -1    0    0  502  503 -0.00000000000E+00 -0.00000000000E+00 -0.81386325977E+01  0.81386325977E+01  0.00000000000E+00 0. -1.
         25    2    1    2    0    0  0.00000000000E+00  0.00000000000E+00  0.47181765075E+03  0.48809491595E+03  0.12499900565E+03 0.  0.
          4    1    3    3  501    0 -0.43915984085E+01 -0.58820246407E+02  0.15544002626E+03  0.16626217787E+03  0.15500000000E+01 0. -1.
         -4    1    3    3    0  501  0.43915984085E+01  0.58820246407E+02  0.31637762449E+03  0.32183273808E+03  0.15500000000E+01 0. -1.
<mgrwt>
<rscale>  2 0.12499901E+03</rscale>
<asrwt>0</asrwt>
<pdfrwt beam="1">  1       21 0.73839406E-01 0.12499901E+03</pdfrwt>
<pdfrwt beam="2">  1       21 0.12520977E-02 0.12499901E+03</pdfrwt>
<totfact> 0.42698223E+06</totfact>
</mgrwt>
</event>
<event>
 5    0  0.1357241E+000  0.1250027E+03  0.7546771E-02  0.1235065E+00
         21   -1    0    0  503  502  0.00000000000E+00  0.00000000000E+00  0.52372891004E+02  0.52372891004E+02  0.00000000000E+00 0.  1.
         21   -1    0    0  502  503 -0.00000000000E+00 -0.00000000000E+00 -0.74588609873E+02  0.74588609873E+02  0.00000000000E+00 0.  1.
         25    2    1    2    0    0  0.00000000000E+00  0.00000000000E+00 -0.22215718869E+02  0.12696150088E+03  0.12500273813E+03 0.  0.
          4    1    3    3  501    0  0.18463024591E+02 -0.13701733939E+02 -0.70116418004E+02  0.73806065900E+02  0.15500000000E+01 0. -1.
         -4    1    3    3    0  501 -0.18463024591E+02  0.13701733939E+02  0.47900699135E+02  0.53155434977E+02  0.15500000000E+01 0. -1.
<mgrwt>
<rscale>  2 0.12500274E+03</rscale>
<asrwt>0</asrwt>
<pdfrwt beam="1">  1       21 0.80573678E-02 0.12500274E+03</pdfrwt>
<pdfrwt beam="2">  1       21 0.11475171E-01 0.12500274E+03</pdfrwt>
<totfact> 0.73769222E+06</totfact>
</mgrwt>
</event>
<event>
 5    0  0.1328548E+000  0.1249971E+03  0.7546771E-02  0.1235074E+00
         21   -1    0    0  503  502  0.00000000000E+00  0.00000000000E+00  0.90149533350E+01  0.90149533350E+01  0.00000000000E+00 0.  1.
         21   -1    0    0  502  503 -0.00000000000E+00 -0.00000000000E+00 -0.43328741908E+03  0.43328741908E+03  0.00000000000E+00 0.  1.
         25    2    1    2    0    0  0.00000000000E+00  0.00000000000E+00 -0.42427246574E+03  0.44230237241E+03  0.12499705378E+03 0.  0.
          4    1    3    3  501    0  0.17075529833E+02  0.40882798335E+02 -0.56253798877E+02  0.71623105956E+02  0.15500000000E+01 0.  1.
         -4    1    3    3    0  501 -0.17075529833E+02 -0.40882798335E+02 -0.36801866687E+03  0.37067926646E+03  0.15500000000E+01 0.  1.
<mgrwt>
<rscale>  2 0.12499705E+03</rscale>
<asrwt>0</asrwt>
<pdfrwt beam="1">  1       21 0.13869158E-02 0.12499705E+03</pdfrwt>
<pdfrwt beam="2">  1       21 0.66659608E-01 0.12499705E+03</pdfrwt>
<totfact> 0.45359792E+06</totfact>
</mgrwt>
</event>
<event>
 5    0  0.1340176E+000  0.1249956E+03  0.7546771E-02  0.1235076E+00
         21   -1    0    0  503  502  0.00000000000E+00  0.00000000000E+00  0.79964711076E+01  0.79964711076E+01  0.00000000000E+00 0.  1.
         21   -1    0    0  502  503 -0.00000000000E+00 -0.00000000000E+00 -0.48846218459E+03  0.48846218459E+03  0.00000000000E+00 0.  1.
         25    2    1    2    0    0  0.00000000000E+00  0.00000000000E+00 -0.48046571348E+03  0.49645865570E+03  0.12499557986E+03 0.  0.
          4    1    3    3  501    0  0.32062158416E+02 -0.52725586720E+02 -0.20139803195E+03  0.21064552991E+03  0.15500000000E+01 0. -1.
         -4    1    3    3    0  501 -0.32062158416E+02  0.52725586720E+02 -0.27906768153E+03  0.28581312579E+03  0.15500000000E+01 0. -1.
<mgrwt>
<rscale>  2 0.12499558E+03</rscale>
<asrwt>0</asrwt>
<pdfrwt beam="1">  1       21 0.12302263E-02 0.12499558E+03</pdfrwt>
<pdfrwt beam="2">  1       21 0.75148030E-01 0.12499558E+03</pdfrwt>
<totfact> 0.42241428E+06</totfact>
</mgrwt>
</event>
<event>
 4    0  0.1959085E+000  0.1227776E+03  0.7546771E-02  0.1238584E+00
         21   -1    0    0  503  502  0.00000000000E+00  0.00000000000E+00  0.12986563137E+03  0.12986563137E+03  0.00000000000E+00 0. -1.
         21   -1    0    0  502  503 -0.00000000000E+00 -0.00000000000E+00 -0.29019099331E+02  0.29019099331E+02  0.00000000000E+00 0. -1.
          4    1    1    2  501    0 -0.53377923907E+02  0.24129475535E+02  0.26746558604E+02  0.64414402484E+02  0.15500000000E+01 0.  1.
         -4    1    1    2    0  501  0.53377923907E+02 -0.24129475535E+02  0.74099973432E+02  0.94470328214E+02  0.15500000000E+01 0.  1.
<mgrwt>
<rscale>  2 0.12277758E+03</rscale>
<asrwt>0</asrwt>
<pdfrwt beam="1">  1       21 0.19979328E-01 0.12277758E+03</pdfrwt>
<pdfrwt beam="2">  1       21 0.44644769E-02 0.12277758E+03</pdfrwt>
<totfact> 0.73739144E+06</totfact>
</mgrwt>
</event>
<event>
 5    0  0.1481726E+000  0.1249919E+03  0.7546771E-02  0.1235082E+00
         21   -1    0    0  503  502  0.00000000000E+00  0.00000000000E+00  0.13098645809E+03  0.13098645809E+03  0.00000000000E+00 0.  1.
         21   -1    0    0  502  503 -0.00000000000E+00 -0.00000000000E+00 -0.29817928407E+02  0.29817928407E+02  0.00000000000E+00 0.  1.
         25    2    1    2    0    0  0.00000000000E+00  0.00000000000E+00  0.10116852968E+03  0.16080438649E+03  0.12499191701E+03 0.  0.
          4    1    3    3  501    0 -0.21167069856E+02 -0.57773867659E+02  0.36640062437E+02  0.71629332721E+02  0.15500000000E+01 0.  1.
         -4    1    3    3    0  501  0.21167069856E+02  0.57773867659E+02  0.64528467241E+02  0.89175053771E+02  0.15500000000E+01 0.  1.
<mgrwt>
<rscale>  2 0.12499192E+03</rscale>
<asrwt>0</asrwt>
<pdfrwt beam="1">  1       21 0.20151763E-01 0.12499192E+03</pdfrwt>
<pdfrwt beam="2">  1       21 0.45873737E-02 0.12499192E+03</pdfrwt>
<totfact> 0.69435609E+06</totfact>
</mgrwt>
</event>
<event>
 5    0  0.1229941E+000  0.1249968E+03  0.7546771E-02  0.1235074E+00
         21   -1    0    0  503  502  0.00000000000E+00  0.00000000000E+00  0.61886899641E+03  0.61886899641E+03  0.00000000000E+00 0.  1.
         21   -1    0    0  502  503 -0.00000000000E+00 -0.00000000000E+00 -0.63115955236E+01  0.63115955236E+01  0.00000000000E+00 0.  1.
         25    2    1    2    0    0  0.00000000000E+00  0.00000000000E+00  0.61255740089E+03  0.62518059194E+03  0.12499681256E+03 0.  0.
          4    1    3    3  501    0 -0.32756965860E+02  0.10257339686E+02  0.56738838845E+03  0.56842784739E+03  0.15500000000E+01 0.  1.
         -4    1    3    3    0  501  0.32756965860E+02 -0.10257339686E+02  0.45169012436E+02  0.56752744553E+02  0.15500000000E+01 0.  1.
<mgrwt>
<rscale>  2 0.12499681E+03</rscale>
<asrwt>0</asrwt>
<pdfrwt beam="1">  1       21 0.95210567E-01 0.12499681E+03</pdfrwt>
<pdfrwt beam="2">  1       21 0.97101518E-03 0.12499681E+03</pdfrwt>
<totfact> 0.35980935E+06</totfact>
</mgrwt>
</event>
<event>
 5    0  0.1538674E+000  0.1249959E+03  0.7546771E-02  0.1235076E+00
         21   -1    0    0  503  502  0.00000000000E+00  0.00000000000E+00  0.14623106811E+02  0.14623106811E+02  0.00000000000E+00 0. -1.
         21   -1    0    0  502  503 -0.00000000000E+00 -0.00000000000E+00 -0.26711110975E+03  0.26711110975E+03  0.00000000000E+00 0. -1.
         25    2    1    2    0    0  0.00000000000E+00  0.00000000000E+00 -0.25248800294E+03  0.28173421656E+03  0.12499590854E+03 0.  0.
          4    1    3    3  501    0 -0.10973641634E+02  0.57996628599E+02 -0.80075912709E+02  0.99491627968E+02  0.15500000000E+01 0.  1.
         -4    1    3    3    0  501  0.10973641634E+02 -0.57996628599E+02 -0.17241209023E+03  0.18224258860E+03  0.15500000000E+01 0.  1.
<mgrwt>
<rscale>  2 0.12499591E+03</rscale>
<asrwt>0</asrwt>
<pdfrwt beam="1">  1       21 0.22497089E-02 0.12499591E+03</pdfrwt>
<pdfrwt beam="2">  1       21 0.41094013E-01 0.12499591E+03</pdfrwt>
<totfact> 0.57015004E+06</totfact>
</mgrwt>
</event>
<event>
 5    0  0.1269780E+000  0.1249926E+03  0.7546771E-02  0.1235081E+00
         21   -1    0    0  503  502  0.00000000000E+00  0.00000000000E+00  0.52749428928E+03  0.52749428928E+03  0.00000000000E+00 0.  1.
         21   -1    0    0  502  503 -0.00000000000E+00 -0.00000000000E+00 -0.74044193706E+01  0.74044193706E+01  0.00000000000E+00 0.  1.
         25    2    1    2    0    0  0.00000000000E+00  0.00000000000E+00  0.52008986991E+03  0.53489870865E+03  0.12499262272E+03 0.  0.
          4    1    3    3  501    0  0.61095698557E+02  0.76761531029E+01  0.21480033593E+03  0.22345736623E+03  0.15500000000E+01 0.  1.
         -4    1    3    3    0  501 -0.61095698557E+02 -0.76761531029E+01  0.30528953398E+03  0.31144134241E+03  0.15500000000E+01 0.  1.
<mgrwt>
<rscale>  2 0.12499262E+03</rscale>
<asrwt>0</asrwt>
<pdfrwt beam="1">  1       21 0.81152938E-01 0.12499262E+03</pdfrwt>
<pdfrwt beam="2">  1       21 0.11391419E-02 0.12499262E+03</pdfrwt>
<totfact> 0.40219938E+06</totfact>
</mgrwt>
</event>
<event>
 5    0  0.1595279E+000  0.1250019E+03  0.7546771E-02  0.1235066E+00
         21   -1    0    0  503  502  0.00000000000E+00  0.00000000000E+00  0.12841860342E+03  0.12841860342E+03  0.00000000000E+00 0. -1.
         21   -1    0    0  502  503 -0.00000000000E+00 -0.00000000000E+00 -0.30419020956E+02  0.30419020956E+02  0.00000000000E+00 0. -1.
         25    2    1    2    0    0  0.00000000000E+00  0.00000000000E+00  0.97999582469E+02  0.15883762438E+03  0.12500189100E+03 0.  0.
          4    1    3    3  501    0 -0.60572904425E+02  0.13275715299E+02  0.58730618942E+02  0.85422534898E+02  0.15500000000E+01 0.  1.
         -4    1    3    3    0  501  0.60572904425E+02 -0.13275715299E+02  0.39268963527E+02  0.73415089482E+02  0.15500000000E+01 0.  1.
<mgrwt>
<rscale>  2 0.12500189E+03</rscale>
<asrwt>0</asrwt>
<pdfrwt beam="1">  1       21 0.19756708E-01 0.12500189E+03</pdfrwt>
<pdfrwt beam="2">  1       21 0.46798495E-02 0.12500189E+03</pdfrwt>
<totfact> 0.69658456E+06</totfact>
</mgrwt>
</event>
<event>
 5    0  0.1530292E+000  0.1250366E+03  0.7546771E-02  0.1235012E+00
         21   -1    0    0  503  502  0.00000000000E+00  0.00000000000E+00  0.12789086930E+03  0.12789086930E+03  0.00000000000E+00 0. -1.
         21   -1    0    0  502  503 -0.00000000000E+00 -0.00000000000E+00 -0.30561528084E+02  0.30561528084E+02  0.00000000000E+00 0. -1.
         25    2    1    2    0    0  0.00000000000E+00  0.00000000000E+00  0.97329341220E+02  0.15845239739E+03  0.12503664093E+03 0.  0.
          4    1    3    3  501    0 -0.28797961011E+02 -0.54805212516E+02  0.37822182063E+02  0.72566203106E+02  0.15500000000E+01 0. -1.
         -4    1    3    3    0  501  0.28797961011E+02  0.54805212516E+02  0.59507159157E+02  0.85886194282E+02  0.15500000000E+01 0. -1.
<mgrwt>
<rscale>  2 0.12503664E+03</rscale>
<asrwt>0</asrwt>
<pdfrwt beam="1">  1       21 0.19675518E-01 0.12503664E+03</pdfrwt>
<pdfrwt beam="2">  1       21 0.47017736E-02 0.12503664E+03</pdfrwt>
<totfact> 0.69644183E+06</totfact>
</mgrwt>
</event>
<event>
 5    0  0.1658989E+000  0.1249973E+03  0.7546771E-02  0.1235074E+00
         21   -1    0    0  503  502  0.00000000000E+00  0.00000000000E+00  0.47538908656E+02  0.47538908656E+02  0.00000000000E+00 0.  1.
         21   -1    0    0  502  503 -0.00000000000E+00 -0.00000000000E+00 -0.82165942840E+02  0.82165942840E+02  0.00000000000E+00 0.  1.
         25    2    1    2    0    0  0.00000000000E+00  0.00000000000E+00 -0.34627034184E+02  0.12970485150E+03  0.12499726799E+03 0.  0.
          4    1    3    3  501    0 -0.14743916277E+02 -0.56952427867E+02  0.45196955111E+01  0.59023658431E+02  0.15500000000E+01 0.  1.
         -4    1    3    3    0  501  0.14743916277E+02  0.56952427867E+02 -0.39146729695E+02  0.70681193064E+02  0.15500000000E+01 0.  1.
<mgrwt>
<rscale>  2 0.12499727E+03</rscale>
<asrwt>0</asrwt>
<pdfrwt beam="1">  1       21 0.73136783E-02 0.12499727E+03</pdfrwt>
<pdfrwt beam="2">  1       21 0.12640914E-01 0.12499727E+03</pdfrwt>
<totfact> 0.73409508E+06</totfact>
</mgrwt>
</event>
<event>
 5    0  0.1370306E+000  0.1249969E+03  0.7546771E-02  0.1235074E+00
         21   -1    0    0  503  502  0.00000000000E+00  0.00000000000E+00  0.40616565085E+03  0.40616565085E+03  0.00000000000E+00 0.  1.
         21   -1    0    0  502  503 -0.00000000000E+00 -0.00000000000E+00 -0.96168975206E+01  0.96168975206E+01  0.00000000000E+00 0.  1.
         25    2    1    2    0    0  0.00000000000E+00  0.00000000000E+00  0.39654875333E+03  0.41578254837E+03  0.12499685501E+03 0.  0.
          4    1    3    3  501    0  0.43424682295E+02  0.37474781444E+02  0.11587843255E+03  0.12930690587E+03  0.15500000000E+01 0. -1.
         -4    1    3    3    0  501 -0.43424682295E+02 -0.37474781444E+02  0.28067032078E+03  0.28647564249E+03  0.15500000000E+01 0. -1.
<mgrwt>
<rscale>  2 0.12499686E+03</rscale>
<asrwt>0</asrwt>
<pdfrwt beam="1">  1       21 0.62487010E-01 0.12499686E+03</pdfrwt>
<pdfrwt beam="2">  1       21 0.14795230E-02 0.12499686E+03</pdfrwt>
<totfact> 0.47015531E+06</totfact>
</mgrwt>
</event>
<event>
 5    0  0.1435717E+000  0.1250152E+03  0.7546771E-02  0.1235046E+00
         21   -1    0    0  503  502  0.00000000000E+00  0.00000000000E+00  0.15701651886E+02  0.15701651886E+02  0.00000000000E+00 0.  1.
         21   -1    0    0  502  503 -0.00000000000E+00 -0.00000000000E+00 -0.24883987903E+03  0.24883987903E+03  0.00000000000E+00 0.  1.
         25    2    1    2    0    0  0.00000000000E+00  0.00000000000E+00 -0.23313822714E+03  0.26454153092E+03  0.12501515358E+03 0.  0.
          4    1    3    3  501    0  0.11902292984E+02  0.22912014596E+02 -0.23698422829E+03  0.23839159371E+03  0.15500000000E+01 0. -1.
         -4    1    3    3    0  501 -0.11902292984E+02 -0.22912014596E+02  0.38460011495E+01  0.26149937208E+02  0.15500000000E+01 0. -1.
<mgrwt>
<rscale>  2 0.12501515E+03</rscale>
<asrwt>0</asrwt>
<pdfrwt beam="1">  1       21 0.24156387E-02 0.12501515E+03</pdfrwt>
<pdfrwt beam="2">  1       21 0.38283059E-01 0.12501515E+03</pdfrwt>
<totfact> 0.58513168E+06</totfact>
</mgrwt>
</event>
<event>
 5    0  0.1498994E+000  0.1250084E+03  0.7546771E-02  0.1235056E+00
         21   -1    0    0  503  502  0.00000000000E+00  0.00000000000E+00  0.22373627390E+02  0.22373627390E+02  0.00000000000E+00 0. -1.
         21   -1    0    0  502  503 -0.00000000000E+00 -0.00000000000E+00 -0.17461517461E+03  0.17461517461E+03  0.00000000000E+00 0. -1.
         25    2    1    2    0    0  0.00000000000E+00  0.00000000000E+00 -0.15224154722E+03  0.19698880200E+03  0.12500839737E+03 0.  0.
          4    1    3    3  501    0 -0.41295691182E+02 -0.32842092107E+02 -0.12886752649E+03  0.13925939468E+03  0.15500000000E+01 0.  1.
         -4    1    3    3    0  501  0.41295691182E+02  0.32842092107E+02 -0.23374020733E+02  0.57729407319E+02  0.15500000000E+01 0.  1.
<mgrwt>
<rscale>  2 0.12500840E+03</rscale>
<asrwt>0</asrwt>
<pdfrwt beam="1">  1       21 0.34420966E-02 0.12500840E+03</pdfrwt>
<pdfrwt beam="2">  1       21 0.26863873E-01 0.12500840E+03</pdfrwt>
<totfact> 0.65240134E+06</totfact>
</mgrwt>
</event>
<event>
 5    0  0.1558439E+000  0.1250016E+03  0.7546771E-02  0.1235067E+00
         21   -1    0    0  503  502  0.00000000000E+00  0.00000000000E+00  0.50256263437E+02  0.50256263437E+02  0.00000000000E+00 0.  1.
         21   -1    0    0  502  503 -0.00000000000E+00 -0.00000000000E+00 -0.77728579763E+02  0.77728579763E+02  0.00000000000E+00 0.  1.
         25    2    1    2    0    0  0.00000000000E+00  0.00000000000E+00 -0.27472316326E+02  0.12798484320E+03  0.12500156769E+03 0.  0.
          4    1    3    3  501    0  0.23674384227E+02 -0.56403960016E+02 -0.26770349433E+02  0.66790248410E+02  0.15500000000E+01 0.  1.
         -4    1    3    3    0  501 -0.23674384227E+02  0.56403960016E+02 -0.70196689257E+00  0.61194594790E+02  0.15500000000E+01 0.  1.
<mgrwt>
<rscale>  2 0.12500157E+03</rscale>
<asrwt>0</asrwt>
<pdfrwt beam="1">  1       21 0.77317329E-02 0.12500157E+03</pdfrwt>
<pdfrwt beam="2">  1       21 0.11958243E-01 0.12500157E+03</pdfrwt>
<totfact> 0.73632660E+06</totfact>
</mgrwt>
</event>
<event>
 5    0  0.1250083E+000  0.1249823E+03  0.7546771E-02  0.1235097E+00
         21   -1    0    0  503  502  0.00000000000E+00  0.00000000000E+00  0.65630988812E+03  0.65630988812E+03  0.00000000000E+00 0. -1.
         21   -1    0    0  502  503 -0.00000000000E+00 -0.00000000000E+00 -0.59501496833E+01  0.59501496833E+01  0.00000000000E+00 0. -1.
         25    2    1    2    0    0  0.00000000000E+00  0.00000000000E+00  0.65035973844E+03  0.66226003780E+03  0.12498227191E+03 0.  0.
          4    1    3    3  501    0 -0.15946673818E+02  0.60268872651E+02  0.30391434511E+03  0.31024661978E+03  0.15500000000E+01 0. -1.
         -4    1    3    3    0  501  0.15946673818E+02 -0.60268872651E+02  0.34644539332E+03  0.35201341803E+03  0.15500000000E+01 0. -1.
<mgrwt>
<rscale>  2 0.12498227E+03</rscale>
<asrwt>0</asrwt>
<pdfrwt beam="1">  1       21 0.10097069E+00 0.12498227E+03</pdfrwt>
<pdfrwt beam="2">  1       21 0.91540816E-03 0.12498227E+03</pdfrwt>
<totfact> 0.34431582E+06</totfact>
</mgrwt>
</event>
<event>
 5    0  0.1487358E+000  0.1250037E+03  0.7546771E-02  0.1235064E+00
         21   -1    0    0  503  502  0.00000000000E+00  0.00000000000E+00  0.55841184844E+02  0.55841184844E+02  0.00000000000E+00 0. -1.
         21   -1    0    0  502  503 -0.00000000000E+00 -0.00000000000E+00 -0.69956958459E+02  0.69956958459E+02  0.00000000000E+00 0. -1.
         25    2    1    2    0    0  0.00000000000E+00  0.00000000000E+00 -0.14115773615E+02  0.12579814330E+03  0.12500367112E+03 0.  0.
          4    1    3    3  501    0  0.39222961786E+02  0.39939296186E+01 -0.55839511677E+02  0.68372843801E+02  0.15500000000E+01 0. -1.
         -4    1    3    3    0  501 -0.39222961786E+02 -0.39939296186E+01  0.41723738062E+02  0.57425299502E+02  0.15500000000E+01 0. -1.
<mgrwt>
<rscale>  2 0.12500367E+03</rscale>
<asrwt>0</asrwt>
<pdfrwt beam="1">  1       21 0.85909514E-02 0.12500367E+03</pdfrwt>
<pdfrwt beam="2">  1       21 0.10762609E-01 0.12500367E+03</pdfrwt>
<totfact> 0.73927007E+06</totfact>
</mgrwt>
</event>
<event>
 5    0  0.1222151E+000  0.1249978E+03  0.7546771E-02  0.1235073E+00
         21   -1    0    0  503  502  0.00000000000E+00  0.00000000000E+00  0.29424850949E+01  0.29424850949E+01  0.00000000000E+00 0. -1.
         21   -1    0    0  502  503 -0.00000000000E+00 -0.00000000000E+00 -0.13274885761E+04  0.13274885761E+04  0.00000000000E+00 0. -1.
         25    2    1    2    0    0  0.00000000000E+00  0.00000000000E+00 -0.13245460910E+04  0.13304310612E+04  0.12499784556E+03 0.  0.
          4    1    3    3  501    0 -0.36378441623E+02  0.30604459368E+02 -0.10937917838E+04  0.10948255079E+04  0.15500000000E+01 0.  1.
         -4    1    3    3    0  501  0.36378441623E+02 -0.30604459368E+02 -0.23075430722E+03  0.23560555331E+03  0.15500000000E+01 0.  1.
<mgrwt>
<rscale>  2 0.12499785E+03</rscale>
<asrwt>0</asrwt>
<pdfrwt beam="1">  1       21 0.45268872E-03 0.12499785E+03</pdfrwt>
<pdfrwt beam="2">  1       21 0.20422960E+00 0.12499785E+03</pdfrwt>
<totfact> 0.16715482E+06</totfact>
</mgrwt>
</event>
<event>
 5    0  0.1530595E+000  0.1250023E+03  0.7546771E-02  0.1235066E+00
         21   -1    0    0  503  502  0.00000000000E+00  0.00000000000E+00  0.22825972718E+03  0.22825972718E+03  0.00000000000E+00 0. -1.
         21   -1    0    0  502  503 -0.00000000000E+00 -0.00000000000E+00 -0.17113817308E+02  0.17113817308E+02  0.00000000000E+00 0. -1.
         25    2    1    2    0    0  0.00000000000E+00  0.00000000000E+00  0.21114590987E+03  0.24537354449E+03  0.12500232429E+03 0.  0.
          4    1    3    3  501    0 -0.58729771500E+02 -0.21321496097E+02  0.10469396998E+03  0.12193039862E+03  0.15500000000E+01 0.  1.
         -4    1    3    3    0  501  0.58729771500E+02  0.21321496097E+02  0.10645193989E+03  0.12344314587E+03  0.15500000000E+01 0.  1.
<mgrwt>
<rscale>  2 0.12500232E+03</rscale>
<asrwt>0</asrwt>
<pdfrwt beam="1">  1       21 0.35116879E-01 0.12500232E+03</pdfrwt>
<pdfrwt beam="2">  1       21 0.26328951E-02 0.12500232E+03</pdfrwt>
<totfact> 0.60312984E+06</totfact>
</mgrwt>
</event>
<event>
 5    0  0.1466785E+000  0.1249977E+03  0.7546771E-02  0.1235073E+00
         21   -1    0    0  503  502  0.00000000000E+00  0.00000000000E+00  0.13360280000E+02  0.13360280000E+02  0.00000000000E+00 0.  1.
         21   -1    0    0  502  503 -0.00000000000E+00 -0.00000000000E+00 -0.29236730319E+03  0.29236730319E+03  0.00000000000E+00 0.  1.
         25    2    1    2    0    0  0.00000000000E+00  0.00000000000E+00 -0.27900702319E+03  0.30572758319E+03  0.12499774451E+03 0.  0.
          4    1    3    3  501    0  0.34272989458E+02  0.14943506009E+02 -0.26193756095E+03  0.26459711736E+03  0.15500000000E+01 0. -1.
         -4    1    3    3    0  501 -0.34272989458E+02 -0.14943506009E+02 -0.17069462239E+02  0.41130465830E+02  0.15500000000E+01 0. -1.
<mgrwt>
<rscale>  2 0.12499774E+03</rscale>
<asrwt>0</asrwt>
<pdfrwt beam="1">  1       21 0.20554278E-02 0.12499774E+03</pdfrwt>
<pdfrwt beam="2">  1       21 0.44979584E-01 0.12499774E+03</pdfrwt>
<totfact> 0.54986638E+06</totfact>
</mgrwt>
</event>
<event>
 5    0  0.1456091E+000  0.1250115E+03  0.7546771E-02  0.1235051E+00
         21   -1    0    0  503  502  0.00000000000E+00  0.00000000000E+00  0.11495760732E+02  0.11495760732E+02  0.00000000000E+00 0. -1.
         21   -1    0    0  502  503 -0.00000000000E+00 -0.00000000000E+00 -0.33986166378E+03  0.33986166378E+03  0.00000000000E+00 0. -1.
         25    2    1    2    0    0  0.00000000000E+00  0.00000000000E+00 -0.32836590305E+03  0.35135742452E+03  0.12501149337E+03 0.  0.
          4    1    3    3  501    0  0.45360416722E+02 -0.21724239662E+02 -0.26840494236E+03  0.27308080411E+03  0.15500000000E+01 0.  1.
         -4    1    3    3    0  501 -0.45360416722E+02  0.21724239662E+02 -0.59960960696E+02  0.78276620402E+02  0.15500000000E+01 0.  1.
<mgrwt>
<rscale>  2 0.12501149E+03</rscale>
<asrwt>0</asrwt>
<pdfrwt beam="1">  1       21 0.17685788E-02 0.12501149E+03</pdfrwt>
<pdfrwt beam="2">  1       21 0.52286402E-01 0.12501149E+03</pdfrwt>
<totfact> 0.51423536E+06</totfact>
</mgrwt>
</event>
<event>
 5    0  0.1222151E+000  0.1249987E+03  0.7546771E-02  0.1235071E+00
         21   -1    0    0  503  502  0.00000000000E+00  0.00000000000E+00  0.76741316723E+03  0.76741316723E+03  0.00000000000E+00 0.  1.
         21   -1    0    0  502  503 -0.00000000000E+00 -0.00000000000E+00 -0.50900491783E+01  0.50900491783E+01  0.00000000000E+00 0.  1.
         25    2    1    2    0    0  0.00000000000E+00  0.00000000000E+00  0.76232311805E+03  0.77250321641E+03  0.12499873217E+03 0.  0.
          4    1    3    3  501    0  0.60045136334E+02  0.32964698955E+01  0.27637613245E+03  0.28284705089E+03  0.15500000000E+01 0.  1.
         -4    1    3    3    0  501 -0.60045136334E+02 -0.32964698955E+01  0.48594698560E+03  0.48965616552E+03  0.15500000000E+01 0.  1.
<mgrwt>
<rscale>  2 0.12499873E+03</rscale>
<asrwt>0</asrwt>
<pdfrwt beam="1">  1       21 0.11806347E+00 0.12499873E+03</pdfrwt>
<pdfrwt beam="2">  1       21 0.78308510E-03 0.12499873E+03</pdfrwt>
<totfact> 0.30293681E+06</totfact>
</mgrwt>
</event>
<event>
 5    0  0.1222151E+000  0.1249991E+03  0.7546771E-02  0.1235071E+00
         21   -1    0    0  503  502  0.00000000000E+00  0.00000000000E+00  0.96935716244E+02  0.96935716244E+02  0.00000000000E+00 0. -1.
         21   -1    0    0  502  503 -0.00000000000E+00 -0.00000000000E+00 -0.40296747470E+02  0.40296747470E+02  0.00000000000E+00 0. -1.
         25    2    1    2    0    0  0.00000000000E+00  0.00000000000E+00  0.56638968774E+02  0.13723246371E+03  0.12499910525E+03 0.  0.
          4    1    3    3  501    0 -0.15313096396E+02  0.19383206673E+02  0.91325911453E+02  0.94620421817E+02  0.15500000000E+01 0. -1.
         -4    1    3    3    0  501  0.15313096396E+02 -0.19383206673E+02 -0.34686942679E+02  0.42612041896E+02  0.15500000000E+01 0. -1.
<mgrwt>
<rscale>  2 0.12499911E+03</rscale>
<asrwt>0</asrwt>
<pdfrwt beam="1">  1       21 0.14913187E-01 0.12499911E+03</pdfrwt>
<pdfrwt beam="2">  1       21 0.61994996E-02 0.12499911E+03</pdfrwt>
<totfact> 0.72403859E+06</totfact>
</mgrwt>
</event>
<event>
 5    0  0.1576570E+000  0.1250141E+03  0.7546771E-02  0.1235047E+00
         21   -1    0    0  503  502  0.00000000000E+00  0.00000000000E+00  0.22967475561E+03  0.22967475561E+03  0.00000000000E+00 0. -1.
         21   -1    0    0  502  503 -0.00000000000E+00 -0.00000000000E+00 -0.17011596799E+02  0.17011596799E+02  0.00000000000E+00 0. -1.
         25    2    1    2    0    0  0.00000000000E+00  0.00000000000E+00  0.21266315881E+03  0.24668635241E+03  0.12501414860E+03 0.  0.
          4    1    3    3  501    0  0.91844679874E+01  0.61804969097E+02  0.10775886736E+03  0.12457361138E+03  0.15500000000E+01 0.  1.
         -4    1    3    3    0  501 -0.91844679874E+01 -0.61804969097E+02  0.10490429146E+03  0.12211274103E+03  0.15500000000E+01 0.  1.
<mgrwt>
<rscale>  2 0.12501415E+03</rscale>
<asrwt>0</asrwt>
<pdfrwt beam="1">  1       21 0.35334576E-01 0.12501415E+03</pdfrwt>
<pdfrwt beam="2">  1       21 0.26171689E-02 0.12501415E+03</pdfrwt>
<totfact> 0.60170108E+06</totfact>
</mgrwt>
</event>
<event>
 5    0  0.1416304E+000  0.1250003E+03  0.7546771E-02  0.1235069E+00
         21   -1    0    0  503  502  0.00000000000E+00  0.00000000000E+00  0.11032141664E+02  0.11032141664E+02  0.00000000000E+00 0. -1.
         21   -1    0    0  502  503 -0.00000000000E+00 -0.00000000000E+00 -0.35408065098E+03  0.35408065098E+03  0.00000000000E+00 0. -1.
         25    2    1    2    0    0  0.00000000000E+00  0.00000000000E+00 -0.34304850931E+03  0.36511279264E+03  0.12500028643E+03 0.  0.
          4    1    3    3  501    0  0.61394185019E+02 -0.80820703479E+01 -0.14720885767E+03  0.15971041322E+03  0.15500000000E+01 0. -1.
         -4    1    3    3    0  501 -0.61394185019E+02  0.80820703479E+01 -0.19583965164E+03  0.20540237942E+03  0.15500000000E+01 0. -1.
<mgrwt>
<rscale>  2 0.12500029E+03</rscale>
<asrwt>0</asrwt>
<pdfrwt beam="1">  1       21 0.16972525E-02 0.12500029E+03</pdfrwt>
<pdfrwt beam="2">  1       21 0.54473949E-01 0.12500029E+03</pdfrwt>
<totfact> 0.50440949E+06</totfact>
</mgrwt>
</event>
<event>
 5    0  0.1272771E+000  0.1249960E+03  0.7546771E-02  0.1235076E+00
         21   -1    0    0  503  502  0.00000000000E+00  0.00000000000E+00  0.62837656842E+03  0.62837656842E+03  0.00000000000E+00 0.  1.
         21   -1    0    0  502  503 -0.00000000000E+00 -0.00000000000E+00 -0.62160137685E+01  0.62160137685E+01  0.00000000000E+00 0.  1.
         25    2    1    2    0    0  0.00000000000E+00  0.00000000000E+00  0.62216055465E+03  0.63459258219E+03  0.12499595835E+03 0.  0.
          4    1    3    3  501    0  0.53274457463E+02  0.92922220235E+01  0.46993805609E+03  0.47304195614E+03  0.15500000000E+01 0.  1.
         -4    1    3    3    0  501 -0.53274457463E+02 -0.92922220235E+01  0.15222249856E+03  0.16155062605E+03  0.15500000000E+01 0.  1.
<mgrwt>
<rscale>  2 0.12499596E+03</rscale>
<asrwt>0</asrwt>
<pdfrwt beam="1">  1       21 0.96673268E-01 0.12499596E+03</pdfrwt>
<pdfrwt beam="2">  1       21 0.95631031E-03 0.12499596E+03</pdfrwt>
<totfact> 0.35577106E+06</totfact>
</mgrwt>
</event>
<event>
 5    0  0.1416424E+000  0.1250598E+03  0.7546771E-02  0.1234976E+00
         21   -1    0    0  503  502  0.00000000000E+00  0.00000000000E+00  0.17996583131E+02  0.17996583131E+02  0.00000000000E+00 0.  1.
         21   -1    0    0  502  503 -0.00000000000E+00 -0.00000000000E+00 -0.21726271053E+03  0.21726271053E+03  0.00000000000E+00 0.  1.
         25    2    1    2    0    0  0.00000000000E+00  0.00000000000E+00 -0.19926612740E+03  0.23525929367E+03  0.12505976861E+03 0.  0.
          4    1    3    3  501    0 -0.41051421882E+02  0.18961296841E+02 -0.18440503492E+02  0.48859028699E+02  0.15500000000E+01 0.  1.
         -4    1    3    3    0  501  0.41051421882E+02 -0.18961296841E+02 -0.18082562391E+03  0.18640026497E+03  0.15500000000E+01 0.  1.
<mgrwt>
<rscale>  2 0.12505977E+03</rscale>
<asrwt>0</asrwt>
<pdfrwt beam="1">  1       21 0.27687051E-02 0.12505977E+03</pdfrwt>
<pdfrwt beam="2">  1       21 0.33425032E-01 0.12505977E+03</pdfrwt>
<totfact> 0.61202093E+06</totfact>
</mgrwt>
</event>
<event>
 5    0  0.1222151E+000  0.1250060E+03  0.7546771E-02  0.1235060E+00
         21   -1    0    0  503  502  0.00000000000E+00  0.00000000000E+00  0.83176264092E+03  0.83176264092E+03  0.00000000000E+00 0.  1.
         21   -1    0    0  502  503 -0.00000000000E+00 -0.00000000000E+00 -0.46968011691E+01  0.46968011691E+01  0.00000000000E+00 0.  1.
         25    2    1    2    0    0  0.00000000000E+00  0.00000000000E+00  0.82706583975E+03  0.83645944209E+03  0.12500597977E+03 0.  0.
          4    1    3    3  501    0  0.62793710659E+01 -0.61426492979E+02  0.34949951387E+03  0.35491542265E+03  0.15500000000E+01 0.  1.
         -4    1    3    3    0  501 -0.62793710659E+01  0.61426492979E+02  0.47756632588E+03  0.48154401944E+03  0.15500000000E+01 0.  1.
<mgrwt>
<rscale>  2 0.12500598E+03</rscale>
<asrwt>0</asrwt>
<pdfrwt beam="1">  1       21 0.12796337E+00 0.12500598E+03</pdfrwt>
<pdfrwt beam="2">  1       21 0.72258546E-03 0.12500598E+03</pdfrwt>
<totfact> 0.28185772E+06</totfact>
</mgrwt>
</event>
<event>
 5    0  0.1222151E+000  0.1250028E+03  0.7546771E-02  0.1235065E+00
         21   -1    0    0  503  502  0.00000000000E+00  0.00000000000E+00  0.42338500624E+01  0.42338500624E+01  0.00000000000E+00 0.  1.
         21   -1    0    0  502  503 -0.00000000000E+00 -0.00000000000E+00 -0.92266448130E+03  0.92266448130E+03  0.00000000000E+00 0.  1.
         25    2    1    2    0    0  0.00000000000E+00  0.00000000000E+00 -0.91843063124E+03  0.92689833137E+03  0.12500276912E+03 0.  0.
          4    1    3    3  501    0 -0.43163680194E+02 -0.35704616291E+02 -0.66445178465E+03  0.66681069243E+03  0.15500000000E+01 0.  1.
         -4    1    3    3    0  501  0.43163680194E+02  0.35704616291E+02 -0.25397884659E+03  0.26008763894E+03  0.15500000000E+01 0.  1.
<mgrwt>
<rscale>  2 0.12500277E+03</rscale>
<asrwt>0</asrwt>
<pdfrwt beam="1">  1       21 0.65136036E-03 0.12500277E+03</pdfrwt>
<pdfrwt beam="2">  1       21 0.14194864E+00 0.12500277E+03</pdfrwt>
<totfact> 0.25538488E+06</totfact>
</mgrwt>
</event>
<event>
 5    0  0.1641731E+000  0.1249991E+03  0.7546771E-02  0.1235071E+00
         21   -1    0    0  503  502  0.00000000000E+00  0.00000000000E+00  0.46804824026E+02  0.46804824026E+02  0.00000000000E+00 0.  1.
         21   -1    0    0  502  503 -0.00000000000E+00 -0.00000000000E+00 -0.83457138551E+02  0.83457138551E+02  0.00000000000E+00 0.  1.
         25    2    1    2    0    0  0.00000000000E+00  0.00000000000E+00 -0.36652314525E+02  0.13026196258E+03  0.12499914693E+03 0.  0.
          4    1    3    3  501    0 -0.59926984559E+01  0.61892367300E+02 -0.11968764768E+02  0.63342177061E+02  0.15500000000E+01 0. -1.
         -4    1    3    3    0  501  0.59926984559E+01 -0.61892367300E+02 -0.24683549757E+02  0.66919785515E+02  0.15500000000E+01 0. -1.
<mgrwt>
<rscale>  2 0.12499915E+03</rscale>
<asrwt>0</asrwt>
<pdfrwt beam="1">  1       21 0.72007423E-02 0.12499915E+03</pdfrwt>
<pdfrwt beam="2">  1       21 0.12839560E-01 0.12499915E+03</pdfrwt>
<totfact> 0.73331522E+06</totfact>
</mgrwt>
</event>
<event>
 5    0  0.1222151E+000  0.1249987E+03  0.7546771E-02  0.1235071E+00
         21   -1    0    0  503  502  0.00000000000E+00  0.00000000000E+00  0.12323771880E+04  0.12323771880E+04  0.00000000000E+00 0. -1.
         21   -1    0    0  502  503 -0.00000000000E+00 -0.00000000000E+00 -0.31696228276E+01  0.31696228276E+01  0.00000000000E+00 0. -1.
         25    2    1    2    0    0  0.00000000000E+00  0.00000000000E+00  0.12292075652E+04  0.12355468109E+04  0.12499873387E+03 0.  0.
          4    1    3    3  501    0 -0.49380006200E+02  0.33840252918E+02  0.43772397835E+03  0.44180112205E+03  0.15500000000E+01 0. -1.
         -4    1    3    3    0  501  0.49380006200E+02 -0.33840252918E+02  0.79148358688E+03  0.79374568882E+03  0.15500000000E+01 0. -1.
<mgrwt>
<rscale>  2 0.12499873E+03</rscale>
<asrwt>0</asrwt>
<pdfrwt beam="1">  1       21 0.18959611E+00 0.12499873E+03</pdfrwt>
<pdfrwt beam="2">  1       21 0.48763526E-03 0.12499873E+03</pdfrwt>
<totfact> 0.18449723E+06</totfact>
</mgrwt>
</event>
<event>
 5    0  0.1555249E+000  0.1249965E+03  0.7546771E-02  0.1235075E+00
         21   -1    0    0  503  502  0.00000000000E+00  0.00000000000E+00  0.15670358601E+03  0.15670358601E+03  0.00000000000E+00 0. -1.
         21   -1    0    0  502  503 -0.00000000000E+00 -0.00000000000E+00 -0.24926232728E+02  0.24926232728E+02  0.00000000000E+00 0. -1.
         25    2    1    2    0    0  0.00000000000E+00  0.00000000000E+00  0.13177735328E+03  0.18162981874E+03  0.12499648082E+03 0.  0.
          4    1    3    3  501    0  0.48276943275E+02 -0.19790131466E+02  0.11583140024E+03  0.12704970813E+03  0.15500000000E+01 0.  1.
         -4    1    3    3    0  501 -0.48276943275E+02  0.19790131466E+02  0.15945953045E+02  0.54580110607E+02  0.15500000000E+01 0.  1.
<mgrwt>
<rscale>  2 0.12499648E+03</rscale>
<asrwt>0</asrwt>
<pdfrwt beam="1">  1       21 0.24108243E-01 0.12499648E+03</pdfrwt>
<pdfrwt beam="2">  1       21 0.38348051E-02 0.12499648E+03</pdfrwt>
<totfact> 0.66971036E+06</totfact>
</mgrwt>
</event>
<event>
 5    0  0.1416203E+000  0.1250024E+03  0.7546771E-02  0.1235066E+00
         21   -1    0    0  503  502  0.00000000000E+00  0.00000000000E+00  0.12629894330E+02  0.12629894330E+02  0.00000000000E+00 0.  1.
         21   -1    0    0  502  503 -0.00000000000E+00 -0.00000000000E+00 -0.30929783501E+03  0.30929783501E+03  0.00000000000E+00 0.  1.
         25    2    1    2    0    0  0.00000000000E+00  0.00000000000E+00 -0.29666794068E+03  0.32192772934E+03  0.12500238354E+03 0.  0.
          4    1    3    3  501    0 -0.31491840821E+02 -0.50462385235E+02 -0.19759083422E+03  0.20635583013E+03  0.15500000000E+01 0. -1.
         -4    1    3    3    0  501  0.31491840821E+02  0.50462385235E+02 -0.99077106463E+02  0.11557189921E+03  0.15500000000E+01 0. -1.
<mgrwt>
<rscale>  2 0.12500238E+03</rscale>
<asrwt>0</asrwt>
<pdfrwt beam="1">  1       21 0.19430606E-02 0.12500238E+03</pdfrwt>
<pdfrwt beam="2">  1       21 0.47584285E-01 0.12500238E+03</pdfrwt>
<totfact> 0.53677721E+06</totfact>
</mgrwt>
</event>
<event>
 5    0  0.1483543E+000  0.1250019E+03  0.7546771E-02  0.1235066E+00
         21   -1    0    0  503  502  0.00000000000E+00  0.00000000000E+00  0.36164292152E+02  0.36164292152E+02  0.00000000000E+00 0.  1.
         21   -1    0    0  502  503 -0.00000000000E+00 -0.00000000000E+00 -0.10801726436E+03  0.10801726436E+03  0.00000000000E+00 0.  1.
         25    2    1    2    0    0  0.00000000000E+00  0.00000000000E+00 -0.71852972204E+02  0.14418155651E+03  0.12500188648E+03 0.  0.
          4    1    3    3  501    0  0.53404192870E+02  0.84681065407E+01 -0.72039296973E+02  0.90087620975E+02  0.15500000000E+01 0. -1.
         -4    1    3    3    0  501 -0.53404192870E+02 -0.84681065407E+01  0.18632476924E+00  0.54093935533E+02  0.15500000000E+01 0. -1.
<mgrwt>
<rscale>  2 0.12500189E+03</rscale>
<asrwt>0</asrwt>
<pdfrwt beam="1">  1       21 0.55637373E-02 0.12500189E+03</pdfrwt>
<pdfrwt beam="2">  1       21 0.16618041E-01 0.12500189E+03</pdfrwt>
<totfact> 0.71494569E+06</totfact>
</mgrwt>
</event>
<event>
 5    0  0.1600024E+000  0.1249988E+03  0.7546771E-02  0.1235071E+00
         21   -1    0    0  503  502  0.00000000000E+00  0.00000000000E+00  0.19965331961E+02  0.19965331961E+02  0.00000000000E+00 0. -1.
         21   -1    0    0  502  503 -0.00000000000E+00 -0.00000000000E+00 -0.19564787429E+03  0.19564787429E+03  0.00000000000E+00 0. -1.
         25    2    1    2    0    0  0.00000000000E+00  0.00000000000E+00 -0.17568254233E+03  0.21561320625E+03  0.12499879612E+03 0.  0.
          4    1    3    3  501    0 -0.54995443644E+02  0.27192980240E+02 -0.67445185965E+02  0.91187787591E+02  0.15500000000E+01 0.  1.
         -4    1    3    3    0  501  0.54995443644E+02 -0.27192980240E+02 -0.10823735636E+03  0.12442541866E+03  0.15500000000E+01 0.  1.
<mgrwt>
<rscale>  2 0.12499880E+03</rscale>
<asrwt>0</asrwt>
<pdfrwt beam="1">  1       21 0.30715895E-02 0.12499880E+03</pdfrwt>
<pdfrwt beam="2">  1       21 0.30099673E-01 0.12499880E+03</pdfrwt>
<totfact> 0.63275684E+06</totfact>
</mgrwt>
</event>
<event>
 5    0  0.1507179E+000  0.1250019E+03  0.7546771E-02  0.1235066E+00
         21   -1    0    0  503  502  0.00000000000E+00  0.00000000000E+00  0.27064921473E+02  0.27064921473E+02  0.00000000000E+00 0. -1.
         21   -1    0    0  502  503 -0.00000000000E+00 -0.00000000000E+00 -0.14433338748E+03  0.14433338748E+03  0.00000000000E+00 0. -1.
         25    2    1    2    0    0  0.00000000000E+00  0.00000000000E+00 -0.11726846601E+03  0.17139830896E+03  0.12500194876E+03 0.  0.
          4    1    3    3  501    0  0.46607097632E+01  0.47777831204E+02 -0.11347271082E+03  0.12321891889E+03  0.15500000000E+01 0.  1.
         -4    1    3    3    0  501 -0.46607097632E+01 -0.47777831204E+02 -0.37957551859E+01  0.48179390069E+02  0.15500000000E+01 0.  1.
<mgrwt>
<rscale>  2 0.12500195E+03</rscale>
<asrwt>0</asrwt>
<pdfrwt beam="1">  1       21 0.41638340E-02 0.12500195E+03</pdfrwt>
<pdfrwt beam="2">  1       21 0.22205137E-01 0.12500195E+03</pdfrwt>
<totfact> 0.68148888E+06</totfact>
</mgrwt>
</event>
<event>
 5    0  0.1511901E+000  0.1250010E+03  0.7546771E-02  0.1235068E+00
         21   -1    0    0  503  502  0.00000000000E+00  0.00000000000E+00  0.18616193207E+02  0.18616193207E+02  0.00000000000E+00 0.  1.
         21   -1    0    0  502  503 -0.00000000000E+00 -0.00000000000E+00 -0.20983411585E+03  0.20983411585E+03  0.00000000000E+00 0.  1.
         25    2    1    2    0    0  0.00000000000E+00  0.00000000000E+00 -0.19121792264E+03  0.22845030906E+03  0.12500099907E+03 0.  0.
          4    1    3    3  501    0  0.20011182780E+02  0.59159335274E+02 -0.99093647455E+02  0.11714191330E+03  0.15500000000E+01 0.  1.
         -4    1    3    3    0  501 -0.20011182780E+02 -0.59159335274E+02 -0.92124275189E+02  0.11130839575E+03  0.15500000000E+01 0.  1.
<mgrwt>
<rscale>  2 0.12500100E+03</rscale>
<asrwt>0</asrwt>
<pdfrwt beam="1">  1       21 0.28640298E-02 0.12500100E+03</pdfrwt>
<pdfrwt beam="2">  1       21 0.32282171E-01 0.12500100E+03</pdfrwt>
<totfact> 0.61966977E+06</totfact>
</mgrwt>
</event>
<event>
 5    0  0.1342112E+000  0.1249997E+03  0.7546771E-02  0.1235070E+00
         21   -1    0    0  503  502  0.00000000000E+00  0.00000000000E+00  0.43533900343E+03  0.43533900343E+03  0.00000000000E+00 0. -1.
         21   -1    0    0  502  503 -0.00000000000E+00 -0.00000000000E+00 -0.89728443249E+01  0.89728443249E+01  0.00000000000E+00 0. -1.
         25    2    1    2    0    0  0.00000000000E+00  0.00000000000E+00  0.42636615911E+03  0.44431184776E+03  0.12499966570E+03 0.  0.
          4    1    3    3  501    0  0.25978654511E+02  0.22095142118E+02  0.39926879042E+03  0.40072566090E+03  0.15500000000E+01 0. -1.
         -4    1    3    3    0  501 -0.25978654511E+02 -0.22095142118E+02  0.27097368685E+02  0.43586186861E+02  0.15500000000E+01 0. -1.
<mgrwt>
<rscale>  2 0.12499967E+03</rscale>
<asrwt>0</asrwt>
<pdfrwt beam="1">  1       21 0.66975215E-01 0.12499967E+03</pdfrwt>
<pdfrwt beam="2">  1       21 0.13804379E-02 0.12499967E+03</pdfrwt>
<totfact> 0.45234985E+06</totfact>
</mgrwt>
</event>
<event>
 5    0  0.1222151E+000  0.1249629E+03  0.7546771E-02  0.1235127E+00
         21   -1    0    0  503  502  0.00000000000E+00  0.00000000000E+00  0.32659089641E+01  0.32659089641E+01  0.00000000000E+00 0. -1.
         21   -1    0    0  502  503 -0.00000000000E+00 -0.00000000000E+00 -0.11953582023E+04  0.11953582023E+04  0.00000000000E+00 0. -1.
         25    2    1    2    0    0  0.00000000000E+00  0.00000000000E+00 -0.11920922934E+04  0.11986241113E+04  0.12496289159E+03 0.  0.
          4    1    3    3  501    0 -0.99119749295E+01  0.59082479230E+02 -0.76561891720E+03  0.76796075126E+03  0.15500000000E+01 0.  1.
         -4    1    3    3    0  501  0.99119749295E+01 -0.59082479230E+02 -0.42647337618E+03  0.43066336005E+03  0.15500000000E+01 0.  1.
<mgrwt>
<rscale>  2 0.12496289E+03</rscale>
<asrwt>0</asrwt>
<pdfrwt beam="1">  1       21 0.50244739E-03 0.12496289E+03</pdfrwt>
<pdfrwt beam="2">  1       21 0.18390132E+00 0.12496289E+03</pdfrwt>
<totfact> 0.19188435E+06</totfact>
</mgrwt>
</event>
<event>
 5    0  0.1494768E+000  0.1250190E+03  0.7546771E-02  0.1235040E+00
         21   -1    0    0  503  502  0.00000000000E+00  0.00000000000E+00  0.23349889698E+03  0.23349889698E+03  0.00000000000E+00 0. -1.
         21   -1    0    0  502  503 -0.00000000000E+00 -0.00000000000E+00 -0.16734300150E+02  0.16734300150E+02  0.00000000000E+00 0. -1.
         25    2    1    2    0    0  0.00000000000E+00  0.00000000000E+00  0.21676459683E+03  0.25023319713E+03  0.12501904858E+03 0.  0.
          4    1    3    3  501    0  0.59408245329E+02 -0.18945785976E+02  0.11657543358E+03  0.13221390484E+03  0.15500000000E+01 0. -1.
         -4    1    3    3    0  501 -0.59408245329E+02  0.18945785976E+02  0.10018916325E+03  0.11801929229E+03  0.15500000000E+01 0. -1.
<mgrwt>
<rscale>  2 0.12501905E+03</rscale>
<asrwt>0</asrwt>
<pdfrwt beam="1">  1       21 0.35922905E-01 0.12501905E+03</pdfrwt>
<pdfrwt beam="2">  1       21 0.25745079E-02 0.12501905E+03</pdfrwt>
<totfact> 0.59827510E+06</totfact>
</mgrwt>
</event>
<event>
 5    0  0.1522840E+000  0.1249987E+03  0.7546771E-02  0.1235071E+00
         21   -1    0    0  503  502  0.00000000000E+00  0.00000000000E+00  0.83278304112E+02  0.83278304112E+02  0.00000000000E+00 0. -1.
         21   -1    0    0  502  503 -0.00000000000E+00 -0.00000000000E+00 -0.46904983057E+02  0.46904983057E+02  0.00000000000E+00 0. -1.
         25    2    1    2    0    0  0.00000000000E+00  0.00000000000E+00  0.36373321056E+02  0.13018328717E+03  0.12499867909E+03 0.  0.
          4    1    3    3  501    0 -0.35515795623E+02 -0.11791744245E+02  0.70295382381E+02  0.79650864749E+02  0.15500000000E+01 0.  1.
         -4    1    3    3    0  501  0.35515795623E+02  0.11791744245E+02 -0.33922061325E+02  0.50532422420E+02  0.15500000000E+01 0.  1.
<mgrwt>
<rscale>  2 0.12499868E+03</rscale>
<asrwt>0</asrwt>
<pdfrwt beam="1">  1       21 0.12812047E-01 0.12499868E+03</pdfrwt>
<pdfrwt beam="2">  1       21 0.72161512E-02 0.12499868E+03</pdfrwt>
<totfact> 0.73342902E+06</totfact>
</mgrwt>
</event>
<event>
 5    0  0.1222151E+000  0.1249674E+03  0.7546771E-02  0.1235120E+00
         21   -1    0    0  503  502  0.00000000000E+00  0.00000000000E+00  0.98124259065E+03  0.98124259065E+03  0.00000000000E+00 0.  1.
         21   -1    0    0  502  503 -0.00000000000E+00 -0.00000000000E+00 -0.39788466415E+01  0.39788466415E+01  0.00000000000E+00 0.  1.
         25    2    1    2    0    0  0.00000000000E+00  0.00000000000E+00  0.97726374401E+03  0.98522143729E+03  0.12496741633E+03 0.  0.
          4    1    3    3  501    0  0.57959581117E+02 -0.40914987441E+01  0.30786037365E+03  0.31329932265E+03  0.15500000000E+01 0. -1.
         -4    1    3    3    0  501 -0.57959581117E+02  0.40914987441E+01  0.66940337036E+03  0.67192211465E+03  0.15500000000E+01 0. -1.
<mgrwt>
<rscale>  2 0.12496742E+03</rscale>
<asrwt>0</asrwt>
<pdfrwt beam="1">  1       21 0.15096021E+00 0.12496742E+03</pdfrwt>
<pdfrwt beam="2">  1       21 0.61213103E-03 0.12496742E+03</pdfrwt>
<totfact> 0.24010890E+06</totfact>
</mgrwt>
</event>
<event>
 5    0  0.1222151E+000  0.1249719E+03  0.7546771E-02  0.1235113E+00
         21   -1    0    0  503  502  0.00000000000E+00  0.00000000000E+00  0.10586666870E+04  0.10586666870E+04  0.00000000000E+00 0. -1.
         21   -1    0    0  502  503 -0.00000000000E+00 -0.00000000000E+00 -0.36881242112E+01  0.36881242112E+01  0.00000000000E+00 0. -1.
         25    2    1    2    0    0  0.00000000000E+00  0.00000000000E+00  0.10549785628E+04  0.10623548112E+04  0.12497190468E+03 0.  0.
          4    1    3    3  501    0  0.38274052810E+02 -0.89984926257E+01  0.94012301330E+03  0.94094609762E+03  0.15500000000E+01 0.  1.
         -4    1    3    3    0  501 -0.38274052810E+02  0.89984926257E+01  0.11485554951E+03  0.12140871361E+03  0.15500000000E+01 0.  1.
<mgrwt>
<rscale>  2 0.12497190E+03</rscale>
<asrwt>0</asrwt>
<pdfrwt beam="1">  1       21 0.16287156E+00 0.12497190E+03</pdfrwt>
<pdfrwt beam="2">  1       21 0.56740457E-03 0.12497190E+03</pdfrwt>
<totfact> 0.22124066E+06</totfact>
</mgrwt>
</event>
<event>
 5    0  0.1371270E+000  0.1249946E+03  0.7546771E-02  0.1235078E+00
         21   -1    0    0  503  502  0.00000000000E+00  0.00000000000E+00  0.92473899382E+01  0.92473899382E+01  0.00000000000E+00 0.  1.
         21   -1    0    0  502  503 -0.00000000000E+00 -0.00000000000E+00 -0.42237983070E+03  0.42237983070E+03  0.00000000000E+00 0.  1.
         25    2    1    2    0    0  0.00000000000E+00  0.00000000000E+00 -0.41313244076E+03  0.43162722064E+03  0.12499457583E+03 0.  0.
          4    1    3    3  501    0  0.34482578416E+02  0.40816569673E+02 -0.94752465353E+02  0.10879095902E+03  0.15500000000E+01 0. -1.
         -4    1    3    3    0  501 -0.34482578416E+02 -0.40816569673E+02 -0.31837997541E+03  0.32283626162E+03  0.15500000000E+01 0. -1.
<mgrwt>
<rscale>  2 0.12499458E+03</rscale>
<asrwt>0</asrwt>
<pdfrwt beam="1">  1       21 0.14226751E-02 0.12499458E+03</pdfrwt>
<pdfrwt beam="2">  1       21 0.64981523E-01 0.12499458E+03</pdfrwt>
<totfact> 0.46018167E+06</totfact>
</mgrwt>
</event>
<event>
 5    0  0.1535250E+000  0.1249971E+03  0.7546771E-02  0.1235074E+00
         21   -1    0    0  503  502  0.00000000000E+00  0.00000000000E+00  0.17576593778E+02  0.17576593778E+02  0.00000000000E+00 0.  1.
         21   -1    0    0  502  503 -0.00000000000E+00 -0.00000000000E+00 -0.22223114191E+03  0.22223114191E+03  0.00000000000E+00 0.  1.
         25    2    1    2    0    0  0.00000000000E+00  0.00000000000E+00 -0.20465454813E+03  0.23980773568E+03  0.12499706406E+03 0.  0.
          4    1    3    3  501    0  0.52452425335E+02  0.30000395489E+02 -0.71848764272E+02  0.93893173769E+02  0.15500000000E+01 0. -1.
         -4    1    3    3    0  501 -0.52452425335E+02 -0.30000395489E+02 -0.13280578386E+03  0.14591456191E+03  0.15500000000E+01 0. -1.
<mgrwt>
<rscale>  2 0.12499706E+03</rscale>
<asrwt>0</asrwt>
<pdfrwt beam="1">  1       21 0.27040912E-02 0.12499706E+03</pdfrwt>
<pdfrwt beam="2">  1       21 0.34189408E-01 0.12499706E+03</pdfrwt>
<totfact> 0.60855778E+06</totfact>
</mgrwt>
</event>
<event>
 5    0  0.1438074E+000  0.1249986E+03  0.7546771E-02  0.1235072E+00
         21   -1    0    0  503  502  0.00000000000E+00  0.00000000000E+00  0.20133601684E+02  0.20133601684E+02  0.00000000000E+00 0. -1.
         21   -1    0    0  502  503 -0.00000000000E+00 -0.00000000000E+00 -0.19401197083E+03  0.19401197083E+03  0.00000000000E+00 0. -1.
         25    2    1    2    0    0  0.00000000000E+00  0.00000000000E+00 -0.17387836915E+03  0.21414557252E+03  0.12499855588E+03 0.  0.
          4    1    3    3  501    0 -0.37297460706E+02 -0.21871682352E+02 -0.16420904511E+03  0.16981308565E+03  0.15500000000E+01 0. -1.
         -4    1    3    3    0  501  0.37297460706E+02  0.21871682352E+02 -0.96693240395E+01  0.44332486862E+02  0.15500000000E+01 0. -1.
<mgrwt>
<rscale>  2 0.12499856E+03</rscale>
<asrwt>0</asrwt>
<pdfrwt beam="1">  1       21 0.30974770E-02 0.12499856E+03</pdfrwt>
<pdfrwt beam="2">  1       21 0.29847997E-01 0.12499856E+03</pdfrwt>
<totfact> 0.63428311E+06</totfact>
</mgrwt>
</event>
<event>
 5    0  0.1361358E+000  0.1250027E+03  0.7546771E-02  0.1235065E+00
         21   -1    0    0  503  502  0.00000000000E+00  0.00000000000E+00  0.35154964710E+03  0.35154964710E+03  0.00000000000E+00 0. -1.
         21   -1    0    0  502  503 -0.00000000000E+00 -0.00000000000E+00 -0.11111997510E+02  0.11111997510E+02  0.00000000000E+00 0. -1.
         25    2    1    2    0    0  0.00000000000E+00  0.00000000000E+00  0.34043764959E+03  0.36266164461E+03  0.12500270082E+03 0.  0.
          4    1    3    3  501    0 -0.27147476963E+02 -0.55979487912E+02  0.15346997059E+03  0.16560834201E+03  0.15500000000E+01 0. -1.
         -4    1    3    3    0  501  0.27147476963E+02  0.55979487912E+02  0.18696767900E+03  0.19705330260E+03  0.15500000000E+01 0. -1.
<mgrwt>
<rscale>  2 0.12500270E+03</rscale>
<asrwt>0</asrwt>
<pdfrwt beam="1">  1       21 0.54084552E-01 0.12500270E+03</pdfrwt>
<pdfrwt beam="2">  1       21 0.17095384E-02 0.12500270E+03</pdfrwt>
<totfact> 0.50613295E+06</totfact>
</mgrwt>
</event>
<event>
 5    0  0.1532453E+000  0.1250128E+03  0.7546771E-02  0.1235049E+00
         21   -1    0    0  503  502  0.00000000000E+00  0.00000000000E+00  0.30196773279E+02  0.30196773279E+02  0.00000000000E+00 0. -1.
         21   -1    0    0  502  503 -0.00000000000E+00 -0.00000000000E+00 -0.12938640948E+03  0.12938640948E+03  0.00000000000E+00 0. -1.
         25    2    1    2    0    0  0.00000000000E+00  0.00000000000E+00 -0.99189636206E+02  0.15958318276E+03  0.12501283250E+03 0.  0.
          4    1    3    3  501    0 -0.15828110901E+02 -0.58447619654E+02 -0.69288076082E+02  0.92032023367E+02  0.15500000000E+01 0. -1.
         -4    1    3    3    0  501  0.15828110901E+02  0.58447619654E+02 -0.29901560124E+02  0.67551159396E+02  0.15500000000E+01 0. -1.
<mgrwt>
<rscale>  2 0.12501283E+03</rscale>
<asrwt>0</asrwt>
<pdfrwt beam="1">  1       21 0.46456573E-02 0.12501283E+03</pdfrwt>
<pdfrwt beam="2">  1       21 0.19905602E-01 0.12501283E+03</pdfrwt>
<totfact> 0.69547768E+06</totfact>
</mgrwt>
</event>
<event>
 5    0  0.1222151E+000  0.1250076E+03  0.7546771E-02  0.1235057E+00
         21   -1    0    0  503  502  0.00000000000E+00  0.00000000000E+00  0.24046465400E+01  0.24046465400E+01  0.00000000000E+00 0. -1.
         21   -1    0    0  502  503 -0.00000000000E+00 -0.00000000000E+00 -0.16246559445E+04  0.16246559445E+04  0.00000000000E+00 0. -1.
         25    2    1    2    0    0  0.00000000000E+00  0.00000000000E+00 -0.16222512980E+04  0.16270605910E+04  0.12500757250E+03 0.  0.
          4    1    3    3  501    0  0.28455140576E+02  0.79194725909E+01 -0.15278058290E+04  0.15280921002E+04  0.15500000000E+01 0.  1.
         -4    1    3    3    0  501 -0.28455140576E+02 -0.79194725909E+01 -0.94445468905E+02  0.98968490784E+02  0.15500000000E+01 0.  1.
<mgrwt>
<rscale>  2 0.12500757E+03</rscale>
<asrwt>0</asrwt>
<pdfrwt beam="1">  1       21 0.36994446E-03 0.12500757E+03</pdfrwt>
<pdfrwt beam="2">  1       21 0.24994786E+00 0.12500757E+03</pdfrwt>
<totfact> 0.12207576E+06</totfact>
</mgrwt>
</event>
<event>
 5    0  0.1469745E+000  0.1250842E+03  0.7546771E-02  0.1234938E+00
         21   -1    0    0  503  502  0.00000000000E+00  0.00000000000E+00  0.17640279567E+03  0.17640279567E+03  0.00000000000E+00 0. -1.
         21   -1    0    0  502  503 -0.00000000000E+00 -0.00000000000E+00 -0.22173773658E+02  0.22173773658E+02  0.00000000000E+00 0. -1.
         25    2    1    2    0    0  0.00000000000E+00  0.00000000000E+00  0.15422902201E+03  0.19857656932E+03  0.12508422225E+03 0.  0.
          4    1    3    3  501    0 -0.44470818826E+02  0.17039727153E+02  0.14142679563E+03  0.14923788745E+03  0.15500000000E+01 0.  1.
         -4    1    3    3    0  501  0.44470818826E+02 -0.17039727153E+02  0.12802226374E+02  0.49338681869E+02  0.15500000000E+01 0.  1.
<mgrwt>
<rscale>  2 0.12508422E+03</rscale>
<asrwt>0</asrwt>
<pdfrwt beam="1">  1       21 0.27138891E-01 0.12508422E+03</pdfrwt>
<pdfrwt beam="2">  1       21 0.34113499E-02 0.12508422E+03</pdfrwt>
<totfact> 0.64943079E+06</totfact>
</mgrwt>
</event>
<event>
 5    0  0.1222151E+000  0.1250013E+03  0.7546771E-02  0.1235067E+00
         21   -1    0    0  503  502  0.00000000000E+00  0.00000000000E+00  0.46804654960E+01  0.46804654960E+01  0.00000000000E+00 0.  1.
         21   -1    0    0  502  503 -0.00000000000E+00 -0.00000000000E+00 -0.83460334509E+03  0.83460334509E+03  0.00000000000E+00 0.  1.
         25    2    1    2    0    0  0.00000000000E+00  0.00000000000E+00 -0.82992287959E+03  0.83928381058E+03  0.12500131454E+03 0.  0.
          4    1    3    3  501    0  0.41020300993E+02 -0.29529098403E+02 -0.66159264723E+03  0.66352231773E+03  0.15500000000E+01 0.  1.
         -4    1    3    3    0  501 -0.41020300993E+02  0.29529098403E+02 -0.16833023235E+03  0.17576149286E+03  0.15500000000E+01 0.  1.
<mgrwt>
<rscale>  2 0.12500131E+03</rscale>
<asrwt>0</asrwt>
<pdfrwt beam="1">  1       21 0.72007092E-03 0.12500131E+03</pdfrwt>
<pdfrwt beam="2">  1       21 0.12840064E+00 0.12500131E+03</pdfrwt>
<totfact> 0.28100994E+06</totfact>
</mgrwt>
</event>
<event>
 5    0  0.1534436E+000  0.1250024E+03  0.7546771E-02  0.1235065E+00
         21   -1    0    0  503  502  0.00000000000E+00  0.00000000000E+00  0.22708122276E+03  0.22708122276E+03  0.00000000000E+00 0. -1.
         21   -1    0    0  502  503 -0.00000000000E+00 -0.00000000000E+00 -0.17202661185E+02  0.17202661185E+02  0.00000000000E+00 0. -1.
         25    2    1    2    0    0  0.00000000000E+00  0.00000000000E+00  0.20987856158E+03  0.24428388395E+03  0.12500242136E+03 0.  0.
          4    1    3    3  501    0  0.40630766813E+02 -0.29177149698E+02  0.31770702379E+02  0.59278540012E+02  0.15500000000E+01 0.  1.
         -4    1    3    3    0  501 -0.40630766813E+02  0.29177149698E+02  0.17810785920E+03  0.18500534394E+03  0.15500000000E+01 0.  1.
<mgrwt>
<rscale>  2 0.12500242E+03</rscale>
<asrwt>0</asrwt>
<pdfrwt beam="1">  1       21 0.34935571E-01 0.12500242E+03</pdfrwt>
<pdfrwt beam="2">  1       21 0.26465634E-02 0.12500242E+03</pdfrwt>
<totfact> 0.60416878E+06</totfact>
</mgrwt>
</event>
<event>
 5    0  0.1537141E+000  0.1249664E+03  0.7546771E-02  0.1235122E+00
         21   -1    0    0  503  502  0.00000000000E+00  0.00000000000E+00  0.54301424795E+02  0.54301424795E+02  0.00000000000E+00 0.  1.
         21   -1    0    0  502  503 -0.00000000000E+00 -0.00000000000E+00 -0.71897782056E+02  0.71897782056E+02  0.00000000000E+00 0.  1.
         25    2    1    2    0    0  0.00000000000E+00  0.00000000000E+00 -0.17596357261E+02  0.12619920685E+03  0.12496642758E+03 0.  0.
          4    1    3    3  501    0  0.39522142445E+02  0.22658534164E+02  0.34359110423E+02  0.57082045189E+02  0.15500000000E+01 0. -1.
         -4    1    3    3    0  501 -0.39522142445E+02 -0.22658534164E+02 -0.51955467685E+02  0.69117161662E+02  0.15500000000E+01 0. -1.
<mgrwt>
<rscale>  2 0.12496643E+03</rscale>
<asrwt>0</asrwt>
<pdfrwt beam="1">  1       21 0.83540653E-02 0.12496643E+03</pdfrwt>
<pdfrwt beam="2">  1       21 0.11061197E-01 0.12496643E+03</pdfrwt>
<totfact> 0.73941942E+06</totfact>
</mgrwt>
</event>
<event>
 5    0  0.1384077E+000  0.1250010E+03  0.7546771E-02  0.1235068E+00
         21   -1    0    0  503  502  0.00000000000E+00  0.00000000000E+00  0.86272527822E+01  0.86272527822E+01  0.00000000000E+00 0.  1.
         21   -1    0    0  502  503 -0.00000000000E+00 -0.00000000000E+00 -0.45278732930E+03  0.45278732930E+03  0.00000000000E+00 0.  1.
         25    2    1    2    0    0  0.00000000000E+00  0.00000000000E+00 -0.44416007652E+03  0.46141458208E+03  0.12500097194E+03 0.  0.
          4    1    3    3  501    0 -0.71899357093E+01  0.57867955753E+02 -0.30490918154E+03  0.31043905516E+03  0.15500000000E+01 0. -1.
         -4    1    3    3    0  501  0.71899357093E+01 -0.57867955753E+02 -0.13925089498E+03  0.15097552693E+03  0.15500000000E+01 0. -1.
<mgrwt>
<rscale>  2 0.12500097E+03</rscale>
<asrwt>0</asrwt>
<pdfrwt beam="1">  1       21 0.13272698E-02 0.12500097E+03</pdfrwt>
<pdfrwt beam="2">  1       21 0.69659583E-01 0.12500097E+03</pdfrwt>
<totfact> 0.44215962E+06</totfact>
</mgrwt>
</event>
<event>
 5    0  0.1530342E+000  0.1249987E+03  0.7546771E-02  0.1235071E+00
         21   -1    0    0  503  502  0.00000000000E+00  0.00000000000E+00  0.93260008516E+02  0.93260008516E+02  0.00000000000E+00 0.  1.
         21   -1    0    0  502  503 -0.00000000000E+00 -0.00000000000E+00 -0.41884701358E+02  0.41884701358E+02  0.00000000000E+00 0.  1.
         25    2    1    2    0    0  0.00000000000E+00  0.00000000000E+00  0.51375307158E+02  0.13514470987E+03  0.12499868168E+03 0.  0.
          4    1    3    3  501    0 -0.45824928056E+02 -0.40334725486E+02  0.11305625882E+02  0.62105022245E+02  0.15500000000E+01 0.  1.
         -4    1    3    3    0  501  0.45824928056E+02  0.40334725486E+02  0.40069681275E+02  0.73039687629E+02  0.15500000000E+01 0.  1.
<mgrwt>
<rscale>  2 0.12499868E+03</rscale>
<asrwt>0</asrwt>
<pdfrwt beam="1">  1       21 0.14347694E-01 0.12499868E+03</pdfrwt>
<pdfrwt beam="2">  1       21 0.64438002E-02 0.12499868E+03</pdfrwt>
<totfact> 0.72679761E+06</totfact>
</mgrwt>
</event>
<event>
 5    0  0.1222151E+000  0.1249980E+03  0.7546771E-02  0.1235072E+00
         21   -1    0    0  503  502  0.00000000000E+00  0.00000000000E+00  0.72118770221E+03  0.72118770221E+03  0.00000000000E+00 0. -1.
         21   -1    0    0  502  503 -0.00000000000E+00 -0.00000000000E+00 -0.54162380687E+01  0.54162380687E+01  0.00000000000E+00 0. -1.
         25    2    1    2    0    0  0.00000000000E+00  0.00000000000E+00  0.71577146414E+03  0.72660394028E+03  0.12499798858E+03 0.  0.
          4    1    3    3  501    0  0.57276080968E+02  0.64018898055E+01  0.21762813239E+03  0.22513538183E+03  0.15500000000E+01 0. -1.
         -4    1    3    3    0  501 -0.57276080968E+02 -0.64018898055E+01  0.49814333176E+03  0.50146855846E+03  0.15500000000E+01 0. -1.
<mgrwt>
<rscale>  2 0.12499799E+03</rscale>
<asrwt>0</asrwt>
<pdfrwt beam="1">  1       21 0.11095188E+00 0.12499799E+03</pdfrwt>
<pdfrwt beam="2">  1       21 0.83326797E-03 0.12499799E+03</pdfrwt>
<totfact> 0.31910965E+06</totfact>
</mgrwt>
</event>
